Generated by trjconv : CNT in water t= 351.00000
33518
    1C        C    1   2.850   2.775   4.749
    1C        C    2   2.902   2.726   4.871
    1C        C    3   2.843   2.777   4.987
    1C        C    4   2.850   2.778   4.261
    1C        C    5   2.900   2.727   4.383
    1C        C    6   2.850   2.773   4.507
    1C        C    7   3.016   2.641   4.625
    1C        C    8   2.901   2.724   4.628
    1C        C    9   3.076   2.603   4.747
    1C        C   10   3.013   2.639   4.868
    1C        C   11   3.182   2.495   4.977
    1C        C   12   3.059   2.562   4.976
    1C        C   13   2.848   2.776   3.774
    1C        C   14   2.904   2.728   3.894
    1C        C   15   2.851   2.776   4.016
    1C        C   16   3.021   2.651   4.139
    1C        C   17   2.906   2.733   4.139
    1C        C   18   3.084   2.616   4.260
    1C        C   19   3.018   2.649   4.381
    1C        C   20   3.212   2.562   4.505
    1C        C   21   3.080   2.613   4.503
    1C        C   22   3.281   2.538   4.626
    1C        C   23   3.209   2.553   4.747
    1C        C   24   3.414   2.488   4.868
    1C        C   25   3.272   2.511   4.867
    1C        C   26   3.491   2.482   4.985
    1C        C   27   2.851   2.772   3.284
    1C        C   28   2.904   2.728   3.407
    1C        C   29   2.854   2.777   3.530
    1C        C   30   3.021   2.648   3.653
    1C        C   31   2.910   2.735   3.653
    1C        C   32   3.078   2.606   3.775
    1C        C   33   3.015   2.641   3.897
    1C        C   34   3.210   2.553   4.016
    1C        C   35   3.080   2.609   4.018
    1C        C   36   3.277   2.528   4.138
    1C        C   37   3.213   2.558   4.260
    1C        C   38   3.415   2.502   4.382
    1C        C   39   3.280   2.541   4.383
    1C        C   40   3.487   2.495   4.503
    1C        C   41   3.419   2.509   4.626
    1C        C   42   3.631   2.487   4.748
    1C        C   43   3.489   2.491   4.748
    1C        C   44   3.709   2.488   4.866
    1C        C   45   3.630   2.480   4.981
    1C        C   46   2.843   2.762   2.793
    1C        C   47   2.897   2.714   2.915
    1C        C   48   2.848   2.764   3.038
    1C        C   49   3.019   2.643   3.166
    1C        C   50   2.906   2.728   3.161
    1C        C   51   3.083   2.613   3.289
    1C        C   52   3.023   2.651   3.411
    1C        C   53   3.217   2.561   3.530
    1C        C   54   3.087   2.617   3.532
    1C        C   55   3.281   2.535   3.652
    1C        C   56   3.209   2.553   3.773
    1C        C   57   3.419   2.511   3.895
    1C        C   58   3.280   2.536   3.894
    1C        C   59   3.490   2.507   4.017
    1C        C   60   3.417   2.510   4.138
    1C        C   61   3.628   2.499   4.262
    1C        C   62   3.487   2.496   4.260
    1C        C   63   3.700   2.508   4.383
    1C        C   64   3.629   2.499   4.505
    1C        C   65   3.837   2.541   4.623
    1C        C   66   3.701   2.502   4.626
    1C        C   67   3.906   2.565   4.744
    1C        C   68   3.845   2.523   4.865
    1C        C   69   4.047   2.591   4.981
    1C        C   70   3.921   2.530   4.983
    1C        C   71   2.826   2.737   2.309
    1C        C   72   2.885   2.695   2.430
    1C        C   73   2.836   2.749   2.551
    1C        C   74   3.012   2.631   2.674
    1C        C   75   2.893   2.707   2.673
    1C        C   76   3.073   2.600   2.797
    1C        C   77   3.016   2.638   2.920
    1C        C   78   3.208   2.552   3.039
    1C        C   79   3.079   2.608   3.043
    1C        C   80   3.276   2.531   3.161
    1C        C   81   3.211   2.553   3.284
    1C        C   82   3.418   2.506   3.404
    1C        C   83   3.279   2.533   3.406
    1C        C   84   3.487   2.495   3.527
    1C        C   85   3.420   2.507   3.651
    1C        C   86   3.631   2.500   3.772
    1C        C   87   3.489   2.497   3.773
    1C        C   88   3.700   2.509   3.894
    1C        C   89   3.631   2.508   4.017
    1C        C   90   3.835   2.553   4.139
    1C        C   91   3.699   2.513   4.141
    1C        C   92   3.903   2.576   4.261
    1C        C   93   3.837   2.544   4.382
    1C        C   94   4.027   2.640   4.500
    1C        C   95   3.905   2.569   4.503
    1C        C   96   4.088   2.679   4.622
    1C        C   97   4.031   2.632   4.743
    1C        C   98   4.192   2.767   4.864
    1C        C   99   4.097   2.659   4.866
    1C        C  100   4.207   2.848   4.977
    1C        C  101   2.824   2.728   2.072
    1C        C  102   2.995   2.593   2.193
    1C        C  103   2.880   2.679   2.191
    1C        C  104   3.067   2.574   2.314
    1C        C  105   3.004   2.618   2.432
    1C        C  106   3.205   2.540   2.554
    1C        C  107   3.075   2.597   2.552
    1C        C  108   3.275   2.532   2.676
    1C        C  109   3.205   2.548   2.798
    1C        C  110   3.415   2.500   2.917
    1C        C  111   3.275   2.523   2.918
    1C        C  112   3.485   2.496   3.040
    1C        C  113   3.416   2.507   3.163
    1C        C  114   3.631   2.502   3.279
    1C        C  115   3.490   2.501   3.283
    1C        C  116   3.699   2.512   3.403
    1C        C  117   3.629   2.503   3.525
    1C        C  118   3.835   2.545   3.649
    1C        C  119   3.698   2.510   3.648
    1C        C  120   3.900   2.575   3.770
    1C        C  121   3.834   2.555   3.894
    1C        C  122   4.023   2.647   4.015
    1C        C  123   3.899   2.579   4.017
    1C        C  124   4.089   2.676   4.136
    1C        C  125   4.030   2.637   4.258
    1C        C  126   4.198   2.768   4.378
    1C        C  127   4.090   2.677   4.379
    1C        C  128   4.243   2.824   4.500
    1C        C  129   4.194   2.771   4.622
    1C        C  130   4.332   2.934   4.744
    1C        C  131   4.244   2.822   4.744
    1C        C  132   4.363   3.001   4.865
    1C        C  133   4.293   2.957   4.978
    1C        C  134   3.179   2.477   2.081
    1C        C  135   3.044   2.514   2.084
    1C        C  136   3.263   2.480   2.193
    1C        C  137   3.200   2.522   2.312
    1C        C  138   3.409   2.482   2.430
    1C        C  139   3.270   2.505   2.433
    1C        C  140   3.481   2.487   2.552
    1C        C  141   3.413   2.502   2.674
    1C        C  142   3.626   2.497   2.794
    1C        C  143   3.485   2.494   2.795
    1C        C  144   3.697   2.505   2.916
    1C        C  145   3.626   2.500   3.038
    1C        C  146   3.840   2.534   3.156
    1C        C  147   3.702   2.505   3.157
    1C        C  148   3.904   2.563   3.279
    1C        C  149   3.837   2.542   3.401
    1C        C  150   4.026   2.630   3.525
    1C        C  151   3.901   2.565   3.525
    1C        C  152   4.086   2.671   3.646
    1C        C  153   4.026   2.639   3.770
    1C        C  154   4.195   2.768   3.890
    1C        C  155   4.082   2.683   3.892
    1C        C  156   4.246   2.815   4.013
    1C        C  157   4.200   2.765   4.137
    1C        C  158   4.336   2.931   4.256
    1C        C  159   4.253   2.817   4.257
    1C        C  160   4.374   2.990   4.378
    1C        C  161   4.329   2.935   4.501
    1C        C  162   4.439   3.117   4.621
    1C        C  163   4.370   2.994   4.622
    1C        C  164   4.465   3.188   4.740
    1C        C  165   4.436   3.121   4.861
    1C        C  166   4.522   3.321   4.973
    1C        C  167   4.482   3.188   4.975
    1C        C  168   3.483   2.447   2.077
    1C        C  169   3.403   2.459   2.191
    1C        C  170   3.622   2.470   2.307
    1C        C  171   3.480   2.467   2.309
    1C        C  172   3.693   2.491   2.428
    1C        C  173   3.622   2.491   2.551
    1C        C  174   3.832   2.539   2.669
    1C        C  175   3.695   2.504   2.671
    1C        C  176   3.903   2.557   2.790
    1C        C  177   3.835   2.534   2.912
    1C        C  178   4.032   2.620   3.034
    1C        C  179   3.906   2.556   3.033
    1C        C  180   4.094   2.654   3.156
    1C        C  181   4.033   2.621   3.280
    1C        C  182   4.202   2.746   3.399
    1C        C  183   4.091   2.660   3.403
    1C        C  184   4.248   2.803   3.520
    1C        C  185   4.197   2.759   3.644
    1C        C  186   4.335   2.921   3.766
    1C        C  187   4.249   2.808   3.765
    1C        C  188   4.371   2.984   3.887
    1C        C  189   4.333   2.926   4.011
    1C        C  190   4.446   3.108   4.130
    1C        C  191   4.372   2.988   4.132
    1C        C  192   4.470   3.175   4.252
    1C        C  193   4.439   3.115   4.376
    1C        C  194   4.508   3.316   4.495
    1C        C  195   4.469   3.180   4.498
    1C        C  196   4.526   3.389   4.614
    1C        C  197   4.509   3.324   4.739
    1C        C  198   4.551   3.540   4.851
    1C        C  199   4.538   3.397   4.857
    1C        C  200   4.590   3.623   4.960
    1C        C  201   3.619   2.416   2.074
    1C        C  202   3.831   2.507   2.185
    1C        C  203   3.697   2.457   2.187
    1C        C  204   3.901   2.536   2.305
    1C        C  205   3.830   2.524   2.426
    1C        C  206   4.025   2.617   2.545
    1C        C  207   3.900   2.552   2.546
    1C        C  208   4.092   2.651   2.665
    1C        C  209   4.030   2.618   2.787
    1C        C  210   4.196   2.748   2.908
    1C        C  211   4.088   2.657   2.910
    1C        C  212   4.247   2.798   3.030
    1C        C  213   4.202   2.744   3.153
    1C        C  214   4.331   2.912   3.271
    1C        C  215   4.248   2.798   3.276
    1C        C  216   4.368   2.972   3.393
    1C        C  217   4.336   2.914   3.518
    1C        C  218   4.434   3.100   3.643
    1C        C  219   4.374   2.973   3.641
    1C        C  220   4.466   3.170   3.762
    1C        C  221   4.439   3.107   3.885
    1C        C  222   4.503   3.311   4.005
    1C        C  223   4.467   3.174   4.007
    1C        C  224   4.517   3.381   4.126
    1C        C  225   4.506   3.312   4.249
    1C        C  226   4.519   3.524   4.369
    1C        C  227   4.519   3.383   4.371
    1C        C  228   4.512   3.598   4.489
    1C        C  229   4.531   3.530   4.611
    1C        C  230   4.505   3.747   4.730
    1C        C  231   4.541   3.609   4.727
    1C        C  232   4.499   3.823   4.848
    1C        C  233   4.549   3.757   4.962
    1C        C  234   4.018   2.615   2.066
    1C        C  235   3.900   2.542   2.068
    1C        C  236   4.087   2.647   2.184
    1C        C  237   4.026   2.604   2.304
    1C        C  238   4.203   2.732   2.421
    1C        C  239   4.087   2.651   2.423
    1C        C  240   4.258   2.781   2.542
    1C        C  241   4.205   2.736   2.665
    1C        C  242   4.334   2.907   2.783
    1C        C  243   4.247   2.796   2.785
    1C        C  244   4.376   2.965   2.905
    1C        C  245   4.337   2.907   3.027
    1C        C  246   4.439   3.093   3.153
    1C        C  247   4.380   2.965   3.149
    1C        C  248   4.459   3.162   3.275
    1C        C  249   4.429   3.100   3.398
    1C        C  250   4.492   3.303   3.517
    1C        C  251   4.454   3.167   3.520
    1C        C  252   4.507   3.376   3.637
    1C        C  253   4.497   3.308   3.761
    1C        C  254   4.524   3.520   3.882
    1C        C  255   4.516   3.379   3.881
    1C        C  256   4.524   3.593   4.003
    1C        C  257   4.530   3.522   4.124
    1C        C  258   4.494   3.731   4.244
    1C        C  259   4.521   3.593   4.246
    1C        C  260   4.470   3.805   4.363
    1C        C  261   4.486   3.737   4.486
    1C        C  262   4.425   3.942   4.606
    1C        C  263   4.474   3.809   4.607
    1C        C  264   4.399   4.011   4.726
    1C        C  265   4.431   3.947   4.848
    1C        C  266   4.322   4.132   4.959
    1C        C  267   4.396   4.014   4.965
    1C        C  268   4.273   2.767   2.067
    1C        C  269   4.204   2.725   2.182
    1C        C  270   4.348   2.890   2.302
    1C        C  271   4.260   2.779   2.300
    1C        C  272   4.388   2.955   2.422
    1C        C  273   4.346   2.892   2.541
    1C        C  274   4.450   3.082   2.662
    1C        C  275   4.379   2.960   2.660
    1C        C  276   4.475   3.152   2.783
    1C        C  277   4.447   3.088   2.905
    1C        C  278   4.494   3.293   3.027
    1C        C  279   4.467   3.154   3.028
    1C        C  280   4.505   3.366   3.147
    1C        C  281   4.493   3.299   3.271
    1C        C  282   4.517   3.511   3.392
    1C        C  283   4.504   3.370   3.393
    1C        C  284   4.517   3.584   3.512
    1C        C  285   4.516   3.517   3.636
    1C        C  286   4.492   3.727   3.758
    1C        C  287   4.520   3.588   3.758
    1C        C  288   4.479   3.799   3.879
    1C        C  289   4.495   3.732   4.002
    1C        C  290   4.426   3.933   4.120
    1C        C  291   4.480   3.803   4.123
    1C        C  292   4.394   4.001   4.240
    1C        C  293   4.424   3.938   4.363
    1C        C  294   4.330   4.131   4.482
    1C        C  295   4.397   4.007   4.484
    1C        C  296   4.293   4.196   4.602
    1C        C  297   4.332   4.136   4.724
    1C        C  298   4.201   4.315   4.842
    1C        C  299   4.288   4.201   4.842
    1C        C  300   4.168   4.403   4.950
    1C        C  301   4.353   2.880   2.063
    1C        C  302   4.466   3.070   2.176
    1C        C  303   4.395   2.945   2.180
    1C        C  304   4.483   3.142   2.297
    1C        C  305   4.448   3.083   2.420
    1C        C  306   4.509   3.288   2.535
    1C        C  307   4.473   3.151   2.541
    1C        C  308   4.513   3.361   2.656
    1C        C  309   4.499   3.292   2.779
    1C        C  310   4.519   3.500   2.902
    1C        C  311   4.507   3.359   2.903
    1C        C  312   4.518   3.574   3.022
    1C        C  313   4.514   3.507   3.146
    1C        C  314   4.487   3.717   3.267
    1C        C  315   4.510   3.578   3.268
    1C        C  316   4.475   3.790   3.388
    1C        C  317   4.496   3.724   3.512
    1C        C  318   4.426   3.925   3.631
    1C        C  319   4.475   3.792   3.633
    1C        C  320   4.396   3.991   3.752
    1C        C  321   4.431   3.932   3.876
    1C        C  322   4.327   4.118   3.994
    1C        C  323   4.398   3.997   3.997
    1C        C  324   4.282   4.176   4.115
    1C        C  325   4.322   4.123   4.240
    1C        C  326   4.189   4.291   4.358
    1C        C  327   4.284   4.187   4.360
    1C        C  328   4.138   4.340   4.480
    1C        C  329   4.194   4.297   4.602
    1C        C  330   4.028   4.441   4.714
    1C        C  331   4.139   4.353   4.720
    1C        C  332   3.976   4.499   4.832
    1C        C  333   4.052   4.481   4.948
    1C        C  334   4.552   3.271   2.064
    1C        C  335   4.530   3.133   2.064
    1C        C  336   4.534   3.354   2.176
    1C        C  337   4.513   3.281   2.295
    1C        C  338   4.523   3.500   2.411
    1C        C  339   4.517   3.359   2.413
    1C        C  340   4.519   3.571   2.533
    1C        C  341   4.519   3.502   2.655
    1C        C  342   4.495   3.710   2.775
    1C        C  343   4.513   3.570   2.779
    1C        C  344   4.474   3.780   2.896
    1C        C  345   4.491   3.713   3.019
    1C        C  346   4.422   3.913   3.139
    1C        C  347   4.469   3.780   3.142
    1C        C  348   4.395   3.981   3.260
    1C        C  349   4.432   3.924   3.384
    1C        C  350   4.325   4.106   3.506
    1C        C  351   4.401   3.987   3.507
    1C        C  352   4.280   4.167   3.625
    1C        C  353   4.321   4.111   3.748
    1C        C  354   4.177   4.265   3.870
    1C        C  355   4.277   4.165   3.871
    1C        C  356   4.126   4.319   3.990
    1C        C  357   4.179   4.273   4.112
    1C        C  358   4.017   4.408   4.230
    1C        C  359   4.134   4.330   4.233
    1C        C  360   3.957   4.447   4.352
    1C        C  361   4.024   4.423   4.474
    1C        C  362   3.831   4.523   4.592
    1C        C  363   3.960   4.467   4.593
    1C        C  364   3.765   4.550   4.714
    1C        C  365   3.841   4.540   4.833
    1C        C  366   3.630   4.591   4.953
    1C        C  367   3.767   4.569   4.948
    1C        C  368   4.512   3.569   2.054
    1C        C  369   4.527   3.495   2.172
    1C        C  370   4.511   3.713   2.287
    1C        C  371   4.518   3.572   2.289
    1C        C  372   4.492   3.783   2.409
    1C        C  373   4.503   3.712   2.530
    1C        C  374   4.429   3.909   2.652
    1C        C  375   4.482   3.778   2.652
    1C        C  376   4.402   3.978   2.773
    1C        C  377   4.430   3.914   2.896
    1C        C  378   4.322   4.099   3.015
    1C        C  379   4.395   3.978   3.017
    1C        C  380   4.276   4.154   3.137
    1C        C  381   4.318   4.100   3.261
    1C        C  382   4.180   4.259   3.378
    1C        C  383   4.277   4.157   3.383
    1C        C  384   4.123   4.305   3.499
    1C        C  385   4.177   4.264   3.622
    1C        C  386   4.013   4.395   3.744
    1C        C  387   4.126   4.310   3.746
    1C        C  388   3.951   4.438   3.863
    1C        C  389   4.011   4.402   3.986
    1C        C  390   3.821   4.494   4.109
    1C        C  391   3.949   4.435   4.109
    1C        C  392   3.756   4.519   4.232
    1C        C  393   3.827   4.502   4.352
    1C        C  394   3.620   4.563   4.473
    1C        C  395   3.760   4.539   4.471
    1C        C  396   3.550   4.567   4.596
    1C        C  397   3.624   4.560   4.715
    1C        C  398   3.414   4.557   4.840
    1C        C  399   3.553   4.580   4.836
    1C        C  400   3.345   4.519   4.956
    1C        C  401   4.499   3.708   2.049
    1C        C  402   4.458   3.920   2.168
    1C        C  403   4.498   3.785   2.166
    1C        C  404   4.416   3.982   2.288
    1C        C  405   4.442   3.915   2.409
    1C        C  406   4.331   4.098   2.528
    1C        C  407   4.403   3.977   2.530
    1C        C  408   4.276   4.148   2.648
    1C        C  409   4.316   4.090   2.770
    1C        C  410   4.175   4.249   2.890
    1C        C  411   4.277   4.151   2.892
    1C        C  412   4.122   4.297   3.012
    1C        C  413   4.175   4.252   3.135
    1C        C  414   4.002   4.378   3.255
    1C        C  415   4.120   4.301   3.256
    1C        C  416   3.944   4.417   3.378
    1C        C  417   4.006   4.384   3.501
    1C        C  418   3.818   4.481   3.621
    1C        C  419   3.948   4.427   3.623
    1C        C  420   3.750   4.506   3.742
    1C        C  421   3.818   4.486   3.864
    1C        C  422   3.613   4.537   3.989
    1C        C  423   3.752   4.511   3.986
    1C        C  424   3.544   4.547   4.112
    1C        C  425   3.617   4.542   4.233
    1C        C  426   3.404   4.557   4.358
    1C        C  427   3.545   4.558   4.354
    1C        C  428   3.334   4.554   4.481
    1C        C  429   3.409   4.562   4.600
    1C        C  430   3.199   4.518   4.722
    1C        C  431   3.338   4.549   4.722
    1C        C  432   3.131   4.498   4.846
    1C        C  433   3.206   4.510   4.963
    1C        C  434   4.387   4.126   2.052
    1C        C  435   4.453   4.002   2.054
    1C        C  436   4.305   4.164   2.163
    1C        C  437   4.337   4.100   2.286
    1C        C  438   4.182   4.249   2.402
    1C        C  439   4.288   4.156   2.407
    1C        C  440   4.122   4.291   2.523
    1C        C  441   4.177   4.249   2.646
    1C        C  442   3.998   4.363   2.766
    1C        C  443   4.121   4.294   2.768
    1C        C  444   3.943   4.408   2.888
    1C        C  445   4.007   4.379   3.010
    1C        C  446   3.810   4.463   3.131
    1C        C  447   3.941   4.410   3.132
    1C        C  448   3.749   4.495   3.254
    1C        C  449   3.817   4.477   3.377
    1C        C  450   3.612   4.535   3.498
    1C        C  451   3.749   4.502   3.499
    1C        C  452   3.542   4.544   3.621
    1C        C  453   3.611   4.533   3.744
    1C        C  454   3.402   4.550   3.867
    1C        C  455   3.543   4.547   3.867
    1C        C  456   3.333   4.539   3.990
    1C        C  457   3.403   4.542   4.113
    1C        C  458   3.197   4.507   4.239
    1C        C  459   3.334   4.540   4.236
    1C        C  460   3.128   4.491   4.361
    1C        C  461   3.198   4.516   4.481
    1C        C  462   3.000   4.435   4.605
    1C        C  463   3.129   4.494   4.603
    1C        C  464   2.939   4.400   4.728
    1C        C  465   2.999   4.443   4.849
    1C        C  466   2.803   4.342   4.958
    1C        C  467   2.914   4.428   4.963
    1C        C  468   4.119   4.281   2.044
    1C        C  469   4.186   4.244   2.161
    1C        C  470   4.003   4.367   2.281
    1C        C  471   4.124   4.291   2.280
    1C        C  472   3.940   4.403   2.401
    1C        C  473   4.003   4.368   2.523
    1C        C  474   3.816   4.472   2.646
    1C        C  475   3.940   4.404   2.644
    1C        C  476   3.748   4.496   2.767
    1C        C  477   3.817   4.471   2.888
    1C        C  478   3.608   4.521   3.011
    1C        C  479   3.745   4.489   3.009
    1C        C  480   3.539   4.535   3.134
    1C        C  481   3.610   4.523   3.255
    1C        C  482   3.398   4.538   3.380
    1C        C  483   3.540   4.536   3.377
    1C        C  484   3.328   4.534   3.503
    1C        C  485   3.401   4.544   3.623
    1C        C  486   3.194   4.500   3.748
    1C        C  487   3.330   4.539   3.746
    1C        C  488   3.132   4.476   3.872
    1C        C  489   3.197   4.502   3.995
    1C        C  490   3.004   4.416   4.118
    1C        C  491   3.130   4.482   4.118
    1C        C  492   2.944   4.384   4.241
    1C        C  493   3.000   4.430   4.363
    1C        C  494   2.832   4.303   4.485
    1C        C  495   2.937   4.397   4.485
    1C        C  496   2.779   4.254   4.606
    1C        C  497   2.824   4.317   4.725
    1C        C  498   2.671   4.166   4.844
    1C        C  499   2.755   4.279   4.842
    1C        C  500   2.601   4.117   4.955
    1C        C  501   4.002   4.356   2.040
    1C        C  502   3.816   4.464   2.156
    1C        C  503   3.943   4.402   2.158
    1C        C  504   3.745   4.480   2.277
    1C        C  505   3.810   4.458   2.400
    1C        C  506   3.608   4.511   2.520
    1C        C  507   3.747   4.485   2.524
    1C        C  508   3.537   4.520   2.642
    1C        C  509   3.608   4.518   2.763
    1C        C  510   3.399   4.529   2.889
    1C        C  511   3.540   4.526   2.887
    1C        C  512   3.327   4.526   3.011
    1C        C  513   3.398   4.538   3.133
    1C        C  514   3.193   4.497   3.258
    1C        C  515   3.330   4.533   3.257
    1C        C  516   3.124   4.475   3.380
    1C        C  517   3.191   4.501   3.501
    1C        C  518   3.002   4.411   3.628
    1C        C  519   3.128   4.476   3.625
    1C        C  520   2.945   4.374   3.751
    1C        C  521   3.006   4.413   3.873
    1C        C  522   2.836   4.288   3.998
    1C        C  523   2.948   4.375   3.995
    1C        C  524   2.785   4.241   4.121
    1C        C  525   2.838   4.291   4.243
    1C        C  526   2.697   4.135   4.366
    1C        C  527   2.782   4.248   4.365
    1C        C  528   2.650   4.079   4.487
    1C        C  529   2.693   4.142   4.606
    1C        C  530   2.594   3.957   4.734
    1C        C  531   2.646   4.089   4.728
    1C        C  532   2.548   3.901   4.856
    1C        C  533   2.526   3.999   4.958
    1C        C  534   3.622   4.554   2.042
    1C        C  535   3.757   4.516   2.040
    1C        C  536   3.536   4.532   2.154
    1C        C  537   3.606   4.510   2.276
    1C        C  538   3.396   4.524   2.400
    1C        C  539   3.537   4.521   2.399
    1C        C  540   3.325   4.519   2.523
    1C        C  541   3.395   4.524   2.645
    1C        C  542   3.191   4.483   2.769
    1C        C  543   3.327   4.521   2.768
    1C        C  544   3.121   4.472   2.892
    1C        C  545   3.189   4.498   3.013
    1C        C  546   3.002   4.404   3.134
    1C        C  547   3.126   4.471   3.137
    1C        C  548   2.946   4.368   3.258
    1C        C  549   2.998   4.411   3.382
    1C        C  550   2.835   4.281   3.508
    1C        C  551   2.939   4.377   3.506
    1C        C  552   2.781   4.237   3.631
    1C        C  553   2.833   4.288   3.753
    1C        C  554   2.702   4.124   3.878
    1C        C  555   2.786   4.238   3.876
    1C        C  556   2.668   4.061   4.000
    1C        C  557   2.707   4.124   4.121
    1C        C  558   2.599   3.945   4.248
    1C        C  559   2.667   4.069   4.245
    1C        C  560   2.572   3.880   4.371
    1C        C  561   2.595   3.949   4.491
    1C        C  562   2.535   3.748   4.618
    1C        C  563   2.576   3.883   4.615
    1C        C  564   2.518   3.683   4.743
    1C        C  565   2.522   3.760   4.863
    1C        C  566   2.532   3.546   4.981
    1C        C  567   2.522   3.685   4.981
    1C        C  568   3.326   4.483   2.041
    1C        C  569   3.395   4.518   2.158
    1C        C  570   3.183   4.487   2.282
    1C        C  571   3.322   4.515   2.280
    1C        C  572   3.115   4.473   2.405
    1C        C  573   3.186   4.493   2.525
    1C        C  574   2.994   4.403   2.650
    1C        C  575   3.121   4.464   2.647
    1C        C  576   2.935   4.363   2.772
    1C        C  577   2.998   4.403   2.892
    1C        C  578   2.831   4.272   3.020
    1C        C  579   2.938   4.364   3.014
    1C        C  580   2.784   4.225   3.144
    1C        C  581   2.840   4.275   3.264
    1C        C  582   2.703   4.114   3.385
    1C        C  583   2.792   4.224   3.387
    1C        C  584   2.664   4.060   3.510
    1C        C  585   2.702   4.120   3.632
    1C        C  586   2.604   3.937   3.758
    1C        C  587   2.664   4.065   3.756
    1C        C  588   2.576   3.872   3.880
    1C        C  589   2.603   3.936   4.004
    1C        C  590   2.541   3.738   4.130
    1C        C  591   2.575   3.875   4.128
    1C        C  592   2.525   3.671   4.253
    1C        C  593   2.530   3.745   4.374
    1C        C  594   2.520   3.535   4.498
    1C        C  595   2.524   3.676   4.497
    1C        C  596   2.522   3.467   4.622
    1C        C  597   2.520   3.541   4.742
    1C        C  598   2.540   3.329   4.866
    1C        C  599   2.531   3.470   4.864
    1C        C  600   2.534   3.249   4.981
    1C        C  601   3.193   4.446   2.045
    1C        C  602   2.984   4.392   2.164
    1C        C  603   3.119   4.440   2.164
    1C        C  604   2.929   4.360   2.291
    1C        C  605   2.994   4.400   2.409
    1C        C  606   2.825   4.269   2.530
    1C        C  607   2.930   4.364   2.530
    1C        C  608   2.777   4.219   2.653
    1C        C  609   2.825   4.275   2.773
    1C        C  610   2.697   4.108   2.900
    1C        C  611   2.785   4.220   2.897
    1C        C  612   2.655   4.052   3.023
    1C        C  613   2.695   4.115   3.143
    1C        C  614   2.597   3.927   3.269
    1C        C  615   2.658   4.054   3.265
    1C        C  616   2.570   3.866   3.394
    1C        C  617   2.601   3.933   3.515
    1C        C  618   2.536   3.732   3.641
    1C        C  619   2.576   3.868   3.637
    1C        C  620   2.519   3.665   3.764
    1C        C  621   2.534   3.737   3.885
    1C        C  622   2.507   3.528   4.012
    1C        C  623   2.523   3.668   4.008
    1C        C  624   2.508   3.456   4.134
    1C        C  625   2.515   3.530   4.255
    1C        C  626   2.540   3.321   4.380
    1C        C  627   2.517   3.461   4.378
    1C        C  628   2.557   3.255   4.504
    1C        C  629   2.535   3.327   4.624
    1C        C  630   2.598   3.122   4.744
    1C        C  631   2.551   3.256   4.745
    1C        C  632   2.623   3.056   4.867
    1C        C  633   2.559   3.111   4.982
    1C        C  634   2.787   4.301   2.055
    1C        C  635   2.896   4.390   2.051
    1C        C  636   2.757   4.228   2.170
    1C        C  637   2.814   4.276   2.290
    1C        C  638   2.685   4.104   2.414
    1C        C  639   2.770   4.216   2.411
    1C        C  640   2.643   4.049   2.537
    1C        C  641   2.689   4.109   2.656
    1C        C  642   2.593   3.921   2.777
    1C        C  643   2.654   4.049   2.779
    1C        C  644   2.573   3.855   2.900
    1C        C  645   2.594   3.925   3.021
    1C        C  646   2.528   3.728   3.151
    1C        C  647   2.568   3.864   3.146
    1C        C  648   2.516   3.660   3.274
    1C        C  649   2.533   3.730   3.396
    1C        C  650   2.511   3.522   3.522
    1C        C  651   2.520   3.663   3.519
    1C        C  652   2.516   3.452   3.645
    1C        C  653   2.509   3.524   3.767
    1C        C  654   2.523   3.316   3.894
    1C        C  655   2.508   3.456   3.890
    1C        C  656   2.538   3.245   4.016
    1C        C  657   2.523   3.316   4.137
    1C        C  658   2.585   3.113   4.259
    1C        C  659   2.547   3.249   4.259
    1C        C  660   2.631   3.055   4.380
    1C        C  661   2.601   3.120   4.501
    1C        C  662   2.713   2.941   4.624
    1C        C  663   2.633   3.057   4.624
    1C        C  664   2.758   2.884   4.745
    1C        C  665   2.703   2.936   4.865
    1C        C  666   2.743   2.873   4.984
    1C        C  667   2.693   4.017   2.057
    1C        C  668   2.695   4.101   2.169
    1C        C  669   2.596   3.913   2.293
    1C        C  670   2.652   4.043   2.291
    1C        C  671   2.568   3.846   2.414
    1C        C  672   2.587   3.919   2.533
    1C        C  673   2.524   3.718   2.661
    1C        C  674   2.564   3.854   2.657
    1C        C  675   2.515   3.650   2.784
    1C        C  676   2.540   3.717   2.905
    1C        C  677   2.506   3.514   3.034
    1C        C  678   2.525   3.654   3.031
    1C        C  679   2.505   3.444   3.157
    1C        C  680   2.507   3.519   3.276
    1C        C  681   2.531   3.312   3.402
    1C        C  682   2.507   3.451   3.400
    1C        C  683   2.555   3.246   3.525
    1C        C  684   2.534   3.312   3.648
    1C        C  685   2.603   3.117   3.773
    1C        C  686   2.544   3.246   3.773
    1C        C  687   2.635   3.057   3.897
    1C        C  688   2.593   3.115   4.019
    1C        C  689   2.709   2.936   4.140
    1C        C  690   2.622   3.047   4.139
    1C        C  691   2.759   2.886   4.262
    1C        C  692   2.712   2.940   4.384
    1C        C  693   2.758   2.881   4.505
    1C        C  694   2.639   3.888   2.060
    1C        C  695   2.532   3.702   2.179
    1C        C  696   2.586   3.833   2.177
    1C        C  697   2.506   3.635   2.300
    1C        C  698   2.526   3.711   2.417
    1C        C  699   2.490   3.506   2.547
    1C        C  700   2.502   3.647   2.541
    1C        C  701   2.503   3.437   2.670
    1C        C  702   2.502   3.509   2.791
    1C        C  703   2.528   3.301   2.914
    1C        C  704   2.501   3.440   2.914
    1C        C  705   2.543   3.233   3.038
    1C        C  706   2.524   3.304   3.158
    1C        C  707   2.600   3.109   3.282
    1C        C  708   2.549   3.240   3.282
    1C        C  709   2.627   3.046   3.405
    1C        C  710   2.605   3.114   3.527
    1C        C  711   2.713   2.935   3.650
    1C        C  712   2.637   3.054   3.652
    1C        C  713   2.756   2.883   3.774
    1C        C  714   2.717   2.942   3.896
    1C        C  715   2.759   2.884   4.018
    1C        C  716   2.454   3.495   2.066
    1C        C  717   2.490   3.630   2.066
    1C        C  718   2.467   3.419   2.186
    1C        C  719   2.484   3.494   2.305
    1C        C  720   2.516   3.290   2.428
    1C        C  721   2.486   3.428   2.430
    1C        C  722   2.537   3.224   2.551
    1C        C  723   2.527   3.297   2.671
    1C        C  724   2.590   3.096   2.793
    1C        C  725   2.544   3.229   2.794
    1C        C  726   2.620   3.033   2.916
    1C        C  727   2.589   3.099   3.037
    1C        C  728   2.710   2.927   3.161
    1C        C  729   2.632   3.044   3.160
    1C        C  730   2.754   2.874   3.284
    1C        C  731   2.707   2.930   3.406
    1C        C  732   2.753   2.876   3.528
    1C        C  733   2.487   3.192   2.074
    1C        C  734   2.485   3.276   2.186
    1C        C  735   2.585   3.087   2.307
    1C        C  736   2.522   3.215   2.309
    1C        C  737   2.613   3.021   2.429
    1C        C  738   2.586   3.092   2.548
    1C        C  739   2.697   2.912   2.671
    1C        C  740   2.622   3.032   2.671
    1C        C  741   2.744   2.863   2.794
    1C        C  742   2.704   2.920   2.917
    1C        C  743   2.750   2.866   3.039
    1C        C  744   2.552   3.069   2.072
    1C        C  745   2.687   2.898   2.184
    1C        C  746   2.610   3.016   2.188
    1C        C  747   2.733   2.844   2.307
    1C        C  748   2.689   2.902   2.428
    1C        C  749   2.738   2.851   2.550
    1C        C  750   2.737   2.837   2.069
    1C        C  751   3.644   2.293   1.995
    1C        O  752   3.637   2.180   2.048
    1C        O  753   3.650   2.286   1.855
    1C        C  754   4.617   3.059   1.970
    1C        O  755   4.590   3.050   1.847
    1C        O  756   4.750   3.026   1.999
    1C        C  757   4.450   4.223   1.960
    1C        O  758   4.558   4.281   1.988
    1C        O  759   4.403   4.267   1.836
    1C        C  760   3.594   4.675   1.962
    1C        O  761   3.648   4.784   1.991
    1C        O  762   3.525   4.682   1.839
    1C        C  763   2.877   4.505   1.961
    1C        O  764   2.937   4.508   1.850
    1C        O  765   2.860   4.641   1.991
    1C        C  766   2.345   3.464   1.970
    1C        O  767   2.362   3.461   1.846
    1C        O  768   2.208   3.480   1.999
    1C        C  769   4.704   3.589   5.048
    1C        O  770   4.696   3.537   5.162
    1C        O  771   4.838   3.612   5.013
    1C        C  772   4.276   4.470   5.027
    1C        O  773   4.319   4.417   5.132
    1C        O  774   4.309   4.605   5.011
    1C        C  775   4.159   2.528   5.055
    1C        O  776   4.233   2.443   4.999
    1C        O  777   4.225   2.580   5.166
    1C        C  778   2.915   4.529   5.071
    1C        O  779   2.902   4.653   5.054
    1C        O  780   2.896   4.493   5.205
    1C        C  781   2.462   3.031   5.061
    1C        O  782   2.341   3.016   5.030
    1C        O  783   2.490   2.998   5.193
    1C        C  784   2.397   4.023   5.026
    1C        O  785   2.299   4.072   4.963
    1C        O  786   2.377   4.039   5.163
    1C        C  787   2.947   2.427   2.015
    1C        O  788   2.935   2.443   1.890
    1C        O  789   2.952   2.288   2.027
    1C        C  790   3.187   2.372   5.060
    1C        O  791   3.114   2.272   5.038
    1C        O  792   3.218   2.381   5.196
    1C        H  793   4.328   2.972   5.078
    1C        H  794   4.139   2.844   5.059
    1C        H  795   4.547   3.127   5.034
    1C        H  796   4.538   3.370   5.067
    1C        H  797   4.555   3.816   5.051
    1C        H  798   4.391   3.960   5.058
    1C        H  799   4.273   4.162   5.050
    1C        H  800   4.024   4.528   5.040
    1C        H  801   3.819   4.622   5.026
    1C        H  802   3.589   4.619   5.048
    1C        H  803   3.398   4.482   5.041
    1C        H  804   3.165   4.566   5.045
    1C        H  805   3.906   2.450   5.052
    1C        H  806   3.677   2.448   5.072
    1C        H  807   3.024   2.577   5.077
    1C        H  808   3.454   2.536   5.070
    1C        H  809   2.870   2.727   5.078
    1C        H  810   2.704   2.906   5.078
    1C        H  811   2.459   3.270   5.055
    1C        H  812   2.599   3.507   5.056
    1C        H  813   2.535   3.735   5.074
    1C        H  814   2.617   4.168   5.048
    1C        H  815   2.794   4.287   5.049
    1C        H  816   2.686   2.854   1.976
    1C        H  817   2.842   2.681   1.978
    1C        H  818   3.217   2.424   1.996
    1C        H  819   3.440   2.464   1.980
    1C        H  820   3.858   2.520   1.972
    1C        H  821   4.054   2.645   1.969
    1C        H  822   4.295   2.694   1.992
    1C        H  823   4.346   2.940   1.975
    1C        H  824   4.582   3.314   1.971
    1C        H  825   4.536   3.522   1.961
    1C        H  826   4.453   3.746   1.960
    1C        H  827   3.793   4.493   1.942
    1C        H  828   3.950   4.365   1.947
    1C        H  829   4.174   4.275   1.952
    1C        H  830   4.529   3.987   1.980
    1C        H  831   2.633   3.839   1.965
    1C        H  832   2.770   4.030   1.984
    1C        H  833   2.711   4.317   1.981
    1C        H  834   3.363   4.496   1.941
    1C        H  835   3.155   4.386   1.964
    1C        H  836   2.551   3.013   1.981
    1C        H  837   2.417   3.210   1.995
    1C        H  838   2.507   3.666   1.967
    2V3OU   H29  839   2.805   3.559   3.733
    2V3OU   C27  840   2.794   3.506   3.831
    2V3OU   H27  841   2.739   3.569   3.905
    2V3OU   H28  842   2.742   3.410   3.810
    2V3OU   O11  843   2.919   3.467   3.888
    2V3OU   C15  844   2.930   3.398   4.007
    2V3OU   C13  845   3.056   3.371   4.064
    2V3OU   C14  846   3.082   3.270   4.158
    2V3OU   C16  847   2.983   3.185   4.207
    2V3OU    H6  848   2.995   3.111   4.287
    2V3OU   C12  849   3.220   3.232   4.195
    2V3OU    O2  850   3.241   3.126   4.258
    2V3OU   C10  851   3.332   3.311   4.144
    2V3OU    C8  852   3.464   3.276   4.169
    2V3OU   O10  853   3.491   3.169   4.249
    2V3OU   H26  854   3.407   3.123   4.266
    2V3OU    C6  855   3.571   3.354   4.113
    2V3OU    C5  856   3.542   3.469   4.041
    2V3OU    C4  857   3.708   3.295   4.112
    2V3OU    H4  858   3.724   3.226   4.200
    2V3OU    H5  859   3.716   3.231   4.020
    2V3OU    C2  860   3.818   3.401   4.119
    2V3OU    O6  861   3.805   3.477   4.239
    2V3OU   H21  862   3.760   3.559   4.213
    2V3OU    C3  863   3.788   3.500   4.006
    2V3OU    H2  864   3.862   3.583   4.010
    2V3OU    H3  865   3.788   3.444   3.909
    2V3OU   C25  866   3.955   3.333   4.114
    2V3OU    O7  867   4.001   3.299   4.005
    2V3OU   C26  868   4.035   3.298   4.239
    2V3OU   H22  869   4.059   3.391   4.296
    2V3OU   H23  870   4.123   3.234   4.211
    2V3OU    O8  871   3.957   3.217   4.323
    2V3OU   H24  872   3.925   3.266   4.400
    2V3OU    C1  873   3.652   3.567   4.016
    2V3OU    H1  874   3.630   3.620   3.919
    2V3OU    O3  875   3.660   3.657   4.128
    2V3OU   C19  876   3.621   3.793   4.111
    2V3OU    H9  877   3.518   3.799   4.065
    2V3OU    O4  878   3.717   3.844   4.021
    2V3OU   C20  879   3.847   3.872   4.074
    2V3OU   H10  880   3.894   3.775   4.108
    2V3OU   C24  881   3.610   3.856   4.251
    2V3OU   H16  882   3.544   3.795   4.317
    2V3OU   H17  883   3.565   3.957   4.236
    2V3OU   C23  884   3.751   3.875   4.307
    2V3OU   H15  885   3.793   3.770   4.324
    2V3OU    N1  886   3.739   3.956   4.426
    2V3OU   H19  887   3.810   3.925   4.489
    2V3OU   H20  888   3.649   3.930   4.462
    2V3OU   C21  889   3.846   3.948   4.207
    2V3OU   H11  890   3.948   3.931   4.252
    2V3OU    O5  891   3.826   4.088   4.211
    2V3OU   H18  892   3.782   4.112   4.294
    2V3OU   C22  893   3.915   3.951   3.963
    2V3OU   H12  894   3.865   4.050   3.951
    2V3OU   H13  895   3.902   3.895   3.866
    2V3OU   H14  896   4.026   3.955   3.977
    2V3OU   C11  897   3.163   3.469   4.041
    2V3OU    O1  898   3.140   3.582   3.994
    2V3OU    C9  899   3.302   3.429   4.071
    2V3OU    C7  900   3.406   3.511   4.026
    2V3OU    O9  901   3.385   3.619   3.943
    2V3OU   H25  902   3.289   3.635   3.943
    2V3OU   C17  903   2.831   3.313   4.061
    2V3OU    H7  904   2.733   3.359   4.055
    2V3OU   C18  905   2.858   3.212   4.153
    2V3OU    H8  906   2.791   3.169   4.229
    3SOL     OW  907   3.303   4.629   5.848
    3SOL    HW1  908   3.340   4.544   5.812
    3SOL    HW2  909   3.311   4.701   5.780
    4SOL     OW  910   6.968   0.022   0.076
    4SOL    HW1  911   6.919   7.020   7.022
    4SOL    HW2  912   6.914   0.002   0.158
    5SOL     OW  913   5.046   1.083   3.151
    5SOL    HW1  914   5.087   1.043   3.069
    5SOL    HW2  915   4.975   1.148   3.124
    6SOL     OW  916   5.269   2.199   3.107
    6SOL    HW1  917   5.318   2.158   3.184
    6SOL    HW2  918   5.299   2.294   3.095
    7SOL     OW  919   0.660   3.771   4.781
    7SOL    HW1  920   0.625   3.859   4.815
    7SOL    HW2  921   0.677   3.710   4.858
    8SOL     OW  922   2.682   2.027   5.080
    8SOL    HW1  923   2.696   1.966   5.002
    8SOL    HW2  924   2.637   1.977   5.154
    9SOL     OW  925   6.324   1.445   5.794
    9SOL    HW1  926   6.293   1.357   5.832
    9SOL    HW2  927   6.420   1.436   5.766
   10SOL     OW  928   3.559   4.916   4.196
   10SOL    HW1  929   3.589   4.878   4.109
   10SOL    HW2  930   3.483   4.980   4.181
   11SOL     OW  931   1.545   1.475   6.867
   11SOL    HW1  932   1.471   1.458   6.802
   11SOL    HW2  933   1.622   1.517   6.819
   12SOL     OW  934   2.724   4.674   4.161
   12SOL    HW1  935   2.728   4.584   4.118
   12SOL    HW2  936   2.670   4.669   4.244
   13SOL     OW  937   3.185   6.179   2.877
   13SOL    HW1  938   3.127   6.220   2.948
   13SOL    HW2  939   3.229   6.252   2.824
   14SOL     OW  940   4.429   4.571   6.137
   14SOL    HW1  941   4.350   4.527   6.180
   14SOL    HW2  942   4.496   4.501   6.112
   15SOL     OW  943   0.500   6.470   6.264
   15SOL    HW1  944   0.528   6.394   6.205
   15SOL    HW2  945   0.505   6.441   6.360
   16SOL     OW  946   5.525   2.313   6.603
   16SOL    HW1  947   5.557   2.374   6.530
   16SOL    HW2  948   5.509   2.366   6.686
   17SOL     OW  949   5.461   0.685   6.348
   17SOL    HW1  950   5.501   0.596   6.371
   17SOL    HW2  951   5.436   0.734   6.431
   18SOL     OW  952   3.532   1.332   5.038
   18SOL    HW1  953   3.575   1.423   5.040
   18SOL    HW2  954   3.592   1.266   5.083
   19SOL     OW  955   0.436   1.951   2.579
   19SOL    HW1  956   0.460   1.946   2.676
   19SOL    HW2  957   0.502   2.007   2.530
   20SOL     OW  958   5.607   1.865   5.546
   20SOL    HW1  959   5.607   1.882   5.448
   20SOL    HW2  960   5.514   1.849   5.578
   21SOL     OW  961   3.023   6.959   2.859
   21SOL    HW1  962   2.931   6.975   2.825
   21SOL    HW2  963   3.051   0.005   2.920
   22SOL     OW  964   1.103   6.007   5.953
   22SOL    HW1  965   1.141   5.935   5.896
   22SOL    HW2  966   1.098   5.976   6.048
   23SOL     OW  967   4.451   5.443   2.328
   23SOL    HW1  968   4.479   5.448   2.424
   23SOL    HW2  969   4.511   5.379   2.279
   24SOL     OW  970   3.615   6.974   2.267
   24SOL    HW1  971   3.539   0.007   2.292
   24SOL    HW2  972   3.679   7.024   2.208
   25SOL     OW  973   2.771   6.932   4.440
   25SOL    HW1  974   2.702   6.944   4.511
   25SOL    HW2  975   2.818   6.845   4.454
   26SOL     OW  976   0.900   2.075   6.855
   26SOL    HW1  977   0.892   2.139   6.779
   26SOL    HW2  978   0.972   2.009   6.836
   27SOL     OW  979   1.184   0.949   2.475
   27SOL    HW1  980   1.165   0.899   2.559
   27SOL    HW2  981   1.276   0.989   2.480
   28SOL     OW  982   1.079   0.914   4.268
   28SOL    HW1  983   1.015   0.840   4.288
   28SOL    HW2  984   1.147   0.920   4.341
   29SOL     OW  985   5.888   0.926   1.159
   29SOL    HW1  986   5.891   0.921   1.259
   29SOL    HW2  987   5.891   1.022   1.130
   30SOL     OW  988   2.992   0.335   4.934
   30SOL    HW1  989   3.019   0.326   4.838
   30SOL    HW2  990   3.059   0.392   4.982
   31SOL     OW  991   0.179   2.361   5.258
   31SOL    HW1  992   0.248   2.379   5.188
   31SOL    HW2  993   0.102   2.425   5.247
   32SOL     OW  994   1.331   1.425   2.487
   32SOL    HW1  995   1.344   1.517   2.523
   32SOL    HW2  996   1.376   1.416   2.398
   33SOL     OW  997   0.217   3.986   5.247
   33SOL    HW1  998   0.165   3.916   5.296
   33SOL    HW2  999   0.219   3.965   5.149
   34SOL     OW 1000   2.544   5.409   5.202
   34SOL    HW1 1001   2.493   5.473   5.144
   34SOL    HW2 1002   2.481   5.367   5.268
   35SOL     OW 1003   4.718   1.623   5.481
   35SOL    HW1 1004   4.816   1.605   5.477
   35SOL    HW2 1005   4.674   1.586   5.400
   36SOL     OW 1006   5.380   0.999   4.079
   36SOL    HW1 1007   5.309   1.065   4.052
   36SOL    HW2 1008   5.390   0.999   4.178
   37SOL     OW 1009   1.886   1.362   4.273
   37SOL    HW1 1010   1.927   1.448   4.303
   37SOL    HW2 1011   1.802   1.346   4.326
   38SOL     OW 1012   2.060   4.449   1.612
   38SOL    HW1 1013   2.009   4.528   1.579
   38SOL    HW2 1014   1.996   4.379   1.644
   39SOL     OW 1015   6.651   4.309   6.654
   39SOL    HW1 1016   6.669   4.356   6.740
   39SOL    HW2 1017   6.707   4.350   6.582
   40SOL     OW 1018   3.292   1.067   6.427
   40SOL    HW1 1019   3.359   1.084   6.355
   40SOL    HW2 1020   3.319   0.987   6.480
   41SOL     OW 1021   6.565   4.099   2.619
   41SOL    HW1 1022   6.621   4.178   2.642
   41SOL    HW2 1023   6.474   4.108   2.661
   42SOL     OW 1024   3.090   6.406   4.197
   42SOL    HW1 1025   3.155   6.357   4.139
   42SOL    HW2 1026   3.077   6.355   4.282
   43SOL     OW 1027   3.994   6.900   5.152
   43SOL    HW1 1028   3.994   6.803   5.177
   43SOL    HW2 1029   3.933   6.915   5.075
   44SOL     OW 1030   6.095   3.081   5.069
   44SOL    HW1 1031   6.005   3.124   5.066
   44SOL    HW2 1032   6.111   3.031   4.985
   45SOL     OW 1033   4.270   6.064   1.995
   45SOL    HW1 1034   4.349   6.004   2.005
   45SOL    HW2 1035   4.196   6.014   1.949
   46SOL     OW 1036   0.245   3.004   4.014
   46SOL    HW1 1037   0.188   3.080   4.046
   46SOL    HW2 1038   0.191   2.943   3.957
   47SOL     OW 1039   5.319   4.063   1.676
   47SOL    HW1 1040   5.407   4.054   1.724
   47SOL    HW2 1041   5.253   4.000   1.717
   48SOL     OW 1042   0.464   2.012   6.402
   48SOL    HW1 1043   0.540   1.985   6.342
   48SOL    HW2 1044   0.500   2.059   6.482
   49SOL     OW 1045   5.296   2.947   1.622
   49SOL    HW1 1046   5.368   2.964   1.555
   49SOL    HW2 1047   5.262   2.854   1.613
   50SOL     OW 1048   6.243   1.896   5.822
   50SOL    HW1 1049   6.225   1.987   5.784
   50SOL    HW2 1050   6.270   1.906   5.918
   51SOL     OW 1051   1.962   5.830   2.550
   51SOL    HW1 1052   2.019   5.748   2.544
   51SOL    HW2 1053   1.874   5.812   2.507
   52SOL     OW 1054   5.294   2.488   1.817
   52SOL    HW1 1055   5.206   2.442   1.824
   52SOL    HW2 1056   5.324   2.488   1.722
   53SOL     OW 1057   4.968   0.024   3.581
   53SOL    HW1 1058   4.926   6.985   3.519
   53SOL    HW2 1059   5.065   0.035   3.556
   54SOL     OW 1060   5.379   6.298   7.001
   54SOL    HW1 1061   5.375   6.353   6.918
   54SOL    HW2 1062   5.379   6.357   0.053
   55SOL     OW 1063   2.196   2.379   5.535
   55SOL    HW1 1064   2.179   2.281   5.532
   55SOL    HW2 1065   2.247   2.401   5.618
   56SOL     OW 1066   1.290   1.650   1.396
   56SOL    HW1 1067   1.217   1.590   1.365
   56SOL    HW2 1068   1.349   1.675   1.319
   57SOL     OW 1069   3.840   1.319   6.823
   57SOL    HW1 1070   3.841   1.347   6.919
   57SOL    HW2 1071   3.785   1.384   6.770
   58SOL     OW 1072   0.395   0.122   6.293
   58SOL    HW1 1073   0.362   0.104   6.201
   58SOL    HW2 1074   0.488   0.086   6.302
   59SOL     OW 1075   6.704   3.268   6.225
   59SOL    HW1 1076   6.739   3.325   6.151
   59SOL    HW2 1077   6.605   3.263   6.219
   60SOL     OW 1078   5.549   1.590   3.724
   60SOL    HW1 1079   5.622   1.643   3.680
   60SOL    HW2 1080   5.493   1.546   3.653
   61SOL     OW 1081   0.291   0.673   4.386
   61SOL    HW1 1082   0.200   0.652   4.422
   61SOL    HW2 1083   0.302   0.630   4.297
   62SOL     OW 1084   1.143   1.168   1.368
   62SOL    HW1 1085   1.059   1.115   1.353
   62SOL    HW2 1086   1.176   1.150   1.461
   63SOL     OW 1087   4.227   0.462   4.553
   63SOL    HW1 1088   4.147   0.404   4.538
   63SOL    HW2 1089   4.249   0.464   4.651
   64SOL     OW 1090   0.990   3.486   6.391
   64SOL    HW1 1091   1.026   3.566   6.438
   64SOL    HW2 1092   0.893   3.501   6.369
   65SOL     OW 1093   1.060   6.568   5.791
   65SOL    HW1 1094   1.127   6.618   5.846
   65SOL    HW2 1095   0.995   6.522   5.852
   66SOL     OW 1096   3.444   0.227   2.982
   66SOL    HW1 1097   3.389   0.255   3.061
   66SOL    HW2 1098   3.532   0.274   2.984
   67SOL     OW 1099   6.997   2.270   6.411
   67SOL    HW1 1100   6.957   2.312   6.493
   67SOL    HW2 1101   0.054   2.223   6.435
   68SOL     OW 1102   6.908   1.705   5.955
   68SOL    HW1 1103   6.907   1.746   6.047
   68SOL    HW2 1104   6.989   1.737   5.906
   69SOL     OW 1105   1.900   4.079   5.993
   69SOL    HW1 1106   1.998   4.063   5.985
   69SOL    HW2 1107   1.851   4.004   5.949
   70SOL     OW 1108   5.327   4.514   5.024
   70SOL    HW1 1109   5.264   4.513   5.102
   70SOL    HW2 1110   5.421   4.510   5.059
   71SOL     OW 1111   4.812   1.804   3.901
   71SOL    HW1 1112   4.819   1.705   3.919
   71SOL    HW2 1113   4.885   1.831   3.838
   72SOL     OW 1114   0.415   1.179   2.726
   72SOL    HW1 1115   0.469   1.241   2.782
   72SOL    HW2 1116   0.391   1.224   2.639
   73SOL     OW 1117   3.031   0.169   0.511
   73SOL    HW1 1118   3.077   0.197   0.596
   73SOL    HW2 1119   3.077   0.211   0.433
   74SOL     OW 1120   2.446   1.713   6.517
   74SOL    HW1 1121   2.379   1.680   6.450
   74SOL    HW2 1122   2.485   1.799   6.485
   75SOL     OW 1123   3.702   1.433   1.331
   75SOL    HW1 1124   3.758   1.351   1.321
   75SOL    HW2 1125   3.723   1.477   1.418
   76SOL     OW 1126   2.383   3.961   5.922
   76SOL    HW1 1127   2.352   3.867   5.909
   76SOL    HW2 1128   2.450   3.984   5.851
   77SOL     OW 1129   2.018   5.452   4.227
   77SOL    HW1 1130   2.117   5.438   4.225
   77SOL    HW2 1131   1.991   5.489   4.316
   78SOL     OW 1132   4.524   1.582   1.239
   78SOL    HW1 1133   4.433   1.562   1.276
   78SOL    HW2 1134   4.561   1.663   1.283
   79SOL     OW 1135   2.689   6.217   2.253
   79SOL    HW1 1136   2.761   6.193   2.187
   79SOL    HW2 1137   2.603   6.231   2.205
   80SOL     OW 1138   4.787   1.681   5.147
   80SOL    HW1 1139   4.876   1.666   5.105
   80SOL    HW2 1140   4.727   1.729   5.083
   81SOL     OW 1141   1.944   0.230   0.147
   81SOL    HW1 1142   1.972   0.174   0.069
   81SOL    HW2 1143   1.929   0.172   0.227
   82SOL     OW 1144   0.448   6.240   1.819
   82SOL    HW1 1145   0.492   6.154   1.843
   82SOL    HW2 1146   0.479   6.270   1.728
   83SOL     OW 1147   0.244   1.545   6.090
   83SOL    HW1 1148   0.169   1.545   6.156
   83SOL    HW2 1149   0.221   1.484   6.014
   84SOL     OW 1150   6.138   4.185   3.435
   84SOL    HW1 1151   6.194   4.155   3.513
   84SOL    HW2 1152   6.127   4.109   3.371
   85SOL     OW 1153   2.210   0.270   3.415
   85SOL    HW1 1154   2.256   0.199   3.362
   85SOL    HW2 1155   2.248   0.272   3.507
   86SOL     OW 1156   6.252   0.966   6.628
   86SOL    HW1 1157   6.309   1.007   6.557
   86SOL    HW2 1158   6.229   1.034   6.697
   87SOL     OW 1159   4.674   4.344   0.524
   87SOL    HW1 1160   4.587   4.368   0.480
   87SOL    HW2 1161   4.712   4.425   0.569
   88SOL     OW 1162   2.661   1.975   5.791
   88SOL    HW1 1163   2.683   1.950   5.886
   88SOL    HW2 1164   2.658   1.892   5.735
   89SOL     OW 1165   2.735   3.502   1.336
   89SOL    HW1 1166   2.693   3.411   1.329
   89SOL    HW2 1167   2.672   3.564   1.383
   90SOL     OW 1168   5.280   4.280   1.855
   90SOL    HW1 1169   5.192   4.327   1.844
   90SOL    HW2 1170   5.297   4.223   1.774
   91SOL     OW 1171   6.212   5.852   6.808
   91SOL    HW1 1172   6.204   5.782   6.737
   91SOL    HW2 1173   6.295   5.837   6.861
   92SOL     OW 1174   4.977   3.682   1.306
   92SOL    HW1 1175   4.970   3.738   1.388
   92SOL    HW2 1176   4.894   3.627   1.296
   93SOL     OW 1177   2.890   3.161   0.587
   93SOL    HW1 1178   2.927   3.245   0.627
   93SOL    HW2 1179   2.964   3.110   0.543
   94SOL     OW 1180   2.567   6.476   0.387
   94SOL    HW1 1181   2.471   6.456   0.405
   94SOL    HW2 1182   2.586   6.571   0.410
   95SOL     OW 1183   1.269   0.845   3.559
   95SOL    HW1 1184   1.184   0.891   3.532
   95SOL    HW2 1185   1.253   0.792   3.642
   96SOL     OW 1186   4.799   5.565   0.049
   96SOL    HW1 1187   4.747   5.500   7.020
   96SOL    HW2 1188   4.824   5.644   7.021
   97SOL     OW 1189   2.272   4.479   5.419
   97SOL    HW1 1190   2.349   4.542   5.429
   97SOL    HW2 1191   2.302   4.399   5.368
   98SOL     OW 1192   0.823   2.167   1.119
   98SOL    HW1 1193   0.867   2.247   1.158
   98SOL    HW2 1194   0.793   2.188   1.025
   99SOL     OW 1195   4.013   3.838   2.945
   99SOL    HW1 1196   4.107   3.870   2.955
   99SOL    HW2 1197   3.958   3.873   3.020
  100SOL     OW 1198   6.783   0.112   4.335
  100SOL    HW1 1199   6.750   0.207   4.337
  100SOL    HW2 1200   6.844   0.096   4.412
  101SOL     OW 1201   0.501   5.223   2.205
  101SOL    HW1 1202   0.452   5.250   2.288
  101SOL    HW2 1203   0.589   5.181   2.231
  102SOL     OW 1204   2.925   6.437   2.002
  102SOL    HW1 1205   2.880   6.486   2.077
  102SOL    HW2 1206   2.870   6.358   1.976
  103SOL     OW 1207   1.664   1.203   2.351
  103SOL    HW1 1208   1.737   1.160   2.298
  103SOL    HW2 1209   1.700   1.231   2.440
  104SOL     OW 1210   1.510   5.367   2.614
  104SOL    HW1 1211   1.445   5.327   2.679
  104SOL    HW2 1212   1.474   5.454   2.581
  105SOL     OW 1213   5.145   1.683   6.476
  105SOL    HW1 1214   5.184   1.702   6.566
  105SOL    HW2 1215   5.216   1.643   6.417
  106SOL     OW 1216   4.935   4.986   1.477
  106SOL    HW1 1217   4.839   4.958   1.473
  106SOL    HW2 1218   4.941   5.081   1.508
  107SOL     OW 1219   6.764   0.622   6.881
  107SOL    HW1 1220   6.797   0.628   6.787
  107SOL    HW2 1221   6.790   0.705   6.931
  108SOL     OW 1222   3.019   0.009   5.039
  108SOL    HW1 1223   2.933   0.055   5.016
  108SOL    HW2 1224   3.000   6.943   5.068
  109SOL     OW 1225   3.240   0.793   2.677
  109SOL    HW1 1226   3.205   0.833   2.761
  109SOL    HW2 1227   3.165   0.784   2.611
  110SOL     OW 1228   2.377   5.151   4.877
  110SOL    HW1 1229   2.315   5.098   4.935
  110SOL    HW2 1230   2.467   5.108   4.877
  111SOL     OW 1231   0.149   1.537   2.610
  111SOL    HW1 1232   0.074   1.580   2.660
  111SOL    HW2 1233   0.236   1.579   2.635
  112SOL     OW 1234   4.887   6.744   6.424
  112SOL    HW1 1235   4.888   6.816   6.355
  112SOL    HW2 1236   4.804   6.689   6.414
  113SOL     OW 1237   6.515   5.120   3.095
  113SOL    HW1 1238   6.535   5.032   3.137
  113SOL    HW2 1239   6.593   5.149   3.039
  114SOL     OW 1240   0.633   5.056   2.818
  114SOL    HW1 1241   0.625   5.140   2.765
  114SOL    HW2 1242   0.729   5.040   2.841
  115SOL     OW 1243   6.048   1.163   3.577
  115SOL    HW1 1244   6.039   1.227   3.654
  115SOL    HW2 1245   6.145   1.138   3.567
  116SOL     OW 1246   6.809   6.051   1.130
  116SOL    HW1 1247   6.845   6.101   1.209
  116SOL    HW2 1248   6.811   5.953   1.149
  117SOL     OW 1249   2.222   1.110   0.027
  117SOL    HW1 1250   2.321   1.116   0.044
  117SOL    HW2 1251   2.183   1.202   0.030
  118SOL     OW 1252   1.715   1.362   3.706
  118SOL    HW1 1253   1.796   1.404   3.664
  118SOL    HW2 1254   1.737   1.332   3.798
  119SOL     OW 1255   0.414   6.484   0.045
  119SOL    HW1 1256   0.395   6.530   6.986
  119SOL    HW2 1257   0.390   6.544   0.121
  120SOL     OW 1258   4.740   0.177   4.512
  120SOL    HW1 1259   4.685   0.096   4.493
  120SOL    HW2 1260   4.772   0.218   4.427
  121SOL     OW 1261   1.815   3.713   0.098
  121SOL    HW1 1262   1.781   3.715   0.192
  121SOL    HW2 1263   1.843   3.620   0.075
  122SOL     OW 1264   1.510   3.480   0.326
  122SOL    HW1 1265   1.428   3.438   0.365
  122SOL    HW2 1266   1.585   3.474   0.392
  123SOL     OW 1267   1.347   0.881   0.899
  123SOL    HW1 1268   1.428   0.921   0.942
  123SOL    HW2 1269   1.332   0.925   0.810
  124SOL     OW 1270   3.142   2.107   0.567
  124SOL    HW1 1271   3.105   2.133   0.657
  124SOL    HW2 1272   3.180   2.188   0.522
  125SOL     OW 1273   3.922   2.739   0.394
  125SOL    HW1 1274   3.909   2.679   0.315
  125SOL    HW2 1275   3.891   2.832   0.371
  126SOL     OW 1276   3.008   3.319   3.535
  126SOL    HW1 1277   2.958   3.283   3.457
  126SOL    HW2 1278   3.079   3.382   3.503
  127SOL     OW 1279   6.783   6.179   5.578
  127SOL    HW1 1280   6.775   6.234   5.495
  127SOL    HW2 1281   6.771   6.083   5.555
  128SOL     OW 1282   5.159   3.340   2.459
  128SOL    HW1 1283   5.171   3.242   2.443
  128SOL    HW2 1284   5.182   3.361   2.554
  129SOL     OW 1285   2.495   4.687   1.058
  129SOL    HW1 1286   2.534   4.703   1.149
  129SOL    HW2 1287   2.553   4.731   0.989
  130SOL     OW 1288   6.263   0.894   4.503
  130SOL    HW1 1289   6.228   0.847   4.422
  130SOL    HW2 1290   6.213   0.980   4.516
  131SOL     OW 1291   5.843   0.418   4.213
  131SOL    HW1 1292   5.842   0.334   4.268
  131SOL    HW2 1293   5.892   0.489   4.263
  132SOL     OW 1294   3.830   3.479   1.560
  132SOL    HW1 1295   3.880   3.402   1.522
  132SOL    HW2 1296   3.734   3.454   1.572
  133SOL     OW 1297   5.403   1.230   3.717
  133SOL    HW1 1298   5.397   1.140   3.760
  133SOL    HW2 1299   5.317   1.279   3.729
  134SOL     OW 1300   0.489   0.835   2.486
  134SOL    HW1 1301   0.409   0.776   2.472
  134SOL    HW2 1302   0.556   0.817   2.413
  135SOL     OW 1303   4.994   3.359   4.244
  135SOL    HW1 1304   5.093   3.378   4.246
  135SOL    HW2 1305   4.957   3.369   4.336
  136SOL     OW 1306   2.646   5.949   4.611
  136SOL    HW1 1307   2.548   5.929   4.607
  136SOL    HW2 1308   2.664   6.038   4.569
  137SOL     OW 1309   4.151   1.071   4.292
  137SOL    HW1 1310   4.093   1.040   4.367
  137SOL    HW2 1311   4.096   1.124   4.227
  138SOL     OW 1312   0.817   5.157   3.444
  138SOL    HW1 1313   0.722   5.154   3.414
  138SOL    HW2 1314   0.868   5.081   3.404
  139SOL     OW 1315   2.438   5.514   6.690
  139SOL    HW1 1316   2.533   5.523   6.662
  139SOL    HW2 1317   2.378   5.542   6.615
  140SOL     OW 1318   1.674   6.638   2.695
  140SOL    HW1 1319   1.699   6.580   2.617
  140SOL    HW2 1320   1.575   6.638   2.706
  141SOL     OW 1321   6.813   3.532   6.763
  141SOL    HW1 1322   6.852   3.612   6.808
  141SOL    HW2 1323   6.732   3.558   6.712
  142SOL     OW 1324   1.764   3.635   1.269
  142SOL    HW1 1325   1.801   3.661   1.358
  142SOL    HW2 1326   1.677   3.682   1.254
  143SOL     OW 1327   5.808   6.256   1.099
  143SOL    HW1 1328   5.876   6.218   1.162
  143SOL    HW2 1329   5.749   6.182   1.066
  144SOL     OW 1330   3.021   4.846   3.779
  144SOL    HW1 1331   2.932   4.804   3.796
  144SOL    HW2 1332   3.089   4.807   3.842
  145SOL     OW 1333   0.835   4.980   2.593
  145SOL    HW1 1334   0.920   4.938   2.560
  145SOL    HW2 1335   0.854   5.033   2.676
  146SOL     OW 1336   5.504   1.063   5.207
  146SOL    HW1 1337   5.570   1.136   5.189
  146SOL    HW2 1338   5.469   1.029   5.120
  147SOL     OW 1339   4.979   1.382   4.870
  147SOL    HW1 1340   4.998   1.460   4.929
  147SOL    HW2 1341   4.922   1.411   4.793
  148SOL     OW 1342   1.401   4.826   1.363
  148SOL    HW1 1343   1.411   4.818   1.264
  148SOL    HW2 1344   1.325   4.769   1.394
  149SOL     OW 1345   3.083   2.410   5.415
  149SOL    HW1 1346   3.128   2.384   5.329
  149SOL    HW2 1347   3.001   2.464   5.394
  150SOL     OW 1348   4.520   1.024   5.616
  150SOL    HW1 1349   4.470   0.990   5.536
  150SOL    HW2 1350   4.562   1.112   5.594
  151SOL     OW 1351   4.340   0.999   1.357
  151SOL    HW1 1352   4.348   0.911   1.310
  151SOL    HW2 1353   4.331   1.072   1.290
  152SOL     OW 1354   6.836   1.170   6.831
  152SOL    HW1 1355   6.887   1.249   6.796
  152SOL    HW2 1356   6.748   1.164   6.784
  153SOL     OW 1357   3.082   0.469   3.635
  153SOL    HW1 1358   3.180   0.469   3.656
  153SOL    HW2 1359   3.032   0.513   3.710
  154SOL     OW 1360   6.882   2.555   0.679
  154SOL    HW1 1361   6.801   2.598   0.720
  154SOL    HW2 1362   6.853   2.497   0.602
  155SOL     OW 1363   0.444   7.016   1.649
  155SOL    HW1 1364   0.404   6.924   1.646
  155SOL    HW2 1365   0.539   7.011   1.619
  156SOL     OW 1366   6.057   1.646   0.470
  156SOL    HW1 1367   5.968   1.689   0.486
  156SOL    HW2 1368   6.053   1.550   0.499
  157SOL     OW 1369   6.188   2.819   0.289
  157SOL    HW1 1370   6.205   2.876   0.370
  157SOL    HW2 1371   6.123   2.747   0.313
  158SOL     OW 1372   1.494   2.373   1.920
  158SOL    HW1 1373   1.583   2.327   1.918
  158SOL    HW2 1374   1.478   2.410   2.012
  159SOL     OW 1375   4.552   4.688   0.986
  159SOL    HW1 1376   4.503   4.677   1.073
  159SOL    HW2 1377   4.531   4.777   0.947
  160SOL     OW 1378   6.244   0.461   1.174
  160SOL    HW1 1379   6.308   0.438   1.101
  160SOL    HW2 1380   6.220   0.558   1.168
  161SOL     OW 1381   1.121   6.450   1.030
  161SOL    HW1 1382   1.051   6.382   1.008
  161SOL    HW2 1383   1.195   6.406   1.083
  162SOL     OW 1384   2.986   6.301   0.601
  162SOL    HW1 1385   2.887   6.301   0.592
  162SOL    HW2 1386   3.028   6.316   0.512
  163SOL     OW 1387   0.023   5.090   3.088
  163SOL    HW1 1388   7.003   5.031   3.154
  163SOL    HW2 1389   0.017   5.185   3.117
  164SOL     OW 1390   1.286   1.814   2.439
  164SOL    HW1 1391   1.323   1.905   2.455
  164SOL    HW2 1392   1.330   1.773   2.359
  165SOL     OW 1393   6.308   5.601   2.040
  165SOL    HW1 1394   6.249   5.539   2.092
  165SOL    HW2 1395   6.324   5.562   1.949
  166SOL     OW 1396   6.696   4.017   1.590
  166SOL    HW1 1397   6.724   3.958   1.666
  166SOL    HW2 1398   6.602   3.997   1.564
  167SOL     OW 1399   5.448   1.581   6.571
  167SOL    HW1 1400   5.503   1.651   6.617
  167SOL    HW2 1401   5.383   1.542   6.635
  168SOL     OW 1402   4.005   2.579   1.522
  168SOL    HW1 1403   3.999   2.590   1.423
  168SOL    HW2 1404   3.995   2.668   1.566
  169SOL     OW 1405   6.426   2.719   0.171
  169SOL    HW1 1406   6.468   2.690   0.257
  169SOL    HW2 1407   6.345   2.774   0.190
  170SOL     OW 1408   0.443   5.894   3.536
  170SOL    HW1 1409   0.426   5.933   3.627
  170SOL    HW2 1410   0.371   5.924   3.473
  171SOL     OW 1411   1.674   3.589   6.298
  171SOL    HW1 1412   1.664   3.492   6.274
  171SOL    HW2 1413   1.767   3.618   6.278
  172SOL     OW 1414   5.951   2.736   2.757
  172SOL    HW1 1415   5.987   2.748   2.849
  172SOL    HW2 1416   5.958   2.640   2.730
  173SOL     OW 1417   5.896   0.933   4.306
  173SOL    HW1 1418   5.819   0.945   4.243
  173SOL    HW2 1419   5.908   0.836   4.326
  174SOL     OW 1420   5.305   5.050   5.007
  174SOL    HW1 1421   5.385   5.007   4.964
  174SOL    HW2 1422   5.275   5.128   4.952
  175SOL     OW 1423   2.809   0.461   0.842
  175SOL    HW1 1424   2.892   0.423   0.882
  175SOL    HW2 1425   2.731   0.404   0.867
  176SOL     OW 1426   5.073   4.898   3.288
  176SOL    HW1 1427   5.031   4.885   3.377
  176SOL    HW2 1428   5.072   4.811   3.238
  177SOL     OW 1429   5.245   2.237   5.391
  177SOL    HW1 1430   5.314   2.274   5.454
  177SOL    HW2 1431   5.183   2.178   5.442
  178SOL     OW 1432   2.738   5.020   4.435
  178SOL    HW1 1433   2.655   5.013   4.490
  178SOL    HW2 1434   2.812   5.057   4.491
  179SOL     OW 1435   3.961   6.294   0.265
  179SOL    HW1 1436   3.916   6.208   0.290
  179SOL    HW2 1437   3.972   6.350   0.347
  180SOL     OW 1438   2.704   6.374   0.163
  180SOL    HW1 1439   2.667   6.401   0.252
  180SOL    HW2 1440   2.631   6.335   0.108
  181SOL     OW 1441   3.187   2.195   5.513
  181SOL    HW1 1442   3.143   2.109   5.487
  181SOL    HW2 1443   3.135   2.272   5.476
  182SOL     OW 1444   4.683   3.175   0.043
  182SOL    HW1 1445   4.756   3.237   0.067
  182SOL    HW2 1446   4.633   3.147   0.125
  183SOL     OW 1447   4.018   2.148   3.841
  183SOL    HW1 1448   3.954   2.125   3.915
  183SOL    HW2 1449   3.968   2.158   3.756
  184SOL     OW 1450   0.931   6.740   3.546
  184SOL    HW1 1451   0.858   6.695   3.494
  184SOL    HW2 1452   0.919   6.839   3.542
  185SOL     OW 1453   0.914   1.840   3.736
  185SOL    HW1 1454   0.880   1.934   3.739
  185SOL    HW2 1455   1.006   1.836   3.775
  186SOL     OW 1456   5.718   6.161   4.004
  186SOL    HW1 1457   5.630   6.119   3.982
  186SOL    HW2 1458   5.763   6.191   3.919
  187SOL     OW 1459   4.332   5.442   2.796
  187SOL    HW1 1460   4.293   5.463   2.706
  187SOL    HW2 1461   4.431   5.453   2.793
  188SOL     OW 1462   1.161   1.966   3.163
  188SOL    HW1 1463   1.252   1.993   3.196
  188SOL    HW2 1464   1.152   1.867   3.167
  189SOL     OW 1465   0.029   4.664   6.822
  189SOL    HW1 1466   0.025   4.716   6.737
  189SOL    HW2 1467   6.981   4.598   6.824
  190SOL     OW 1468   6.114   4.716   6.989
  190SOL    HW1 1469   6.190   4.660   6.959
  190SOL    HW2 1470   6.051   4.731   6.912
  191SOL     OW 1471   6.600   1.457   5.771
  191SOL    HW1 1472   6.640   1.382   5.825
  191SOL    HW2 1473   6.671   1.523   5.748
  192SOL     OW 1474   0.660   4.583   1.629
  192SOL    HW1 1475   0.601   4.651   1.672
  192SOL    HW2 1476   0.702   4.621   1.547
  193SOL     OW 1477   4.140   4.813   5.510
  193SOL    HW1 1478   4.166   4.898   5.465
  193SOL    HW2 1479   4.171   4.735   5.455
  194SOL     OW 1480   4.032   6.758   1.641
  194SOL    HW1 1481   4.030   6.782   1.738
  194SOL    HW2 1482   3.940   6.736   1.610
  195SOL     OW 1483   2.900   0.480   3.869
  195SOL    HW1 1484   2.976   0.430   3.910
  195SOL    HW2 1485   2.825   0.417   3.851
  196SOL     OW 1486   3.205   0.424   6.624
  196SOL    HW1 1487   3.294   0.407   6.581
  196SOL    HW2 1488   3.202   0.381   6.714
  197SOL     OW 1489   2.932   6.029   6.641
  197SOL    HW1 1490   2.860   6.056   6.576
  197SOL    HW2 1491   2.932   5.930   6.651
  198SOL     OW 1492   4.118   6.055   1.021
  198SOL    HW1 1493   4.125   6.054   0.921
  198SOL    HW2 1494   4.188   5.994   1.059
  199SOL     OW 1495   6.516   1.128   2.040
  199SOL    HW1 1496   6.549   1.048   2.090
  199SOL    HW2 1497   6.570   1.208   2.066
  200SOL     OW 1498   1.365   3.635   2.220
  200SOL    HW1 1499   1.340   3.552   2.171
  200SOL    HW2 1500   1.464   3.637   2.234
  201SOL     OW 1501   2.840   6.349   6.343
  201SOL    HW1 1502   2.758   6.316   6.390
  201SOL    HW2 1503   2.911   6.279   6.346
  202SOL     OW 1504   5.060   0.019   4.863
  202SOL    HW1 1505   4.976   7.016   4.817
  202SOL    HW2 1506   5.039   0.097   4.922
  203SOL     OW 1507   4.462   2.693   5.687
  203SOL    HW1 1508   4.513   2.755   5.629
  203SOL    HW2 1509   4.524   2.623   5.724
  204SOL     OW 1510   1.278   7.022   6.897
  204SOL    HW1 1511   1.256   0.091   6.887
  204SOL    HW2 1512   1.359   7.000   6.843
  205SOL     OW 1513   0.984   1.613   1.571
  205SOL    HW1 1514   1.003   1.572   1.660
  205SOL    HW2 1515   1.053   1.582   1.505
  206SOL     OW 1516   0.196   4.699   2.096
  206SOL    HW1 1517   0.223   4.795   2.095
  206SOL    HW2 1518   0.098   4.692   2.118
  207SOL     OW 1519   4.234   0.696   5.348
  207SOL    HW1 1520   4.210   0.599   5.362
  207SOL    HW2 1521   4.150   0.750   5.346
  208SOL     OW 1522   5.460   3.917   5.780
  208SOL    HW1 1523   5.483   4.006   5.739
  208SOL    HW2 1524   5.510   3.845   5.732
  209SOL     OW 1525   0.420   5.903   5.701
  209SOL    HW1 1526   0.424   5.815   5.653
  209SOL    HW2 1527   0.512   5.933   5.726
  210SOL     OW 1528   4.166   2.207   2.127
  210SOL    HW1 1529   4.120   2.250   2.205
  210SOL    HW2 1530   4.206   2.120   2.155
  211SOL     OW 1531   1.153   6.985   3.584
  211SOL    HW1 1532   1.196   6.962   3.671
  211SOL    HW2 1533   1.218   6.969   3.510
  212SOL     OW 1534   2.255   5.056   2.332
  212SOL    HW1 1535   2.237   5.059   2.233
  212SOL    HW2 1536   2.254   4.961   2.363
  213SOL     OW 1537   4.549   0.992   6.611
  213SOL    HW1 1538   4.524   0.918   6.674
  213SOL    HW2 1539   4.565   0.953   6.520
  214SOL     OW 1540   2.245   5.996   2.777
  214SOL    HW1 1541   2.316   5.926   2.765
  214SOL    HW2 1542   2.198   5.981   2.865
  215SOL     OW 1543   3.659   4.161   2.072
  215SOL    HW1 1544   3.656   4.260   2.080
  215SOL    HW2 1545   3.568   4.126   2.049
  216SOL     OW 1546   1.689   0.255   4.760
  216SOL    HW1 1547   1.719   0.277   4.852
  216SOL    HW2 1548   1.718   0.327   4.697
  217SOL     OW 1549   1.789   2.906   4.531
  217SOL    HW1 1550   1.803   2.999   4.498
  217SOL    HW2 1551   1.856   2.845   4.490
  218SOL     OW 1552   1.262   2.761   4.979
  218SOL    HW1 1553   1.311   2.847   4.991
  218SOL    HW2 1554   1.323   2.685   5.000
  219SOL     OW 1555   3.963   5.096   6.354
  219SOL    HW1 1556   3.973   5.161   6.278
  219SOL    HW2 1557   3.902   5.134   6.423
  220SOL     OW 1558   3.395   5.319   0.206
  220SOL    HW1 1559   3.465   5.248   0.207
  220SOL    HW2 1560   3.314   5.288   0.256
  221SOL     OW 1561   5.354   3.764   2.752
  221SOL    HW1 1562   5.336   3.762   2.654
  221SOL    HW2 1563   5.451   3.748   2.769
  222SOL     OW 1564   1.833   4.750   5.301
  222SOL    HW1 1565   1.788   4.718   5.217
  222SOL    HW2 1566   1.785   4.713   5.381
  223SOL     OW 1567   0.645   3.206   0.692
  223SOL    HW1 1568   0.686   3.245   0.775
  223SOL    HW2 1569   0.578   3.136   0.718
  224SOL     OW 1570   2.431   2.629   3.395
  224SOL    HW1 1571   2.366   2.605   3.467
  224SOL    HW2 1572   2.383   2.682   3.324
  225SOL     OW 1573   5.376   0.884   6.489
  225SOL    HW1 1574   5.368   0.961   6.552
  225SOL    HW2 1575   5.334   0.909   6.401
  226SOL     OW 1576   0.891   6.694   6.958
  226SOL    HW1 1577   0.987   6.717   6.941
  226SOL    HW2 1578   0.861   6.626   6.892
  227SOL     OW 1579   1.033   4.573   3.239
  227SOL    HW1 1580   1.027   4.480   3.276
  227SOL    HW2 1581   1.041   4.568   3.139
  228SOL     OW 1582   3.235   0.903   3.982
  228SOL    HW1 1583   3.141   0.917   4.014
  228SOL    HW2 1584   3.260   0.807   3.994
  229SOL     OW 1585   6.618   5.288   1.012
  229SOL    HW1 1586   6.617   5.381   1.050
  229SOL    HW2 1587   6.642   5.293   0.915
  230SOL     OW 1588   2.490   5.078   3.598
  230SOL    HW1 1589   2.418   5.021   3.557
  230SOL    HW2 1590   2.506   5.048   3.692
  231SOL     OW 1591   5.929   2.794   6.091
  231SOL    HW1 1592   5.969   2.723   6.149
  231SOL    HW2 1593   5.877   2.751   6.017
  232SOL     OW 1594   0.632   4.174   6.099
  232SOL    HW1 1595   0.699   4.197   6.169
  232SOL    HW2 1596   0.678   4.130   6.022
  233SOL     OW 1597   2.193   1.091   4.711
  233SOL    HW1 1598   2.181   1.037   4.795
  233SOL    HW2 1599   2.151   1.181   4.723
  234SOL     OW 1600   2.902   5.372   5.643
  234SOL    HW1 1601   2.818   5.330   5.679
  234SOL    HW2 1602   2.891   5.388   5.545
  235SOL     OW 1603   3.762   2.931   2.641
  235SOL    HW1 1604   3.698   2.958   2.713
  235SOL    HW2 1605   3.726   2.851   2.592
  236SOL     OW 1606   6.117   3.070   6.537
  236SOL    HW1 1607   6.047   3.019   6.587
  236SOL    HW2 1608   6.097   3.168   6.543
  237SOL     OW 1609   0.662   6.573   0.831
  237SOL    HW1 1610   0.713   6.644   0.881
  237SOL    HW2 1611   0.613   6.615   0.755
  238SOL     OW 1612   6.393   3.140   1.021
  238SOL    HW1 1613   6.478   3.162   0.974
  238SOL    HW2 1614   6.331   3.219   1.019
  239SOL     OW 1615   6.582   4.820   0.206
  239SOL    HW1 1616   6.483   4.804   0.205
  239SOL    HW2 1617   6.629   4.740   0.245
  240SOL     OW 1618   0.757   3.333   6.042
  240SOL    HW1 1619   0.745   3.274   6.121
  240SOL    HW2 1620   0.750   3.279   5.958
  241SOL     OW 1621   1.000   0.481   3.550
  241SOL    HW1 1622   1.070   0.473   3.479
  241SOL    HW2 1623   1.043   0.498   3.638
  242SOL     OW 1624   0.951   2.568   5.875
  242SOL    HW1 1625   0.964   2.666   5.858
  242SOL    HW2 1626   0.865   2.538   5.832
  243SOL     OW 1627   4.639   0.500   5.864
  243SOL    HW1 1628   4.575   0.435   5.904
  243SOL    HW2 1629   4.615   0.592   5.892
  244SOL     OW 1630   4.833   2.941   4.326
  244SOL    HW1 1631   4.930   2.922   4.341
  244SOL    HW2 1632   4.823   2.997   4.244
  245SOL     OW 1633   6.607   2.298   4.328
  245SOL    HW1 1634   6.634   2.243   4.407
  245SOL    HW2 1635   6.533   2.359   4.354
  246SOL     OW 1636   5.245   4.040   3.496
  246SOL    HW1 1637   5.252   3.984   3.579
  246SOL    HW2 1638   5.213   3.983   3.420
  247SOL     OW 1639   2.670   1.546   3.256
  247SOL    HW1 1640   2.751   1.588   3.215
  247SOL    HW2 1641   2.635   1.474   3.196
  248SOL     OW 1642   4.701   1.978   4.597
  248SOL    HW1 1643   4.701   2.022   4.507
  248SOL    HW2 1644   4.729   1.883   4.587
  249SOL     OW 1645   3.209   6.774   5.222
  249SOL    HW1 1646   3.109   6.766   5.223
  249SOL    HW2 1647   3.234   6.868   5.202
  250SOL     OW 1648   5.239   1.447   6.033
  250SOL    HW1 1649   5.181   1.382   6.081
  250SOL    HW2 1650   5.335   1.429   6.055
  251SOL     OW 1651   4.556   3.448   6.156
  251SOL    HW1 1652   4.615   3.499   6.218
  251SOL    HW2 1653   4.572   3.350   6.167
  252SOL     OW 1654   0.163   1.147   5.682
  252SOL    HW1 1655   0.180   1.244   5.700
  252SOL    HW2 1656   0.154   1.133   5.583
  253SOL     OW 1657   2.427   4.153   0.584
  253SOL    HW1 1658   2.389   4.176   0.674
  253SOL    HW2 1659   2.385   4.211   0.515
  254SOL     OW 1660   6.318   2.665   4.244
  254SOL    HW1 1661   6.394   2.629   4.190
  254SOL    HW2 1662   6.272   2.737   4.193
  255SOL     OW 1663   3.096   1.785   4.390
  255SOL    HW1 1664   3.034   1.856   4.356
  255SOL    HW2 1665   3.068   1.696   4.354
  256SOL     OW 1666   6.906   5.052   0.072
  256SOL    HW1 1667   6.864   5.113   0.138
  256SOL    HW2 1668   6.926   4.964   0.115
  257SOL     OW 1669   3.337   5.789   5.508
  257SOL    HW1 1670   3.243   5.756   5.498
  257SOL    HW2 1671   3.396   5.742   5.443
  258SOL     OW 1672   5.165   3.810   4.836
  258SOL    HW1 1673   5.068   3.815   4.815
  258SOL    HW2 1674   5.178   3.806   4.935
  259SOL     OW 1675   1.350   3.137   2.936
  259SOL    HW1 1676   1.277   3.204   2.928
  259SOL    HW2 1677   1.311   3.045   2.942
  260SOL     OW 1678   4.890   0.119   0.227
  260SOL    HW1 1679   4.941   0.183   0.284
  260SOL    HW2 1680   4.844   0.052   0.286
  261SOL     OW 1681   0.786   3.469   1.144
  261SOL    HW1 1682   0.832   3.557   1.131
  261SOL    HW2 1683   0.690   3.484   1.165
  262SOL     OW 1684   0.695   4.265   2.547
  262SOL    HW1 1685   0.647   4.188   2.588
  262SOL    HW2 1686   0.631   4.323   2.496
  263SOL     OW 1687   6.853   1.773   4.442
  263SOL    HW1 1688   6.849   1.855   4.386
  263SOL    HW2 1689   6.788   1.780   4.518
  264SOL     OW 1690   0.156   3.717   5.857
  264SOL    HW1 1691   0.091   3.716   5.781
  264SOL    HW2 1692   0.249   3.725   5.822
  265SOL     OW 1693   5.233   4.237   3.242
  265SOL    HW1 1694   5.315   4.280   3.205
  265SOL    HW2 1695   5.252   4.198   3.331
  266SOL     OW 1696   3.309   2.074   0.048
  266SOL    HW1 1697   3.241   2.023   0.100
  266SOL    HW2 1698   3.280   2.082   6.981
  267SOL     OW 1699   1.314   2.844   6.916
  267SOL    HW1 1700   1.266   2.756   6.917
  267SOL    HW2 1701   1.278   2.902   6.989
  268SOL     OW 1702   4.854   4.911   4.857
  268SOL    HW1 1703   4.757   4.887   4.851
  268SOL    HW2 1704   4.894   4.872   4.940
  269SOL     OW 1705   1.659   1.835   6.854
  269SOL    HW1 1706   1.620   1.926   6.869
  269SOL    HW2 1707   1.639   1.776   6.932
  270SOL     OW 1708   4.945   0.902   2.312
  270SOL    HW1 1709   4.979   0.872   2.223
  270SOL    HW2 1710   5.011   0.965   2.353
  271SOL     OW 1711   2.102   1.736   0.931
  271SOL    HW1 1712   2.087   1.823   0.883
  271SOL    HW2 1713   2.181   1.690   0.892
  272SOL     OW 1714   3.812   5.695   4.201
  272SOL    HW1 1715   3.837   5.773   4.144
  272SOL    HW2 1716   3.844   5.611   4.158
  273SOL     OW 1717   1.251   5.713   5.161
  273SOL    HW1 1718   1.275   5.808   5.183
  273SOL    HW2 1719   1.315   5.677   5.094
  274SOL     OW 1720   4.925   3.094   3.547
  274SOL    HW1 1721   4.944   3.192   3.548
  274SOL    HW2 1722   4.894   3.067   3.456
  275SOL     OW 1723   0.676   5.427   6.263
  275SOL    HW1 1724   0.694   5.329   6.272
  275SOL    HW2 1725   0.595   5.451   6.316
  276SOL     OW 1726   6.527   5.643   3.898
  276SOL    HW1 1727   6.491   5.716   3.839
  276SOL    HW2 1728   6.450   5.596   3.942
  277SOL     OW 1729   2.961   0.835   6.169
  277SOL    HW1 1730   2.878   0.780   6.166
  277SOL    HW2 1731   2.959   0.894   6.250
  278SOL     OW 1732   5.136   3.853   2.485
  278SOL    HW1 1733   5.075   3.885   2.558
  278SOL    HW2 1734   5.228   3.889   2.501
  279SOL     OW 1735   6.653   3.016   3.839
  279SOL    HW1 1736   6.745   3.008   3.878
  279SOL    HW2 1737   6.597   3.073   3.899
  280SOL     OW 1738   4.689   6.683   4.165
  280SOL    HW1 1739   4.735   6.761   4.123
  280SOL    HW2 1740   4.708   6.601   4.111
  281SOL     OW 1741   3.587   5.170   3.897
  281SOL    HW1 1742   3.650   5.244   3.922
  281SOL    HW2 1743   3.631   5.082   3.912
  282SOL     OW 1744   4.036   1.817   5.800
  282SOL    HW1 1745   4.093   1.883   5.751
  282SOL    HW2 1746   3.957   1.864   5.840
  283SOL     OW 1747   6.143   0.284   5.222
  283SOL    HW1 1748   6.192   0.290   5.136
  283SOL    HW2 1749   6.197   0.327   5.295
  284SOL     OW 1750   0.418   4.788   4.414
  284SOL    HW1 1751   0.413   4.738   4.501
  284SOL    HW2 1752   0.349   4.861   4.414
  285SOL     OW 1753   5.410   6.448   0.223
  285SOL    HW1 1754   5.419   6.506   0.304
  285SOL    HW2 1755   5.384   6.355   0.252
  286SOL     OW 1756   3.813   5.217   5.289
  286SOL    HW1 1757   3.845   5.195   5.381
  286SOL    HW2 1758   3.756   5.142   5.255
  287SOL     OW 1759   1.635   5.624   6.041
  287SOL    HW1 1760   1.580   5.566   5.982
  287SOL    HW2 1761   1.720   5.648   5.995
  288SOL     OW 1762   4.014   0.698   1.142
  288SOL    HW1 1763   3.917   0.723   1.142
  288SOL    HW2 1764   4.037   0.654   1.056
  289SOL     OW 1765   1.222   5.338   5.925
  289SOL    HW1 1766   1.208   5.304   5.832
  289SOL    HW2 1767   1.136   5.338   5.975
  290SOL     OW 1768   4.232   0.544   2.768
  290SOL    HW1 1769   4.251   0.632   2.813
  290SOL    HW2 1770   4.234   0.471   2.836
  291SOL     OW 1771   4.316   1.226   3.786
  291SOL    HW1 1772   4.336   1.155   3.719
  291SOL    HW2 1773   4.395   1.239   3.845
  292SOL     OW 1774   3.844   0.332   3.374
  292SOL    HW1 1775   3.935   0.355   3.408
  292SOL    HW2 1776   3.797   0.416   3.346
  293SOL     OW 1777   4.353   6.124   2.251
  293SOL    HW1 1778   4.307   6.158   2.169
  293SOL    HW2 1779   4.318   6.172   2.331
  294SOL     OW 1780   5.924   5.943   6.058
  294SOL    HW1 1781   5.836   5.945   6.010
  294SOL    HW2 1782   5.913   5.898   6.147
  295SOL     OW 1783   1.502   2.994   5.324
  295SOL    HW1 1784   1.445   2.963   5.248
  295SOL    HW2 1785   1.455   3.066   5.374
  296SOL     OW 1786   6.404   1.873   0.763
  296SOL    HW1 1787   6.426   1.912   0.674
  296SOL    HW2 1788   6.388   1.775   0.753
  297SOL     OW 1789   4.769   5.182   3.307
  297SOL    HW1 1790   4.725   5.269   3.287
  297SOL    HW2 1791   4.797   5.138   3.222
  298SOL     OW 1792   4.223   0.996   0.634
  298SOL    HW1 1793   4.160   0.980   0.710
  298SOL    HW2 1794   4.196   1.078   0.585
  299SOL     OW 1795   3.502   1.484   0.232
  299SOL    HW1 1796   3.461   1.410   0.284
  299SOL    HW2 1797   3.525   1.560   0.293
  300SOL     OW 1798   3.155   1.107   2.597
  300SOL    HW1 1799   3.090   1.031   2.605
  300SOL    HW2 1800   3.245   1.072   2.574
  301SOL     OW 1801   4.666   0.346   1.846
  301SOL    HW1 1802   4.628   0.327   1.756
  301SOL    HW2 1803   4.753   0.297   1.858
  302SOL     OW 1804   0.558   0.396   2.046
  302SOL    HW1 1805   0.631   0.451   2.087
  302SOL    HW2 1806   0.557   0.408   1.947
  303SOL     OW 1807   5.888   5.989   1.680
  303SOL    HW1 1808   5.804   5.965   1.727
  303SOL    HW2 1809   5.903   6.088   1.686
  304SOL     OW 1810   1.771   6.419   5.753
  304SOL    HW1 1811   1.763   6.357   5.675
  304SOL    HW2 1812   1.853   6.398   5.805
  305SOL     OW 1813   1.561   2.988   0.750
  305SOL    HW1 1814   1.527   2.899   0.779
  305SOL    HW2 1815   1.506   3.060   0.793
  306SOL     OW 1816   0.441   1.128   2.444
  306SOL    HW1 1817   0.432   1.032   2.472
  306SOL    HW2 1818   0.449   1.132   2.344
  307SOL     OW 1819   3.135   4.012   0.452
  307SOL    HW1 1820   3.068   4.008   0.526
  307SOL    HW2 1821   3.100   3.963   0.372
  308SOL     OW 1822   5.885   2.747   4.668
  308SOL    HW1 1823   5.937   2.719   4.587
  308SOL    HW2 1824   5.909   2.841   4.691
  309SOL     OW 1825   1.326   6.240   0.161
  309SOL    HW1 1826   1.352   6.268   0.068
  309SOL    HW2 1827   1.288   6.318   0.210
  310SOL     OW 1828   5.902   6.194   4.253
  310SOL    HW1 1829   5.856   6.171   4.167
  310SOL    HW2 1830   6.000   6.175   4.244
  311SOL     OW 1831   2.523   4.575   2.387
  311SOL    HW1 1832   2.605   4.603   2.435
  311SOL    HW2 1833   2.497   4.645   2.321
  312SOL     OW 1834   4.404   2.431   3.828
  312SOL    HW1 1835   4.329   2.389   3.777
  312SOL    HW2 1836   4.453   2.495   3.768
  313SOL     OW 1837   3.005   3.571   2.611
  313SOL    HW1 1838   3.103   3.594   2.609
  313SOL    HW2 1839   2.992   3.484   2.659
  314SOL     OW 1840   2.100   5.268   5.439
  314SOL    HW1 1841   2.093   5.211   5.357
  314SOL    HW2 1842   2.033   5.238   5.507
  315SOL     OW 1843   0.286   1.834   3.592
  315SOL    HW1 1844   0.367   1.783   3.621
  315SOL    HW2 1845   0.274   1.913   3.651
  316SOL     OW 1846   4.115   1.434   4.323
  316SOL    HW1 1847   4.025   1.467   4.296
  316SOL    HW2 1848   4.174   1.428   4.242
  317SOL     OW 1849   1.611   1.080   1.863
  317SOL    HW1 1850   1.617   1.179   1.874
  317SOL    HW2 1851   1.612   1.036   1.953
  318SOL     OW 1852   6.258   0.599   6.631
  318SOL    HW1 1853   6.172   0.557   6.660
  318SOL    HW2 1854   6.334   0.558   6.681
  319SOL     OW 1855   0.051   2.139   3.586
  319SOL    HW1 1856   7.013   2.065   3.597
  319SOL    HW2 1857   0.003   2.226   3.577
  320SOL     OW 1858   6.201   2.804   6.748
  320SOL    HW1 1859   6.194   2.816   6.847
  320SOL    HW2 1860   6.266   2.870   6.711
  321SOL     OW 1861   3.694   2.322   0.511
  321SOL    HW1 1862   3.612   2.265   0.519
  321SOL    HW2 1863   3.757   2.301   0.586
  322SOL     OW 1864   3.898   3.015   4.598
  322SOL    HW1 1865   3.805   3.005   4.561
  322SOL    HW2 1866   3.959   3.046   4.526
  323SOL     OW 1867   1.103   2.394   4.311
  323SOL    HW1 1868   1.078   2.484   4.348
  323SOL    HW2 1869   1.171   2.351   4.371
  324SOL     OW 1870   1.870   6.672   3.373
  324SOL    HW1 1871   1.789   6.618   3.394
  324SOL    HW2 1872   1.941   6.613   3.334
  325SOL     OW 1873   1.364   4.032   2.468
  325SOL    HW1 1874   1.348   4.129   2.483
  325SOL    HW2 1875   1.297   3.979   2.519
  326SOL     OW 1876   1.213   4.517   5.559
  326SOL    HW1 1877   1.140   4.545   5.496
  326SOL    HW2 1878   1.278   4.459   5.510
  327SOL     OW 1879   2.682   4.733   2.544
  327SOL    HW1 1880   2.726   4.792   2.476
  327SOL    HW2 1881   2.619   4.787   2.599
  328SOL     OW 1882   2.091   4.603   1.233
  328SOL    HW1 1883   2.185   4.571   1.225
  328SOL    HW2 1884   2.081   4.660   1.314
  329SOL     OW 1885   3.025   4.175   6.133
  329SOL    HW1 1886   3.085   4.216   6.064
  329SOL    HW2 1887   3.080   4.140   6.209
  330SOL     OW 1888   3.792   6.081   0.295
  330SOL    HW1 1889   3.727   6.066   0.370
  330SOL    HW2 1890   3.816   5.992   0.254
  331SOL     OW 1891   5.504   4.946   1.025
  331SOL    HW1 1892   5.527   4.971   1.119
  331SOL    HW2 1893   5.529   5.021   0.964
  332SOL     OW 1894   5.731   1.865   3.813
  332SOL    HW1 1895   5.767   1.835   3.902
  332SOL    HW2 1896   5.805   1.867   3.746
  333SOL     OW 1897   4.403   0.715   5.117
  333SOL    HW1 1898   4.345   0.716   5.198
  333SOL    HW2 1899   4.461   0.796   5.116
  334SOL     OW 1900   3.699   2.582   1.207
  334SOL    HW1 1901   3.773   2.523   1.237
  334SOL    HW2 1902   3.611   2.541   1.234
  335SOL     OW 1903   4.483   0.429   6.704
  335SOL    HW1 1904   4.539   0.436   6.786
  335SOL    HW2 1905   4.521   0.488   6.632
  336SOL     OW 1906   2.932   1.658   3.188
  336SOL    HW1 1907   3.024   1.649   3.150
  336SOL    HW2 1908   2.919   1.751   3.222
  337SOL     OW 1909   1.006   2.903   5.924
  337SOL    HW1 1910   1.099   2.880   5.894
  337SOL    HW2 1911   0.977   2.988   5.881
  338SOL     OW 1912   3.485   3.493   1.261
  338SOL    HW1 1913   3.402   3.445   1.288
  338SOL    HW2 1914   3.560   3.427   1.251
  339SOL     OW 1915   3.990   4.985   4.296
  339SOL    HW1 1916   4.046   5.035   4.229
  339SOL    HW2 1917   3.895   5.015   4.287
  340SOL     OW 1918   5.074   3.488   4.993
  340SOL    HW1 1919   5.079   3.396   5.032
  340SOL    HW2 1920   4.988   3.531   5.020
  341SOL     OW 1921   5.691   6.439   4.066
  341SOL    HW1 1922   5.698   6.472   3.972
  341SOL    HW2 1923   5.698   6.339   4.066
  342SOL     OW 1924   4.474   3.082   0.523
  342SOL    HW1 1925   4.530   3.147   0.575
  342SOL    HW2 1926   4.378   3.092   0.550
  343SOL     OW 1927   0.115   6.568   2.459
  343SOL    HW1 1928   0.109   6.540   2.555
  343SOL    HW2 1929   0.074   6.659   2.448
  344SOL     OW 1930   1.065   2.326   2.047
  344SOL    HW1 1931   1.137   2.260   2.068
  344SOL    HW2 1932   0.976   2.286   2.069
  345SOL     OW 1933   6.187   2.101   4.303
  345SOL    HW1 1934   6.281   2.077   4.281
  345SOL    HW2 1935   6.140   2.021   4.343
  346SOL     OW 1936   1.583   6.924   2.504
  346SOL    HW1 1937   1.638   6.851   2.543
  346SOL    HW2 1938   1.492   6.924   2.545
  347SOL     OW 1939   3.203   5.759   6.905
  347SOL    HW1 1940   3.274   5.688   6.902
  347SOL    HW2 1941   3.233   5.839   6.853
  348SOL     OW 1942   4.789   5.016   3.105
  348SOL    HW1 1943   4.869   4.968   3.069
  348SOL    HW2 1944   4.725   5.035   3.030
  349SOL     OW 1945   6.577   4.517   2.284
  349SOL    HW1 1946   6.645   4.585   2.312
  349SOL    HW2 1947   6.494   4.563   2.253
  350SOL     OW 1948   2.773   3.048   0.838
  350SOL    HW1 1949   2.681   3.009   0.828
  350SOL    HW2 1950   2.804   3.082   0.749
  351SOL     OW 1951   2.665   3.272   0.393
  351SOL    HW1 1952   2.742   3.228   0.440
  351SOL    HW2 1953   2.579   3.247   0.438
  352SOL     OW 1954   3.938   6.552   3.602
  352SOL    HW1 1955   3.861   6.489   3.616
  352SOL    HW2 1956   3.907   6.631   3.550
  353SOL     OW 1957   3.166   0.652   6.510
  353SOL    HW1 1958   3.195   0.570   6.560
  353SOL    HW2 1959   3.069   0.669   6.526
  354SOL     OW 1960   4.705   2.329   1.346
  354SOL    HW1 1961   4.716   2.425   1.372
  354SOL    HW2 1962   4.713   2.272   1.428
  355SOL     OW 1963   1.892   3.852   2.455
  355SOL    HW1 1964   1.797   3.853   2.486
  355SOL    HW2 1965   1.913   3.763   2.415
  356SOL     OW 1966   2.408   0.989   5.121
  356SOL    HW1 1967   2.418   0.973   5.219
  356SOL    HW2 1968   2.474   0.933   5.071
  357SOL     OW 1969   6.857   5.771   4.264
  357SOL    HW1 1970   6.863   5.789   4.166
  357SOL    HW2 1971   6.790   5.834   4.305
  358SOL     OW 1972   4.433   6.641   0.541
  358SOL    HW1 1973   4.471   6.732   0.559
  358SOL    HW2 1974   4.467   6.607   0.453
  359SOL     OW 1975   2.984   0.964   1.984
  359SOL    HW1 1976   3.003   1.041   1.923
  359SOL    HW2 1977   2.965   0.882   1.929
  360SOL     OW 1978   1.514   4.043   4.608
  360SOL    HW1 1979   1.593   4.070   4.663
  360SOL    HW2 1980   1.526   3.949   4.576
  361SOL     OW 1981   6.799   5.740   2.781
  361SOL    HW1 1982   6.813   5.798   2.701
  361SOL    HW2 1983   6.778   5.647   2.751
  362SOL     OW 1984   3.637   3.036   1.396
  362SOL    HW1 1985   3.640   2.995   1.304
  362SOL    HW2 1986   3.556   3.003   1.444
  363SOL     OW 1987   5.503   5.024   3.190
  363SOL    HW1 1988   5.525   5.046   3.095
  363SOL    HW2 1989   5.417   5.067   3.215
  364SOL     OW 1990   6.849   4.924   6.838
  364SOL    HW1 1991   6.838   4.838   6.888
  364SOL    HW2 1992   6.859   4.999   6.903
  365SOL     OW 1993   4.144   0.606   0.917
  365SOL    HW1 1994   4.220   0.541   0.923
  365SOL    HW2 1995   4.171   0.683   0.860
  366SOL     OW 1996   5.736   2.406   6.909
  366SOL    HW1 1997   5.729   2.473   6.983
  366SOL    HW2 1998   5.655   2.413   6.850
  367SOL     OW 1999   5.965   2.394   6.744
  367SOL    HW1 2000   5.962   2.297   6.768
  367SOL    HW2 2001   5.874   2.434   6.757
  368SOL     OW 2002   6.810   2.712   5.159
  368SOL    HW1 2003   6.823   2.723   5.257
  368SOL    HW2 2004   6.712   2.716   5.138
  369SOL     OW 2005   5.702   4.501   3.172
  369SOL    HW1 2006   5.671   4.594   3.151
  369SOL    HW2 2007   5.798   4.492   3.147
  370SOL     OW 2008   0.741   2.383   3.967
  370SOL    HW1 2009   0.676   2.372   3.892
  370SOL    HW2 2010   0.693   2.415   4.048
  371SOL     OW 2011   1.723   4.128   0.053
  371SOL    HW1 2012   1.733   4.039   0.007
  371SOL    HW2 2013   1.775   4.127   0.138
  372SOL     OW 2014   2.132   0.059   5.508
  372SOL    HW1 2015   2.094   0.030   5.596
  372SOL    HW2 2016   2.065   0.043   5.435
  373SOL     OW 2017   5.505   6.204   5.518
  373SOL    HW1 2018   5.564   6.171   5.592
  373SOL    HW2 2019   5.524   6.300   5.500
  374SOL     OW 2020   2.417   2.626   3.040
  374SOL    HW1 2021   2.492   2.563   3.057
  374SOL    HW2 2022   2.428   2.708   3.097
  375SOL     OW 2023   1.266   4.504   4.154
  375SOL    HW1 2024   1.191   4.546   4.205
  375SOL    HW2 2025   1.320   4.447   4.216
  376SOL     OW 2026   1.523   1.754   5.178
  376SOL    HW1 2027   1.568   1.808   5.107
  376SOL    HW2 2028   1.543   1.794   5.268
  377SOL     OW 2029   1.956   2.416   6.801
  377SOL    HW1 2030   1.995   2.503   6.768
  377SOL    HW2 2031   1.975   2.406   6.898
  378SOL     OW 2032   3.911   1.592   0.535
  378SOL    HW1 2033   3.967   1.595   0.452
  378SOL    HW2 2034   3.837   1.526   0.523
  379SOL     OW 2035   5.317   2.567   0.029
  379SOL    HW1 2036   5.236   2.589   7.004
  379SOL    HW2 2037   5.292   2.510   0.107
  380SOL     OW 2038   3.142   1.078   1.195
  380SOL    HW1 2039   3.222   1.020   1.175
  380SOL    HW2 2040   3.134   1.088   1.295
  381SOL     OW 2041   1.709   3.836   3.755
  381SOL    HW1 2042   1.622   3.788   3.745
  381SOL    HW2 2043   1.758   3.834   3.668
  382SOL     OW 2044   5.919   0.819   6.945
  382SOL    HW1 2045   5.841   0.825   6.884
  382SOL    HW2 2046   5.952   0.912   6.965
  383SOL     OW 2047   3.999   3.452   0.240
  383SOL    HW1 2048   4.020   3.543   0.204
  383SOL    HW2 2049   3.936   3.405   0.178
  384SOL     OW 2050   0.070   5.416   4.966
  384SOL    HW1 2051   7.027   5.347   4.947
  384SOL    HW2 2052   0.125   5.431   4.884
  385SOL     OW 2053   3.187   5.989   5.758
  385SOL    HW1 2054   3.116   5.956   5.695
  385SOL    HW2 2055   3.174   6.087   5.773
  386SOL     OW 2056   3.209   0.156   4.367
  386SOL    HW1 2057   3.251   0.222   4.429
  386SOL    HW2 2058   3.137   0.106   4.415
  387SOL     OW 2059   0.556   5.519   2.388
  387SOL    HW1 2060   0.653   5.527   2.412
  387SOL    HW2 2061   0.547   5.509   2.289
  388SOL     OW 2062   1.975   2.139   6.376
  388SOL    HW1 2063   1.882   2.156   6.408
  388SOL    HW2 2064   2.005   2.050   6.408
  389SOL     OW 2065   3.290   3.636   2.643
  389SOL    HW1 2066   3.311   3.600   2.552
  389SOL    HW2 2067   3.357   3.706   2.667
  390SOL     OW 2068   3.139   1.054   3.595
  390SOL    HW1 2069   3.101   0.974   3.641
  390SOL    HW2 2070   3.230   1.074   3.633
  391SOL     OW 2071   2.585   2.545   5.931
  391SOL    HW1 2072   2.545   2.523   5.842
  391SOL    HW2 2073   2.659   2.481   5.952
  392SOL     OW 2074   1.347   4.173   0.436
  392SOL    HW1 2075   1.354   4.073   0.435
  392SOL    HW2 2076   1.435   4.212   0.460
  393SOL     OW 2077   0.489   4.742   6.944
  393SOL    HW1 2078   0.458   4.695   6.861
  393SOL    HW2 2079   0.413   4.795   6.982
  394SOL     OW 2080   7.013   0.927   6.408
  394SOL    HW1 2081   0.035   0.845   6.378
  394SOL    HW2 2082   6.943   0.901   6.474
  395SOL     OW 2083   4.835   3.832   3.442
  395SOL    HW1 2084   4.930   3.803   3.448
  395SOL    HW2 2085   4.801   3.856   3.533
  396SOL     OW 2086   3.799   4.021   1.885
  396SOL    HW1 2087   3.732   4.050   1.954
  396SOL    HW2 2088   3.802   4.089   1.812
  397SOL     OW 2089   4.274   2.322   5.577
  397SOL    HW1 2090   4.281   2.387   5.652
  397SOL    HW2 2091   4.306   2.364   5.492
  398SOL     OW 2092   0.678   6.139   2.224
  398SOL    HW1 2093   0.743   6.201   2.180
  398SOL    HW2 2094   0.695   6.138   2.323
  399SOL     OW 2095   5.431   5.833   2.552
  399SOL    HW1 2096   5.374   5.840   2.634
  399SOL    HW2 2097   5.500   5.906   2.553
  400SOL     OW 2098   6.274   6.271   5.723
  400SOL    HW1 2099   6.342   6.198   5.730
  400SOL    HW2 2100   6.318   6.355   5.692
  401SOL     OW 2101   4.997   0.581   5.359
  401SOL    HW1 2102   4.917   0.612   5.410
  401SOL    HW2 2103   5.080   0.610   5.406
  402SOL     OW 2104   5.857   0.611   3.266
  402SOL    HW1 2105   5.798   0.624   3.346
  402SOL    HW2 2106   5.938   0.560   3.292
  403SOL     OW 2107   4.459   1.941   4.906
  403SOL    HW1 2108   4.370   1.938   4.860
  403SOL    HW2 2109   4.505   2.027   4.884
  404SOL     OW 2110   1.572   6.049   3.938
  404SOL    HW1 2111   1.655   6.004   3.971
  404SOL    HW2 2112   1.510   6.066   4.015
  405SOL     OW 2113   1.668   3.769   1.805
  405SOL    HW1 2114   1.754   3.735   1.841
  405SOL    HW2 2115   1.593   3.710   1.836
  406SOL     OW 2116   0.784   4.096   4.278
  406SOL    HW1 2117   0.723   4.078   4.200
  406SOL    HW2 2118   0.734   4.143   4.350
  407SOL     OW 2119   2.377   0.575   3.171
  407SOL    HW1 2120   2.328   0.589   3.257
  407SOL    HW2 2121   2.475   0.584   3.187
  408SOL     OW 2122   0.735   2.489   2.838
  408SOL    HW1 2123   0.824   2.520   2.871
  408SOL    HW2 2124   0.700   2.417   2.898
  409SOL     OW 2125   6.293   2.631   0.884
  409SOL    HW1 2126   6.207   2.585   0.864
  409SOL    HW2 2127   6.336   2.588   0.964
  410SOL     OW 2128   1.511   0.380   0.456
  410SOL    HW1 2129   1.546   0.467   0.491
  410SOL    HW2 2130   1.419   0.393   0.421
  411SOL     OW 2131   5.622   6.913   6.809
  411SOL    HW1 2132   5.593   6.858   6.730
  411SOL    HW2 2133   5.684   6.985   6.778
  412SOL     OW 2134   5.538   6.574   3.825
  412SOL    HW1 2135   5.464   6.554   3.888
  412SOL    HW2 2136   5.505   6.571   3.731
  413SOL     OW 2137   5.718   5.337   2.085
  413SOL    HW1 2138   5.629   5.295   2.098
  413SOL    HW2 2139   5.728   5.415   2.147
  414SOL     OW 2140   4.081   5.275   3.595
  414SOL    HW1 2141   4.127   5.187   3.587
  414SOL    HW2 2142   3.984   5.260   3.616
  415SOL     OW 2143   1.049   5.716   6.545
  415SOL    HW1 2144   1.013   5.677   6.460
  415SOL    HW2 2145   0.982   5.780   6.583
  416SOL     OW 2146   4.906   5.939   4.303
  416SOL    HW1 2147   4.855   5.903   4.381
  416SOL    HW2 2148   5.001   5.909   4.308
  417SOL     OW 2149   2.842   4.996   0.562
  417SOL    HW1 2150   2.887   4.910   0.583
  417SOL    HW2 2151   2.853   5.060   0.638
  418SOL     OW 2152   4.281   6.102   1.395
  418SOL    HW1 2153   4.203   6.066   1.446
  418SOL    HW2 2154   4.303   6.040   1.320
  419SOL     OW 2155   1.570   0.052   1.063
  419SOL    HW1 2156   1.561   0.152   1.065
  419SOL    HW2 2157   1.488   0.012   1.023
  420SOL     OW 2158   6.052   1.678   6.751
  420SOL    HW1 2159   5.953   1.674   6.737
  420SOL    HW2 2160   6.077   1.627   6.833
  421SOL     OW 2161   0.076   4.776   6.442
  421SOL    HW1 2162   0.040   4.869   6.434
  421SOL    HW2 2163   0.004   4.710   6.420
  422SOL     OW 2164   5.425   4.537   0.337
  422SOL    HW1 2165   5.331   4.569   0.348
  422SOL    HW2 2166   5.477   4.605   0.284
  423SOL     OW 2167   0.599   2.240   0.350
  423SOL    HW1 2168   0.545   2.267   0.270
  423SOL    HW2 2169   0.606   2.141   0.354
  424SOL     OW 2170   2.104   3.715   0.848
  424SOL    HW1 2171   2.090   3.618   0.868
  424SOL    HW2 2172   2.133   3.763   0.930
  425SOL     OW 2173   5.521   1.299   2.352
  425SOL    HW1 2174   5.575   1.299   2.436
  425SOL    HW2 2175   5.582   1.299   2.273
  426SOL     OW 2176   4.545   2.367   4.070
  426SOL    HW1 2177   4.620   2.318   4.026
  426SOL    HW2 2178   4.482   2.402   4.001
  427SOL     OW 2179   5.136   5.592   2.852
  427SOL    HW1 2180   5.171   5.537   2.928
  427SOL    HW2 2181   5.066   5.655   2.886
  428SOL     OW 2182   4.212   0.133   4.511
  428SOL    HW1 2183   4.221   0.056   4.447
  428SOL    HW2 2184   4.274   0.206   4.484
  429SOL     OW 2185   1.989   3.345   0.739
  429SOL    HW1 2186   1.976   3.367   0.835
  429SOL    HW2 2187   1.970   3.426   0.683
  430SOL     OW 2188   6.605   6.962   4.922
  430SOL    HW1 2189   6.644   6.904   4.993
  430SOL    HW2 2190   6.613   6.916   4.833
  431SOL     OW 2191   3.464   6.686   0.416
  431SOL    HW1 2192   3.411   6.665   0.334
  431SOL    HW2 2193   3.402   6.711   0.491
  432SOL     OW 2194   6.759   1.997   1.317
  432SOL    HW1 2195   6.693   2.063   1.354
  432SOL    HW2 2196   6.769   1.921   1.381
  433SOL     OW 2197   3.037   6.370   4.760
  433SOL    HW1 2198   3.037   6.278   4.799
  433SOL    HW2 2199   3.119   6.382   4.704
  434SOL     OW 2200   3.271   5.973   1.955
  434SOL    HW1 2201   3.360   5.988   1.998
  434SOL    HW2 2202   3.209   5.930   2.021
  435SOL     OW 2203   5.111   2.590   5.926
  435SOL    HW1 2204   5.076   2.529   5.854
  435SOL    HW2 2205   5.120   2.682   5.889
  436SOL     OW 2206   3.135   6.287   1.048
  436SOL    HW1 2207   3.201   6.260   0.978
  436SOL    HW2 2208   3.123   6.386   1.047
  437SOL     OW 2209   1.075   0.524   6.770
  437SOL    HW1 2210   1.116   0.433   6.776
  437SOL    HW2 2211   0.985   0.523   6.813
  438SOL     OW 2212   2.195   3.904   2.302
  438SOL    HW1 2213   2.201   3.815   2.258
  438SOL    HW2 2214   2.279   3.956   2.285
  439SOL     OW 2215   6.020   4.397   3.847
  439SOL    HW1 2216   6.116   4.408   3.821
  439SOL    HW2 2217   5.972   4.343   3.778
  440SOL     OW 2218   1.709   1.477   5.010
  440SOL    HW1 2219   1.808   1.483   5.026
  440SOL    HW2 2220   1.662   1.472   5.097
  441SOL     OW 2221   1.263   2.810   3.481
  441SOL    HW1 2222   1.260   2.776   3.575
  441SOL    HW2 2223   1.247   2.908   3.480
  442SOL     OW 2224   3.144   4.999   6.360
  442SOL    HW1 2225   3.173   5.055   6.283
  442SOL    HW2 2226   3.154   4.902   6.337
  443SOL     OW 2227   6.226   4.550   4.662
  443SOL    HW1 2228   6.230   4.459   4.704
  443SOL    HW2 2229   6.262   4.546   4.569
  444SOL     OW 2230   5.105   1.678   5.957
  444SOL    HW1 2231   5.007   1.667   5.976
  444SOL    HW2 2232   5.149   1.588   5.960
  445SOL     OW 2233   0.417   5.336   3.065
  445SOL    HW1 2234   0.419   5.236   3.055
  445SOL    HW2 2235   0.505   5.374   3.037
  446SOL     OW 2236   4.188   4.767   3.302
  446SOL    HW1 2237   4.240   4.842   3.343
  446SOL    HW2 2238   4.097   4.799   3.276
  447SOL     OW 2239   0.373   2.945   6.283
  447SOL    HW1 2240   0.467   2.921   6.262
  447SOL    HW2 2241   0.352   2.920   6.378
  448SOL     OW 2242   2.764   0.645   4.102
  448SOL    HW1 2243   2.709   0.703   4.042
  448SOL    HW2 2244   2.797   0.566   4.051
  449SOL     OW 2245   4.391   1.205   4.237
  449SOL    HW1 2246   4.436   1.223   4.324
  449SOL    HW2 2247   4.302   1.163   4.253
  450SOL     OW 2248   1.570   5.833   3.599
  450SOL    HW1 2249   1.520   5.750   3.574
  450SOL    HW2 2250   1.660   5.808   3.637
  451SOL     OW 2251   2.170   1.797   3.460
  451SOL    HW1 2252   2.116   1.858   3.402
  451SOL    HW2 2253   2.249   1.764   3.408
  452SOL     OW 2254   6.152   5.938   1.135
  452SOL    HW1 2255   6.238   5.988   1.147
  452SOL    HW2 2256   6.076   5.992   1.171
  453SOL     OW 2257   3.711   0.900   5.260
  453SOL    HW1 2258   3.795   0.850   5.280
  453SOL    HW2 2259   3.685   0.953   5.341
  454SOL     OW 2260   0.265   4.776   6.755
  454SOL    HW1 2261   0.281   4.695   6.697
  454SOL    HW2 2262   0.213   4.749   6.836
  455SOL     OW 2263   6.336   2.734   3.210
  455SOL    HW1 2264   6.391   2.757   3.291
  455SOL    HW2 2265   6.391   2.680   3.147
  456SOL     OW 2266   6.046   6.421   4.010
  456SOL    HW1 2267   5.951   6.435   3.984
  456SOL    HW2 2268   6.104   6.424   3.928
  457SOL     OW 2269   2.084   3.390   4.070
  457SOL    HW1 2270   1.990   3.357   4.061
  457SOL    HW2 2271   2.091   3.450   4.149
  458SOL     OW 2272   4.490   5.348   3.415
  458SOL    HW1 2273   4.412   5.393   3.460
  458SOL    HW2 2274   4.459   5.306   3.330
  459SOL     OW 2275   1.947   0.065   5.322
  459SOL    HW1 2276   1.927   0.127   5.246
  459SOL    HW2 2277   1.928   6.999   5.293
  460SOL     OW 2278   1.723   0.229   3.442
  460SOL    HW1 2279   1.737   0.258   3.536
  460SOL    HW2 2280   1.671   0.143   3.441
  461SOL     OW 2281   6.404   0.054   5.892
  461SOL    HW1 2282   6.448   6.994   5.911
  461SOL    HW2 2283   6.348   0.081   5.970
  462SOL     OW 2284   3.258   2.963   6.180
  462SOL    HW1 2285   3.348   2.928   6.205
  462SOL    HW2 2286   3.255   3.061   6.199
  463SOL     OW 2287   6.558   5.801   2.908
  463SOL    HW1 2288   6.645   5.757   2.883
  463SOL    HW2 2289   6.490   5.731   2.929
  464SOL     OW 2290   2.146   2.118   5.497
  464SOL    HW1 2291   2.119   2.144   5.404
  464SOL    HW2 2292   2.168   2.020   5.499
  465SOL     OW 2293   0.207   2.653   5.403
  465SOL    HW1 2294   0.149   2.579   5.436
  465SOL    HW2 2295   0.282   2.615   5.349
  466SOL     OW 2296   0.520   5.687   2.957
  466SOL    HW1 2297   0.438   5.664   2.906
  466SOL    HW2 2298   0.537   5.618   3.028
  467SOL     OW 2299   1.446   1.606   0.558
  467SOL    HW1 2300   1.459   1.682   0.494
  467SOL    HW2 2301   1.375   1.545   0.524
  468SOL     OW 2302   3.630   0.228   6.555
  468SOL    HW1 2303   3.699   0.209   6.625
  468SOL    HW2 2304   3.661   0.192   6.467
  469SOL     OW 2305   2.956   3.610   6.625
  469SOL    HW1 2306   2.922   3.535   6.682
  469SOL    HW2 2307   3.049   3.634   6.653
  470SOL     OW 2308   3.978   6.964   2.144
  470SOL    HW1 2309   3.917   0.016   2.147
  470SOL    HW2 2310   4.072   6.994   2.159
  471SOL     OW 2311   2.274   2.297   3.788
  471SOL    HW1 2312   2.211   2.221   3.806
  471SOL    HW2 2313   2.366   2.260   3.773
  472SOL     OW 2314   5.458   3.269   6.772
  472SOL    HW1 2315   5.499   3.189   6.729
  472SOL    HW2 2316   5.376   3.241   6.823
  473SOL     OW 2317   1.207   2.911   3.011
  473SOL    HW1 2318   1.270   2.902   3.088
  473SOL    HW2 2319   1.121   2.952   3.042
  474SOL     OW 2320   5.392   5.601   4.364
  474SOL    HW1 2321   5.422   5.650   4.446
  474SOL    HW2 2322   5.341   5.519   4.390
  475SOL     OW 2323   6.015   0.840   6.227
  475SOL    HW1 2324   5.959   0.757   6.235
  475SOL    HW2 2325   6.100   0.828   6.278
  476SOL     OW 2326   6.722   3.816   3.391
  476SOL    HW1 2327   6.726   3.748   3.463
  476SOL    HW2 2328   6.705   3.771   3.303
  477SOL     OW 2329   1.900   5.253   4.069
  477SOL    HW1 2330   1.938   5.341   4.098
  477SOL    HW2 2331   1.800   5.257   4.074
  478SOL     OW 2332   3.148   6.596   1.488
  478SOL    HW1 2333   3.080   6.618   1.419
  478SOL    HW2 2334   3.115   6.522   1.546
  479SOL     OW 2335   4.197   2.156   5.895
  479SOL    HW1 2336   4.173   2.124   5.804
  479SOL    HW2 2337   4.114   2.158   5.952
  480SOL     OW 2338   2.145   1.202   6.710
  480SOL    HW1 2339   2.141   1.105   6.735
  480SOL    HW2 2340   2.060   1.246   6.737
  481SOL     OW 2341   1.936   0.004   0.348
  481SOL    HW1 2342   2.035   0.010   0.334
  481SOL    HW2 2343   1.906   0.081   0.404
  482SOL     OW 2344   4.524   4.624   2.498
  482SOL    HW1 2345   4.604   4.674   2.464
  482SOL    HW2 2346   4.460   4.609   2.423
  483SOL     OW 2347   6.424   1.387   1.739
  483SOL    HW1 2348   6.399   1.295   1.769
  483SOL    HW2 2349   6.438   1.445   1.820
  484SOL     OW 2350   1.738   3.379   4.821
  484SOL    HW1 2351   1.753   3.390   4.723
  484SOL    HW2 2352   1.766   3.461   4.869
  485SOL     OW 2353   3.613   5.191   2.310
  485SOL    HW1 2354   3.560   5.263   2.264
  485SOL    HW2 2355   3.586   5.186   2.406
  486SOL     OW 2356   6.508   1.343   0.188
  486SOL    HW1 2357   6.485   1.331   0.284
  486SOL    HW2 2358   6.579   1.413   0.179
  487SOL     OW 2359   1.114   0.666   1.002
  487SOL    HW1 2360   1.156   0.717   0.927
  487SOL    HW2 2361   1.040   0.608   0.966
  488SOL     OW 2362   1.038   1.304   2.208
  488SOL    HW1 2363   0.983   1.378   2.172
  488SOL    HW2 2364   1.135   1.320   2.186
  489SOL     OW 2365   3.754   5.899   6.217
  489SOL    HW1 2366   3.755   5.817   6.274
  489SOL    HW2 2367   3.675   5.956   6.242
  490SOL     OW 2368   6.427   5.578   3.086
  490SOL    HW1 2369   6.343   5.624   3.115
  490SOL    HW2 2370   6.405   5.485   3.057
  491SOL     OW 2371   0.513   2.948   2.795
  491SOL    HW1 2372   0.526   2.854   2.826
  491SOL    HW2 2373   0.462   2.949   2.709
  492SOL     OW 2374   1.724   0.465   5.279
  492SOL    HW1 2375   1.709   0.547   5.333
  492SOL    HW2 2376   1.821   0.442   5.279
  493SOL     OW 2377   5.132   5.665   5.472
  493SOL    HW1 2378   5.184   5.597   5.524
  493SOL    HW2 2379   5.046   5.685   5.519
  494SOL     OW 2380   0.248   6.997   6.729
  494SOL    HW1 2381   0.264   6.918   6.670
  494SOL    HW2 2382   0.188   6.971   6.804
  495SOL     OW 2383   5.065   5.912   3.123
  495SOL    HW1 2384   5.007   5.843   3.079
  495SOL    HW2 2385   5.024   5.940   3.209
  496SOL     OW 2386   5.497   4.157   1.984
  496SOL    HW1 2387   5.421   4.216   1.955
  496SOL    HW2 2388   5.537   4.112   1.905
  497SOL     OW 2389   3.242   1.063   4.278
  497SOL    HW1 2390   3.253   1.120   4.360
  497SOL    HW2 2391   3.320   1.001   4.270
  498SOL     OW 2392   2.014   3.244   1.082
  498SOL    HW1 2393   1.962   3.189   1.147
  498SOL    HW2 2394   2.068   3.184   1.023
  499SOL     OW 2395   2.132   6.909   4.636
  499SOL    HW1 2396   2.035   6.889   4.650
  499SOL    HW2 2397   2.188   6.842   4.684
  500SOL     OW 2398   0.923   3.034   4.456
  500SOL    HW1 2399   0.946   2.983   4.539
  500SOL    HW2 2400   0.833   3.077   4.467
  501SOL     OW 2401   3.124   5.594   1.051
  501SOL    HW1 2402   3.214   5.557   1.072
  501SOL    HW2 2403   3.088   5.549   0.969
  502SOL     OW 2404   0.405   3.891   0.469
  502SOL    HW1 2405   0.387   3.807   0.418
  502SOL    HW2 2406   0.434   3.963   0.406
  503SOL     OW 2407   6.792   5.284   6.830
  503SOL    HW1 2408   6.710   5.227   6.822
  503SOL    HW2 2409   6.782   5.346   6.908
  504SOL     OW 2410   0.913   5.458   2.608
  504SOL    HW1 2411   0.985   5.392   2.626
  504SOL    HW2 2412   0.869   5.485   2.694
  505SOL     OW 2413   3.084   6.162   5.185
  505SOL    HW1 2414   2.992   6.128   5.200
  505SOL    HW2 2415   3.151   6.096   5.220
  506SOL     OW 2416   2.485   5.023   4.584
  506SOL    HW1 2417   2.496   5.061   4.676
  506SOL    HW2 2418   2.404   4.964   4.581
  507SOL     OW 2419   3.279   6.384   3.051
  507SOL    HW1 2420   3.246   6.430   2.968
  507SOL    HW2 2421   3.267   6.445   3.129
  508SOL     OW 2422   0.203   3.834   2.431
  508SOL    HW1 2423   0.183   3.932   2.425
  508SOL    HW2 2424   0.119   3.784   2.449
  509SOL     OW 2425   3.260   1.333   1.596
  509SOL    HW1 2426   3.194   1.276   1.547
  509SOL    HW2 2427   3.350   1.289   1.594
  510SOL     OW 2428   6.264   4.892   0.397
  510SOL    HW1 2429   6.233   4.985   0.379
  510SOL    HW2 2430   6.338   4.893   0.465
  511SOL     OW 2431   0.876   1.517   5.373
  511SOL    HW1 2432   0.903   1.551   5.283
  511SOL    HW2 2433   0.957   1.491   5.425
  512SOL     OW 2434   6.841   2.826   6.902
  512SOL    HW1 2435   6.925   2.781   6.932
  512SOL    HW2 2436   6.847   2.924   6.923
  513SOL     OW 2437   6.190   6.839   3.711
  513SOL    HW1 2438   6.247   6.888   3.776
  513SOL    HW2 2439   6.244   6.814   3.631
  514SOL     OW 2440   6.474   2.512   4.075
  514SOL    HW1 2441   6.385   2.471   4.053
  514SOL    HW2 2442   6.525   2.527   3.990
  515SOL     OW 2443   0.922   0.725   6.328
  515SOL    HW1 2444   0.849   0.658   6.320
  515SOL    HW2 2445   0.958   0.723   6.422
  516SOL     OW 2446   2.576   4.698   1.905
  516SOL    HW1 2447   2.523   4.696   1.990
  516SOL    HW2 2448   2.672   4.675   1.924
  517SOL     OW 2449   4.367   5.837   2.228
  517SOL    HW1 2450   4.277   5.801   2.251
  517SOL    HW2 2451   4.364   5.937   2.223
  518SOL     OW 2452   2.597   2.438   3.242
  518SOL    HW1 2453   2.663   2.380   3.291
  518SOL    HW2 2454   2.557   2.503   3.307
  519SOL     OW 2455   0.533   0.194   4.894
  519SOL    HW1 2456   0.463   0.248   4.847
  519SOL    HW2 2457   0.506   0.180   4.989
  520SOL     OW 2458   6.560   4.078   1.009
  520SOL    HW1 2459   6.617   4.160   1.009
  520SOL    HW2 2460   6.565   4.033   0.920
  521SOL     OW 2461   6.588   4.568   4.696
  521SOL    HW1 2462   6.682   4.603   4.696
  521SOL    HW2 2463   6.525   4.642   4.670
  522SOL     OW 2464   3.631   3.249   4.579
  522SOL    HW1 2465   3.559   3.264   4.511
  522SOL    HW2 2466   3.632   3.153   4.606
  523SOL     OW 2467   0.418   4.979   1.792
  523SOL    HW1 2468   0.403   5.036   1.873
  523SOL    HW2 2469   0.340   4.988   1.730
  524SOL     OW 2470   0.153   1.027   1.552
  524SOL    HW1 2471   0.140   1.000   1.647
  524SOL    HW2 2472   0.125   1.122   1.540
  525SOL     OW 2473   2.600   3.543   5.784
  525SOL    HW1 2474   2.650   3.474   5.733
  525SOL    HW2 2475   2.603   3.521   5.882
  526SOL     OW 2476   4.245   6.670   4.212
  526SOL    HW1 2477   4.174   6.632   4.272
  526SOL    HW2 2478   4.332   6.624   4.228
  527SOL     OW 2479   6.429   2.698   6.942
  527SOL    HW1 2480   6.353   2.634   6.948
  527SOL    HW2 2481   6.455   2.729   0.006
  528SOL     OW 2482   0.889   1.707   3.064
  528SOL    HW1 2483   0.986   1.687   3.082
  528SOL    HW2 2484   0.865   1.672   2.974
  529SOL     OW 2485   2.310   0.006   3.930
  529SOL    HW1 2486   2.273   0.072   3.996
  529SOL    HW2 2487   2.236   6.976   3.896
  530SOL     OW 2488   3.231   3.084   4.699
  530SOL    HW1 2489   3.275   3.174   4.701
  530SOL    HW2 2490   3.186   3.071   4.611
  531SOL     OW 2491   0.686   1.387   3.365
  531SOL    HW1 2492   0.626   1.330   3.310
  531SOL    HW2 2493   0.675   1.483   3.337
  532SOL     OW 2494   0.811   2.795   6.792
  532SOL    HW1 2495   0.876   2.868   6.774
  532SOL    HW2 2496   0.799   2.740   6.709
  533SOL     OW 2497   4.539   6.622   3.864
  533SOL    HW1 2498   4.603   6.549   3.887
  533SOL    HW2 2499   4.446   6.586   3.866
  534SOL     OW 2500   5.300   6.531   2.302
  534SOL    HW1 2501   5.300   6.627   2.331
  534SOL    HW2 2502   5.207   6.495   2.305
  535SOL     OW 2503   0.913   3.496   4.229
  535SOL    HW1 2504   0.975   3.492   4.308
  535SOL    HW2 2505   0.862   3.582   4.231
  536SOL     OW 2506   6.626   5.353   1.416
  536SOL    HW1 2507   6.541   5.393   1.384
  536SOL    HW2 2508   6.606   5.279   1.480
  537SOL     OW 2509   2.687   6.206   4.496
  537SOL    HW1 2510   2.697   6.211   4.396
  537SOL    HW2 2511   2.742   6.278   4.538
  538SOL     OW 2512   1.403   4.242   3.176
  538SOL    HW1 2513   1.432   4.329   3.137
  538SOL    HW2 2514   1.480   4.200   3.226
  539SOL     OW 2515   1.406   6.567   0.997
  539SOL    HW1 2516   1.494   6.561   0.950
  539SOL    HW2 2517   1.393   6.486   1.054
  540SOL     OW 2518   1.073   0.314   3.203
  540SOL    HW1 2519   1.011   0.258   3.258
  540SOL    HW2 2520   1.158   0.263   3.185
  541SOL     OW 2521   4.235   6.159   4.406
  541SOL    HW1 2522   4.175   6.108   4.345
  541SOL    HW2 2523   4.328   6.158   4.369
  542SOL     OW 2524   6.655   0.061   6.443
  542SOL    HW1 2525   6.617   0.098   6.359
  542SOL    HW2 2526   6.737   0.114   6.469
  543SOL     OW 2527   1.541   4.009   5.700
  543SOL    HW1 2528   1.601   4.067   5.644
  543SOL    HW2 2529   1.596   3.959   5.767
  544SOL     OW 2530   2.780   3.488   0.280
  544SOL    HW1 2531   2.732   3.410   0.319
  544SOL    HW2 2532   2.750   3.503   0.186
  545SOL     OW 2533   2.772   1.149   2.736
  545SOL    HW1 2534   2.794   1.233   2.787
  545SOL    HW2 2535   2.717   1.172   2.656
  546SOL     OW 2536   1.717   3.176   0.420
  546SOL    HW1 2537   1.698   3.227   0.337
  546SOL    HW2 2538   1.651   3.103   0.431
  547SOL     OW 2539   3.218   1.319   7.024
  547SOL    HW1 2540   3.303   1.271   7.005
  547SOL    HW2 2541   3.200   1.317   0.094
  548SOL     OW 2542   3.640   2.859   2.984
  548SOL    HW1 2543   3.684   2.770   2.987
  548SOL    HW2 2544   3.708   2.931   2.998
  549SOL     OW 2545   4.755   3.265   1.071
  549SOL    HW1 2546   4.685   3.195   1.057
  549SOL    HW2 2547   4.721   3.335   1.133
  550SOL     OW 2548   6.482   4.734   3.702
  550SOL    HW1 2549   6.389   4.743   3.738
  550SOL    HW2 2550   6.503   4.815   3.647
  551SOL     OW 2551   1.076   0.359   2.095
  551SOL    HW1 2552   1.049   0.439   2.041
  551SOL    HW2 2553   1.088   0.386   2.190
  552SOL     OW 2554   4.938   4.350   0.171
  552SOL    HW1 2555   4.923   4.449   0.173
  552SOL    HW2 2556   4.874   4.306   0.234
  553SOL     OW 2557   1.799   6.531   2.103
  553SOL    HW1 2558   1.808   6.611   2.162
  553SOL    HW2 2559   1.707   6.493   2.111
  554SOL     OW 2560   5.488   6.815   6.158
  554SOL    HW1 2561   5.524   6.758   6.232
  554SOL    HW2 2562   5.388   6.806   6.154
  555SOL     OW 2563   1.692   5.220   3.114
  555SOL    HW1 2564   1.736   5.256   3.031
  555SOL    HW2 2565   1.638   5.140   3.090
  556SOL     OW 2566   5.212   2.348   3.743
  556SOL    HW1 2567   5.144   2.397   3.798
  556SOL    HW2 2568   5.208   2.380   3.649
  557SOL     OW 2569   0.717   4.355   0.276
  557SOL    HW1 2570   0.678   4.293   0.344
  557SOL    HW2 2571   0.816   4.339   0.269
  558SOL     OW 2572   2.994   3.200   4.525
  558SOL    HW1 2573   3.005   3.280   4.465
  558SOL    HW2 2574   2.978   3.231   4.619
  559SOL     OW 2575   6.721   5.432   0.055
  559SOL    HW1 2576   6.807   5.453   0.100
  559SOL    HW2 2577   6.657   5.393   0.121
  560SOL     OW 2578   4.591   4.128   6.758
  560SOL    HW1 2579   4.615   4.035   6.786
  560SOL    HW2 2580   4.636   4.194   6.818
  561SOL     OW 2581   6.220   1.364   0.110
  561SOL    HW1 2582   6.288   1.313   0.162
  561SOL    HW2 2583   6.253   1.378   0.016
  562SOL     OW 2584   5.600   0.453   5.881
  562SOL    HW1 2585   5.539   0.483   5.955
  562SOL    HW2 2586   5.549   0.454   5.794
  563SOL     OW 2587   2.069   0.803   3.115
  563SOL    HW1 2588   2.128   0.792   3.035
  563SOL    HW2 2589   2.008   0.725   3.123
  564SOL     OW 2590   2.369   2.144   7.006
  564SOL    HW1 2591   2.341   2.161   6.912
  564SOL    HW2 2592   2.467   2.162   7.016
  565SOL     OW 2593   3.559   2.662   5.946
  565SOL    HW1 2594   3.648   2.641   5.906
  565SOL    HW2 2595   3.514   2.733   5.892
  566SOL     OW 2596   6.166   5.025   4.363
  566SOL    HW1 2597   6.089   4.965   4.385
  566SOL    HW2 2598   6.208   4.995   4.277
  567SOL     OW 2599   3.905   3.863   2.559
  567SOL    HW1 2600   3.872   3.813   2.479
  567SOL    HW2 2601   3.829   3.912   2.602
  568SOL     OW 2602   3.882   1.944   0.222
  568SOL    HW1 2603   3.810   1.890   0.267
  568SOL    HW2 2604   3.857   2.041   0.225
  569SOL     OW 2605   1.241   3.994   6.465
  569SOL    HW1 2606   1.312   4.005   6.535
  569SOL    HW2 2607   1.165   4.056   6.485
  570SOL     OW 2608   2.600   6.232   6.968
  570SOL    HW1 2609   2.681   6.199   6.919
  570SOL    HW2 2610   2.535   6.271   6.902
  571SOL     OW 2611   3.027   0.676   2.455
  571SOL    HW1 2612   2.952   0.642   2.512
  571SOL    HW2 2613   3.100   0.607   2.452
  572SOL     OW 2614   2.819   4.814   5.844
  572SOL    HW1 2615   2.811   4.813   5.944
  572SOL    HW2 2616   2.855   4.726   5.813
  573SOL     OW 2617   5.506   0.993   5.940
  573SOL    HW1 2618   5.485   0.968   5.845
  573SOL    HW2 2619   5.522   0.910   5.993
  574SOL     OW 2620   3.306   1.998   4.339
  574SOL    HW1 2621   3.282   2.069   4.404
  574SOL    HW2 2622   3.249   1.917   4.354
  575SOL     OW 2623   6.083   3.156   0.285
  575SOL    HW1 2624   6.064   3.207   0.368
  575SOL    HW2 2625   6.079   3.217   0.206
  576SOL     OW 2626   1.003   2.203   2.606
  576SOL    HW1 2627   0.995   2.120   2.552
  576SOL    HW2 2628   0.957   2.191   2.694
  577SOL     OW 2629   2.145   1.405   2.741
  577SOL    HW1 2630   2.115   1.320   2.786
  577SOL    HW2 2631   2.109   1.483   2.791
  578SOL     OW 2632   6.301   5.111   3.452
  578SOL    HW1 2633   6.202   5.121   3.463
  578SOL    HW2 2634   6.346   5.199   3.468
  579SOL     OW 2635   1.705   3.288   1.799
  579SOL    HW1 2636   1.773   3.218   1.818
  579SOL    HW2 2637   1.749   3.367   1.756
  580SOL     OW 2638   6.832   4.493   6.812
  580SOL    HW1 2639   6.790   4.465   6.898
  580SOL    HW2 2640   6.767   4.548   6.759
  581SOL     OW 2641   2.911   3.709   2.403
  581SOL    HW1 2642   2.928   3.658   2.487
  581SOL    HW2 2643   2.812   3.716   2.388
  582SOL     OW 2644   5.666   5.483   2.564
  582SOL    HW1 2645   5.570   5.467   2.539
  582SOL    HW2 2646   5.725   5.439   2.496
  583SOL     OW 2647   2.644   5.348   6.179
  583SOL    HW1 2648   2.690   5.265   6.149
  583SOL    HW2 2649   2.629   5.408   6.101
  584SOL     OW 2650   1.917   3.862   6.735
  584SOL    HW1 2651   1.991   3.929   6.737
  584SOL    HW2 2652   1.905   3.827   6.642
  585SOL     OW 2653   5.463   3.158   6.341
  585SOL    HW1 2654   5.542   3.162   6.401
  585SOL    HW2 2655   5.391   3.102   6.383
  586SOL     OW 2656   3.735   1.470   6.340
  586SOL    HW1 2657   3.681   1.518   6.409
  586SOL    HW2 2658   3.761   1.380   6.375
  587SOL     OW 2659   2.746   1.793   4.911
  587SOL    HW1 2660   2.725   1.721   4.977
  587SOL    HW2 2661   2.839   1.779   4.875
  588SOL     OW 2662   2.394   4.545   0.581
  588SOL    HW1 2663   2.345   4.573   0.499
  588SOL    HW2 2664   2.330   4.505   0.646
  589SOL     OW 2665   3.271   5.313   1.280
  589SOL    HW1 2666   3.341   5.277   1.341
  589SOL    HW2 2667   3.310   5.388   1.225
  590SOL     OW 2668   5.453   2.920   2.246
  590SOL    HW1 2669   5.540   2.875   2.267
  590SOL    HW2 2670   5.437   2.917   2.147
  591SOL     OW 2671   3.892   6.001   3.769
  591SOL    HW1 2672   3.972   6.047   3.807
  591SOL    HW2 2673   3.896   6.004   3.669
  592SOL     OW 2674   3.200   0.434   1.387
  592SOL    HW1 2675   3.257   0.406   1.465
  592SOL    HW2 2676   3.195   0.534   1.384
  593SOL     OW 2677   4.769   2.494   3.839
  593SOL    HW1 2678   4.823   2.431   3.783
  593SOL    HW2 2679   4.701   2.539   3.782
  594SOL     OW 2680   5.281   2.182   6.029
  594SOL    HW1 2681   5.251   2.133   6.110
  594SOL    HW2 2682   5.328   2.266   6.056
  595SOL     OW 2683   5.532   0.321   3.592
  595SOL    HW1 2684   5.446   0.306   3.642
  595SOL    HW2 2685   5.598   0.367   3.652
  596SOL     OW 2686   1.491   4.325   2.307
  596SOL    HW1 2687   1.524   4.231   2.297
  596SOL    HW2 2688   1.413   4.327   2.369
  597SOL     OW 2689   3.781   0.036   6.400
  597SOL    HW1 2690   3.818   0.022   6.308
  597SOL    HW2 2691   3.784   6.978   6.450
  598SOL     OW 2692   3.328   4.333   6.658
  598SOL    HW1 2693   3.357   4.404   6.722
  598SOL    HW2 2694   3.382   4.339   6.574
  599SOL     OW 2695   2.106   6.596   2.685
  599SOL    HW1 2696   2.011   6.579   2.657
  599SOL    HW2 2697   2.126   6.545   2.768
  600SOL     OW 2698   0.824   0.718   0.990
  600SOL    HW1 2699   0.873   0.804   1.002
  600SOL    HW2 2700   0.836   0.686   0.896
  601SOL     OW 2701   3.237   6.786   3.707
  601SOL    HW1 2702   3.320   6.772   3.654
  601SOL    HW2 2703   3.254   6.854   3.778
  602SOL     OW 2704   2.204   3.083   6.768
  602SOL    HW1 2705   2.181   3.179   6.753
  602SOL    HW2 2706   2.204   3.063   6.866
  603SOL     OW 2707   4.176   1.646   3.300
  603SOL    HW1 2708   4.201   1.550   3.309
  603SOL    HW2 2709   4.103   1.655   3.232
  604SOL     OW 2710   0.941   4.091   1.153
  604SOL    HW1 2711   0.935   4.073   1.055
  604SOL    HW2 2712   0.866   4.044   1.201
  605SOL     OW 2713   6.054   5.663   2.595
  605SOL    HW1 2714   6.154   5.666   2.595
  605SOL    HW2 2715   6.020   5.684   2.686
  606SOL     OW 2716   5.036   0.721   6.414
  606SOL    HW1 2717   5.028   0.820   6.398
  606SOL    HW2 2718   5.009   0.672   6.331
  607SOL     OW 2719   5.263   0.614   5.469
  607SOL    HW1 2720   5.299   0.705   5.448
  607SOL    HW2 2721   5.313   0.575   5.546
  608SOL     OW 2722   4.104   6.037   0.027
  608SOL    HW1 2723   4.116   5.976   0.105
  608SOL    HW2 2724   4.123   5.987   6.970
  609SOL     OW 2725   3.972   3.060   3.822
  609SOL    HW1 2726   4.043   3.099   3.881
  609SOL    HW2 2727   3.912   3.002   3.877
  610SOL     OW 2728   5.210   2.435   2.645
  610SOL    HW1 2729   5.156   2.383   2.580
  610SOL    HW2 2730   5.259   2.508   2.597
  611SOL     OW 2731   1.630   0.691   6.528
  611SOL    HW1 2732   1.706   0.677   6.465
  611SOL    HW2 2733   1.587   0.603   6.549
  612SOL     OW 2734   3.969   6.545   6.660
  612SOL    HW1 2735   4.008   6.514   6.747
  612SOL    HW2 2736   4.039   6.540   6.589
  613SOL     OW 2737   4.051   6.837   5.875
  613SOL    HW1 2738   4.129   6.777   5.859
  613SOL    HW2 2739   3.974   6.783   5.909
  614SOL     OW 2740   5.967   3.862   0.862
  614SOL    HW1 2741   5.867   3.868   0.855
  614SOL    HW2 2742   6.002   3.941   0.910
  615SOL     OW 2743   0.320   1.930   1.308
  615SOL    HW1 2744   0.401   1.898   1.259
  615SOL    HW2 2745   0.241   1.875   1.281
  616SOL     OW 2746   6.886   2.007   3.205
  616SOL    HW1 2747   6.946   1.939   3.247
  616SOL    HW2 2748   6.891   1.998   3.106
  617SOL     OW 2749   0.347   3.847   6.928
  617SOL    HW1 2750   0.423   3.904   6.899
  617SOL    HW2 2751   0.378   3.752   6.938
  618SOL     OW 2752   0.141   3.449   7.013
  618SOL    HW1 2753   0.104   3.402   6.933
  618SOL    HW2 2754   0.070   3.506   0.026
  619SOL     OW 2755   5.061   0.122   6.555
  619SOL    HW1 2756   4.969   0.153   6.532
  619SOL    HW2 2757   5.126   0.196   6.538
  620SOL     OW 2758   5.369   2.459   1.527
  620SOL    HW1 2759   5.462   2.440   1.495
  620SOL    HW2 2760   5.321   2.373   1.541
  621SOL     OW 2761   2.110   0.297   5.715
  621SOL    HW1 2762   2.134   0.361   5.642
  621SOL    HW2 2763   2.067   0.347   5.791
  622SOL     OW 2764   0.782   1.706   4.908
  622SOL    HW1 2765   0.707   1.640   4.915
  622SOL    HW2 2766   0.771   1.775   4.980
  623SOL     OW 2767   0.894   6.096   5.792
  623SOL    HW1 2768   0.918   6.092   5.695
  623SOL    HW2 2769   0.973   6.066   5.847
  624SOL     OW 2770   6.639   0.988   0.324
  624SOL    HW1 2771   6.573   0.921   0.291
  624SOL    HW2 2772   6.680   1.036   0.246
  625SOL     OW 2773   1.878   2.096   1.011
  625SOL    HW1 2774   1.875   2.188   1.049
  625SOL    HW2 2775   1.788   2.072   0.974
  626SOL     OW 2776   0.229   6.034   3.055
  626SOL    HW1 2777   0.158   6.092   3.095
  626SOL    HW2 2778   0.318   6.062   3.091
  627SOL     OW 2779   6.210   6.315   0.858
  627SOL    HW1 2780   6.258   6.281   0.939
  627SOL    HW2 2781   6.276   6.333   0.785
  628SOL     OW 2782   5.383   5.083   5.459
  628SOL    HW1 2783   5.471   5.130   5.453
  628SOL    HW2 2784   5.390   4.994   5.414
  629SOL     OW 2785   0.550   0.633   6.263
  629SOL    HW1 2786   0.587   0.633   6.356
  629SOL    HW2 2787   0.478   0.564   6.255
  630SOL     OW 2788   0.441   2.108   1.008
  630SOL    HW1 2789   0.438   2.107   1.108
  630SOL    HW2 2790   0.348   2.095   0.972
  631SOL     OW 2791   3.947   0.911   5.033
  631SOL    HW1 2792   4.026   0.908   4.972
  631SOL    HW2 2793   3.865   0.882   4.983
  632SOL     OW 2794   5.093   2.094   1.291
  632SOL    HW1 2795   5.167   2.134   1.238
  632SOL    HW2 2796   5.060   2.162   1.357
  633SOL     OW 2797   3.166   4.256   7.020
  633SOL    HW1 2798   3.078   4.226   6.984
  633SOL    HW2 2799   3.221   4.295   6.946
  634SOL     OW 2800   3.129   3.891   2.855
  634SOL    HW1 2801   3.111   3.896   2.757
  634SOL    HW2 2802   3.185   3.969   2.882
  635SOL     OW 2803   4.791   6.167   0.799
  635SOL    HW1 2804   4.771   6.116   0.883
  635SOL    HW2 2805   4.760   6.261   0.808
  636SOL     OW 2806   2.801   6.700   6.060
  636SOL    HW1 2807   2.838   6.628   6.002
  636SOL    HW2 2808   2.813   6.789   6.015
  637SOL     OW 2809   0.130   2.767   3.001
  637SOL    HW1 2810   0.053   2.798   2.944
  637SOL    HW2 2811   0.102   2.768   3.097
  638SOL     OW 2812   6.419   3.263   3.797
  638SOL    HW1 2813   6.404   3.166   3.813
  638SOL    HW2 2814   6.338   3.315   3.827
  639SOL     OW 2815   4.873   3.655   2.620
  639SOL    HW1 2816   4.943   3.626   2.685
  639SOL    HW2 2817   4.860   3.585   2.550
  640SOL     OW 2818   0.112   5.134   3.914
  640SOL    HW1 2819   0.114   5.217   3.969
  640SOL    HW2 2820   0.026   5.129   3.863
  641SOL     OW 2821   0.685   4.743   5.062
  641SOL    HW1 2822   0.636   4.664   5.099
  641SOL    HW2 2823   0.744   4.781   5.132
  642SOL     OW 2824   0.519   3.004   3.995
  642SOL    HW1 2825   0.421   3.010   3.973
  642SOL    HW2 2826   0.569   2.979   3.912
  643SOL     OW 2827   6.235   0.328   6.324
  643SOL    HW1 2828   6.171   0.294   6.392
  643SOL    HW2 2829   6.270   0.418   6.352
  644SOL     OW 2830   1.478   6.983   4.232
  644SOL    HW1 2831   1.479   7.006   4.329
  644SOL    HW2 2832   1.488   6.884   4.221
  645SOL     OW 2833   3.733   6.742   4.776
  645SOL    HW1 2834   3.779   6.681   4.841
  645SOL    HW2 2835   3.657   6.693   4.733
  646SOL     OW 2836   3.472   0.998   4.694
  646SOL    HW1 2837   3.376   0.987   4.671
  646SOL    HW2 2838   3.490   1.094   4.719
  647SOL     OW 2839   4.999   2.306   5.228
  647SOL    HW1 2840   5.083   2.329   5.277
  647SOL    HW2 2841   4.970   2.213   5.253
  648SOL     OW 2842   0.338   4.464   4.369
  648SOL    HW1 2843   0.306   4.525   4.441
  648SOL    HW2 2844   0.422   4.419   4.399
  649SOL     OW 2845   2.672   3.815   0.812
  649SOL    HW1 2846   2.763   3.855   0.825
  649SOL    HW2 2847   2.621   3.868   0.744
  650SOL     OW 2848   6.761   4.336   1.026
  650SOL    HW1 2849   6.745   4.363   1.121
  650SOL    HW2 2850   6.822   4.402   0.982
  651SOL     OW 2851   1.342   0.122   5.723
  651SOL    HW1 2852   1.414   0.066   5.682
  651SOL    HW2 2853   1.319   0.086   5.813
  652SOL     OW 2854   4.753   0.033   3.060
  652SOL    HW1 2855   4.768   6.967   3.029
  652SOL    HW2 2856   4.736   0.034   3.158
  653SOL     OW 2857   0.872   5.919   0.060
  653SOL    HW1 2858   0.939   5.844   0.055
  653SOL    HW2 2859   0.844   5.933   0.154
  654SOL     OW 2860   0.945   6.164   6.736
  654SOL    HW1 2861   0.990   6.128   6.818
  654SOL    HW2 2862   0.860   6.115   6.720
  655SOL     OW 2863   0.055   5.623   1.347
  655SOL    HW1 2864   6.994   5.581   1.367
  655SOL    HW2 2865   0.084   5.595   1.255
  656SOL     OW 2866   2.703   6.254   0.476
  656SOL    HW1 2867   2.642   6.315   0.426
  656SOL    HW2 2868   2.773   6.218   0.413
  657SOL     OW 2869   3.183   3.748   0.721
  657SOL    HW1 2870   3.094   3.740   0.675
  657SOL    HW2 2871   3.174   3.812   0.798
  658SOL     OW 2872   1.352   3.733   5.874
  658SOL    HW1 2873   1.392   3.754   5.963
  658SOL    HW2 2874   1.299   3.811   5.841
  659SOL     OW 2875   2.613   5.698   4.438
  659SOL    HW1 2876   2.612   5.611   4.487
  659SOL    HW2 2877   2.610   5.773   4.504
  660SOL     OW 2878   4.810   3.929   2.632
  660SOL    HW1 2879   4.798   3.831   2.618
  660SOL    HW2 2880   4.859   3.945   2.718
  661SOL     OW 2881   4.984   3.949   4.350
  661SOL    HW1 2882   5.083   3.950   4.360
  661SOL    HW2 2883   4.946   3.871   4.400
  662SOL     OW 2884   4.080   0.501   5.642
  662SOL    HW1 2885   4.040   0.445   5.715
  662SOL    HW2 2886   4.139   0.571   5.683
  663SOL     OW 2887   1.321   3.597   0.164
  663SOL    HW1 2888   1.367   3.671   0.116
  663SOL    HW2 2889   1.389   3.531   0.197
  664SOL     OW 2890   1.048   5.334   6.363
  664SOL    HW1 2891   1.029   5.236   6.357
  664SOL    HW2 2892   1.145   5.348   6.383
  665SOL     OW 2893   4.717   5.490   1.388
  665SOL    HW1 2894   4.777   5.546   1.330
  665SOL    HW2 2895   4.724   5.394   1.359
  666SOL     OW 2896   4.271   2.357   1.746
  666SOL    HW1 2897   4.279   2.457   1.743
  666SOL    HW2 2898   4.207   2.326   1.676
  667SOL     OW 2899   6.673   3.978   3.795
  667SOL    HW1 2900   6.728   4.009   3.717
  667SOL    HW2 2901   6.590   4.034   3.802
  668SOL     OW 2902   5.066   5.680   0.084
  668SOL    HW1 2903   5.088   5.671   7.014
  668SOL    HW2 2904   4.983   5.627   0.104
  669SOL     OW 2905   3.190   5.938   2.725
  669SOL    HW1 2906   3.196   6.013   2.792
  669SOL    HW2 2907   3.122   5.962   2.656
  670SOL     OW 2908   2.968   2.960   1.780
  670SOL    HW1 2909   3.023   2.878   1.792
  670SOL    HW2 2910   2.873   2.934   1.761
  671SOL     OW 2911   2.186   6.034   6.677
  671SOL    HW1 2912   2.257   5.990   6.622
  671SOL    HW2 2913   2.225   6.114   6.723
  672SOL     OW 2914   0.970   4.621   2.076
  672SOL    HW1 2915   1.008   4.677   2.150
  672SOL    HW2 2916   0.902   4.558   2.114
  673SOL     OW 2917   5.928   0.258   1.455
  673SOL    HW1 2918   5.998   0.199   1.496
  673SOL    HW2 2919   5.946   0.269   1.358
  674SOL     OW 2920   6.472   3.654   4.741
  674SOL    HW1 2921   6.541   3.604   4.689
  674SOL    HW2 2922   6.381   3.623   4.713
  675SOL     OW 2923   6.995   1.233   4.944
  675SOL    HW1 2924   0.057   1.246   4.901
  675SOL    HW2 2925   7.007   1.212   5.041
  676SOL     OW 2926   3.604   5.654   2.799
  676SOL    HW1 2927   3.701   5.662   2.821
  676SOL    HW2 2928   3.593   5.642   2.700
  677SOL     OW 2929   5.991   1.456   6.108
  677SOL    HW1 2930   6.088   1.441   6.094
  677SOL    HW2 2931   5.957   1.392   6.177
  678SOL     OW 2932   1.370   1.420   5.659
  678SOL    HW1 2933   1.421   1.349   5.708
  678SOL    HW2 2934   1.407   1.510   5.680
  679SOL     OW 2935   4.888   0.914   4.147
  679SOL    HW1 2936   4.848   1.003   4.124
  679SOL    HW2 2937   4.815   0.849   4.165
  680SOL     OW 2938   5.306   5.780   5.897
  680SOL    HW1 2939   5.305   5.727   5.982
  680SOL    HW2 2940   5.236   5.746   5.836
  681SOL     OW 2941   5.496   6.815   1.291
  681SOL    HW1 2942   5.417   6.831   1.232
  681SOL    HW2 2943   5.532   6.902   1.323
  682SOL     OW 2944   1.686   6.784   6.699
  682SOL    HW1 2945   1.610   6.726   6.728
  682SOL    HW2 2946   1.771   6.748   6.736
  683SOL     OW 2947   3.630   1.468   6.665
  683SOL    HW1 2948   3.552   1.456   6.725
  683SOL    HW2 2949   3.636   1.564   6.636
  684SOL     OW 2950   5.835   1.345   6.698
  684SOL    HW1 2951   5.819   1.428   6.643
  684SOL    HW2 2952   5.851   1.268   6.637
  685SOL     OW 2953   5.178   0.169   5.239
  685SOL    HW1 2954   5.154   0.150   5.144
  685SOL    HW2 2955   5.099   0.151   5.298
  686SOL     OW 2956   6.169   3.076   3.618
  686SOL    HW1 2957   6.086   3.024   3.635
  686SOL    HW2 2958   6.233   3.063   3.694
  687SOL     OW 2959   6.624   2.326   5.178
  687SOL    HW1 2960   6.669   2.351   5.093
  687SOL    HW2 2961   6.570   2.243   5.164
  688SOL     OW 2962   1.600   3.277   0.152
  688SOL    HW1 2963   1.520   3.252   0.097
  688SOL    HW2 2964   1.585   3.367   0.194
  689SOL     OW 2965   0.473   4.427   5.710
  689SOL    HW1 2966   0.463   4.358   5.639
  689SOL    HW2 2967   0.461   4.518   5.671
  690SOL     OW 2968   0.895   3.496   3.949
  690SOL    HW1 2969   0.908   3.473   4.045
  690SOL    HW2 2970   0.939   3.427   3.892
  691SOL     OW 2971   2.758   1.529   6.420
  691SOL    HW1 2972   2.839   1.533   6.479
  691SOL    HW2 2973   2.680   1.494   6.472
  692SOL     OW 2974   3.878   6.282   3.444
  692SOL    HW1 2975   3.811   6.301   3.372
  692SOL    HW2 2976   3.843   6.316   3.531
  693SOL     OW 2977   6.427   1.847   2.785
  693SOL    HW1 2978   6.418   1.902   2.869
  693SOL    HW2 2979   6.422   1.750   2.808
  694SOL     OW 2980   3.430   6.595   2.384
  694SOL    HW1 2981   3.438   6.497   2.403
  694SOL    HW2 2982   3.520   6.632   2.359
  695SOL     OW 2983   4.472   4.863   6.146
  695SOL    HW1 2984   4.423   4.776   6.155
  695SOL    HW2 2985   4.410   4.939   6.162
  696SOL     OW 2986   3.003   5.241   2.060
  696SOL    HW1 2987   2.913   5.233   2.018
  696SOL    HW2 2988   3.010   5.328   2.109
  697SOL     OW 2989   1.279   2.700   4.365
  697SOL    HW1 2990   1.293   2.798   4.384
  697SOL    HW2 2991   1.320   2.677   4.277
  698SOL     OW 2992   5.464   6.780   6.638
  698SOL    HW1 2993   5.493   6.822   6.553
  698SOL    HW2 2994   5.483   6.682   6.635
  699SOL     OW 2995   0.647   3.757   6.996
  699SOL    HW1 2996   0.575   3.707   0.017
  699SOL    HW2 2997   0.650   3.728   6.901
  700SOL     OW 2998   2.806   1.327   4.291
  700SOL    HW1 2999   2.826   1.237   4.329
  700SOL    HW2 3000   2.808   1.323   4.191
  701SOL     OW 3001   0.024   4.316   5.483
  701SOL    HW1 3002   6.999   4.400   5.469
  701SOL    HW2 3003   0.088   4.329   5.559
  702SOL     OW 3004   6.038   5.948   6.477
  702SOL    HW1 3005   5.967   5.963   6.545
  702SOL    HW2 3006   6.049   6.031   6.422
  703SOL     OW 3007   3.983   4.258   6.618
  703SOL    HW1 3008   3.900   4.306   6.591
  703SOL    HW2 3009   3.964   4.198   6.695
  704SOL     OW 3010   1.845   1.604   6.222
  704SOL    HW1 3011   1.793   1.519   6.232
  704SOL    HW2 3012   1.923   1.588   6.162
  705SOL     OW 3013   5.238   0.042   3.587
  705SOL    HW1 3014   5.241   7.023   3.499
  705SOL    HW2 3015   5.286   7.014   3.656
  706SOL     OW 3016   4.350   2.336   3.321
  706SOL    HW1 3017   4.434   2.282   3.331
  706SOL    HW2 3018   4.295   2.327   3.405
  707SOL     OW 3019   4.457   0.217   2.148
  707SOL    HW1 3020   4.527   0.149   2.170
  707SOL    HW2 3021   4.435   0.212   2.051
  708SOL     OW 3022   3.968   0.454   1.508
  708SOL    HW1 3023   3.882   0.474   1.462
  708SOL    HW2 3024   3.951   0.425   1.602
  709SOL     OW 3025   1.201   5.215   0.182
  709SOL    HW1 3026   1.225   5.140   0.121
  709SOL    HW2 3027   1.173   5.295   0.129
  710SOL     OW 3028   3.563   3.401   2.353
  710SOL    HW1 3029   3.567   3.301   2.348
  710SOL    HW2 3030   3.632   3.434   2.417
  711SOL     OW 3031   0.187   1.932   5.784
  711SOL    HW1 3032   0.248   1.890   5.852
  711SOL    HW2 3033   0.199   1.886   5.696
  712SOL     OW 3034   3.015   3.505   0.457
  712SOL    HW1 3035   2.985   3.485   0.551
  712SOL    HW2 3036   2.936   3.502   0.396
  713SOL     OW 3037   3.465   3.249   0.040
  713SOL    HW1 3038   3.405   3.175   0.070
  713SOL    HW2 3039   3.410   3.325   0.004
  714SOL     OW 3040   6.635   4.904   5.132
  714SOL    HW1 3041   6.586   4.826   5.093
  714SOL    HW2 3042   6.617   4.986   5.076
  715SOL     OW 3043   5.382   6.700   0.779
  715SOL    HW1 3044   5.356   6.621   0.723
  715SOL    HW2 3045   5.482   6.703   0.786
  716SOL     OW 3046   1.303   6.646   0.766
  716SOL    HW1 3047   1.305   6.648   0.866
  716SOL    HW2 3048   1.249   6.568   0.736
  717SOL     OW 3049   6.111   5.156   6.365
  717SOL    HW1 3050   6.103   5.222   6.440
  717SOL    HW2 3051   6.202   5.165   6.323
  718SOL     OW 3052   4.458   2.112   5.636
  718SOL    HW1 3053   4.494   2.077   5.722
  718SOL    HW2 3054   4.406   2.195   5.653
  719SOL     OW 3055   6.634   2.645   1.088
  719SOL    HW1 3056   6.616   2.549   1.067
  719SOL    HW2 3057   6.561   2.680   1.146
  720SOL     OW 3058   3.265   1.085   6.012
  720SOL    HW1 3059   3.342   1.046   6.063
  720SOL    HW2 3060   3.219   1.012   5.961
  721SOL     OW 3061   2.191   0.159   4.184
  721SOL    HW1 3062   2.128   0.208   4.122
  721SOL    HW2 3063   2.254   0.224   4.226
  722SOL     OW 3064   2.250   6.957   4.953
  722SOL    HW1 3065   2.210   7.024   4.891
  722SOL    HW2 3066   2.204   6.868   4.941
  723SOL     OW 3067   1.879   3.924   2.859
  723SOL    HW1 3068   1.839   3.839   2.827
  723SOL    HW2 3069   1.809   3.981   2.902
  724SOL     OW 3070   1.134   2.302   4.703
  724SOL    HW1 3071   1.214   2.257   4.743
  724SOL    HW2 3072   1.162   2.387   4.658
  725SOL     OW 3073   3.310   5.321   0.835
  725SOL    HW1 3074   3.258   5.368   0.765
  725SOL    HW2 3075   3.408   5.327   0.814
  726SOL     OW 3076   3.998   4.848   0.897
  726SOL    HW1 3077   3.924   4.904   0.932
  726SOL    HW2 3078   3.968   4.800   0.814
  727SOL     OW 3079   5.060   5.628   5.775
  727SOL    HW1 3080   5.024   5.611   5.867
  727SOL    HW2 3081   4.990   5.673   5.720
  728SOL     OW 3082   6.809   3.252   4.792
  728SOL    HW1 3083   6.803   3.166   4.741
  728SOL    HW2 3084   6.898   3.293   4.779
  729SOL     OW 3085   2.047   1.906   0.060
  729SOL    HW1 3086   1.975   1.863   0.115
  729SOL    HW2 3087   2.011   1.929   6.998
  730SOL     OW 3088   5.237   1.182   3.342
  730SOL    HW1 3089   5.153   1.156   3.293
  730SOL    HW2 3090   5.216   1.257   3.405
  731SOL     OW 3091   5.650   4.299   5.827
  731SOL    HW1 3092   5.688   4.355   5.900
  731SOL    HW2 3093   5.719   4.235   5.794
  732SOL     OW 3094   0.957   3.024   1.253
  732SOL    HW1 3095   1.033   3.073   1.210
  732SOL    HW2 3096   0.951   2.932   1.214
  733SOL     OW 3097   5.588   5.246   5.375
  733SOL    HW1 3098   5.525   5.320   5.395
  733SOL    HW2 3099   5.682   5.281   5.375
  734SOL     OW 3100   6.728   4.564   3.055
  734SOL    HW1 3101   6.790   4.507   3.001
  734SOL    HW2 3102   6.718   4.653   3.011
  735SOL     OW 3103   4.182   3.173   0.613
  735SOL    HW1 3104   4.189   3.265   0.652
  735SOL    HW2 3105   4.163   3.179   0.515
  736SOL     OW 3106   0.136   0.150   2.848
  736SOL    HW1 3107   0.213   0.103   2.805
  736SOL    HW2 3108   0.127   0.242   2.810
  737SOL     OW 3109   4.119   2.073   6.451
  737SOL    HW1 3110   4.081   2.166   6.442
  737SOL    HW2 3111   4.218   2.076   6.439
  738SOL     OW 3112   2.132   4.205   2.370
  738SOL    HW1 3113   2.074   4.210   2.288
  738SOL    HW2 3114   2.203   4.276   2.365
  739SOL     OW 3115   3.705   0.299   4.490
  739SOL    HW1 3116   3.785   0.249   4.523
  739SOL    HW2 3117   3.707   0.302   4.390
  740SOL     OW 3118   4.140   6.943   0.309
  740SOL    HW1 3119   4.167   6.853   0.274
  740SOL    HW2 3120   4.063   6.933   0.371
  741SOL     OW 3121   2.101   6.077   2.995
  741SOL    HW1 3122   2.131   6.159   2.946
  741SOL    HW2 3123   2.019   6.098   3.048
  742SOL     OW 3124   1.729   6.708   1.532
  742SOL    HW1 3125   1.644   6.735   1.579
  742SOL    HW2 3126   1.771   6.788   1.491
  743SOL     OW 3127   1.182   4.629   5.123
  743SOL    HW1 3128   1.174   4.720   5.082
  743SOL    HW2 3129   1.278   4.607   5.137
  744SOL     OW 3130   5.453   6.997   6.467
  744SOL    HW1 3131   5.361   7.026   6.440
  744SOL    HW2 3132   5.517   7.013   6.393
  745SOL     OW 3133   0.993   5.129   4.196
  745SOL    HW1 3134   0.996   5.221   4.235
  745SOL    HW2 3135   0.959   5.134   4.102
  746SOL     OW 3136   0.802   5.515   6.016
  746SOL    HW1 3137   0.739   5.501   6.092
  746SOL    HW2 3138   0.882   5.456   6.027
  747SOL     OW 3139   4.364   6.280   4.720
  747SOL    HW1 3140   4.320   6.190   4.726
  747SOL    HW2 3141   4.375   6.317   4.812
  748SOL     OW 3142   3.074   5.014   2.496
  748SOL    HW1 3143   3.021   5.004   2.411
  748SOL    HW2 3144   3.066   5.108   2.529
  749SOL     OW 3145   6.383   4.408   5.020
  749SOL    HW1 3146   6.421   4.350   4.947
  749SOL    HW2 3147   6.324   4.352   5.078
  750SOL     OW 3148   1.960   2.493   1.134
  750SOL    HW1 3149   1.903   2.529   1.207
  750SOL    HW2 3150   2.020   2.565   1.100
  751SOL     OW 3151   3.931   2.805   5.723
  751SOL    HW1 3152   3.907   2.709   5.737
  751SOL    HW2 3153   4.029   2.814   5.710
  752SOL     OW 3154   3.829   1.796   2.088
  752SOL    HW1 3155   3.890   1.768   2.014
  752SOL    HW2 3156   3.850   1.891   2.114
  753SOL     OW 3157   1.693   3.086   4.153
  753SOL    HW1 3158   1.784   3.048   4.169
  753SOL    HW2 3159   1.648   3.036   4.079
  754SOL     OW 3160   5.362   2.657   6.415
  754SOL    HW1 3161   5.339   2.707   6.331
  754SOL    HW2 3162   5.449   2.609   6.403
  755SOL     OW 3163   1.379   5.205   6.127
  755SOL    HW1 3164   1.474   5.200   6.096
  755SOL    HW2 3165   1.321   5.237   6.052
  756SOL     OW 3166   3.517   0.650   1.531
  756SOL    HW1 3167   3.440   0.587   1.521
  756SOL    HW2 3168   3.516   0.690   1.623
  757SOL     OW 3169   0.726   6.588   3.403
  757SOL    HW1 3170   0.680   6.509   3.362
  757SOL    HW2 3171   0.672   6.670   3.385
  758SOL     OW 3172   3.741   0.103   2.088
  758SOL    HW1 3173   3.727   0.090   1.990
  758SOL    HW2 3174   3.776   0.195   2.105
  759SOL     OW 3175   0.423   1.095   0.454
  759SOL    HW1 3176   0.357   1.020   0.454
  759SOL    HW2 3177   0.390   1.168   0.394
  760SOL     OW 3178   4.687   0.270   5.736
  760SOL    HW1 3179   4.779   0.259   5.698
  760SOL    HW2 3180   4.679   0.360   5.778
  761SOL     OW 3181   5.288   3.627   5.407
  761SOL    HW1 3182   5.366   3.591   5.458
  761SOL    HW2 3183   5.277   3.577   5.322
  762SOL     OW 3184   1.651   0.024   5.038
  762SOL    HW1 3185   1.619   7.012   4.952
  762SOL    HW2 3186   1.671   0.121   5.024
  763SOL     OW 3187   4.557   4.568   6.764
  763SOL    HW1 3188   4.650   4.532   6.760
  763SOL    HW2 3189   4.502   4.514   6.828
  764SOL     OW 3190   4.424   0.897   4.137
  764SOL    HW1 3191   4.442   0.981   4.188
  764SOL    HW2 3192   4.368   0.836   4.193
  765SOL     OW 3193   1.426   5.717   1.329
  765SOL    HW1 3194   1.410   5.721   1.230
  765SOL    HW2 3195   1.341   5.696   1.376
  766SOL     OW 3196   1.348   3.103   0.281
  766SOL    HW1 3197   1.302   3.017   0.255
  766SOL    HW2 3198   1.431   3.081   0.332
  767SOL     OW 3199   5.976   5.682   2.331
  767SOL    HW1 3200   6.012   5.680   2.424
  767SOL    HW2 3201   6.035   5.739   2.274
  768SOL     OW 3202   1.778   6.448   1.831
  768SOL    HW1 3203   1.766   6.509   1.909
  768SOL    HW2 3204   1.714   6.372   1.838
  769SOL     OW 3205   3.335   0.629   4.455
  769SOL    HW1 3206   3.425   0.592   4.480
  769SOL    HW2 3207   3.343   0.726   4.433
  770SOL     OW 3208   2.165   3.843   3.486
  770SOL    HW1 3209   2.172   3.794   3.399
  770SOL    HW2 3210   2.229   3.920   3.485
  771SOL     OW 3211   2.290   5.584   2.303
  771SOL    HW1 3212   2.257   5.628   2.219
  771SOL    HW2 3213   2.297   5.485   2.287
  772SOL     OW 3214   6.581   5.268   0.708
  772SOL    HW1 3215   6.490   5.236   0.731
  772SOL    HW2 3216   6.594   5.361   0.743
  773SOL     OW 3217   0.073   3.506   4.051
  773SOL    HW1 3218   7.020   3.489   3.993
  773SOL    HW2 3219   0.154   3.511   3.993
  774SOL     OW 3220   1.394   1.680   1.803
  774SOL    HW1 3221   1.469   1.666   1.867
  774SOL    HW2 3222   1.341   1.761   1.829
  775SOL     OW 3223   0.673   2.463   2.584
  775SOL    HW1 3224   0.683   2.561   2.562
  775SOL    HW2 3225   0.694   2.448   2.680
  776SOL     OW 3226   0.397   0.267   5.459
  776SOL    HW1 3227   0.449   0.350   5.439
  776SOL    HW2 3228   0.458   0.188   5.457
  777SOL     OW 3229   3.043   5.477   1.313
  777SOL    HW1 3230   3.113   5.407   1.296
  777SOL    HW2 3231   3.059   5.555   1.254
  778SOL     OW 3232   3.536   1.502   2.920
  778SOL    HW1 3233   3.585   1.574   2.872
  778SOL    HW2 3234   3.466   1.542   2.979
  779SOL     OW 3235   0.392   2.183   2.952
  779SOL    HW1 3236   0.408   2.101   3.006
  779SOL    HW2 3237   0.300   2.217   2.970
  780SOL     OW 3238   6.029   3.999   3.784
  780SOL    HW1 3239   6.118   4.040   3.803
  780SOL    HW2 3240   5.957   4.053   3.828
  781SOL     OW 3241   5.545   1.191   6.845
  781SOL    HW1 3242   5.500   1.129   6.909
  781SOL    HW2 3243   5.601   1.257   6.895
  782SOL     OW 3244   1.676   3.846   6.918
  782SOL    HW1 3245   1.747   3.884   6.859
  782SOL    HW2 3246   1.718   3.795   6.993
  783SOL     OW 3247   4.098   5.084   1.482
  783SOL    HW1 3248   4.055   5.039   1.561
  783SOL    HW2 3249   4.168   5.024   1.444
  784SOL     OW 3250   5.073   6.432   0.059
  784SOL    HW1 3251   5.154   6.490   0.061
  784SOL    HW2 3252   5.097   6.342   0.023
  785SOL     OW 3253   6.917   2.861   2.845
  785SOL    HW1 3254   6.972   2.836   2.766
  785SOL    HW2 3255   6.863   2.942   2.825
  786SOL     OW 3256   1.412   0.584   0.808
  786SOL    HW1 3257   1.318   0.578   0.841
  786SOL    HW2 3258   1.469   0.630   0.875
  787SOL     OW 3259   2.706   0.719   6.678
  787SOL    HW1 3260   2.709   0.663   6.595
  787SOL    HW2 3261   2.655   0.670   6.749
  788SOL     OW 3262   3.252   2.195   5.812
  788SOL    HW1 3263   3.281   2.283   5.850
  788SOL    HW2 3264   3.228   2.206   5.716
  789SOL     OW 3265   5.138   3.855   1.148
  789SOL    HW1 3266   5.226   3.811   1.133
  789SOL    HW2 3267   5.074   3.790   1.190
  790SOL     OW 3268   2.512   0.844   4.529
  790SOL    HW1 3269   2.571   0.764   4.536
  790SOL    HW2 3270   2.477   0.853   4.436
  791SOL     OW 3271   3.578   6.109   3.543
  791SOL    HW1 3272   3.518   6.169   3.492
  791SOL    HW2 3273   3.608   6.155   3.627
  792SOL     OW 3274   0.591   0.745   1.307
  792SOL    HW1 3275   0.640   0.824   1.342
  792SOL    HW2 3276   0.519   0.719   1.372
  793SOL     OW 3277   5.258   5.866   2.766
  793SOL    HW1 3278   5.201   5.940   2.801
  793SOL    HW2 3279   5.227   5.779   2.804
  794SOL     OW 3280   3.117   3.722   5.261
  794SOL    HW1 3281   3.176   3.732   5.181
  794SOL    HW2 3282   3.038   3.665   5.237
  795SOL     OW 3283   4.054   6.634   5.205
  795SOL    HW1 3284   4.087   6.621   5.299
  795SOL    HW2 3285   3.985   6.565   5.184
  796SOL     OW 3286   1.246   1.883   6.362
  796SOL    HW1 3287   1.189   1.959   6.393
  796SOL    HW2 3288   1.341   1.900   6.389
  797SOL     OW 3289   5.104   2.920   1.906
  797SOL    HW1 3290   5.072   2.841   1.958
  797SOL    HW2 3291   5.028   2.958   1.854
  798SOL     OW 3292   5.103   6.876   1.701
  798SOL    HW1 3293   5.155   6.958   1.724
  798SOL    HW2 3294   5.122   6.805   1.768
  799SOL     OW 3295   6.280   1.119   5.250
  799SOL    HW1 3296   6.353   1.158   5.306
  799SOL    HW2 3297   6.255   1.184   5.178
  800SOL     OW 3298   5.228   1.604   2.791
  800SOL    HW1 3299   5.191   1.524   2.744
  800SOL    HW2 3300   5.161   1.678   2.789
  801SOL     OW 3301   2.104   3.452   4.374
  801SOL    HW1 3302   2.031   3.491   4.430
  801SOL    HW2 3303   2.150   3.526   4.324
  802SOL     OW 3304   4.659   0.448   0.888
  802SOL    HW1 3305   4.609   0.366   0.859
  802SOL    HW2 3306   4.756   0.438   0.867
  803SOL     OW 3307   0.223   6.130   4.867
  803SOL    HW1 3308   0.226   6.197   4.941
  803SOL    HW2 3309   0.288   6.056   4.886
  804SOL     OW 3310   5.816   6.035   0.063
  804SOL    HW1 3311   5.725   6.072   0.075
  804SOL    HW2 3312   5.872   6.100   0.011
  805SOL     OW 3313   3.713   1.305   5.341
  805SOL    HW1 3314   3.679   1.211   5.349
  805SOL    HW2 3315   3.668   1.362   5.410
  806SOL     OW 3316   5.187   1.173   3.966
  806SOL    HW1 3317   5.125   1.176   3.887
  806SOL    HW2 3318   5.135   1.152   4.049
  807SOL     OW 3319   0.784   1.969   4.761
  807SOL    HW1 3320   0.742   1.945   4.674
  807SOL    HW2 3321   0.807   1.885   4.811
  808SOL     OW 3322   4.609   3.422   6.530
  808SOL    HW1 3323   4.682   3.393   6.592
  808SOL    HW2 3324   4.521   3.394   6.567
  809SOL     OW 3325   0.438   4.415   1.630
  809SOL    HW1 3326   0.531   4.451   1.636
  809SOL    HW2 3327   0.442   4.316   1.620
  810SOL     OW 3328   3.655   2.941   0.704
  810SOL    HW1 3329   3.695   2.849   0.706
  810SOL    HW2 3330   3.586   2.948   0.777
  811SOL     OW 3331   3.779   5.732   4.470
  811SOL    HW1 3332   3.707   5.799   4.453
  811SOL    HW2 3333   3.812   5.695   4.383
  812SOL     OW 3334   0.449   1.942   1.589
  812SOL    HW1 3335   0.380   1.958   1.518
  812SOL    HW2 3336   0.405   1.908   1.672
  813SOL     OW 3337   3.519   5.602   4.783
  813SOL    HW1 3338   3.473   5.659   4.715
  813SOL    HW2 3339   3.613   5.584   4.754
  814SOL     OW 3340   5.802   6.321   2.536
  814SOL    HW1 3341   5.855   6.309   2.620
  814SOL    HW2 3342   5.711   6.281   2.549
  815SOL     OW 3343   0.411   3.609   3.115
  815SOL    HW1 3344   0.413   3.707   3.094
  815SOL    HW2 3345   0.317   3.575   3.110
  816SOL     OW 3346   6.561   6.587   0.367
  816SOL    HW1 3347   6.514   6.603   0.454
  816SOL    HW2 3348   6.653   6.629   0.371
  817SOL     OW 3349   2.063   3.507   1.495
  817SOL    HW1 3350   1.966   3.493   1.474
  817SOL    HW2 3351   2.072   3.572   1.570
  818SOL     OW 3352   6.691   2.785   1.627
  818SOL    HW1 3353   6.680   2.723   1.549
  818SOL    HW2 3354   6.787   2.811   1.635
  819SOL     OW 3355   5.540   3.110   3.329
  819SOL    HW1 3356   5.473   3.052   3.376
  819SOL    HW2 3357   5.502   3.142   3.243
  820SOL     OW 3358   2.424   2.797   5.627
  820SOL    HW1 3359   2.333   2.797   5.668
  820SOL    HW2 3360   2.492   2.819   5.697
  821SOL     OW 3361   1.903   4.129   0.267
  821SOL    HW1 3362   1.989   4.135   0.216
  821SOL    HW2 3363   1.920   4.148   0.364
  822SOL     OW 3364   1.455   4.407   4.352
  822SOL    HW1 3365   1.544   4.437   4.388
  822SOL    HW2 3366   1.461   4.311   4.325
  823SOL     OW 3367   4.517   3.976   6.235
  823SOL    HW1 3368   4.586   4.017   6.176
  823SOL    HW2 3369   4.489   3.888   6.197
  824SOL     OW 3370   5.175   0.938   5.344
  824SOL    HW1 3371   5.255   0.878   5.346
  824SOL    HW2 3372   5.134   0.937   5.253
  825SOL     OW 3373   1.346   3.960   1.066
  825SOL    HW1 3374   1.361   4.058   1.052
  825SOL    HW2 3375   1.366   3.912   0.981
  826SOL     OW 3376   5.266   3.502   6.189
  826SOL    HW1 3377   5.341   3.441   6.216
  826SOL    HW2 3378   5.269   3.516   6.090
  827SOL     OW 3379   3.358   5.396   6.420
  827SOL    HW1 3380   3.405   5.419   6.335
  827SOL    HW2 3381   3.376   5.300   6.444
  828SOL     OW 3382   5.126   6.246   5.963
  828SOL    HW1 3383   5.118   6.304   6.044
  828SOL    HW2 3384   5.156   6.301   5.885
  829SOL     OW 3385   3.047   3.591   3.644
  829SOL    HW1 3386   3.015   3.550   3.729
  829SOL    HW2 3387   2.972   3.594   3.578
  830SOL     OW 3388   4.798   4.564   6.920
  830SOL    HW1 3389   4.784   4.660   6.895
  830SOL    HW2 3390   4.860   4.559   6.998
  831SOL     OW 3391   5.748   0.878   5.578
  831SOL    HW1 3392   5.770   0.781   5.576
  831SOL    HW2 3393   5.752   0.916   5.485
  832SOL     OW 3394   2.504   0.748   0.912
  832SOL    HW1 3395   2.493   0.666   0.856
  832SOL    HW2 3396   2.471   0.828   0.860
  833SOL     OW 3397   6.993   4.335   6.662
  833SOL    HW1 3398   0.015   4.360   6.579
  833SOL    HW2 3399   6.927   4.407   6.684
  834SOL     OW 3400   2.835   3.620   1.048
  834SOL    HW1 3401   2.815   3.693   0.983
  834SOL    HW2 3402   2.768   3.546   1.038
  835SOL     OW 3403   3.190   0.588   4.672
  835SOL    HW1 3404   3.151   0.496   4.676
  835SOL    HW2 3405   3.224   0.605   4.579
  836SOL     OW 3406   3.432   6.299   6.398
  836SOL    HW1 3407   3.357   6.310   6.463
  836SOL    HW2 3408   3.519   6.313   6.444
  837SOL     OW 3409   5.577   6.148   0.089
  837SOL    HW1 3410   5.606   6.198   0.170
  837SOL    HW2 3411   5.495   6.190   0.051
  838SOL     OW 3412   1.908   0.024   4.304
  838SOL    HW1 3413   1.989   6.997   4.324
  838SOL    HW2 3414   1.870   7.024   4.216
  839SOL     OW 3415   2.576   2.420   2.213
  839SOL    HW1 3416   2.590   2.361   2.133
  839SOL    HW2 3417   2.642   2.396   2.284
  840SOL     OW 3418   5.822   0.075   6.798
  840SOL    HW1 3419   5.842   0.173   6.795
  840SOL    HW2 3420   5.895   0.028   6.848
  841SOL     OW 3421   4.731   5.252   0.713
  841SOL    HW1 3422   4.818   5.207   0.695
  841SOL    HW2 3423   4.662   5.184   0.738
  842SOL     OW 3424   4.293   5.432   4.624
  842SOL    HW1 3425   4.323   5.494   4.552
  842SOL    HW2 3426   4.371   5.402   4.678
  843SOL     OW 3427   2.481   1.850   0.061
  843SOL    HW1 3428   2.503   1.945   0.081
  843SOL    HW2 3429   2.403   1.847   7.026
  844SOL     OW 3430   5.563   0.046   1.269
  844SOL    HW1 3431   5.625   0.059   1.346
  844SOL    HW2 3432   5.586   0.112   1.197
  845SOL     OW 3433   5.782   3.615   5.460
  845SOL    HW1 3434   5.860   3.677   5.461
  845SOL    HW2 3435   5.774   3.572   5.370
  846SOL     OW 3436   3.160   1.342   0.256
  846SOL    HW1 3437   3.121   1.430   0.284
  846SOL    HW2 3438   3.106   1.268   0.295
  847SOL     OW 3439   0.634   3.528   0.383
  847SOL    HW1 3440   0.578   3.585   0.323
  847SOL    HW2 3441   0.651   3.577   0.469
  848SOL     OW 3442   6.004   0.878   6.540
  848SOL    HW1 3443   6.099   0.887   6.568
  848SOL    HW2 3444   5.966   0.793   6.576
  849SOL     OW 3445   1.077   4.655   6.019
  849SOL    HW1 3446   1.166   4.614   6.003
  849SOL    HW2 3447   1.089   4.743   6.066
  850SOL     OW 3448   5.703   1.008   4.089
  850SOL    HW1 3449   5.773   1.053   4.033
  850SOL    HW2 3450   5.616   1.057   4.080
  851SOL     OW 3451   0.375   0.932   1.476
  851SOL    HW1 3452   0.398   0.964   1.385
  851SOL    HW2 3453   0.286   0.969   1.503
  852SOL     OW 3454   1.408   2.057   0.289
  852SOL    HW1 3455   1.445   2.015   0.205
  852SOL    HW2 3456   1.362   2.143   0.265
  853SOL     OW 3457   1.823   4.438   2.582
  853SOL    HW1 3458   1.798   4.357   2.636
  853SOL    HW2 3459   1.923   4.449   2.582
  854SOL     OW 3460   5.009   5.986   1.904
  854SOL    HW1 3461   5.005   5.887   1.917
  854SOL    HW2 3462   4.984   6.031   1.990
  855SOL     OW 3463   6.794   0.352   1.082
  855SOL    HW1 3464   6.776   0.433   1.138
  855SOL    HW2 3465   6.863   0.374   1.013
  856SOL     OW 3466   1.335   1.901   5.031
  856SOL    HW1 3467   1.283   1.986   5.026
  856SOL    HW2 3468   1.419   1.916   5.083
  857SOL     OW 3469   6.006   4.256   2.312
  857SOL    HW1 3470   5.932   4.310   2.352
  857SOL    HW2 3471   5.998   4.260   2.212
  858SOL     OW 3472   2.631   4.076   1.267
  858SOL    HW1 3473   2.548   4.072   1.323
  858SOL    HW2 3474   2.668   4.168   1.269
  859SOL     OW 3475   4.968   5.852   6.684
  859SOL    HW1 3476   4.979   5.853   6.585
  859SOL    HW2 3477   4.871   5.839   6.706
  860SOL     OW 3478   4.132   4.523   0.582
  860SOL    HW1 3479   4.211   4.555   0.634
  860SOL    HW2 3480   4.049   4.566   0.617
  861SOL     OW 3481   2.479   0.222   4.464
  861SOL    HW1 3482   2.435   0.267   4.386
  861SOL    HW2 3483   2.417   0.153   4.502
  862SOL     OW 3484   0.047   4.442   6.169
  862SOL    HW1 3485   0.009   4.410   6.083
  862SOL    HW2 3486   0.072   4.539   6.160
  863SOL     OW 3487   0.701   0.657   0.520
  863SOL    HW1 3488   0.702   0.564   0.482
  863SOL    HW2 3489   0.653   0.718   0.458
  864SOL     OW 3490   5.045   4.527   4.007
  864SOL    HW1 3491   5.142   4.531   3.985
  864SOL    HW2 3492   5.002   4.452   3.957
  865SOL     OW 3493   2.247   6.617   5.374
  865SOL    HW1 3494   2.320   6.679   5.406
  865SOL    HW2 3495   2.213   6.563   5.451
  866SOL     OW 3496   1.924   2.643   2.029
  866SOL    HW1 3497   2.005   2.661   1.974
  866SOL    HW2 3498   1.924   2.701   2.110
  867SOL     OW 3499   3.959   2.762   1.000
  867SOL    HW1 3500   3.982   2.851   1.039
  867SOL    HW2 3501   3.907   2.775   0.915
  868SOL     OW 3502   5.733   6.940   1.660
  868SOL    HW1 3503   5.794   6.888   1.601
  868SOL    HW2 3504   5.644   6.894   1.665
  869SOL     OW 3505   6.664   5.406   3.346
  869SOL    HW1 3506   6.591   5.384   3.411
  869SOL    HW2 3507   6.734   5.461   3.392
  870SOL     OW 3508   5.488   3.606   0.361
  870SOL    HW1 3509   5.388   3.610   0.359
  870SOL    HW2 3510   5.517   3.510   0.365
  871SOL     OW 3511   5.471   3.598   2.262
  871SOL    HW1 3512   5.437   3.628   2.351
  871SOL    HW2 3513   5.418   3.518   2.231
  872SOL     OW 3514   5.914   4.129   4.199
  872SOL    HW1 3515   5.874   4.135   4.108
  872SOL    HW2 3516   5.954   4.217   4.224
  873SOL     OW 3517   5.779   6.998   3.495
  873SOL    HW1 3518   5.819   6.953   3.414
  873SOL    HW2 3519   5.836   0.047   3.523
  874SOL     OW 3520   1.087   4.852   5.018
  874SOL    HW1 3521   1.124   4.944   5.022
  874SOL    HW2 3522   1.068   4.828   4.923
  875SOL     OW 3523   4.191   3.030   0.356
  875SOL    HW1 3524   4.186   2.950   0.416
  875SOL    HW2 3525   4.280   3.032   0.311
  876SOL     OW 3526   0.646   6.003   3.393
  876SOL    HW1 3527   0.576   5.976   3.459
  876SOL    HW2 3528   0.733   6.017   3.440
  877SOL     OW 3529   3.328   4.736   0.893
  877SOL    HW1 3530   3.325   4.828   0.855
  877SOL    HW2 3531   3.323   4.669   0.819
  878SOL     OW 3532   4.463   6.521   5.715
  878SOL    HW1 3533   4.533   6.450   5.725
  878SOL    HW2 3534   4.459   6.575   5.799
  879SOL     OW 3535   3.111   2.067   2.050
  879SOL    HW1 3536   3.113   2.026   1.959
  879SOL    HW2 3537   3.035   2.132   2.056
  880SOL     OW 3538   2.802   4.688   6.908
  880SOL    HW1 3539   2.721   4.640   6.943
  880SOL    HW2 3540   2.786   4.714   6.813
  881SOL     OW 3541   4.454   4.859   5.235
  881SOL    HW1 3542   4.536   4.916   5.227
  881SOL    HW2 3543   4.384   4.891   5.171
  882SOL     OW 3544   1.107   1.603   4.014
  882SOL    HW1 3545   1.022   1.636   4.056
  882SOL    HW2 3546   1.128   1.512   4.048
  883SOL     OW 3547   4.726   5.416   5.601
  883SOL    HW1 3548   4.639   5.371   5.619
  883SOL    HW2 3549   4.710   5.502   5.552
  884SOL     OW 3550   0.063   3.171   1.280
  884SOL    HW1 3551   7.000   3.204   1.252
  884SOL    HW2 3552   0.053   3.098   1.347
  885SOL     OW 3553   5.193   6.005   6.913
  885SOL    HW1 3554   5.164   6.092   6.872
  885SOL    HW2 3555   5.203   5.936   6.842
  886SOL     OW 3556   3.273   0.175   0.641
  886SOL    HW1 3557   3.353   0.198   0.697
  886SOL    HW2 3558   3.276   0.078   0.617
  887SOL     OW 3559   4.551   6.936   4.624
  887SOL    HW1 3560   4.610   6.926   4.544
  887SOL    HW2 3561   4.466   6.982   4.599
  888SOL     OW 3562   5.867   6.564   3.200
  888SOL    HW1 3563   5.941   6.550   3.135
  888SOL    HW2 3564   5.791   6.612   3.156
  889SOL     OW 3565   1.329   6.485   5.346
  889SOL    HW1 3566   1.360   6.390   5.334
  889SOL    HW2 3567   1.397   6.547   5.308
  890SOL     OW 3568   3.316   5.252   2.128
  890SOL    HW1 3569   3.235   5.247   2.070
  890SOL    HW2 3570   3.374   5.172   2.112
  891SOL     OW 3571   5.695   3.803   1.723
  891SOL    HW1 3572   5.695   3.710   1.759
  891SOL    HW2 3573   5.785   3.825   1.686
  892SOL     OW 3574   4.307   3.750   0.595
  892SOL    HW1 3575   4.350   3.780   0.680
  892SOL    HW2 3576   4.361   3.783   0.517
  893SOL     OW 3577   2.356   0.876   2.207
  893SOL    HW1 3578   2.304   0.959   2.223
  893SOL    HW2 3579   2.419   0.891   2.131
  894SOL     OW 3580   1.900   3.238   4.393
  894SOL    HW1 3581   1.913   3.164   4.328
  894SOL    HW2 3582   1.988   3.278   4.418
  895SOL     OW 3583   2.037   6.171   4.820
  895SOL    HW1 3584   2.053   6.089   4.876
  895SOL    HW2 3585   1.955   6.218   4.853
  896SOL     OW 3586   5.117   6.838   2.534
  896SOL    HW1 3587   5.149   6.848   2.629
  896SOL    HW2 3588   5.060   6.916   2.510
  897SOL     OW 3589   5.550   0.219   0.093
  897SOL    HW1 3590   5.500   0.305   0.095
  897SOL    HW2 3591   5.634   0.227   0.147
  898SOL     OW 3592   3.952   5.532   3.013
  898SOL    HW1 3593   3.937   5.503   3.108
  898SOL    HW2 3594   3.925   5.628   3.003
  899SOL     OW 3595   0.174   4.887   0.290
  899SOL    HW1 3596   0.170   4.985   0.269
  899SOL    HW2 3597   0.127   4.869   0.376
  900SOL     OW 3598   5.209   6.669   1.548
  900SOL    HW1 3599   5.163   6.747   1.589
  900SOL    HW2 3600   5.245   6.609   1.621
  901SOL     OW 3601   0.729   1.288   5.039
  901SOL    HW1 3602   0.782   1.212   5.074
  901SOL    HW2 3603   0.754   1.306   4.944
  902SOL     OW 3604   0.249   1.835   6.321
  902SOL    HW1 3605   0.207   1.784   6.396
  902SOL    HW2 3606   0.334   1.877   6.352
  903SOL     OW 3607   6.949   3.927   6.486
  903SOL    HW1 3608   6.897   4.000   6.530
  903SOL    HW2 3609   7.021   3.895   6.547
  904SOL     OW 3610   1.291   1.807   4.037
  904SOL    HW1 3611   1.314   1.809   4.134
  904SOL    HW2 3612   1.237   1.725   4.017
  905SOL     OW 3613   4.494   3.169   5.952
  905SOL    HW1 3614   4.493   3.133   6.045
  905SOL    HW2 3615   4.481   3.094   5.887
  906SOL     OW 3616   0.229   3.619   6.481
  906SOL    HW1 3617   0.189   3.549   6.422
  906SOL    HW2 3618   0.171   3.631   6.562
  907SOL     OW 3619   5.676   2.812   3.622
  907SOL    HW1 3620   5.605   2.741   3.628
  907SOL    HW2 3621   5.700   2.842   3.714
  908SOL     OW 3622   1.809   6.893   3.500
  908SOL    HW1 3623   1.821   6.809   3.447
  908SOL    HW2 3624   1.899   6.930   3.524
  909SOL     OW 3625   2.049   6.946   0.678
  909SOL    HW1 3626   1.954   6.922   0.658
  909SOL    HW2 3627   2.078   7.019   0.616
  910SOL     OW 3628   2.616   0.446   0.434
  910SOL    HW1 3629   2.575   0.476   0.348
  910SOL    HW2 3630   2.659   0.357   0.422
  911SOL     OW 3631   6.480   5.933   1.073
  911SOL    HW1 3632   6.535   5.943   1.156
  911SOL    HW2 3633   6.489   6.015   1.016
  912SOL     OW 3634   6.393   1.045   4.751
  912SOL    HW1 3635   6.454   0.966   4.745
  912SOL    HW2 3636   6.331   1.045   4.673
  913SOL     OW 3637   2.794   0.546   3.464
  913SOL    HW1 3638   2.867   0.508   3.407
  913SOL    HW2 3639   2.833   0.609   3.531
  914SOL     OW 3640   3.149   5.470   5.541
  914SOL    HW1 3641   3.131   5.444   5.636
  914SOL    HW2 3642   3.226   5.416   5.506
  915SOL     OW 3643   1.110   3.289   0.614
  915SOL    HW1 3644   1.023   3.265   0.573
  915SOL    HW2 3645   1.096   3.318   0.709
  916SOL     OW 3646   1.244   2.172   2.742
  916SOL    HW1 3647   1.240   2.231   2.823
  916SOL    HW2 3648   1.158   2.177   2.692
  917SOL     OW 3649   4.865   0.742   1.541
  917SOL    HW1 3650   4.910   0.689   1.614
  917SOL    HW2 3651   4.802   0.808   1.582
  918SOL     OW 3652   2.656   5.906   0.028
  918SOL    HW1 3653   2.731   5.971   0.035
  918SOL    HW2 3654   2.604   5.925   6.972
  919SOL     OW 3655   0.171   5.017   2.600
  919SOL    HW1 3656   0.111   5.018   2.680
  919SOL    HW2 3657   0.243   5.084   2.611
  920SOL     OW 3658   1.430   7.014   2.904
  920SOL    HW1 3659   1.460   0.054   2.971
  920SOL    HW2 3660   1.394   0.033   2.824
  921SOL     OW 3661   5.318   4.581   4.307
  921SOL    HW1 3662   5.218   4.577   4.312
  921SOL    HW2 3663   5.353   4.639   4.381
  922SOL     OW 3664   3.165   2.818   6.767
  922SOL    HW1 3665   3.108   2.760   6.708
  922SOL    HW2 3666   3.208   2.890   6.712
  923SOL     OW 3667   3.214   5.199   0.357
  923SOL    HW1 3668   3.267   5.189   0.442
  923SOL    HW2 3669   3.169   5.113   0.335
  924SOL     OW 3670   6.268   3.284   2.201
  924SOL    HW1 3671   6.258   3.348   2.125
  924SOL    HW2 3672   6.189   3.223   2.204
  925SOL     OW 3673   6.339   2.198   5.350
  925SOL    HW1 3674   6.353   2.197   5.449
  925SOL    HW2 3675   6.287   2.279   5.324
  926SOL     OW 3676   5.932   1.288   0.136
  926SOL    HW1 3677   6.024   1.328   0.140
  926SOL    HW2 3678   5.914   1.236   0.220
  927SOL     OW 3679   5.264   4.208   4.135
  927SOL    HW1 3680   5.276   4.305   4.112
  927SOL    HW2 3681   5.329   4.183   4.206
  928SOL     OW 3682   2.214   0.515   0.856
  928SOL    HW1 3683   2.179   0.570   0.933
  928SOL    HW2 3684   2.161   0.431   0.849
  929SOL     OW 3685   0.256   1.860   0.986
  929SOL    HW1 3686   0.185   1.808   1.033
  929SOL    HW2 3687   0.343   1.811   0.995
  930SOL     OW 3688   6.042   5.731   4.812
  930SOL    HW1 3689   6.106   5.804   4.789
  930SOL    HW2 3690   6.060   5.651   4.753
  931SOL     OW 3691   6.646   3.710   3.784
  931SOL    HW1 3692   6.577   3.681   3.850
  931SOL    HW2 3693   6.670   3.806   3.800
  932SOL     OW 3694   1.967   6.557   1.626
  932SOL    HW1 3695   1.913   6.494   1.682
  932SOL    HW2 3696   1.909   6.633   1.596
  933SOL     OW 3697   0.399   5.139   2.576
  933SOL    HW1 3698   0.408   5.070   2.504
  933SOL    HW2 3699   0.480   5.198   2.575
  934SOL     OW 3700   2.145   0.662   4.464
  934SOL    HW1 3701   2.224   0.669   4.526
  934SOL    HW2 3702   2.123   0.566   4.450
  935SOL     OW 3703   5.054   4.076   5.251
  935SOL    HW1 3704   5.019   3.999   5.305
  935SOL    HW2 3705   5.151   4.062   5.234
  936SOL     OW 3706   0.946   0.504   6.100
  936SOL    HW1 3707   0.903   0.581   6.054
  936SOL    HW2 3708   0.878   0.455   6.154
  937SOL     OW 3709   4.871   1.877   5.366
  937SOL    HW1 3710   4.844   1.890   5.461
  937SOL    HW2 3711   4.807   1.813   5.322
  938SOL     OW 3712   0.384   5.440   6.190
  938SOL    HW1 3713   0.403   5.462   6.286
  938SOL    HW2 3714   0.395   5.341   6.177
  939SOL     OW 3715   5.012   1.315   5.335
  939SOL    HW1 3716   4.946   1.304   5.260
  939SOL    HW2 3717   5.019   1.229   5.386
  940SOL     OW 3718   0.205   3.260   2.831
  940SOL    HW1 3719   0.190   3.222   2.740
  940SOL    HW2 3720   0.297   3.238   2.862
  941SOL     OW 3721   6.315   0.515   4.119
  941SOL    HW1 3722   6.301   0.416   4.125
  941SOL    HW2 3723   6.263   0.551   4.041
  942SOL     OW 3724   5.364   0.712   4.115
  942SOL    HW1 3725   5.351   0.662   4.030
  942SOL    HW2 3726   5.344   0.809   4.100
  943SOL     OW 3727   1.222   3.090   3.453
  943SOL    HW1 3728   1.314   3.112   3.421
  943SOL    HW2 3729   1.155   3.129   3.390
  944SOL     OW 3730   5.946   3.352   6.314
  944SOL    HW1 3731   5.874   3.403   6.266
  944SOL    HW2 3732   6.005   3.307   6.246
  945SOL     OW 3733   6.698   4.214   6.047
  945SOL    HW1 3734   6.633   4.198   6.120
  945SOL    HW2 3735   6.790   4.188   6.078
  946SOL     OW 3736   4.892   2.915   6.062
  946SOL    HW1 3737   4.918   2.914   6.158
  946SOL    HW2 3738   4.807   2.965   6.051
  947SOL     OW 3739   3.012   3.119   4.914
  947SOL    HW1 3740   3.089   3.080   4.863
  947SOL    HW2 3741   2.927   3.076   4.884
  948SOL     OW 3742   4.610   0.634   0.658
  948SOL    HW1 3743   4.672   0.704   0.621
  948SOL    HW2 3744   4.620   0.631   0.758
  949SOL     OW 3745   0.144   6.429   6.574
  949SOL    HW1 3746   0.044   6.435   6.583
  949SOL    HW2 3747   0.168   6.409   6.480
  950SOL     OW 3748   4.612   5.218   2.240
  950SOL    HW1 3749   4.571   5.206   2.149
  950SOL    HW2 3750   4.682   5.147   2.254
  951SOL     OW 3751   2.066   0.574   2.242
  951SOL    HW1 3752   2.079   0.488   2.194
  951SOL    HW2 3753   2.081   0.651   2.179
  952SOL     OW 3754   5.296   1.532   2.071
  952SOL    HW1 3755   5.271   1.582   1.988
  952SOL    HW2 3756   5.251   1.574   2.150
  953SOL     OW 3757   5.269   5.459   5.595
  953SOL    HW1 3758   5.346   5.420   5.646
  953SOL    HW2 3759   5.183   5.422   5.632
  954SOL     OW 3760   5.354   6.481   0.622
  954SOL    HW1 3761   5.425   6.417   0.651
  954SOL    HW2 3762   5.283   6.431   0.571
  955SOL     OW 3763   0.057   4.622   2.978
  955SOL    HW1 3764   0.137   4.577   2.939
  955SOL    HW2 3765   0.070   4.634   3.076
  956SOL     OW 3766   0.880   1.917   2.318
  956SOL    HW1 3767   0.934   1.969   2.252
  956SOL    HW2 3768   0.793   1.963   2.334
  957SOL     OW 3769   1.127   4.764   4.274
  957SOL    HW1 3770   1.029   4.777   4.292
  957SOL    HW2 3771   1.175   4.756   4.361
  958SOL     OW 3772   4.524   2.296   1.786
  958SOL    HW1 3773   4.432   2.336   1.783
  958SOL    HW2 3774   4.564   2.300   1.694
  959SOL     OW 3775   2.762   5.004   3.170
  959SOL    HW1 3776   2.756   5.009   3.270
  959SOL    HW2 3777   2.847   4.957   3.144
  960SOL     OW 3778   0.213   6.229   3.548
  960SOL    HW1 3779   0.199   6.244   3.646
  960SOL    HW2 3780   0.211   6.131   3.528
  961SOL     OW 3781   5.042   6.744   3.111
  961SOL    HW1 3782   5.042   6.716   3.207
  961SOL    HW2 3783   4.951   6.727   3.071
  962SOL     OW 3784   1.546   1.299   4.284
  962SOL    HW1 3785   1.552   1.280   4.186
  962SOL    HW2 3786   1.452   1.287   4.315
  963SOL     OW 3787   6.131   1.127   6.209
  963SOL    HW1 3788   6.037   1.157   6.223
  963SOL    HW2 3789   6.132   1.049   6.147
  964SOL     OW 3790   6.319   3.498   0.374
  964SOL    HW1 3791   6.379   3.577   0.389
  964SOL    HW2 3792   6.348   3.450   0.291
  965SOL     OW 3793   5.885   1.752   1.030
  965SOL    HW1 3794   5.808   1.810   1.059
  965SOL    HW2 3795   5.900   1.765   0.932
  966SOL     OW 3796   5.799   1.380   2.491
  966SOL    HW1 3797   5.806   1.455   2.426
  966SOL    HW2 3798   5.741   1.408   2.568
  967SOL     OW 3799   2.082   5.173   1.031
  967SOL    HW1 3800   2.134   5.139   1.109
  967SOL    HW2 3801   2.067   5.099   0.966
  968SOL     OW 3802   4.694   2.630   2.199
  968SOL    HW1 3803   4.685   2.664   2.105
  968SOL    HW2 3804   4.734   2.701   2.257
  969SOL     OW 3805   4.700   5.862   6.529
  969SOL    HW1 3806   4.637   5.870   6.452
  969SOL    HW2 3807   4.794   5.854   6.495
  970SOL     OW 3808   4.873   0.882   5.133
  970SOL    HW1 3809   4.901   0.971   5.097
  970SOL    HW2 3810   4.921   0.809   5.085
  971SOL     OW 3811   0.350   1.979   3.148
  971SOL    HW1 3812   0.416   1.972   3.222
  971SOL    HW2 3813   0.267   2.025   3.181
  972SOL     OW 3814   5.712   3.920   1.134
  972SOL    HW1 3815   5.636   3.920   1.199
  972SOL    HW2 3816   5.734   3.825   1.110
  973SOL     OW 3817   6.930   4.221   0.105
  973SOL    HW1 3818   6.902   4.176   0.189
  973SOL    HW2 3819   0.002   4.230   0.103
  974SOL     OW 3820   4.255   0.564   2.309
  974SOL    HW1 3821   4.232   0.644   2.364
  974SOL    HW2 3822   4.226   0.579   2.214
  975SOL     OW 3823   2.089   5.407   6.071
  975SOL    HW1 3824   2.162   5.425   6.005
  975SOL    HW2 3825   2.092   5.476   6.143
  976SOL     OW 3826   6.095   3.063   2.674
  976SOL    HW1 3827   6.047   2.976   2.666
  976SOL    HW2 3828   6.052   3.130   2.614
  977SOL     OW 3829   2.734   1.242   3.689
  977SOL    HW1 3830   2.702   1.202   3.775
  977SOL    HW2 3831   2.659   1.243   3.623
  978SOL     OW 3832   4.619   4.456   5.647
  978SOL    HW1 3833   4.653   4.395   5.575
  978SOL    HW2 3834   4.668   4.439   5.732
  979SOL     OW 3835   6.934   2.065   1.752
  979SOL    HW1 3836   6.867   2.014   1.805
  979SOL    HW2 3837   6.920   2.048   1.655
  980SOL     OW 3838   4.479   2.060   4.065
  980SOL    HW1 3839   4.388   2.096   4.046
  980SOL    HW2 3840   4.472   1.988   4.134
  981SOL     OW 3841   1.598   1.630   4.775
  981SOL    HW1 3842   1.505   1.662   4.790
  981SOL    HW2 3843   1.638   1.600   4.862
  982SOL     OW 3844   2.275   2.115   3.412
  982SOL    HW1 3845   2.264   2.210   3.383
  982SOL    HW2 3846   2.187   2.067   3.401
  983SOL     OW 3847   5.785   2.019   3.329
  983SOL    HW1 3848   5.873   2.059   3.354
  983SOL    HW2 3849   5.720   2.034   3.404
  984SOL     OW 3850   3.550   1.252   3.737
  984SOL    HW1 3851   3.467   1.218   3.781
  984SOL    HW2 3852   3.630   1.220   3.788
  985SOL     OW 3853   5.028   4.889   6.623
  985SOL    HW1 3854   4.945   4.860   6.576
  985SOL    HW2 3855   5.102   4.824   6.603
  986SOL     OW 3856   5.149   4.657   0.000
  986SOL    HW1 3857   5.099   4.729   6.980
  986SOL    HW2 3858   5.114   4.649   0.094
  987SOL     OW 3859   4.394   6.398   1.429
  987SOL    HW1 3860   4.331   6.342   1.374
  987SOL    HW2 3861   4.396   6.491   1.393
  988SOL     OW 3862   3.565   3.342   1.563
  988SOL    HW1 3863   3.568   3.347   1.463
  988SOL    HW2 3864   3.620   3.264   1.593
  989SOL     OW 3865   6.825   1.171   5.532
  989SOL    HW1 3866   6.773   1.225   5.597
  989SOL    HW2 3867   6.874   1.231   5.469
  990SOL     OW 3868   4.234   0.900   2.308
  990SOL    HW1 3869   4.172   0.904   2.387
  990SOL    HW2 3870   4.209   0.973   2.244
  991SOL     OW 3871   1.868   2.705   5.353
  991SOL    HW1 3872   1.941   2.712   5.421
  991SOL    HW2 3873   1.823   2.616   5.360
  992SOL     OW 3874   0.811   3.758   1.033
  992SOL    HW1 3875   0.715   3.784   1.021
  992SOL    HW2 3876   0.868   3.812   0.972
  993SOL     OW 3877   1.139   4.975   2.467
  993SOL    HW1 3878   1.237   4.974   2.449
  993SOL    HW2 3879   1.122   4.944   2.561
  994SOL     OW 3880   3.280   3.361   2.605
  994SOL    HW1 3881   3.325   3.401   2.684
  994SOL    HW2 3882   3.308   3.409   2.522
  995SOL     OW 3883   2.812   2.459   6.230
  995SOL    HW1 3884   2.863   2.448   6.316
  995SOL    HW2 3885   2.863   2.416   6.155
  996SOL     OW 3886   2.056   4.581   4.926
  996SOL    HW1 3887   2.078   4.541   5.014
  996SOL    HW2 3888   1.976   4.641   4.935
  997SOL     OW 3889   6.850   0.533   2.281
  997SOL    HW1 3890   6.827   0.578   2.194
  997SOL    HW2 3891   6.768   0.530   2.339
  998SOL     OW 3892   4.706   6.435   4.052
  998SOL    HW1 3893   4.782   6.445   3.988
  998SOL    HW2 3894   4.691   6.338   4.072
  999SOL     OW 3895   5.772   5.061   1.905
  999SOL    HW1 3896   5.752   5.159   1.908
  999SOL    HW2 3897   5.825   5.035   1.985
 1000SOL     OW 3898   1.429   0.627   2.429
 1000SOL    HW1 3899   1.513   0.680   2.423
 1000SOL    HW2 3900   1.377   0.636   2.344
 1001SOL     OW 3901   6.044   6.644   0.370
 1001SOL    HW1 3902   6.028   6.585   0.450
 1001SOL    HW2 3903   6.127   6.614   0.323
 1002SOL     OW 3904   6.126   1.940   6.728
 1002SOL    HW1 3905   6.046   1.997   6.708
 1002SOL    HW2 3906   6.099   1.843   6.726
 1003SOL     OW 3907   1.964   6.172   1.662
 1003SOL    HW1 3908   2.032   6.117   1.612
 1003SOL    HW2 3909   2.010   6.249   1.706
 1004SOL     OW 3910   0.330   0.616   1.225
 1004SOL    HW1 3911   0.429   0.611   1.232
 1004SOL    HW2 3912   0.303   0.710   1.203
 1005SOL     OW 3913   0.600   1.521   2.737
 1005SOL    HW1 3914   0.503   1.531   2.716
 1005SOL    HW2 3915   0.637   1.610   2.765
 1006SOL     OW 3916   0.961   5.534   1.336
 1006SOL    HW1 3917   0.995   5.440   1.341
 1006SOL    HW2 3918   0.908   5.545   1.252
 1007SOL     OW 3919   5.682   6.952   4.244
 1007SOL    HW1 3920   5.658   6.875   4.184
 1007SOL    HW2 3921   5.672   0.010   4.193
 1008SOL     OW 3922   2.109   3.330   5.129
 1008SOL    HW1 3923   2.123   3.321   5.228
 1008SOL    HW2 3924   2.100   3.239   5.089
 1009SOL     OW 3925   0.477   6.255   4.388
 1009SOL    HW1 3926   0.420   6.333   4.363
 1009SOL    HW2 3927   0.439   6.210   4.469
 1010SOL     OW 3928   3.482   2.381   6.654
 1010SOL    HW1 3929   3.422   2.304   6.635
 1010SOL    HW2 3930   3.438   2.466   6.624
 1011SOL     OW 3931   2.571   5.377   2.453
 1011SOL    HW1 3932   2.646   5.394   2.389
 1011SOL    HW2 3933   2.488   5.356   2.402
 1012SOL     OW 3934   6.591   6.873   0.494
 1012SOL    HW1 3935   6.667   6.813   0.471
 1012SOL    HW2 3936   6.571   6.864   0.592
 1013SOL     OW 3937   0.302   1.070   6.108
 1013SOL    HW1 3938   0.370   1.138   6.137
 1013SOL    HW2 3939   0.213   1.115   6.099
 1014SOL     OW 3940   5.052   5.636   6.828
 1014SOL    HW1 3941   5.072   5.702   6.755
 1014SOL    HW2 3942   5.082   5.545   6.800
 1015SOL     OW 3943   2.533   6.631   5.789
 1015SOL    HW1 3944   2.459   6.693   5.764
 1015SOL    HW2 3945   2.503   6.574   5.866
 1016SOL     OW 3946   3.485   3.294   0.348
 1016SOL    HW1 3947   3.496   3.236   0.429
 1016SOL    HW2 3948   3.553   3.268   0.279
 1017SOL     OW 3949   4.600   2.849   1.112
 1017SOL    HW1 3950   4.536   2.913   1.155
 1017SOL    HW2 3951   4.615   2.877   1.016
 1018SOL     OW 3952   1.424   3.572   3.938
 1018SOL    HW1 3953   1.456   3.615   3.853
 1018SOL    HW2 3954   1.336   3.528   3.921
 1019SOL     OW 3955   0.889   0.300   0.119
 1019SOL    HW1 3956   0.967   0.358   0.094
 1019SOL    HW2 3957   0.805   0.355   0.115
 1020SOL     OW 3958   1.305   6.371   1.312
 1020SOL    HW1 3959   1.268   6.443   1.370
 1020SOL    HW2 3960   1.335   6.294   1.368
 1021SOL     OW 3961   5.765   1.312   1.377
 1021SOL    HW1 3962   5.794   1.392   1.429
 1021SOL    HW2 3963   5.822   1.234   1.402
 1022SOL     OW 3964   4.204   4.383   6.141
 1022SOL    HW1 3965   4.230   4.314   6.209
 1022SOL    HW2 3966   4.137   4.445   6.181
 1023SOL     OW 3967   0.070   0.304   2.006
 1023SOL    HW1 3968   7.016   0.273   2.054
 1023SOL    HW2 3969   0.128   0.226   1.983
 1024SOL     OW 3970   5.873   3.567   4.362
 1024SOL    HW1 3971   5.908   3.478   4.334
 1024SOL    HW2 3972   5.807   3.555   4.436
 1025SOL     OW 3973   3.208   3.729   0.221
 1025SOL    HW1 3974   3.167   3.638   0.230
 1025SOL    HW2 3975   3.136   3.798   0.229
 1026SOL     OW 3976   2.159   2.142   1.441
 1026SOL    HW1 3977   2.096   2.143   1.518
 1026SOL    HW2 3978   2.244   2.097   1.468
 1027SOL     OW 3979   2.755   5.733   0.908
 1027SOL    HW1 3980   2.834   5.784   0.873
 1027SOL    HW2 3981   2.705   5.693   0.831
 1028SOL     OW 3982   4.048   5.944   0.415
 1028SOL    HW1 3983   4.008   6.036   0.410
 1028SOL    HW2 3984   4.037   5.899   0.326
 1029SOL     OW 3985   1.356   0.614   6.883
 1029SOL    HW1 3986   1.296   0.567   6.947
 1029SOL    HW2 3987   1.330   0.710   6.876
 1030SOL     OW 3988   3.851   4.013   1.247
 1030SOL    HW1 3989   3.799   4.062   1.177
 1030SOL    HW2 3990   3.795   4.004   1.330
 1031SOL     OW 3991   5.421   5.726   0.907
 1031SOL    HW1 3992   5.372   5.788   0.968
 1031SOL    HW2 3993   5.443   5.641   0.956
 1032SOL     OW 3994   1.942   1.614   4.368
 1032SOL    HW1 3995   1.870   1.630   4.435
 1032SOL    HW2 3996   1.991   1.699   4.351
 1033SOL     OW 3997   1.635   6.371   0.788
 1033SOL    HW1 3998   1.642   6.456   0.840
 1033SOL    HW2 3999   1.726   6.344   0.755
 1034SOL     OW 4000   1.054   6.172   5.529
 1034SOL    HW1 4001   1.021   6.260   5.494
 1034SOL    HW2 4002   1.152   6.178   5.548
 1035SOL     OW 4003   2.236   1.056   3.799
 1035SOL    HW1 4004   2.195   0.973   3.837
 1035SOL    HW2 4005   2.334   1.041   3.784
 1036SOL     OW 4006   3.020   0.626   1.599
 1036SOL    HW1 4007   3.085   0.616   1.675
 1036SOL    HW2 4008   3.065   0.672   1.523
 1037SOL     OW 4009   2.097   0.390   1.212
 1037SOL    HW1 4010   2.172   0.455   1.202
 1037SOL    HW2 4011   2.092   0.358   1.306
 1038SOL     OW 4012   1.074   1.159   5.688
 1038SOL    HW1 4013   1.147   1.176   5.622
 1038SOL    HW2 4014   1.055   1.061   5.692
 1039SOL     OW 4015   3.186   3.004   5.727
 1039SOL    HW1 4016   3.161   3.089   5.773
 1039SOL    HW2 4017   3.103   2.951   5.707
 1040SOL     OW 4018   5.134   2.932   2.629
 1040SOL    HW1 4019   5.060   2.986   2.589
 1040SOL    HW2 4020   5.200   2.994   2.673
 1041SOL     OW 4021   6.616   6.848   4.237
 1041SOL    HW1 4022   6.618   6.761   4.187
 1041SOL    HW2 4023   6.695   6.903   4.212
 1042SOL     OW 4024   3.730   4.957   2.175
 1042SOL    HW1 4025   3.695   4.881   2.121
 1042SOL    HW2 4026   3.654   5.014   2.205
 1043SOL     OW 4027   4.674   1.295   4.961
 1043SOL    HW1 4028   4.678   1.372   4.898
 1043SOL    HW2 4029   4.579   1.266   4.973
 1044SOL     OW 4030   4.814   4.239   2.057
 1044SOL    HW1 4031   4.835   4.141   2.061
 1044SOL    HW2 4032   4.715   4.252   2.051
 1045SOL     OW 4033   2.697   6.381   2.721
 1045SOL    HW1 4034   2.700   6.290   2.681
 1045SOL    HW2 4035   2.661   6.375   2.814
 1046SOL     OW 4036   1.917   6.553   0.236
 1046SOL    HW1 4037   1.864   6.516   0.313
 1046SOL    HW2 4038   2.011   6.570   0.266
 1047SOL     OW 4039   0.901   6.244   2.415
 1047SOL    HW1 4040   0.914   6.177   2.488
 1047SOL    HW2 4041   0.932   6.204   2.328
 1048SOL     OW 4042   4.886   5.780   5.596
 1048SOL    HW1 4043   4.876   5.869   5.641
 1048SOL    HW2 4044   4.804   5.761   5.541
 1049SOL     OW 4045   6.644   5.165   4.621
 1049SOL    HW1 4046   6.708   5.241   4.635
 1049SOL    HW2 4047   6.563   5.179   4.677
 1050SOL     OW 4048   3.029   5.654   0.647
 1050SOL    HW1 4049   2.976   5.656   0.563
 1050SOL    HW2 4050   3.029   5.744   0.689
 1051SOL     OW 4051   2.818   5.086   0.831
 1051SOL    HW1 4052   2.907   5.093   0.876
 1051SOL    HW2 4053   2.745   5.085   0.899
 1052SOL     OW 4054   4.131   0.066   4.162
 1052SOL    HW1 4055   4.204   0.095   4.100
 1052SOL    HW2 4056   4.169   0.008   4.233
 1053SOL     OW 4057   5.433   5.634   3.202
 1053SOL    HW1 4058   5.372   5.573   3.153
 1053SOL    HW2 4059   5.387   5.722   3.217
 1054SOL     OW 4060   3.224   4.517   6.088
 1054SOL    HW1 4061   3.210   4.429   6.043
 1054SOL    HW2 4062   3.233   4.589   6.019
 1055SOL     OW 4063   6.152   6.720   4.297
 1055SOL    HW1 4064   6.061   6.727   4.257
 1055SOL    HW2 4065   6.179   6.623   4.302
 1056SOL     OW 4066   1.633   5.638   5.644
 1056SOL    HW1 4067   1.646   5.539   5.644
 1056SOL    HW2 4068   1.540   5.660   5.673
 1057SOL     OW 4069   3.661   3.612   2.744
 1057SOL    HW1 4070   3.685   3.577   2.834
 1057SOL    HW2 4071   3.732   3.586   2.678
 1058SOL     OW 4072   5.066   1.138   2.433
 1058SOL    HW1 4073   5.126   1.211   2.399
 1058SOL    HW2 4074   5.118   1.080   2.496
 1059SOL     OW 4075   2.624   0.663   0.612
 1059SOL    HW1 4076   2.630   0.602   0.534
 1059SOL    HW2 4077   2.563   0.624   0.681
 1060SOL     OW 4078   0.217   3.665   4.425
 1060SOL    HW1 4079   0.259   3.602   4.360
 1060SOL    HW2 4080   0.288   3.724   4.464
 1061SOL     OW 4081   5.124   3.557   1.602
 1061SOL    HW1 4082   5.074   3.525   1.683
 1061SOL    HW2 4083   5.086   3.644   1.571
 1062SOL     OW 4084   6.203   4.969   5.427
 1062SOL    HW1 4085   6.189   5.013   5.516
 1062SOL    HW2 4086   6.161   5.024   5.355
 1063SOL     OW 4087   1.253   4.171   1.818
 1063SOL    HW1 4088   1.289   4.185   1.726
 1063SOL    HW2 4089   1.288   4.085   1.855
 1064SOL     OW 4090   1.627   4.064   2.165
 1064SOL    HW1 4091   1.538   4.020   2.177
 1064SOL    HW2 4092   1.697   3.993   2.153
 1065SOL     OW 4093   4.318   0.739   4.304
 1065SOL    HW1 4094   4.219   0.735   4.322
 1065SOL    HW2 4095   4.368   0.721   4.389
 1066SOL     OW 4096   5.091   0.661   4.361
 1066SOL    HW1 4097   5.096   0.674   4.262
 1066SOL    HW2 4098   5.012   0.604   4.383
 1067SOL     OW 4099   1.080   3.120   6.792
 1067SOL    HW1 4100   1.031   3.108   6.878
 1067SOL    HW2 4101   1.178   3.132   6.811
 1068SOL     OW 4102   4.935   4.469   2.317
 1068SOL    HW1 4103   5.021   4.423   2.339
 1068SOL    HW2 4104   4.954   4.551   2.263
 1069SOL     OW 4105   4.910   4.824   1.147
 1069SOL    HW1 4106   4.832   4.885   1.132
 1069SOL    HW2 4107   4.994   4.870   1.116
 1070SOL     OW 4108   1.394   0.942   1.248
 1070SOL    HW1 4109   1.450   0.904   1.174
 1070SOL    HW2 4110   1.419   1.038   1.262
 1071SOL     OW 4111   3.602   6.815   3.803
 1071SOL    HW1 4112   3.590   6.792   3.706
 1071SOL    HW2 4113   3.543   6.755   3.858
 1072SOL     OW 4114   1.799   6.207   0.976
 1072SOL    HW1 4115   1.833   6.264   0.901
 1072SOL    HW2 4116   1.700   6.217   0.983
 1073SOL     OW 4117   3.623   6.338   2.999
 1073SOL    HW1 4118   3.611   6.351   2.900
 1073SOL    HW2 4119   3.538   6.357   3.046
 1074SOL     OW 4120   2.459   5.221   0.721
 1074SOL    HW1 4121   2.508   5.278   0.655
 1074SOL    HW2 4122   2.381   5.176   0.676
 1075SOL     OW 4123   4.645   6.138   3.809
 1075SOL    HW1 4124   4.711   6.170   3.877
 1075SOL    HW2 4125   4.638   6.038   3.813
 1076SOL     OW 4126   0.697   4.758   5.357
 1076SOL    HW1 4127   0.608   4.767   5.313
 1076SOL    HW2 4128   0.761   4.822   5.315
 1077SOL     OW 4129   6.013   0.158   0.185
 1077SOL    HW1 4130   6.097   0.164   0.239
 1077SOL    HW2 4131   5.997   0.244   0.138
 1078SOL     OW 4132   2.123   0.803   2.539
 1078SOL    HW1 4133   2.122   0.903   2.549
 1078SOL    HW2 4134   2.083   0.761   2.621
 1079SOL     OW 4135   1.813   5.638   2.359
 1079SOL    HW1 4136   1.751   5.560   2.372
 1079SOL    HW2 4137   1.764   5.712   2.314
 1080SOL     OW 4138   2.273   4.865   3.878
 1080SOL    HW1 4139   2.223   4.838   3.960
 1080SOL    HW2 4140   2.244   4.956   3.849
 1081SOL     OW 4141   0.118   6.784   5.928
 1081SOL    HW1 4142   0.148   6.794   5.833
 1081SOL    HW2 4143   0.041   6.845   5.945
 1082SOL     OW 4144   2.951   1.008   5.451
 1082SOL    HW1 4145   2.853   1.029   5.455
 1082SOL    HW2 4146   2.994   1.035   5.537
 1083SOL     OW 4147   4.115   4.211   0.768
 1083SOL    HW1 4148   4.080   4.305   0.771
 1083SOL    HW2 4149   4.044   4.151   0.731
 1084SOL     OW 4150   6.387   6.254   1.086
 1084SOL    HW1 4151   6.340   6.289   1.167
 1084SOL    HW2 4152   6.485   6.274   1.093
 1085SOL     OW 4153   1.977   4.316   3.243
 1085SOL    HW1 4154   1.936   4.375   3.312
 1085SOL    HW2 4155   1.980   4.222   3.277
 1086SOL     OW 4156   6.766   5.458   2.701
 1086SOL    HW1 4157   6.708   5.384   2.665
 1086SOL    HW2 4158   6.862   5.431   2.694
 1087SOL     OW 4159   5.771   2.642   5.937
 1087SOL    HW1 4160   5.776   2.627   5.838
 1087SOL    HW2 4161   5.686   2.689   5.959
 1088SOL     OW 4162   5.748   4.612   3.640
 1088SOL    HW1 4163   5.783   4.631   3.548
 1088SOL    HW2 4164   5.691   4.529   3.637
 1089SOL     OW 4165   1.523   0.340   4.347
 1089SOL    HW1 4166   1.619   0.328   4.324
 1089SOL    HW2 4167   1.488   0.256   4.388
 1090SOL     OW 4168   2.452   1.759   3.299
 1090SOL    HW1 4169   2.516   1.683   3.285
 1090SOL    HW2 4170   2.406   1.779   3.213
 1091SOL     OW 4171   1.679   2.906   4.995
 1091SOL    HW1 4172   1.701   2.918   5.092
 1091SOL    HW2 4173   1.600   2.963   4.972
 1092SOL     OW 4174   2.395   3.238   0.789
 1092SOL    HW1 4175   2.425   3.319   0.839
 1092SOL    HW2 4176   2.405   3.157   0.846
 1093SOL     OW 4177   1.873   2.102   2.743
 1093SOL    HW1 4178   1.876   2.016   2.794
 1093SOL    HW2 4179   1.902   2.177   2.802
 1094SOL     OW 4180   1.133   6.314   2.849
 1094SOL    HW1 4181   1.215   6.330   2.905
 1094SOL    HW2 4182   1.074   6.394   2.854
 1095SOL     OW 4183   6.735   2.036   5.560
 1095SOL    HW1 4184   6.782   2.020   5.648
 1095SOL    HW2 4185   6.692   2.126   5.562
 1096SOL     OW 4186   3.545   4.421   1.714
 1096SOL    HW1 4187   3.523   4.453   1.806
 1096SOL    HW2 4188   3.616   4.480   1.675
 1097SOL     OW 4189   1.171   4.201   4.036
 1097SOL    HW1 4190   1.223   4.281   4.006
 1097SOL    HW2 4191   1.164   4.203   4.136
 1098SOL     OW 4192   5.384   2.941   0.512
 1098SOL    HW1 4193   5.289   2.937   0.481
 1098SOL    HW2 4194   5.445   2.951   0.433
 1099SOL     OW 4195   3.525   1.268   4.752
 1099SOL    HW1 4196   3.608   1.301   4.708
 1099SOL    HW2 4197   3.522   1.302   4.846
 1100SOL     OW 4198   2.707   1.946   6.854
 1100SOL    HW1 4199   2.687   1.850   6.876
 1100SOL    HW2 4200   2.675   1.966   6.761
 1101SOL     OW 4201   5.795   2.482   0.621
 1101SOL    HW1 4202   5.729   2.530   0.563
 1101SOL    HW2 4203   5.850   2.548   0.671
 1102SOL     OW 4204   0.974   5.471   3.157
 1102SOL    HW1 4205   0.983   5.509   3.249
 1102SOL    HW2 4206   0.982   5.371   3.162
 1103SOL     OW 4207   3.029   1.527   1.150
 1103SOL    HW1 4208   3.021   1.567   1.058
 1103SOL    HW2 4209   2.971   1.578   1.213
 1104SOL     OW 4210   2.376   3.364   6.003
 1104SOL    HW1 4211   2.363   3.344   5.905
 1104SOL    HW2 4212   2.335   3.291   6.057
 1105SOL     OW 4213   5.648   3.570   4.978
 1105SOL    HW1 4214   5.617   3.518   4.899
 1105SOL    HW2 4215   5.735   3.533   5.011
 1106SOL     OW 4216   0.853   1.784   0.685
 1106SOL    HW1 4217   0.882   1.752   0.775
 1106SOL    HW2 4218   0.915   1.855   0.652
 1107SOL     OW 4219   0.751   0.404   6.298
 1107SOL    HW1 4220   0.762   0.308   6.270
 1107SOL    HW2 4221   0.667   0.441   6.258
 1108SOL     OW 4222   2.639   0.404   6.042
 1108SOL    HW1 4223   2.603   0.323   6.088
 1108SOL    HW2 4224   2.603   0.409   5.949
 1109SOL     OW 4225   4.219   6.051   4.743
 1109SOL    HW1 4226   4.257   5.981   4.683
 1109SOL    HW2 4227   4.197   6.010   4.832
 1110SOL     OW 4228   2.696   1.588   2.299
 1110SOL    HW1 4229   2.719   1.507   2.245
 1110SOL    HW2 4230   2.778   1.624   2.343
 1111SOL     OW 4231   5.547   5.572   0.237
 1111SOL    HW1 4232   5.467   5.630   0.229
 1111SOL    HW2 4233   5.630   5.628   0.231
 1112SOL     OW 4234   6.128   1.428   2.738
 1112SOL    HW1 4235   6.120   1.363   2.663
 1112SOL    HW2 4236   6.043   1.430   2.790
 1113SOL     OW 4237   6.754   3.694   2.671
 1113SOL    HW1 4238   6.702   3.721   2.589
 1113SOL    HW2 4239   6.745   3.765   2.741
 1114SOL     OW 4240   4.473   1.174   6.427
 1114SOL    HW1 4241   4.491   1.115   6.506
 1114SOL    HW2 4242   4.428   1.257   6.458
 1115SOL     OW 4243   4.009   3.153   0.142
 1115SOL    HW1 4244   4.056   3.131   0.228
 1115SOL    HW2 4245   3.936   3.219   0.161
 1116SOL     OW 4246   5.670   5.405   4.598
 1116SOL    HW1 4247   5.659   5.488   4.653
 1116SOL    HW2 4248   5.623   5.329   4.644
 1117SOL     OW 4249   1.992   2.942   1.628
 1117SOL    HW1 4250   2.089   2.931   1.604
 1117SOL    HW2 4251   1.940   2.865   1.591
 1118SOL     OW 4252   1.636   4.488   1.413
 1118SOL    HW1 4253   1.717   4.487   1.355
 1118SOL    HW2 4254   1.554   4.491   1.356
 1119SOL     OW 4255   4.150   4.220   1.439
 1119SOL    HW1 4256   4.219   4.213   1.367
 1119SOL    HW2 4257   4.193   4.252   1.523
 1120SOL     OW 4258   5.195   6.453   4.956
 1120SOL    HW1 4259   5.126   6.523   4.935
 1120SOL    HW2 4260   5.151   6.363   4.960
 1121SOL     OW 4261   5.160   3.850   2.186
 1121SOL    HW1 4262   5.144   3.931   2.130
 1121SOL    HW2 4263   5.137   3.870   2.281
 1122SOL     OW 4264   5.078   3.618   5.722
 1122SOL    HW1 4265   5.007   3.634   5.791
 1122SOL    HW2 4266   5.115   3.706   5.692
 1123SOL     OW 4267   5.772   1.618   2.315
 1123SOL    HW1 4268   5.684   1.623   2.266
 1123SOL    HW2 4269   5.821   1.704   2.304
 1124SOL     OW 4270   5.949   4.398   5.725
 1124SOL    HW1 4271   5.913   4.308   5.749
 1124SOL    HW2 4272   5.942   4.459   5.804
 1125SOL     OW 4273   2.386   1.813   4.491
 1125SOL    HW1 4274   2.483   1.817   4.465
 1125SOL    HW2 4275   2.350   1.722   4.471
 1126SOL     OW 4276   5.727   6.793   1.086
 1126SOL    HW1 4277   5.678   6.859   1.143
 1126SOL    HW2 4278   5.716   6.701   1.125
 1127SOL     OW 4279   5.004   5.366   5.022
 1127SOL    HW1 4280   4.984   5.271   5.046
 1127SOL    HW2 4281   5.033   5.415   5.104
 1128SOL     OW 4282   4.792   2.195   5.623
 1128SOL    HW1 4283   4.766   2.292   5.629
 1128SOL    HW2 4284   4.759   2.147   5.704
 1129SOL     OW 4285   3.899   0.440   7.026
 1129SOL    HW1 4286   3.841   0.397   6.958
 1129SOL    HW2 4287   3.912   0.377   0.075
 1130SOL     OW 4288   1.555   4.085   1.430
 1130SOL    HW1 4289   1.505   4.139   1.496
 1130SOL    HW2 4290   1.548   3.988   1.454
 1131SOL     OW 4291   0.665   6.300   5.813
 1131SOL    HW1 4292   0.684   6.204   5.832
 1131SOL    HW2 4293   0.588   6.307   5.750
 1132SOL     OW 4294   5.149   0.207   7.023
 1132SOL    HW1 4295   5.186   0.241   0.082
 1132SOL    HW2 4296   5.050   0.201   0.002
 1133SOL     OW 4297   0.131   1.139   0.553
 1133SOL    HW1 4298   0.109   1.235   0.572
 1133SOL    HW2 4299   0.070   1.080   0.607
 1134SOL     OW 4300   4.961   1.964   0.881
 1134SOL    HW1 4301   4.927   2.056   0.864
 1134SOL    HW2 4302   5.056   1.958   0.851
 1135SOL     OW 4303   3.066   1.383   2.505
 1135SOL    HW1 4304   3.030   1.412   2.595
 1135SOL    HW2 4305   3.093   1.287   2.510
 1136SOL     OW 4306   3.570   5.270   5.096
 1136SOL    HW1 4307   3.527   5.196   5.148
 1136SOL    HW2 4308   3.588   5.238   5.003
 1137SOL     OW 4309   1.190   2.607   6.907
 1137SOL    HW1 4310   1.210   2.542   6.833
 1137SOL    HW2 4311   1.171   2.557   6.991
 1138SOL     OW 4312   0.819   1.154   6.524
 1138SOL    HW1 4313   0.769   1.191   6.602
 1138SOL    HW2 4314   0.851   1.229   6.466
 1139SOL     OW 4315   2.441   5.903   1.393
 1139SOL    HW1 4316   2.525   5.946   1.429
 1139SOL    HW2 4317   2.418   5.944   1.305
 1140SOL     OW 4318   3.329   0.894   2.223
 1140SOL    HW1 4319   3.318   0.990   2.195
 1140SOL    HW2 4320   3.244   0.844   2.204
 1141SOL     OW 4321   6.574   6.124   6.192
 1141SOL    HW1 4322   6.585   6.058   6.266
 1141SOL    HW2 4323   6.648   6.113   6.125
 1142SOL     OW 4324   4.020   0.670   4.324
 1142SOL    HW1 4325   3.980   0.686   4.233
 1142SOL    HW2 4326   3.948   0.657   4.391
 1143SOL     OW 4327   2.506   2.387   2.509
 1143SOL    HW1 4328   2.600   2.359   2.488
 1143SOL    HW2 4329   2.474   2.450   2.438
 1144SOL     OW 4330   6.436   4.631   5.505
 1144SOL    HW1 4331   6.414   4.540   5.468
 1144SOL    HW2 4332   6.426   4.700   5.433
 1145SOL     OW 4333   0.386   4.291   3.020
 1145SOL    HW1 4334   0.434   4.375   3.046
 1145SOL    HW2 4335   0.451   4.225   2.983
 1146SOL     OW 4336   5.230   0.681   1.426
 1146SOL    HW1 4337   5.317   0.634   1.407
 1146SOL    HW2 4338   5.154   0.624   1.394
 1147SOL     OW 4339   1.341   4.507   0.644
 1147SOL    HW1 4340   1.438   4.487   0.629
 1147SOL    HW2 4341   1.294   4.510   0.556
 1148SOL     OW 4342   3.615   6.817   6.982
 1148SOL    HW1 4343   3.672   6.785   6.906
 1148SOL    HW2 4344   3.576   6.738   0.002
 1149SOL     OW 4345   5.817   3.797   3.144
 1149SOL    HW1 4346   5.740   3.793   3.079
 1149SOL    HW2 4347   5.820   3.887   3.187
 1150SOL     OW 4348   1.244   4.238   0.954
 1150SOL    HW1 4349   1.261   4.336   0.941
 1150SOL    HW2 4350   1.184   4.205   0.881
 1151SOL     OW 4351   4.464   5.560   0.078
 1151SOL    HW1 4352   4.506   5.650   0.062
 1151SOL    HW2 4353   4.516   5.490   0.030
 1152SOL     OW 4354   0.629   6.016   5.822
 1152SOL    HW1 4355   0.614   5.947   5.893
 1152SOL    HW2 4356   0.727   6.024   5.804
 1153SOL     OW 4357   2.138   0.051   1.816
 1153SOL    HW1 4358   2.131   0.150   1.827
 1153SOL    HW2 4359   2.103   0.025   1.726
 1154SOL     OW 4360   0.688   3.915   1.819
 1154SOL    HW1 4361   0.756   3.981   1.853
 1154SOL    HW2 4362   0.707   3.825   1.858
 1155SOL     OW 4363   2.878   4.930   0.152
 1155SOL    HW1 4364   2.970   4.957   0.181
 1155SOL    HW2 4365   2.849   4.849   0.203
 1156SOL     OW 4366   1.899   0.884   4.399
 1156SOL    HW1 4367   1.832   0.820   4.436
 1156SOL    HW2 4368   1.851   0.955   4.346
 1157SOL     OW 4369   6.524   0.841   4.603
 1157SOL    HW1 4370   6.441   0.862   4.551
 1157SOL    HW2 4371   6.600   0.894   4.568
 1158SOL     OW 4372   0.184   5.227   5.880
 1158SOL    HW1 4373   0.277   5.196   5.864
 1158SOL    HW2 4374   0.122   5.180   5.816
 1159SOL     OW 4375   5.316   0.062   3.119
 1159SOL    HW1 4376   5.219   0.045   3.099
 1159SOL    HW2 4377   5.372   0.029   3.043
 1160SOL     OW 4378   4.051   3.905   1.652
 1160SOL    HW1 4379   3.969   3.912   1.595
 1160SOL    HW2 4380   4.127   3.950   1.607
 1161SOL     OW 4381   4.995   0.520   6.199
 1161SOL    HW1 4382   5.083   0.473   6.210
 1161SOL    HW2 4383   4.967   0.515   6.103
 1162SOL     OW 4384   3.671   2.625   0.905
 1162SOL    HW1 4385   3.706   2.675   0.984
 1162SOL    HW2 4386   3.744   2.570   0.864
 1163SOL     OW 4387   5.627   3.266   1.864
 1163SOL    HW1 4388   5.605   3.169   1.853
 1163SOL    HW2 4389   5.556   3.322   1.820
 1164SOL     OW 4390   5.055   2.499   3.890
 1164SOL    HW1 4391   5.097   2.572   3.944
 1164SOL    HW2 4392   5.005   2.437   3.951
 1165SOL     OW 4393   1.847   4.541   4.252
 1165SOL    HW1 4394   1.790   4.518   4.331
 1165SOL    HW2 4395   1.943   4.541   4.279
 1166SOL     OW 4396   3.777   1.022   0.036
 1166SOL    HW1 4397   3.825   0.969   0.106
 1166SOL    HW2 4398   3.828   1.106   0.017
 1167SOL     OW 4399   3.376   0.243   6.231
 1167SOL    HW1 4400   3.397   0.146   6.236
 1167SOL    HW2 4401   3.277   0.255   6.220
 1168SOL     OW 4402   6.868   0.778   2.521
 1168SOL    HW1 4403   6.806   0.707   2.555
 1168SOL    HW2 4404   6.901   0.751   2.430
 1169SOL     OW 4405   6.152   3.277   6.879
 1169SOL    HW1 4406   6.061   3.299   6.846
 1169SOL    HW2 4407   6.198   3.216   6.814
 1170SOL     OW 4408   4.730   0.758   2.364
 1170SOL    HW1 4409   4.651   0.820   2.366
 1170SOL    HW2 4410   4.809   0.807   2.326
 1171SOL     OW 4411   2.367   6.236   6.810
 1171SOL    HW1 4412   2.282   6.261   6.856
 1171SOL    HW2 4413   2.403   6.315   6.761
 1172SOL     OW 4414   3.578   4.144   2.897
 1172SOL    HW1 4415   3.638   4.139   2.817
 1172SOL    HW2 4416   3.606   4.076   2.965
 1173SOL     OW 4417   3.078   0.051   5.750
 1173SOL    HW1 4418   2.995   0.104   5.769
 1173SOL    HW2 4419   3.155   0.113   5.738
 1174SOL     OW 4420   3.225   4.295   0.946
 1174SOL    HW1 4421   3.283   4.226   0.902
 1174SOL    HW2 4422   3.149   4.318   0.886
 1175SOL     OW 4423   5.015   3.523   6.318
 1175SOL    HW1 4424   4.975   3.433   6.331
 1175SOL    HW2 4425   5.095   3.516   6.259
 1176SOL     OW 4426   5.636   4.590   0.765
 1176SOL    HW1 4427   5.564   4.588   0.695
 1176SOL    HW2 4428   5.724   4.571   0.722
 1177SOL     OW 4429   0.140   1.392   5.265
 1177SOL    HW1 4430   0.231   1.377   5.305
 1177SOL    HW2 4431   0.130   1.338   5.182
 1178SOL     OW 4432   4.013   2.985   1.158
 1178SOL    HW1 4433   3.969   2.971   1.246
 1178SOL    HW2 4434   4.062   3.072   1.159
 1179SOL     OW 4435   3.306   5.156   0.586
 1179SOL    HW1 4436   3.273   5.242   0.626
 1179SOL    HW2 4437   3.260   5.079   0.631
 1180SOL     OW 4438   2.782   6.845   3.480
 1180SOL    HW1 4439   2.735   6.931   3.463
 1180SOL    HW2 4440   2.755   6.808   3.569
 1181SOL     OW 4441   6.796   2.883   4.686
 1181SOL    HW1 4442   6.817   2.799   4.637
 1181SOL    HW2 4443   6.823   2.962   4.629
 1182SOL     OW 4444   1.756   5.606   3.259
 1182SOL    HW1 4445   1.796   5.575   3.173
 1182SOL    HW2 4446   1.772   5.704   3.270
 1183SOL     OW 4447   3.408   5.666   2.075
 1183SOL    HW1 4448   3.494   5.705   2.042
 1183SOL    HW2 4449   3.372   5.723   2.149
 1184SOL     OW 4450   3.956   1.277   5.017
 1184SOL    HW1 4451   4.037   1.234   5.056
 1184SOL    HW2 4452   3.876   1.218   5.032
 1185SOL     OW 4453   1.936   0.523   0.265
 1185SOL    HW1 4454   1.905   0.444   0.212
 1185SOL    HW2 4455   1.982   0.588   0.204
 1186SOL     OW 4456   6.214   6.475   6.390
 1186SOL    HW1 4457   6.235   6.572   6.383
 1186SOL    HW2 4458   6.298   6.423   6.405
 1187SOL     OW 4459   5.416   5.739   5.261
 1187SOL    HW1 4460   5.390   5.821   5.311
 1187SOL    HW2 4461   5.477   5.763   5.186
 1188SOL     OW 4462   3.318   6.374   6.642
 1188SOL    HW1 4463   3.225   6.364   6.609
 1188SOL    HW2 4464   3.342   6.297   6.701
 1189SOL     OW 4465   5.617   0.492   2.283
 1189SOL    HW1 4466   5.638   0.570   2.343
 1189SOL    HW2 4467   5.598   0.526   2.191
 1190SOL     OW 4468   4.040   4.931   4.547
 1190SOL    HW1 4469   4.109   4.858   4.551
 1190SOL    HW2 4470   4.028   4.960   4.452
 1191SOL     OW 4471   4.249   6.061   5.459
 1191SOL    HW1 4472   4.199   6.082   5.375
 1191SOL    HW2 4473   4.274   6.146   5.505
 1192SOL     OW 4474   5.387   5.392   2.577
 1192SOL    HW1 4475   5.290   5.416   2.579
 1192SOL    HW2 4476   5.412   5.347   2.663
 1193SOL     OW 4477   6.834   0.182   4.665
 1193SOL    HW1 4478   6.852   0.250   4.737
 1193SOL    HW2 4479   6.861   0.092   4.698
 1194SOL     OW 4480   0.096   1.795   1.256
 1194SOL    HW1 4481   0.011   1.840   1.230
 1194SOL    HW2 4482   0.105   1.797   1.356
 1195SOL     OW 4483   6.138   2.988   1.734
 1195SOL    HW1 4484   6.191   2.907   1.709
 1195SOL    HW2 4485   6.124   3.045   1.653
 1196SOL     OW 4486   0.356   4.164   1.968
 1196SOL    HW1 4487   0.364   4.110   1.884
 1196SOL    HW2 4488   0.372   4.261   1.946
 1197SOL     OW 4489   4.064   6.385   4.914
 1197SOL    HW1 4490   4.142   6.333   4.949
 1197SOL    HW2 4491   3.984   6.326   4.907
 1198SOL     OW 4492   1.993   3.164   2.740
 1198SOL    HW1 4493   1.990   3.172   2.640
 1198SOL    HW2 4494   2.074   3.211   2.775
 1199SOL     OW 4495   3.452   2.913   3.315
 1199SOL    HW1 4496   3.550   2.907   3.335
 1199SOL    HW2 4497   3.404   2.947   3.396
 1200SOL     OW 4498   3.740   4.172   4.650
 1200SOL    HW1 4499   3.773   4.262   4.621
 1200SOL    HW2 4500   3.818   4.111   4.664
 1201SOL     OW 4501   0.271   1.486   4.468
 1201SOL    HW1 4502   0.193   1.548   4.477
 1201SOL    HW2 4503   0.348   1.521   4.521
 1202SOL     OW 4504   5.759   1.046   5.801
 1202SOL    HW1 4505   5.724   1.002   5.718
 1202SOL    HW2 4506   5.802   0.976   5.859
 1203SOL     OW 4507   6.151   6.564   1.536
 1203SOL    HW1 4508   6.131   6.468   1.516
 1203SOL    HW2 4509   6.065   6.615   1.542
 1204SOL     OW 4510   4.302   1.645   0.813
 1204SOL    HW1 4511   4.295   1.551   0.846
 1204SOL    HW2 4512   4.210   1.680   0.794
 1205SOL     OW 4513   4.313   3.426   6.341
 1205SOL    HW1 4514   4.278   3.434   6.248
 1205SOL    HW2 4515   4.371   3.506   6.361
 1206SOL     OW 4516   0.865   2.225   4.843
 1206SOL    HW1 4517   0.835   2.140   4.798
 1206SOL    HW2 4518   0.929   2.273   4.785
 1207SOL     OW 4519   0.614   6.674   0.316
 1207SOL    HW1 4520   0.616   6.773   0.307
 1207SOL    HW2 4521   0.690   6.634   0.264
 1208SOL     OW 4522   3.445   4.044   2.376
 1208SOL    HW1 4523   3.413   3.974   2.312
 1208SOL    HW2 4524   3.533   4.081   2.345
 1209SOL     OW 4525   5.682   6.524   4.971
 1209SOL    HW1 4526   5.730   6.525   4.884
 1209SOL    HW2 4527   5.606   6.459   4.967
 1210SOL     OW 4528   4.546   6.588   3.447
 1210SOL    HW1 4529   4.593   6.538   3.520
 1210SOL    HW2 4530   4.536   6.684   3.474
 1211SOL     OW 4531   1.481   3.304   3.126
 1211SOL    HW1 4532   1.440   3.260   3.046
 1211SOL    HW2 4533   1.527   3.388   3.098
 1212SOL     OW 4534   0.296   1.540   4.926
 1212SOL    HW1 4535   0.203   1.571   4.946
 1212SOL    HW2 4536   0.299   1.440   4.926
 1213SOL     OW 4537   5.755   2.841   4.357
 1213SOL    HW1 4538   5.689   2.766   4.346
 1213SOL    HW2 4539   5.846   2.809   4.330
 1214SOL     OW 4540   0.978   2.758   5.380
 1214SOL    HW1 4541   0.878   2.760   5.373
 1214SOL    HW2 4542   1.014   2.697   5.309
 1215SOL     OW 4543   1.886   5.367   2.632
 1215SOL    HW1 4544   1.950   5.376   2.556
 1215SOL    HW2 4545   1.816   5.438   2.627
 1216SOL     OW 4546   0.002   0.424   0.683
 1216SOL    HW1 4547   7.004   0.332   0.653
 1216SOL    HW2 4548   6.962   0.490   0.648
 1217SOL     OW 4549   2.781   5.458   1.400
 1217SOL    HW1 4550   2.880   5.460   1.383
 1217SOL    HW2 4551   2.749   5.363   1.397
 1218SOL     OW 4552   0.488   3.458   4.825
 1218SOL    HW1 4553   0.509   3.385   4.760
 1218SOL    HW2 4554   0.565   3.471   4.887
 1219SOL     OW 4555   4.721   5.381   1.926
 1219SOL    HW1 4556   4.779   5.302   1.902
 1219SOL    HW2 4557   4.633   5.348   1.959
 1220SOL     OW 4558   5.620   4.054   3.218
 1220SOL    HW1 4559   5.597   3.980   3.155
 1220SOL    HW2 4560   5.609   4.022   3.313
 1221SOL     OW 4561   6.173   3.677   6.210
 1221SOL    HW1 4562   6.086   3.711   6.247
 1221SOL    HW2 4563   6.217   3.748   6.156
 1222SOL     OW 4564   6.871   0.295   0.346
 1222SOL    HW1 4565   6.878   0.266   0.441
 1222SOL    HW2 4566   6.779   0.328   0.327
 1223SOL     OW 4567   4.477   0.982   0.558
 1223SOL    HW1 4568   4.382   1.010   0.572
 1223SOL    HW2 4569   4.479   0.897   0.505
 1224SOL     OW 4570   3.386   5.814   0.131
 1224SOL    HW1 4571   3.366   5.912   0.131
 1224SOL    HW2 4572   3.300   5.763   0.134
 1225SOL     OW 4573   3.897   2.504   0.786
 1225SOL    HW1 4574   3.996   2.511   0.770
 1225SOL    HW2 4575   3.867   2.411   0.767
 1226SOL     OW 4576   5.003   6.083   0.637
 1226SOL    HW1 4577   4.919   6.100   0.689
 1226SOL    HW2 4578   5.082   6.101   0.696
 1227SOL     OW 4579   6.059   4.974   6.711
 1227SOL    HW1 4580   6.065   5.053   6.650
 1227SOL    HW2 4581   6.020   4.897   6.661
 1228SOL     OW 4582   4.208   2.869   0.602
 1228SOL    HW1 4583   4.287   2.921   0.632
 1228SOL    HW2 4584   4.147   2.853   0.679
 1229SOL     OW 4585   1.987   5.810   1.043
 1229SOL    HW1 4586   1.939   5.734   1.086
 1229SOL    HW2 4587   2.084   5.804   1.064
 1230SOL     OW 4588   5.747   5.579   2.268
 1230SOL    HW1 4589   5.844   5.591   2.290
 1230SOL    HW2 4590   5.691   5.608   2.345
 1231SOL     OW 4591   1.228   2.206   6.208
 1231SOL    HW1 4592   1.158   2.177   6.274
 1231SOL    HW2 4593   1.317   2.206   6.252
 1232SOL     OW 4594   5.423   0.981   5.662
 1232SOL    HW1 4595   5.451   0.928   5.582
 1232SOL    HW2 4596   5.421   1.078   5.638
 1233SOL     OW 4597   1.021   5.377   3.638
 1233SOL    HW1 4598   0.937   5.415   3.678
 1233SOL    HW2 4599   1.023   5.398   3.540
 1234SOL     OW 4600   6.678   2.808   5.664
 1234SOL    HW1 4601   6.694   2.725   5.610
 1234SOL    HW2 4602   6.638   2.783   5.752
 1235SOL     OW 4603   6.390   4.270   1.089
 1235SOL    HW1 4604   6.444   4.347   1.055
 1235SOL    HW2 4605   6.424   4.185   1.048
 1236SOL     OW 4606   4.278   1.307   1.856
 1236SOL    HW1 4607   4.253   1.262   1.942
 1236SOL    HW2 4608   4.370   1.278   1.830
 1237SOL     OW 4609   1.615   5.647   4.623
 1237SOL    HW1 4610   1.559   5.730   4.625
 1237SOL    HW2 4611   1.710   5.670   4.647
 1238SOL     OW 4612   0.849   0.077   4.541
 1238SOL    HW1 4613   0.838   0.162   4.489
 1238SOL    HW2 4614   0.813   0.090   4.633
 1239SOL     OW 4615   6.624   6.421   5.804
 1239SOL    HW1 4616   6.537   6.472   5.807
 1239SOL    HW2 4617   6.692   6.474   5.755
 1240SOL     OW 4618   6.042   4.794   2.352
 1240SOL    HW1 4619   6.091   4.730   2.411
 1240SOL    HW2 4620   6.105   4.834   2.285
 1241SOL     OW 4621   6.459   4.663   5.056
 1241SOL    HW1 4622   6.413   4.708   5.131
 1241SOL    HW2 4623   6.431   4.567   5.053
 1242SOL     OW 4624   2.149   3.185   0.574
 1242SOL    HW1 4625   2.246   3.176   0.596
 1242SOL    HW2 4626   2.111   3.265   0.620
 1243SOL     OW 4627   0.320   0.966   4.354
 1243SOL    HW1 4628   0.328   0.979   4.255
 1243SOL    HW2 4629   0.309   0.869   4.374
 1244SOL     OW 4630   5.271   6.576   5.385
 1244SOL    HW1 4631   5.225   6.664   5.396
 1244SOL    HW2 4632   5.312   6.570   5.294
 1245SOL     OW 4633   5.686   5.278   0.488
 1245SOL    HW1 4634   5.747   5.246   0.561
 1245SOL    HW2 4635   5.731   5.266   0.399
 1246SOL     OW 4636   3.393   1.445   2.256
 1246SOL    HW1 4637   3.297   1.419   2.257
 1246SOL    HW2 4638   3.401   1.544   2.268
 1247SOL     OW 4639   5.623   6.516   5.316
 1247SOL    HW1 4640   5.539   6.516   5.261
 1247SOL    HW2 4641   5.681   6.592   5.287
 1248SOL     OW 4642   1.539   6.382   3.869
 1248SOL    HW1 4643   1.480   6.441   3.812
 1248SOL    HW2 4644   1.573   6.306   3.814
 1249SOL     OW 4645   0.227   3.478   1.739
 1249SOL    HW1 4646   0.303   3.418   1.766
 1249SOL    HW2 4647   0.260   3.573   1.735
 1250SOL     OW 4648   6.091   3.875   4.079
 1250SOL    HW1 4649   6.046   3.964   4.074
 1250SOL    HW2 4650   6.173   3.877   4.022
 1251SOL     OW 4651   2.530   0.853   2.527
 1251SOL    HW1 4652   2.581   0.859   2.614
 1251SOL    HW2 4653   2.470   0.773   2.530
 1252SOL     OW 4654   3.909   4.794   0.070
 1252SOL    HW1 4655   3.954   4.705   0.076
 1252SOL    HW2 4656   3.973   4.866   0.095
 1253SOL     OW 4657   2.603   0.178   1.630
 1253SOL    HW1 4658   2.638   0.270   1.611
 1253SOL    HW2 4659   2.515   0.184   1.676
 1254SOL     OW 4660   6.758   3.100   2.859
 1254SOL    HW1 4661   6.666   3.072   2.888
 1254SOL    HW2 4662   6.782   3.186   2.905
 1255SOL     OW 4663   5.573   2.582   6.229
 1255SOL    HW1 4664   5.530   2.509   6.175
 1255SOL    HW2 4665   5.561   2.669   6.183
 1256SOL     OW 4666   0.387   6.292   3.840
 1256SOL    HW1 4667   0.375   6.302   3.938
 1256SOL    HW2 4668   0.363   6.379   3.795
 1257SOL     OW 4669   0.230   5.017   4.313
 1257SOL    HW1 4670   0.146   5.060   4.277
 1257SOL    HW2 4671   0.226   5.015   4.413
 1258SOL     OW 4672   2.187   5.686   2.638
 1258SOL    HW1 4673   2.266   5.721   2.587
 1258SOL    HW2 4674   2.204   5.590   2.663
 1259SOL     OW 4675   3.343   6.309   5.472
 1259SOL    HW1 4676   3.327   6.328   5.375
 1259SOL    HW2 4677   3.389   6.221   5.482
 1260SOL     OW 4678   3.039   1.226   1.467
 1260SOL    HW1 4679   3.030   1.317   1.507
 1260SOL    HW2 4680   2.978   1.218   1.388
 1261SOL     OW 4681   0.454   4.314   0.118
 1261SOL    HW1 4682   0.510   4.312   0.200
 1261SOL    HW2 4683   0.416   4.405   0.105
 1262SOL     OW 4684   5.231   6.103   1.471
 1262SOL    HW1 4685   5.197   6.115   1.378
 1262SOL    HW2 4686   5.160   6.131   1.536
 1263SOL     OW 4687   6.180   1.348   0.786
 1263SOL    HW1 4688   6.163   1.438   0.826
 1263SOL    HW2 4689   6.270   1.316   0.814
 1264SOL     OW 4690   0.594   3.578   1.635
 1264SOL    HW1 4691   0.660   3.530   1.576
 1264SOL    HW2 4692   0.614   3.557   1.731
 1265SOL     OW 4693   6.718   5.010   3.694
 1265SOL    HW1 4694   6.657   5.067   3.748
 1265SOL    HW2 4695   6.669   4.975   3.614
 1266SOL     OW 4696   2.146   1.299   3.848
 1266SOL    HW1 4697   2.196   1.223   3.806
 1266SOL    HW2 4698   2.110   1.270   3.937
 1267SOL     OW 4699   5.486   6.186   0.960
 1267SOL    HW1 4700   5.430   6.260   0.998
 1267SOL    HW2 4701   5.544   6.148   1.032
 1268SOL     OW 4702   4.669   2.436   6.953
 1268SOL    HW1 4703   4.609   2.366   6.992
 1268SOL    HW2 4704   4.733   2.467   7.023
 1269SOL     OW 4705   6.474   6.089   5.513
 1269SOL    HW1 4706   6.381   6.080   5.476
 1269SOL    HW2 4707   6.517   5.999   5.519
 1270SOL     OW 4708   2.070   3.458   4.790
 1270SOL    HW1 4709   2.061   3.534   4.726
 1270SOL    HW2 4710   2.117   3.382   4.746
 1271SOL     OW 4711   3.378   1.973   3.561
 1271SOL    HW1 4712   3.315   1.918   3.615
 1271SOL    HW2 4713   3.325   2.031   3.499
 1272SOL     OW 4714   6.118   5.688   0.852
 1272SOL    HW1 4715   6.102   5.615   0.918
 1272SOL    HW2 4716   6.053   5.763   0.869
 1273SOL     OW 4717   1.533   4.303   6.933
 1273SOL    HW1 4718   1.530   4.391   6.981
 1273SOL    HW2 4719   1.591   4.239   6.984
 1274SOL     OW 4720   6.147   3.093   1.493
 1274SOL    HW1 4721   6.166   3.015   1.433
 1274SOL    HW2 4722   6.222   3.159   1.486
 1275SOL     OW 4723   3.847   0.323   3.716
 1275SOL    HW1 4724   3.760   0.304   3.670
 1275SOL    HW2 4725   3.868   0.249   3.780
 1276SOL     OW 4726   0.060   1.042   4.132
 1276SOL    HW1 4727   7.009   1.088   4.090
 1276SOL    HW2 4728   0.041   1.025   4.229
 1277SOL     OW 4729   0.596   6.774   5.357
 1277SOL    HW1 4730   0.534   6.780   5.279
 1277SOL    HW2 4731   0.557   6.715   5.428
 1278SOL     OW 4732   1.267   1.015   5.023
 1278SOL    HW1 4733   1.309   1.081   5.086
 1278SOL    HW2 4734   1.191   0.969   5.070
 1279SOL     OW 4735   3.525   5.362   6.997
 1279SOL    HW1 4736   3.622   5.360   7.020
 1279SOL    HW2 4737   3.471   5.340   0.051
 1280SOL     OW 4738   3.297   6.233   4.004
 1280SOL    HW1 4739   3.253   6.178   4.075
 1280SOL    HW2 4740   3.380   6.187   3.972
 1281SOL     OW 4741   0.786   5.583   2.814
 1281SOL    HW1 4742   0.811   5.678   2.799
 1281SOL    HW2 4743   0.696   5.579   2.858
 1282SOL     OW 4744   0.015   0.609   6.603
 1282SOL    HW1 4745   0.094   0.629   6.660
 1282SOL    HW2 4746   0.034   0.635   6.509
 1283SOL     OW 4747   5.494   2.826   5.040
 1283SOL    HW1 4748   5.426   2.793   4.975
 1283SOL    HW2 4749   5.578   2.773   5.030
 1284SOL     OW 4750   4.334   2.622   1.734
 1284SOL    HW1 4751   4.325   2.610   1.635
 1284SOL    HW2 4752   4.429   2.644   1.756
 1285SOL     OW 4753   5.411   3.327   5.824
 1285SOL    HW1 4754   5.388   3.410   5.875
 1285SOL    HW2 4755   5.336   3.306   5.760
 1286SOL     OW 4756   5.108   4.197   3.002
 1286SOL    HW1 4757   5.189   4.159   2.957
 1286SOL    HW2 4758   5.132   4.231   3.092
 1287SOL     OW 4759   4.767   3.916   5.260
 1287SOL    HW1 4760   4.841   3.849   5.257
 1287SOL    HW2 4761   4.696   3.883   5.322
 1288SOL     OW 4762   6.144   3.754   0.538
 1288SOL    HW1 4763   6.133   3.709   0.449
 1288SOL    HW2 4764   6.059   3.748   0.589
 1289SOL     OW 4765   0.046   6.079   1.529
 1289SOL    HW1 4766   0.034   6.090   1.627
 1289SOL    HW2 4767   7.013   6.006   1.496
 1290SOL     OW 4768   1.086   6.982   0.179
 1290SOL    HW1 4769   1.041   6.993   0.090
 1290SOL    HW2 4770   1.170   0.009   0.181
 1291SOL     OW 4771   0.310   3.211   5.798
 1291SOL    HW1 4772   0.279   3.306   5.803
 1291SOL    HW2 4773   0.245   3.152   5.846
 1292SOL     OW 4774   5.959   5.721   2.864
 1292SOL    HW1 4775   5.891   5.793   2.880
 1292SOL    HW2 4776   5.924   5.635   2.901
 1293SOL     OW 4777   1.468   1.308   6.528
 1293SOL    HW1 4778   1.479   1.263   6.617
 1293SOL    HW2 4779   1.399   1.379   6.535
 1294SOL     OW 4780   1.369   3.195   0.006
 1294SOL    HW1 4781   1.294   3.260   0.013
 1294SOL    HW2 4782   1.355   3.120   0.071
 1295SOL     OW 4783   6.771   4.080   3.045
 1295SOL    HW1 4784   6.861   4.090   3.087
 1295SOL    HW2 4785   6.712   4.154   3.075
 1296SOL     OW 4786   3.559   0.116   5.858
 1296SOL    HW1 4787   3.637   0.067   5.898
 1296SOL    HW2 4788   3.522   0.062   5.783
 1297SOL     OW 4789   5.958   0.656   6.699
 1297SOL    HW1 4790   5.871   0.605   6.699
 1297SOL    HW2 4791   5.963   0.711   6.782
 1298SOL     OW 4792   6.676   4.541   3.639
 1298SOL    HW1 4793   6.602   4.607   3.654
 1298SOL    HW2 4794   6.677   4.513   3.543
 1299SOL     OW 4795   0.379   3.876   2.991
 1299SOL    HW1 4796   0.357   3.899   3.086
 1299SOL    HW2 4797   0.302   3.899   2.932
 1300SOL     OW 4798   3.470   4.082   1.516
 1300SOL    HW1 4799   3.403   4.077   1.590
 1300SOL    HW2 4800   3.562   4.090   1.556
 1301SOL     OW 4801   0.404   5.910   1.907
 1301SOL    HW1 4802   0.378   5.814   1.903
 1301SOL    HW2 4803   0.500   5.920   1.881
 1302SOL     OW 4804   3.277   7.023   5.149
 1302SOL    HW1 4805   3.192   0.036   5.115
 1302SOL    HW2 4806   3.327   0.063   5.203
 1303SOL     OW 4807   4.831   1.595   1.146
 1303SOL    HW1 4808   4.736   1.587   1.176
 1303SOL    HW2 4809   4.886   1.524   1.190
 1304SOL     OW 4810   1.128   1.228   6.654
 1304SOL    HW1 4811   1.174   1.300   6.706
 1304SOL    HW2 4812   1.088   1.267   6.571
 1305SOL     OW 4813   5.142   3.804   0.192
 1305SOL    HW1 4814   5.165   3.718   0.236
 1305SOL    HW2 4815   5.109   3.869   0.260
 1306SOL     OW 4816   0.766   4.195   5.635
 1306SOL    HW1 4817   0.713   4.275   5.609
 1306SOL    HW2 4818   0.857   4.200   5.592
 1307SOL     OW 4819   1.505   2.852   4.643
 1307SOL    HW1 4820   1.429   2.916   4.639
 1307SOL    HW2 4821   1.586   2.893   4.600
 1308SOL     OW 4822   4.515   5.386   4.795
 1308SOL    HW1 4823   4.597   5.437   4.768
 1308SOL    HW2 4824   4.534   5.335   4.879
 1309SOL     OW 4825   5.458   3.472   5.529
 1309SOL    HW1 4826   5.461   3.436   5.623
 1309SOL    HW2 4827   5.499   3.406   5.467
 1310SOL     OW 4828   0.434   3.955   4.880
 1310SOL    HW1 4829   0.389   3.866   4.874
 1310SOL    HW2 4830   0.366   4.026   4.899
 1311SOL     OW 4831   0.106   0.412   3.807
 1311SOL    HW1 4832   0.156   0.359   3.876
 1311SOL    HW2 4833   0.166   0.484   3.770
 1312SOL     OW 4834   0.818   0.267   6.585
 1312SOL    HW1 4835   0.805   0.366   6.579
 1312SOL    HW2 4836   0.746   0.220   6.534
 1313SOL     OW 4837   1.311   4.826   4.565
 1313SOL    HW1 4838   1.254   4.908   4.555
 1313SOL    HW2 4839   1.399   4.852   4.606
 1314SOL     OW 4840   3.264   1.508   5.924
 1314SOL    HW1 4841   3.244   1.496   6.021
 1314SOL    HW2 4842   3.303   1.599   5.909
 1315SOL     OW 4843   0.093   0.663   0.344
 1315SOL    HW1 4844   0.151   0.632   0.419
 1315SOL    HW2 4845   0.056   0.585   0.295
 1316SOL     OW 4846   2.476   6.305   4.250
 1316SOL    HW1 4847   2.509   6.211   4.250
 1316SOL    HW2 4848   2.417   6.320   4.170
 1317SOL     OW 4849   0.652   3.977   4.563
 1317SOL    HW1 4850   0.575   4.011   4.511
 1317SOL    HW2 4851   0.654   3.877   4.560
 1318SOL     OW 4852   6.983   0.985   0.695
 1318SOL    HW1 4853   6.900   0.951   0.652
 1318SOL    HW2 4854   0.015   0.908   0.718
 1319SOL     OW 4855   6.609   0.384   0.291
 1319SOL    HW1 4856   6.545   0.418   0.360
 1319SOL    HW2 4857   6.593   0.286   0.276
 1320SOL     OW 4858   5.747   3.705   0.256
 1320SOL    HW1 4859   5.721   3.800   0.237
 1320SOL    HW2 4860   5.675   3.662   0.310
 1321SOL     OW 4861   4.174   2.434   6.277
 1321SOL    HW1 4862   4.079   2.419   6.306
 1321SOL    HW2 4863   4.235   2.419   6.356
 1322SOL     OW 4864   4.638   0.764   3.558
 1322SOL    HW1 4865   4.723   0.745   3.608
 1322SOL    HW2 4866   4.638   0.715   3.471
 1323SOL     OW 4867   5.588   1.904   5.259
 1323SOL    HW1 4868   5.617   1.973   5.193
 1323SOL    HW2 4869   5.497   1.870   5.234
 1324SOL     OW 4870   0.753   2.537   0.965
 1324SOL    HW1 4871   0.736   2.456   1.021
 1324SOL    HW2 4872   0.777   2.509   0.872
 1325SOL     OW 4873   1.547   6.682   1.990
 1325SOL    HW1 4874   1.588   6.743   2.058
 1325SOL    HW2 4875   1.552   6.588   2.022
 1326SOL     OW 4876   5.043   2.838   4.791
 1326SOL    HW1 4877   5.081   2.930   4.789
 1326SOL    HW2 4878   4.953   2.839   4.748
 1327SOL     OW 4879   2.613   5.048   2.189
 1327SOL    HW1 4880   2.699   5.010   2.155
 1327SOL    HW2 4881   2.601   5.140   2.154
 1328SOL     OW 4882   1.718   2.373   0.934
 1328SOL    HW1 4883   1.638   2.313   0.936
 1328SOL    HW2 4884   1.753   2.378   0.840
 1329SOL     OW 4885   0.711   2.075   0.620
 1329SOL    HW1 4886   0.615   2.095   0.637
 1329SOL    HW2 4887   0.722   2.035   0.529
 1330SOL     OW 4888   6.565   1.027   1.474
 1330SOL    HW1 4889   6.469   1.053   1.483
 1330SOL    HW2 4890   6.608   1.029   1.565
 1331SOL     OW 4891   4.984   2.319   3.343
 1331SOL    HW1 4892   4.989   2.234   3.290
 1331SOL    HW2 4893   4.933   2.388   3.290
 1332SOL     OW 4894   3.720   0.267   0.346
 1332SOL    HW1 4895   3.683   0.339   0.287
 1332SOL    HW2 4896   3.715   0.179   0.299
 1333SOL     OW 4897   3.315   3.321   6.284
 1333SOL    HW1 4898   3.393   3.374   6.315
 1333SOL    HW2 4899   3.338   3.274   6.199
 1334SOL     OW 4900   6.748   2.378   4.945
 1334SOL    HW1 4901   6.743   2.438   4.865
 1334SOL    HW2 4902   6.842   2.349   4.959
 1335SOL     OW 4903   2.799   0.622   3.052
 1335SOL    HW1 4904   2.878   0.565   3.028
 1335SOL    HW2 4905   2.731   0.615   2.979
 1336SOL     OW 4906   1.778   1.316   6.527
 1336SOL    HW1 4907   1.822   1.303   6.616
 1336SOL    HW2 4908   1.684   1.282   6.531
 1337SOL     OW 4909   1.362   1.391   4.919
 1337SOL    HW1 4910   1.394   1.427   5.006
 1337SOL    HW2 4911   1.280   1.440   4.890
 1338SOL     OW 4912   4.629   2.768   6.439
 1338SOL    HW1 4913   4.689   2.693   6.466
 1338SOL    HW2 4914   4.598   2.817   6.520
 1339SOL     OW 4915   0.950   0.064   7.000
 1339SOL    HW1 4916   0.942   0.146   0.029
 1339SOL    HW2 4917   0.942   0.089   6.904
 1340SOL     OW 4918   0.990   1.481   1.822
 1340SOL    HW1 4919   0.907   1.457   1.770
 1340SOL    HW2 4920   1.026   1.399   1.865
 1341SOL     OW 4921   4.764   0.646   5.505
 1341SOL    HW1 4922   4.735   0.687   5.591
 1341SOL    HW2 4923   4.686   0.640   5.443
 1342SOL     OW 4924   1.635   4.624   6.302
 1342SOL    HW1 4925   1.714   4.670   6.342
 1342SOL    HW2 4926   1.666   4.553   6.239
 1343SOL     OW 4927   4.308   5.833   2.601
 1343SOL    HW1 4928   4.265   5.770   2.536
 1343SOL    HW2 4929   4.297   5.798   2.693
 1344SOL     OW 4930   6.555   4.395   3.866
 1344SOL    HW1 4931   6.597   4.459   3.802
 1344SOL    HW2 4932   6.582   4.419   3.960
 1345SOL     OW 4933   1.728   1.762   3.421
 1345SOL    HW1 4934   1.651   1.760   3.358
 1345SOL    HW2 4935   1.810   1.726   3.376
 1346SOL     OW 4936   1.335   6.950   3.368
 1346SOL    HW1 4937   1.423   6.974   3.409
 1346SOL    HW2 4938   1.349   6.878   3.299
 1347SOL     OW 4939   6.202   6.447   4.243
 1347SOL    HW1 4940   6.145   6.455   4.161
 1347SOL    HW2 4941   6.193   6.355   4.281
 1348SOL     OW 4942   5.262   5.478   3.085
 1348SOL    HW1 4943   5.343   5.421   3.100
 1348SOL    HW2 4944   5.182   5.435   3.126
 1349SOL     OW 4945   5.018   2.282   6.286
 1349SOL    HW1 4946   5.032   2.206   6.222
 1349SOL    HW2 4947   4.997   2.246   6.376
 1350SOL     OW 4948   4.359   4.307   6.544
 1350SOL    HW1 4949   4.343   4.280   6.639
 1350SOL    HW2 4950   4.290   4.373   6.516
 1351SOL     OW 4951   6.799   2.246   3.316
 1351SOL    HW1 4952   6.727   2.305   3.278
 1351SOL    HW2 4953   6.805   2.162   3.262
 1352SOL     OW 4954   0.225   0.953   3.506
 1352SOL    HW1 4955   0.237   0.876   3.444
 1352SOL    HW2 4956   0.240   1.039   3.457
 1353SOL     OW 4957   5.876   4.132   5.778
 1353SOL    HW1 4958   5.914   4.105   5.866
 1353SOL    HW2 4959   5.870   4.052   5.718
 1354SOL     OW 4960   0.257   1.745   0.355
 1354SOL    HW1 4961   0.265   1.668   0.292
 1354SOL    HW2 4962   0.305   1.824   0.317
 1355SOL     OW 4963   6.067   2.293   5.602
 1355SOL    HW1 4964   6.157   2.252   5.619
 1355SOL    HW2 4965   6.077   2.368   5.536
 1356SOL     OW 4966   3.107   3.211   3.785
 1356SOL    HW1 4967   3.199   3.247   3.799
 1356SOL    HW2 4968   3.064   3.257   3.707
 1357SOL     OW 4969   1.842   4.513   5.597
 1357SOL    HW1 4970   1.844   4.473   5.689
 1357SOL    HW2 4971   1.921   4.574   5.586
 1358SOL     OW 4972   3.937   1.380   5.654
 1358SOL    HW1 4973   3.994   1.453   5.690
 1358SOL    HW2 4974   3.939   1.302   5.717
 1359SOL     OW 4975   7.013   4.628   1.486
 1359SOL    HW1 4976   0.036   4.597   1.405
 1359SOL    HW2 4977   7.006   4.728   1.484
 1360SOL     OW 4978   4.008   3.851   1.941
 1360SOL    HW1 4979   3.933   3.916   1.951
 1360SOL    HW2 4980   4.050   3.861   1.851
 1361SOL     OW 4981   0.329   6.047   5.447
 1361SOL    HW1 4982   0.347   6.032   5.544
 1361SOL    HW2 4983   0.280   5.968   5.410
 1362SOL     OW 4984   3.110   4.022   3.975
 1362SOL    HW1 4985   3.117   4.064   4.065
 1362SOL    HW2 4986   3.102   3.922   3.986
 1363SOL     OW 4987   6.254   6.014   3.269
 1363SOL    HW1 4988   6.223   6.104   3.238
 1363SOL    HW2 4989   6.179   5.948   3.258
 1364SOL     OW 4990   0.219   2.176   0.349
 1364SOL    HW1 4991   0.143   2.145   0.406
 1364SOL    HW2 4992   0.208   2.273   0.329
 1365SOL     OW 4993   0.622   3.285   5.787
 1365SOL    HW1 4994   0.572   3.201   5.808
 1365SOL    HW2 4995   0.563   3.346   5.733
 1366SOL     OW 4996   0.691   3.929   0.400
 1366SOL    HW1 4997   0.757   3.973   0.461
 1366SOL    HW2 4998   0.718   3.945   0.305
 1367SOL     OW 4999   1.268   5.636   2.701
 1367SOL    HW1 5000   1.362   5.666   2.713
 1367SOL    HW2 5001   1.227   5.618   2.791
 1368SOL     OW 5002   6.760   0.191   3.659
 1368SOL    HW1 5003   6.833   0.220   3.597
 1368SOL    HW2 5004   6.784   0.102   3.699
 1369SOL     OW 5005   1.825   0.089   2.772
 1369SOL    HW1 5006   1.779   0.154   2.710
 1369SOL    HW2 5007   1.836   0.001   2.726
 1370SOL     OW 5008   5.478   1.480   4.223
 1370SOL    HW1 5009   5.454   1.531   4.141
 1370SOL    HW2 5010   5.404   1.486   4.290
 1371SOL     OW 5011   5.736   1.084   4.674
 1371SOL    HW1 5012   5.737   1.086   4.774
 1371SOL    HW2 5013   5.722   0.990   4.642
 1372SOL     OW 5014   1.081   1.833   0.964
 1372SOL    HW1 5015   1.089   1.735   0.978
 1372SOL    HW2 5016   1.142   1.861   0.890
 1373SOL     OW 5017   4.490   2.249   0.071
 1373SOL    HW1 5018   4.556   2.175   0.085
 1373SOL    HW2 5019   4.458   2.283   0.159
 1374SOL     OW 5020   4.177   2.618   0.493
 1374SOL    HW1 5021   4.216   2.690   0.551
 1374SOL    HW2 5022   4.086   2.646   0.463
 1375SOL     OW 5023   0.041   6.970   6.231
 1375SOL    HW1 5024   0.133   6.934   6.216
 1375SOL    HW2 5025   0.041   0.000   6.312
 1376SOL     OW 5026   3.917   5.114   4.959
 1376SOL    HW1 5027   3.866   5.114   4.873
 1376SOL    HW2 5028   3.854   5.098   5.035
 1377SOL     OW 5029   1.170   3.646   3.677
 1377SOL    HW1 5030   1.197   3.707   3.602
 1377SOL    HW2 5031   1.071   3.651   3.690
 1378SOL     OW 5032   5.485   2.558   5.246
 1378SOL    HW1 5033   5.513   2.473   5.291
 1378SOL    HW2 5034   5.510   2.555   5.149
 1379SOL     OW 5035   4.412   5.882   3.310
 1379SOL    HW1 5036   4.372   5.917   3.395
 1379SOL    HW2 5037   4.458   5.957   3.262
 1380SOL     OW 5038   0.670   6.304   3.291
 1380SOL    HW1 5039   0.680   6.217   3.340
 1380SOL    HW2 5040   0.573   6.323   3.278
 1381SOL     OW 5041   5.766   1.706   6.913
 1381SOL    HW1 5042   5.745   1.713   6.816
 1381SOL    HW2 5043   5.810   1.790   6.944
 1382SOL     OW 5044   5.587   3.398   1.356
 1382SOL    HW1 5045   5.489   3.406   1.339
 1382SOL    HW2 5046   5.623   3.487   1.384
 1383SOL     OW 5047   1.158   0.340   1.509
 1383SOL    HW1 5048   1.198   0.288   1.585
 1383SOL    HW2 5049   1.206   0.427   1.499
 1384SOL     OW 5050   4.392   0.827   2.047
 1384SOL    HW1 5051   4.360   0.799   1.956
 1384SOL    HW2 5052   4.316   0.823   2.112
 1385SOL     OW 5053   2.797   4.759   3.881
 1385SOL    HW1 5054   2.781   4.718   3.971
 1385SOL    HW2 5055   2.719   4.815   3.855
 1386SOL     OW 5056   3.220   1.371   3.942
 1386SOL    HW1 5057   3.226   1.416   4.032
 1386SOL    HW2 5058   3.134   1.321   3.935
 1387SOL     OW 5059   3.737   5.396   2.611
 1387SOL    HW1 5060   3.802   5.353   2.672
 1387SOL    HW2 5061   3.694   5.326   2.554
 1388SOL     OW 5062   6.787   0.167   3.103
 1388SOL    HW1 5063   6.700   0.216   3.102
 1388SOL    HW2 5064   6.824   0.161   3.010
 1389SOL     OW 5065   6.623   1.083   3.894
 1389SOL    HW1 5066   6.586   1.013   3.955
 1389SOL    HW2 5067   6.615   1.052   3.799
 1390SOL     OW 5068   6.874   3.127   6.586
 1390SOL    HW1 5069   6.892   3.222   6.563
 1390SOL    HW2 5070   6.936   3.068   6.534
 1391SOL     OW 5071   6.342   6.402   5.002
 1391SOL    HW1 5072   6.245   6.424   5.005
 1391SOL    HW2 5073   6.355   6.311   4.962
 1392SOL     OW 5074   5.241   6.363   5.719
 1392SOL    HW1 5075   5.206   6.321   5.635
 1392SOL    HW2 5076   5.317   6.424   5.697
 1393SOL     OW 5077   6.623   4.567   6.178
 1393SOL    HW1 5078   6.715   4.606   6.171
 1393SOL    HW2 5079   6.567   4.601   6.102
 1394SOL     OW 5080   3.641   5.385   5.428
 1394SOL    HW1 5081   3.562   5.332   5.459
 1394SOL    HW2 5082   3.683   5.340   5.349
 1395SOL     OW 5083   1.970   4.976   5.377
 1395SOL    HW1 5084   2.005   5.014   5.291
 1395SOL    HW2 5085   1.936   4.883   5.360
 1396SOL     OW 5086   0.967   1.580   5.098
 1396SOL    HW1 5087   1.053   1.625   5.123
 1396SOL    HW2 5088   0.907   1.645   5.053
 1397SOL     OW 5089   0.670   6.948   4.154
 1397SOL    HW1 5090   0.635   6.860   4.122
 1397SOL    HW2 5091   0.732   6.933   4.231
 1398SOL     OW 5092   3.077   0.747   6.811
 1398SOL    HW1 5093   3.007   0.688   6.852
 1398SOL    HW2 5094   3.061   0.753   6.712
 1399SOL     OW 5095   4.244   5.425   0.977
 1399SOL    HW1 5096   4.293   5.464   0.900
 1399SOL    HW2 5097   4.189   5.347   0.946
 1400SOL     OW 5098   0.005   1.734   4.067
 1400SOL    HW1 5099   6.949   1.785   4.082
 1400SOL    HW2 5100   0.083   1.786   4.102
 1401SOL     OW 5101   6.394   0.593   4.518
 1401SOL    HW1 5102   6.491   0.616   4.519
 1401SOL    HW2 5103   6.344   0.666   4.469
 1402SOL     OW 5104   6.186   3.538   6.472
 1402SOL    HW1 5105   6.179   3.619   6.530
 1402SOL    HW2 5106   6.170   3.564   6.376
 1403SOL     OW 5107   2.480   2.296   1.662
 1403SOL    HW1 5108   2.431   2.345   1.734
 1403SOL    HW2 5109   2.466   2.342   1.575
 1404SOL     OW 5110   6.311   6.994   0.361
 1404SOL    HW1 5111   6.212   6.977   0.365
 1404SOL    HW2 5112   6.357   6.938   0.429
 1405SOL     OW 5113   2.459   3.174   0.529
 1405SOL    HW1 5114   2.438   3.219   0.616
 1405SOL    HW2 5115   2.496   3.083   0.547
 1406SOL     OW 5116   0.624   5.089   0.523
 1406SOL    HW1 5117   0.695   5.054   0.585
 1406SOL    HW2 5118   0.603   5.020   0.455
 1407SOL     OW 5119   0.645   3.383   2.653
 1407SOL    HW1 5120   0.681   3.475   2.637
 1407SOL    HW2 5121   0.548   3.388   2.678
 1408SOL     OW 5122   5.432   0.844   5.359
 1408SOL    HW1 5123   5.497   0.772   5.335
 1408SOL    HW2 5124   5.457   0.929   5.313
 1409SOL     OW 5125   7.001   0.352   4.860
 1409SOL    HW1 5126   6.987   0.362   4.959
 1409SOL    HW2 5127   6.988   0.441   4.816
 1410SOL     OW 5128   1.406   4.033   6.081
 1410SOL    HW1 5129   1.374   4.123   6.050
 1410SOL    HW2 5130   1.327   3.973   6.097
 1411SOL     OW 5131   4.077   6.885   0.752
 1411SOL    HW1 5132   4.144   6.838   0.809
 1411SOL    HW2 5133   3.997   6.909   0.808
 1412SOL     OW 5134   1.298   1.919   0.785
 1412SOL    HW1 5135   1.334   1.966   0.705
 1412SOL    HW2 5136   1.347   1.833   0.799
 1413SOL     OW 5137   1.865   2.166   5.344
 1413SOL    HW1 5138   1.881   2.152   5.442
 1413SOL    HW2 5139   1.950   2.150   5.294
 1414SOL     OW 5140   2.896   0.815   1.749
 1414SOL    HW1 5141   2.940   0.746   1.691
 1414SOL    HW2 5142   2.865   0.891   1.692
 1415SOL     OW 5143   2.064   1.224   4.469
 1415SOL    HW1 5144   2.064   1.244   4.567
 1415SOL    HW2 5145   1.986   1.270   4.426
 1416SOL     OW 5146   4.782   5.123   4.367
 1416SOL    HW1 5147   4.830   5.091   4.285
 1416SOL    HW2 5148   4.759   5.044   4.424
 1417SOL     OW 5149   3.260   2.340   0.471
 1417SOL    HW1 5150   3.256   2.362   0.373
 1417SOL    HW2 5151   3.286   2.423   0.522
 1418SOL     OW 5152   3.307   4.135   2.889
 1418SOL    HW1 5153   3.405   4.150   2.873
 1418SOL    HW2 5154   3.260   4.130   2.801
 1419SOL     OW 5155   2.868   5.519   3.828
 1419SOL    HW1 5156   2.898   5.590   3.764
 1419SOL    HW2 5157   2.935   5.445   3.829
 1420SOL     OW 5158   2.137   6.634   1.862
 1420SOL    HW1 5159   2.144   6.574   1.941
 1420SOL    HW2 5160   2.042   6.662   1.848
 1421SOL     OW 5161   2.385   5.321   3.114
 1421SOL    HW1 5162   2.425   5.230   3.126
 1421SOL    HW2 5163   2.286   5.313   3.108
 1422SOL     OW 5164   1.166   3.851   6.940
 1422SOL    HW1 5165   1.154   3.848   0.012
 1422SOL    HW2 5166   1.130   3.937   6.905
 1423SOL     OW 5167   5.354   6.437   3.995
 1423SOL    HW1 5168   5.380   6.403   4.085
 1423SOL    HW2 5169   5.321   6.362   3.938
 1424SOL     OW 5170   6.840   4.849   6.312
 1424SOL    HW1 5171   6.852   4.926   6.249
 1424SOL    HW2 5172   6.855   4.879   6.406
 1425SOL     OW 5173   1.975   5.542   5.248
 1425SOL    HW1 5174   2.042   5.557   5.320
 1425SOL    HW2 5175   1.962   5.444   5.234
 1426SOL     OW 5176   2.593   3.633   6.490
 1426SOL    HW1 5177   2.623   3.580   6.569
 1426SOL    HW2 5178   2.624   3.728   6.500
 1427SOL     OW 5179   0.267   0.175   3.402
 1427SOL    HW1 5180   0.297   0.246   3.466
 1427SOL    HW2 5181   0.258   0.214   3.311
 1428SOL     OW 5182   0.576   2.564   6.829
 1428SOL    HW1 5183   0.512   2.620   6.881
 1428SOL    HW2 5184   0.633   2.511   6.892
 1429SOL     OW 5185   4.745   1.611   0.043
 1429SOL    HW1 5186   4.703   1.635   6.983
 1429SOL    HW2 5187   4.744   1.690   0.103
 1430SOL     OW 5188   1.596   5.034   3.837
 1430SOL    HW1 5189   1.498   5.017   3.826
 1430SOL    HW2 5190   1.614   5.061   3.932
 1431SOL     OW 5191   2.794   2.291   0.487
 1431SOL    HW1 5192   2.838   2.208   0.523
 1431SOL    HW2 5193   2.833   2.371   0.533
 1432SOL     OW 5194   2.776   1.668   1.690
 1432SOL    HW1 5195   2.827   1.730   1.630
 1432SOL    HW2 5196   2.690   1.641   1.645
 1433SOL     OW 5197   4.648   0.186   4.780
 1433SOL    HW1 5198   4.690   0.123   4.846
 1433SOL    HW2 5199   4.702   0.187   4.696
 1434SOL     OW 5200   1.137   0.308   6.089
 1434SOL    HW1 5201   1.074   0.385   6.094
 1434SOL    HW2 5202   1.128   0.251   6.170
 1435SOL     OW 5203   6.547   6.962   3.415
 1435SOL    HW1 5204   6.553   0.028   3.449
 1435SOL    HW2 5205   6.590   6.956   3.325
 1436SOL     OW 5206   5.279   4.029   6.586
 1436SOL    HW1 5207   5.203   3.973   6.619
 1436SOL    HW2 5208   5.330   3.977   6.517
 1437SOL     OW 5209   2.985   1.901   4.788
 1437SOL    HW1 5210   2.950   1.989   4.756
 1437SOL    HW2 5211   3.082   1.895   4.767
 1438SOL     OW 5212   2.197   6.493   1.491
 1438SOL    HW1 5213   2.262   6.486   1.567
 1438SOL    HW2 5214   2.112   6.534   1.523
 1439SOL     OW 5215   6.311   5.168   0.760
 1439SOL    HW1 5216   6.259   5.215   0.689
 1439SOL    HW2 5217   6.254   5.097   0.802
 1440SOL     OW 5218   3.392   3.261   6.746
 1440SOL    HW1 5219   3.457   3.325   6.787
 1440SOL    HW2 5220   3.312   3.253   6.806
 1441SOL     OW 5221   6.362   0.909   3.448
 1441SOL    HW1 5222   6.301   0.980   3.480
 1441SOL    HW2 5223   6.383   0.924   3.351
 1442SOL     OW 5224   0.073   6.184   0.201
 1442SOL    HW1 5225   0.146   6.166   0.267
 1442SOL    HW2 5226   0.111   6.181   0.108
 1443SOL     OW 5227   0.643   2.871   4.180
 1443SOL    HW1 5228   0.583   2.926   4.122
 1443SOL    HW2 5229   0.715   2.830   4.124
 1444SOL     OW 5230   5.131   5.723   0.730
 1444SOL    HW1 5231   5.070   5.698   0.655
 1444SOL    HW2 5232   5.077   5.765   0.804
 1445SOL     OW 5233   0.697   2.723   2.591
 1445SOL    HW1 5234   0.720   2.743   2.686
 1445SOL    HW2 5235   0.763   2.767   2.530
 1446SOL     OW 5236   5.870   1.941   0.020
 1446SOL    HW1 5237   5.939   1.925   0.090
 1446SOL    HW2 5238   5.879   2.035   7.014
 1447SOL     OW 5239   5.800   6.707   5.208
 1447SOL    HW1 5240   5.871   6.718   5.138
 1447SOL    HW2 5241   5.791   6.793   5.259
 1448SOL     OW 5242   6.878   2.219   5.347
 1448SOL    HW1 5243   6.794   2.239   5.296
 1448SOL    HW2 5244   6.857   2.161   5.425
 1449SOL     OW 5245   0.762   1.548   6.810
 1449SOL    HW1 5246   0.841   1.573   6.755
 1449SOL    HW2 5247   0.727   1.629   6.858
 1450SOL     OW 5248   1.075   2.343   1.511
 1450SOL    HW1 5249   1.051   2.429   1.557
 1450SOL    HW2 5250   1.056   2.266   1.572
 1451SOL     OW 5251   0.933   0.122   2.201
 1451SOL    HW1 5252   1.006   0.190   2.195
 1451SOL    HW2 5253   0.875   0.141   2.281
 1452SOL     OW 5254   4.391   1.385   4.743
 1452SOL    HW1 5255   4.404   1.326   4.823
 1452SOL    HW2 5256   4.301   1.368   4.703
 1453SOL     OW 5257   6.884   3.591   5.435
 1453SOL    HW1 5258   6.798   3.551   5.403
 1453SOL    HW2 5259   6.926   3.643   5.361
 1454SOL     OW 5260   0.423   3.179   2.440
 1454SOL    HW1 5261   0.484   3.154   2.365
 1454SOL    HW2 5262   0.386   3.270   2.425
 1455SOL     OW 5263   1.224   0.732   1.267
 1455SOL    HW1 5264   1.261   0.823   1.248
 1455SOL    HW2 5265   1.171   0.701   1.188
 1456SOL     OW 5266   0.110   5.896   5.364
 1456SOL    HW1 5267   0.058   5.862   5.442
 1456SOL    HW2 5268   0.076   5.851   5.281
 1457SOL     OW 5269   0.780   6.934   1.676
 1457SOL    HW1 5270   0.719   6.889   1.741
 1457SOL    HW2 5271   0.869   6.949   1.719
 1458SOL     OW 5272   5.390   5.816   3.946
 1458SOL    HW1 5273   5.374   5.737   4.005
 1458SOL    HW2 5274   5.487   5.820   3.921
 1459SOL     OW 5275   3.202   5.724   5.859
 1459SOL    HW1 5276   3.147   5.748   5.939
 1459SOL    HW2 5277   3.224   5.807   5.807
 1460SOL     OW 5278   0.497   6.531   5.130
 1460SOL    HW1 5279   0.498   6.504   5.034
 1460SOL    HW2 5280   0.587   6.512   5.170
 1461SOL     OW 5281   5.895   4.621   3.399
 1461SOL    HW1 5282   5.932   4.684   3.331
 1461SOL    HW2 5283   5.903   4.527   3.366
 1462SOL     OW 5284   1.279   0.335   0.097
 1462SOL    HW1 5285   1.292   0.238   0.116
 1462SOL    HW2 5286   1.310   0.389   0.175
 1463SOL     OW 5287   0.083   5.428   6.786
 1463SOL    HW1 5288   0.023   5.354   6.816
 1463SOL    HW2 5289   0.030   5.495   6.734
 1464SOL     OW 5290   0.161   6.287   1.785
 1464SOL    HW1 5291   0.260   6.272   1.788
 1464SOL    HW2 5292   0.120   6.258   1.871
 1465SOL     OW 5293   1.680   0.703   3.451
 1465SOL    HW1 5294   1.624   0.693   3.369
 1465SOL    HW2 5295   1.622   0.726   3.529
 1466SOL     OW 5296   1.894   2.234   2.269
 1466SOL    HW1 5297   1.981   2.223   2.221
 1466SOL    HW2 5298   1.825   2.176   2.227
 1467SOL     OW 5299   2.119   1.393   2.340
 1467SOL    HW1 5300   2.146   1.481   2.300
 1467SOL    HW2 5301   2.035   1.404   2.393
 1468SOL     OW 5302   3.455   6.305   2.343
 1468SOL    HW1 5303   3.395   6.240   2.297
 1468SOL    HW2 5304   3.536   6.257   2.377
 1469SOL     OW 5305   0.755   1.443   1.660
 1469SOL    HW1 5306   0.716   1.381   1.591
 1469SOL    HW2 5307   0.790   1.525   1.616
 1470SOL     OW 5308   1.359   2.055   2.540
 1470SOL    HW1 5309   1.448   2.094   2.516
 1470SOL    HW2 5310   1.333   2.085   2.632
 1471SOL     OW 5311   0.760   0.222   1.216
 1471SOL    HW1 5312   0.769   0.298   1.280
 1471SOL    HW2 5313   0.819   0.238   1.137
 1472SOL     OW 5314   3.358   5.306   5.508
 1472SOL    HW1 5315   3.355   5.233   5.439
 1472SOL    HW2 5316   3.347   5.266   5.599
 1473SOL     OW 5317   4.323   5.591   5.050
 1473SOL    HW1 5318   4.327   5.634   5.140
 1473SOL    HW2 5319   4.258   5.515   5.052
 1474SOL     OW 5320   5.730   5.158   2.405
 1474SOL    HW1 5321   5.807   5.212   2.440
 1474SOL    HW2 5322   5.758   5.062   2.396
 1475SOL     OW 5323   6.157   0.473   1.865
 1475SOL    HW1 5324   6.133   0.503   1.957
 1475SOL    HW2 5325   6.097   0.517   1.798
 1476SOL     OW 5326   3.016   1.093   0.469
 1476SOL    HW1 5327   3.012   1.082   0.568
 1476SOL    HW2 5328   3.097   1.046   0.434
 1477SOL     OW 5329   2.967   0.074   6.070
 1477SOL    HW1 5330   3.045   0.012   6.061
 1477SOL    HW2 5331   2.897   0.049   6.003
 1478SOL     OW 5332   6.182   5.371   6.152
 1478SOL    HW1 5333   6.208   5.276   6.137
 1478SOL    HW2 5334   6.166   5.416   6.065
 1479SOL     OW 5335   1.428   2.165   0.980
 1479SOL    HW1 5336   1.378   2.162   0.894
 1479SOL    HW2 5337   1.392   2.096   1.043
 1480SOL     OW 5338   3.205   0.732   4.910
 1480SOL    HW1 5339   3.227   0.829   4.902
 1480SOL    HW2 5340   3.192   0.693   4.819
 1481SOL     OW 5341   6.446   3.490   6.519
 1481SOL    HW1 5342   6.476   3.422   6.452
 1481SOL    HW2 5343   6.347   3.498   6.516
 1482SOL     OW 5344   4.518   1.246   1.579
 1482SOL    HW1 5345   4.431   1.251   1.531
 1482SOL    HW2 5346   4.510   1.188   1.660
 1483SOL     OW 5347   4.706   2.192   6.329
 1483SOL    HW1 5348   4.674   2.260   6.263
 1483SOL    HW2 5349   4.722   2.105   6.282
 1484SOL     OW 5350   5.778   4.322   4.809
 1484SOL    HW1 5351   5.816   4.234   4.783
 1484SOL    HW2 5352   5.684   4.310   4.841
 1485SOL     OW 5353   4.079   1.431   3.502
 1485SOL    HW1 5354   4.030   1.505   3.456
 1485SOL    HW2 5355   4.021   1.349   3.506
 1486SOL     OW 5356   5.158   1.362   2.678
 1486SOL    HW1 5357   5.168   1.376   2.580
 1486SOL    HW2 5358   5.063   1.340   2.699
 1487SOL     OW 5359   0.303   2.362   6.953
 1487SOL    HW1 5360   0.255   2.280   6.984
 1487SOL    HW2 5361   0.245   2.442   6.967
 1488SOL     OW 5362   5.183   0.771   3.699
 1488SOL    HW1 5363   5.261   0.835   3.697
 1488SOL    HW2 5364   5.197   0.703   3.770
 1489SOL     OW 5365   4.189   4.815   5.095
 1489SOL    HW1 5366   4.220   4.727   5.060
 1489SOL    HW2 5367   4.176   4.879   5.019
 1490SOL     OW 5368   1.015   3.067   1.519
 1490SOL    HW1 5369   1.086   3.003   1.548
 1490SOL    HW2 5370   0.998   3.056   1.422
 1491SOL     OW 5371   6.258   4.166   2.374
 1491SOL    HW1 5372   6.172   4.204   2.341
 1491SOL    HW2 5373   6.244   4.071   2.404
 1492SOL     OW 5374   6.330   1.216   2.495
 1492SOL    HW1 5375   6.294   1.306   2.468
 1492SOL    HW2 5376   6.364   1.221   2.589
 1493SOL     OW 5377   3.249   0.047   5.450
 1493SOL    HW1 5378   3.333   0.095   5.423
 1493SOL    HW2 5379   3.264   6.976   5.446
 1494SOL     OW 5380   4.889   1.510   6.830
 1494SOL    HW1 5381   4.877   1.442   6.902
 1494SOL    HW2 5382   4.892   1.601   6.870
 1495SOL     OW 5383   6.780   3.131   5.431
 1495SOL    HW1 5384   6.781   3.053   5.494
 1495SOL    HW2 5385   6.804   3.100   5.339
 1496SOL     OW 5386   0.252   1.808   1.742
 1496SOL    HW1 5387   0.325   1.741   1.760
 1496SOL    HW2 5388   0.201   1.826   1.826
 1497SOL     OW 5389   5.989   3.383   2.743
 1497SOL    HW1 5390   6.015   3.474   2.711
 1497SOL    HW2 5391   5.983   3.383   2.843
 1498SOL     OW 5392   2.623   4.964   6.815
 1498SOL    HW1 5393   2.534   4.950   6.772
 1498SOL    HW2 5394   2.611   4.971   6.914
 1499SOL     OW 5395   0.533   2.832   6.024
 1499SOL    HW1 5396   0.547   2.917   5.974
 1499SOL    HW2 5397   0.605   2.822   6.093
 1500SOL     OW 5398   0.079   6.808   6.905
 1500SOL    HW1 5399   0.041   6.877   6.967
 1500SOL    HW2 5400   0.132   6.742   6.957
 1501SOL     OW 5401   5.130   2.247   6.661
 1501SOL    HW1 5402   5.037   2.230   6.695
 1501SOL    HW2 5403   5.138   2.343   6.633
 1502SOL     OW 5404   3.838   0.011   0.236
 1502SOL    HW1 5405   3.919   0.018   0.177
 1502SOL    HW2 5406   3.861   6.986   0.318
 1503SOL     OW 5407   0.825   3.441   1.961
 1503SOL    HW1 5408   0.876   3.458   2.045
 1503SOL    HW2 5409   0.852   3.353   1.922
 1504SOL     OW 5410   0.530   6.716   4.459
 1504SOL    HW1 5411   0.617   6.675   4.486
 1504SOL    HW2 5412   0.542   6.814   4.443
 1505SOL     OW 5413   5.231   0.102   4.655
 1505SOL    HW1 5414   5.247   0.200   4.670
 1505SOL    HW2 5415   5.173   0.066   4.728
 1506SOL     OW 5416   0.732   5.998   0.306
 1506SOL    HW1 5417   0.778   5.973   0.391
 1506SOL    HW2 5418   0.633   5.988   0.317
 1507SOL     OW 5419   0.487   1.842   5.693
 1507SOL    HW1 5420   0.462   1.795   5.608
 1507SOL    HW2 5421   0.461   1.939   5.686
 1508SOL     OW 5422   6.392   1.624   1.927
 1508SOL    HW1 5423   6.315   1.645   1.867
 1508SOL    HW2 5424   6.432   1.710   1.961
 1509SOL     OW 5425   3.864   1.716   5.611
 1509SOL    HW1 5426   3.789   1.653   5.634
 1509SOL    HW2 5427   3.915   1.739   5.694
 1510SOL     OW 5428   5.056   1.586   5.076
 1510SOL    HW1 5429   5.108   1.583   5.161
 1510SOL    HW2 5430   5.110   1.632   5.006
 1511SOL     OW 5431   4.002   3.060   3.276
 1511SOL    HW1 5432   4.002   3.074   3.375
 1511SOL    HW2 5433   4.070   3.119   3.234
 1512SOL     OW 5434   0.148   5.016   1.012
 1512SOL    HW1 5435   0.122   5.090   0.951
 1512SOL    HW2 5436   0.198   4.946   0.961
 1513SOL     OW 5437   3.946   0.551   4.784
 1513SOL    HW1 5438   4.044   0.553   4.766
 1513SOL    HW2 5439   3.929   0.509   4.873
 1514SOL     OW 5440   4.138   2.073   5.655
 1514SOL    HW1 5441   4.047   2.056   5.619
 1514SOL    HW2 5442   4.188   2.134   5.593
 1515SOL     OW 5443   6.149   1.844   2.986
 1515SOL    HW1 5444   6.239   1.804   3.003
 1515SOL    HW2 5445   6.140   1.867   2.888
 1516SOL     OW 5446   0.039   6.380   6.917
 1516SOL    HW1 5447   6.998   6.345   6.854
 1516SOL    HW2 5448   0.124   6.329   6.904
 1517SOL     OW 5449   4.720   6.285   3.348
 1517SOL    HW1 5450   4.710   6.205   3.408
 1517SOL    HW2 5451   4.641   6.345   3.360
 1518SOL     OW 5452   0.789   2.403   0.182
 1518SOL    HW1 5453   0.855   2.329   0.194
 1518SOL    HW2 5454   0.728   2.407   0.261
 1519SOL     OW 5455   6.871   5.476   1.403
 1519SOL    HW1 5456   6.792   5.414   1.409
 1519SOL    HW2 5457   6.941   5.447   1.468
 1520SOL     OW 5458   0.397   4.054   2.229
 1520SOL    HW1 5459   0.376   4.095   2.140
 1520SOL    HW2 5460   0.377   3.956   2.225
 1521SOL     OW 5461   1.583   4.065   6.286
 1521SOL    HW1 5462   1.504   4.047   6.228
 1521SOL    HW2 5463   1.665   4.026   6.244
 1522SOL     OW 5464   5.452   6.356   4.931
 1522SOL    HW1 5465   5.461   6.289   5.005
 1522SOL    HW2 5466   5.358   6.389   4.928
 1523SOL     OW 5467   4.981   5.853   0.904
 1523SOL    HW1 5468   4.963   5.922   0.835
 1523SOL    HW2 5469   4.904   5.848   0.968
 1524SOL     OW 5470   2.653   2.248   1.987
 1524SOL    HW1 5471   2.625   2.160   1.949
 1524SOL    HW2 5472   2.753   2.252   1.992
 1525SOL     OW 5473   0.059   2.998   0.665
 1525SOL    HW1 5474   0.010   3.074   0.622
 1525SOL    HW2 5475   0.055   2.918   0.605
 1526SOL     OW 5476   6.823   7.002   0.296
 1526SOL    HW1 5477   6.731   7.019   0.329
 1526SOL    HW2 5478   6.883   0.051   0.322
 1527SOL     OW 5479   4.608   0.509   5.084
 1527SOL    HW1 5480   4.548   0.429   5.087
 1527SOL    HW2 5481   4.559   0.588   5.048
 1528SOL     OW 5482   4.651   5.201   2.534
 1528SOL    HW1 5483   4.683   5.293   2.553
 1528SOL    HW2 5484   4.631   5.191   2.436
 1529SOL     OW 5485   3.992   0.930   0.171
 1529SOL    HW1 5486   4.078   0.909   0.217
 1529SOL    HW2 5487   4.005   0.922   0.072
 1530SOL     OW 5488   3.400   2.115   1.926
 1530SOL    HW1 5489   3.482   2.142   1.978
 1530SOL    HW2 5490   3.329   2.087   1.989
 1531SOL     OW 5491   4.394   0.262   5.315
 1531SOL    HW1 5492   4.328   0.327   5.353
 1531SOL    HW2 5493   4.417   0.194   5.385
 1532SOL     OW 5494   3.157   3.328   6.573
 1532SOL    HW1 5495   3.205   3.339   6.486
 1532SOL    HW2 5496   3.223   3.323   6.648
 1533SOL     OW 5497   5.660   4.085   6.873
 1533SOL    HW1 5498   5.692   4.169   6.830
 1533SOL    HW2 5499   5.579   4.104   6.929
 1534SOL     OW 5500   2.339   4.702   7.008
 1534SOL    HW1 5501   2.400   4.737   0.051
 1534SOL    HW2 5502   2.389   4.639   6.949
 1535SOL     OW 5503   4.854   6.607   4.409
 1535SOL    HW1 5504   4.917   6.552   4.355
 1535SOL    HW2 5505   4.785   6.648   4.348
 1536SOL     OW 5506   3.935   4.724   5.661
 1536SOL    HW1 5507   3.968   4.681   5.746
 1536SOL    HW2 5508   4.012   4.743   5.601
 1537SOL     OW 5509   5.093   6.262   3.566
 1537SOL    HW1 5510   5.064   6.329   3.635
 1537SOL    HW2 5511   5.016   6.205   3.540
 1538SOL     OW 5512   3.963   5.607   6.836
 1538SOL    HW1 5513   3.924   5.544   6.770
 1538SOL    HW2 5514   3.918   5.696   6.828
 1539SOL     OW 5515   4.789   4.224   1.640
 1539SOL    HW1 5516   4.853   4.272   1.700
 1539SOL    HW2 5517   4.697   4.228   1.678
 1540SOL     OW 5518   1.363   6.310   5.845
 1540SOL    HW1 5519   1.397   6.264   5.927
 1540SOL    HW2 5520   1.378   6.408   5.853
 1541SOL     OW 5521   4.010   3.143   3.526
 1541SOL    HW1 5522   4.011   3.125   3.625
 1541SOL    HW2 5523   3.997   3.241   3.510
 1542SOL     OW 5524   5.723   6.621   2.621
 1542SOL    HW1 5525   5.673   6.545   2.663
 1542SOL    HW2 5526   5.744   6.598   2.526
 1543SOL     OW 5527   3.475   4.993   5.501
 1543SOL    HW1 5528   3.531   5.055   5.556
 1543SOL    HW2 5529   3.503   4.898   5.517
 1544SOL     OW 5530   3.076   3.334   2.783
 1544SOL    HW1 5531   3.134   3.323   2.703
 1544SOL    HW2 5532   3.103   3.267   2.853
 1545SOL     OW 5533   4.884   0.737   3.657
 1545SOL    HW1 5534   4.983   0.739   3.665
 1545SOL    HW2 5535   4.844   0.693   3.738
 1546SOL     OW 5536   3.476   6.531   6.093
 1546SOL    HW1 5537   3.533   6.452   6.118
 1546SOL    HW2 5538   3.521   6.615   6.124
 1547SOL     OW 5539   2.165   3.289   2.885
 1547SOL    HW1 5540   2.178   3.230   2.964
 1547SOL    HW2 5541   2.200   3.380   2.904
 1548SOL     OW 5542   5.206   3.874   5.694
 1548SOL    HW1 5543   5.145   3.924   5.757
 1548SOL    HW2 5544   5.299   3.875   5.731
 1549SOL     OW 5545   4.836   1.246   2.435
 1549SOL    HW1 5546   4.855   1.339   2.466
 1549SOL    HW2 5547   4.922   1.200   2.414
 1550SOL     OW 5548   3.200   3.389   0.218
 1550SOL    HW1 5549   3.256   3.326   0.271
 1550SOL    HW2 5550   3.146   3.446   0.280
 1551SOL     OW 5551   2.611   4.556   5.985
 1551SOL    HW1 5552   2.627   4.618   5.908
 1551SOL    HW2 5553   2.654   4.468   5.966
 1552SOL     OW 5554   0.444   5.751   0.146
 1552SOL    HW1 5555   0.451   5.834   0.202
 1552SOL    HW2 5556   0.535   5.725   0.113
 1553SOL     OW 5557   0.359   1.787   5.435
 1553SOL    HW1 5558   0.299   1.772   5.356
 1553SOL    HW2 5559   0.453   1.764   5.410
 1554SOL     OW 5560   4.664   2.124   3.179
 1554SOL    HW1 5561   4.569   2.104   3.155
 1554SOL    HW2 5562   4.669   2.149   3.276
 1555SOL     OW 5563   4.857   2.248   6.786
 1555SOL    HW1 5564   4.833   2.153   6.809
 1555SOL    HW2 5565   4.814   2.310   6.852
 1556SOL     OW 5566   3.709   1.148   0.675
 1556SOL    HW1 5567   3.773   1.120   0.604
 1556SOL    HW2 5568   3.728   1.242   0.702
 1557SOL     OW 5569   2.506   1.902   6.238
 1557SOL    HW1 5570   2.448   1.856   6.171
 1557SOL    HW2 5571   2.597   1.861   6.237
 1558SOL     OW 5572   5.413   0.812   4.742
 1558SOL    HW1 5573   5.321   0.818   4.706
 1558SOL    HW2 5574   5.421   0.732   4.802
 1559SOL     OW 5575   0.417   2.303   0.171
 1559SOL    HW1 5576   0.333   2.331   0.216
 1559SOL    HW2 5577   0.408   2.317   0.072
 1560SOL     OW 5578   0.931   0.968   5.978
 1560SOL    HW1 5579   0.867   0.999   5.908
 1560SOL    HW2 5580   0.895   0.990   6.068
 1561SOL     OW 5581   6.372   6.633   3.952
 1561SOL    HW1 5582   6.355   6.690   4.032
 1561SOL    HW2 5583   6.312   6.553   3.954
 1562SOL     OW 5584   4.063   6.183   2.915
 1562SOL    HW1 5585   4.065   6.281   2.893
 1562SOL    HW2 5586   3.968   6.152   2.921
 1563SOL     OW 5587   1.738   0.454   5.847
 1563SOL    HW1 5588   1.771   0.542   5.812
 1563SOL    HW2 5589   1.666   0.418   5.787
 1564SOL     OW 5590   1.108   2.665   3.304
 1564SOL    HW1 5591   1.077   2.587   3.358
 1564SOL    HW2 5592   1.189   2.706   3.347
 1565SOL     OW 5593   4.108   4.946   4.847
 1565SOL    HW1 5594   4.083   4.954   4.751
 1565SOL    HW2 5595   4.048   5.004   4.902
 1566SOL     OW 5596   5.205   5.130   3.567
 1566SOL    HW1 5597   5.220   5.218   3.612
 1566SOL    HW2 5598   5.122   5.134   3.512
 1567SOL     OW 5599   5.887   5.872   0.345
 1567SOL    HW1 5600   5.796   5.865   0.385
 1567SOL    HW2 5601   5.955   5.841   0.412
 1568SOL     OW 5602   1.960   6.511   1.036
 1568SOL    HW1 5603   1.910   6.481   1.116
 1568SOL    HW2 5604   1.948   6.446   0.961
 1569SOL     OW 5605   4.367   6.098   3.791
 1569SOL    HW1 5606   4.447   6.158   3.781
 1569SOL    HW2 5607   4.384   6.032   3.865
 1570SOL     OW 5608   2.349   6.988   0.571
 1570SOL    HW1 5609   2.259   0.003   0.561
 1570SOL    HW2 5610   2.414   0.004   0.509
 1571SOL     OW 5611   5.294   2.221   1.665
 1571SOL    HW1 5612   5.347   2.227   1.749
 1571SOL    HW2 5613   5.209   2.171   1.683
 1572SOL     OW 5614   0.537   6.675   0.607
 1572SOL    HW1 5615   0.591   6.606   0.559
 1572SOL    HW2 5616   0.483   6.727   0.541
 1573SOL     OW 5617   5.140   3.868   1.785
 1573SOL    HW1 5618   5.221   3.820   1.820
 1573SOL    HW2 5619   5.058   3.825   1.821
 1574SOL     OW 5620   6.869   0.933   2.226
 1574SOL    HW1 5621   6.781   0.921   2.180
 1574SOL    HW2 5622   6.897   1.029   2.217
 1575SOL     OW 5623   3.426   1.592   0.889
 1575SOL    HW1 5624   3.404   1.539   0.807
 1575SOL    HW2 5625   3.449   1.685   0.863
 1576SOL     OW 5626   1.466   0.270   3.038
 1576SOL    HW1 5627   1.495   0.337   3.106
 1576SOL    HW2 5628   1.400   0.312   2.975
 1577SOL     OW 5629   2.839   1.079   5.072
 1577SOL    HW1 5630   2.817   1.014   4.998
 1577SOL    HW2 5631   2.925   1.051   5.115
 1578SOL     OW 5632   6.082   2.707   5.587
 1578SOL    HW1 5633   6.086   2.625   5.529
 1578SOL    HW2 5634   6.145   2.776   5.552
 1579SOL     OW 5635   0.601   1.315   1.941
 1579SOL    HW1 5636   0.513   1.343   1.901
 1579SOL    HW2 5637   0.584   1.255   2.019
 1580SOL     OW 5638   3.430   3.701   4.729
 1580SOL    HW1 5639   3.512   3.682   4.675
 1580SOL    HW2 5640   3.417   3.628   4.796
 1581SOL     OW 5641   0.713   3.552   4.944
 1581SOL    HW1 5642   0.808   3.522   4.952
 1581SOL    HW2 5643   0.663   3.526   5.026
 1582SOL     OW 5644   1.859   0.159   3.715
 1582SOL    HW1 5645   1.879   0.096   3.640
 1582SOL    HW2 5646   1.767   0.140   3.751
 1583SOL     OW 5647   1.543   4.820   3.473
 1583SOL    HW1 5648   1.611   4.858   3.537
 1583SOL    HW2 5649   1.487   4.752   3.521
 1584SOL     OW 5650   1.159   6.576   5.146
 1584SOL    HW1 5651   1.176   6.522   5.228
 1584SOL    HW2 5652   1.084   6.639   5.163
 1585SOL     OW 5653   6.222   1.530   3.839
 1585SOL    HW1 5654   6.268   1.591   3.774
 1585SOL    HW2 5655   6.281   1.451   3.857
 1586SOL     OW 5656   3.487   5.035   1.994
 1586SOL    HW1 5657   3.521   4.944   1.969
 1586SOL    HW2 5658   3.407   5.056   1.938
 1587SOL     OW 5659   3.436   5.831   6.418
 1587SOL    HW1 5660   3.469   5.802   6.508
 1587SOL    HW2 5661   3.439   5.753   6.355
 1588SOL     OW 5662   5.075   1.477   3.208
 1588SOL    HW1 5663   5.114   1.486   3.299
 1588SOL    HW2 5664   5.018   1.557   3.189
 1589SOL     OW 5665   5.725   3.648   1.438
 1589SOL    HW1 5666   5.645   3.707   1.426
 1589SOL    HW2 5667   5.720   3.604   1.528
 1590SOL     OW 5668   3.566   6.069   6.303
 1590SOL    HW1 5669   3.524   5.998   6.361
 1590SOL    HW2 5670   3.513   6.153   6.311
 1591SOL     OW 5671   6.031   5.002   2.756
 1591SOL    HW1 5672   6.022   4.907   2.782
 1591SOL    HW2 5673   6.128   5.024   2.740
 1592SOL     OW 5674   1.835   4.309   6.890
 1592SOL    HW1 5675   1.797   4.237   6.946
 1592SOL    HW2 5676   1.827   4.285   6.793
 1593SOL     OW 5677   1.341   6.633   4.416
 1593SOL    HW1 5678   1.381   6.691   4.344
 1593SOL    HW2 5679   1.371   6.539   4.402
 1594SOL     OW 5680   0.384   6.175   2.231
 1594SOL    HW1 5681   0.365   6.269   2.203
 1594SOL    HW2 5682   0.483   6.158   2.228
 1595SOL     OW 5683   1.339   5.589   0.491
 1595SOL    HW1 5684   1.241   5.576   0.509
 1595SOL    HW2 5685   1.387   5.503   0.509
 1596SOL     OW 5686   0.564   2.387   3.740
 1596SOL    HW1 5687   0.507   2.438   3.805
 1596SOL    HW2 5688   0.595   2.449   3.668
 1597SOL     OW 5689   1.733   6.472   6.615
 1597SOL    HW1 5690   1.762   6.530   6.539
 1597SOL    HW2 5691   1.633   6.471   6.620
 1598SOL     OW 5692   0.897   3.817   6.309
 1598SOL    HW1 5693   0.981   3.845   6.262
 1598SOL    HW2 5694   0.825   3.801   6.241
 1599SOL     OW 5695   4.833   4.637   5.893
 1599SOL    HW1 5696   4.780   4.690   5.826
 1599SOL    HW2 5697   4.792   4.547   5.904
 1600SOL     OW 5698   4.900   1.570   4.278
 1600SOL    HW1 5699   4.947   1.485   4.255
 1600SOL    HW2 5700   4.966   1.637   4.312
 1601SOL     OW 5701   0.444   4.692   4.818
 1601SOL    HW1 5702   0.362   4.749   4.823
 1601SOL    HW2 5703   0.525   4.750   4.830
 1602SOL     OW 5704   2.336   5.568   3.489
 1602SOL    HW1 5705   2.289   5.652   3.516
 1602SOL    HW2 5706   2.415   5.590   3.432
 1603SOL     OW 5707   6.994   6.134   2.460
 1603SOL    HW1 5708   0.026   6.106   2.535
 1603SOL    HW2 5709   0.020   6.180   2.390
 1604SOL     OW 5710   6.298   4.727   1.455
 1604SOL    HW1 5711   6.262   4.700   1.366
 1604SOL    HW2 5712   6.231   4.784   1.502
 1605SOL     OW 5713   6.605   6.188   1.810
 1605SOL    HW1 5714   6.591   6.113   1.875
 1605SOL    HW2 5715   6.672   6.160   1.741
 1606SOL     OW 5716   3.651   0.882   4.874
 1606SOL    HW1 5717   3.626   0.788   4.900
 1606SOL    HW2 5718   3.585   0.916   4.807
 1607SOL     OW 5719   4.265   1.456   1.311
 1607SOL    HW1 5720   4.204   1.435   1.235
 1607SOL    HW2 5721   4.252   1.388   1.384
 1608SOL     OW 5722   1.116   0.520   3.991
 1608SOL    HW1 5723   1.176   0.491   4.066
 1608SOL    HW2 5724   1.115   0.449   3.920
 1609SOL     OW 5725   3.797   0.619   0.514
 1609SOL    HW1 5726   3.839   0.664   0.592
 1609SOL    HW2 5727   3.819   0.668   0.430
 1610SOL     OW 5728   5.401   4.616   6.985
 1610SOL    HW1 5729   5.429   4.522   7.005
 1610SOL    HW2 5730   5.303   4.626   7.006
 1611SOL     OW 5731   2.494   3.817   1.443
 1611SOL    HW1 5732   2.464   3.777   1.530
 1611SOL    HW2 5733   2.478   3.751   1.370
 1612SOL     OW 5734   2.627   0.682   5.269
 1612SOL    HW1 5735   2.666   0.740   5.197
 1612SOL    HW2 5736   2.697   0.619   5.301
 1613SOL     OW 5737   2.004   5.220   1.623
 1613SOL    HW1 5738   1.998   5.290   1.551
 1613SOL    HW2 5739   1.969   5.133   1.588
 1614SOL     OW 5740   6.407   3.440   0.117
 1614SOL    HW1 5741   6.331   3.472   0.060
 1614SOL    HW2 5742   6.453   3.364   0.072
 1615SOL     OW 5743   6.523   5.014   1.051
 1615SOL    HW1 5744   6.553   5.098   1.005
 1615SOL    HW2 5745   6.597   4.978   1.106
 1616SOL     OW 5746   3.653   1.974   5.224
 1616SOL    HW1 5747   3.646   1.891   5.279
 1616SOL    HW2 5748   3.645   1.951   5.127
 1617SOL     OW 5749   5.993   0.664   2.394
 1617SOL    HW1 5750   5.897   0.688   2.384
 1617SOL    HW2 5751   6.017   0.664   2.490
 1618SOL     OW 5752   1.800   4.112   1.822
 1618SOL    HW1 5753   1.700   4.105   1.819
 1618SOL    HW2 5754   1.827   4.207   1.809
 1619SOL     OW 5755   0.714   2.832   2.207
 1619SOL    HW1 5756   0.731   2.783   2.293
 1619SOL    HW2 5757   0.773   2.796   2.135
 1620SOL     OW 5758   2.777   4.968   1.731
 1620SOL    HW1 5759   2.837   4.898   1.770
 1620SOL    HW2 5760   2.731   4.931   1.650
 1621SOL     OW 5761   0.677   1.303   0.213
 1621SOL    HW1 5762   0.595   1.316   0.158
 1621SOL    HW2 5763   0.673   1.215   0.260
 1622SOL     OW 5764   0.586   2.423   4.523
 1622SOL    HW1 5765   0.520   2.479   4.572
 1622SOL    HW2 5766   0.648   2.481   4.470
 1623SOL     OW 5767   2.510   3.672   5.413
 1623SOL    HW1 5768   2.518   3.766   5.380
 1623SOL    HW2 5769   2.422   3.634   5.383
 1624SOL     OW 5770   2.641   1.178   5.210
 1624SOL    HW1 5771   2.559   1.143   5.164
 1624SOL    HW2 5772   2.722   1.159   5.154
 1625SOL     OW 5773   1.135   5.518   1.828
 1625SOL    HW1 5774   1.124   5.419   1.840
 1625SOL    HW2 5775   1.053   5.565   1.859
 1626SOL     OW 5776   3.493   2.533   6.188
 1626SOL    HW1 5777   3.502   2.580   6.101
 1626SOL    HW2 5778   3.409   2.478   6.187
 1627SOL     OW 5779   0.042   3.016   3.818
 1627SOL    HW1 5780   0.030   2.993   3.721
 1627SOL    HW2 5781   0.093   3.101   3.826
 1628SOL     OW 5782   4.478   4.567   0.694
 1628SOL    HW1 5783   4.457   4.496   0.762
 1628SOL    HW2 5784   4.532   4.639   0.737
 1629SOL     OW 5785   3.059   1.598   3.800
 1629SOL    HW1 5786   3.128   1.545   3.849
 1629SOL    HW2 5787   3.104   1.664   3.739
 1630SOL     OW 5788   1.383   5.709   5.772
 1630SOL    HW1 5789   1.398   5.643   5.846
 1630SOL    HW2 5790   1.287   5.737   5.772
 1631SOL     OW 5791   0.776   1.998   6.499
 1631SOL    HW1 5792   0.822   1.939   6.433
 1631SOL    HW2 5793   0.840   2.068   6.532
 1632SOL     OW 5794   0.144   1.983   6.652
 1632SOL    HW1 5795   0.178   2.068   6.612
 1632SOL    HW2 5796   0.053   1.998   6.691
 1633SOL     OW 5797   5.070   2.734   4.284
 1633SOL    HW1 5798   5.162   2.757   4.254
 1633SOL    HW2 5799   5.074   2.665   4.356
 1634SOL     OW 5800   4.393   5.241   6.878
 1634SOL    HW1 5801   4.396   5.180   6.799
 1634SOL    HW2 5802   4.320   5.309   6.866
 1635SOL     OW 5803   0.212   5.857   5.905
 1635SOL    HW1 5804   0.273   5.908   5.844
 1635SOL    HW2 5805   0.242   5.762   5.911
 1636SOL     OW 5806   3.033   4.197   1.762
 1636SOL    HW1 5807   2.955   4.137   1.779
 1636SOL    HW2 5808   3.026   4.278   1.819
 1637SOL     OW 5809   0.460   0.452   3.170
 1637SOL    HW1 5810   0.555   0.434   3.145
 1637SOL    HW2 5811   0.415   0.365   3.194
 1638SOL     OW 5812   0.235   4.470   3.634
 1638SOL    HW1 5813   0.259   4.567   3.643
 1638SOL    HW2 5814   0.143   4.462   3.598
 1639SOL     OW 5815   4.728   6.798   3.038
 1639SOL    HW1 5816   4.715   6.750   3.125
 1639SOL    HW2 5817   4.678   6.751   2.966
 1640SOL     OW 5818   5.776   1.344   0.553
 1640SOL    HW1 5819   5.750   1.363   0.458
 1640SOL    HW2 5820   5.720   1.401   0.614
 1641SOL     OW 5821   5.052   2.509   4.462
 1641SOL    HW1 5822   4.984   2.460   4.408
 1641SOL    HW2 5823   5.022   2.514   4.557
 1642SOL     OW 5824   6.179   3.753   6.630
 1642SOL    HW1 5825   6.142   3.758   6.723
 1642SOL    HW2 5826   6.269   3.797   6.627
 1643SOL     OW 5827   2.515   4.968   4.027
 1643SOL    HW1 5828   2.477   4.973   4.119
 1643SOL    HW2 5829   2.458   4.910   3.969
 1644SOL     OW 5830   0.408   2.666   1.242
 1644SOL    HW1 5831   0.491   2.714   1.213
 1644SOL    HW2 5832   0.417   2.569   1.221
 1645SOL     OW 5833   2.951   5.961   5.902
 1645SOL    HW1 5834   3.044   5.970   5.866
 1645SOL    HW2 5835   2.947   5.881   5.962
 1646SOL     OW 5836   2.819   5.907   0.540
 1646SOL    HW1 5837   2.752   5.841   0.573
 1646SOL    HW2 5838   2.779   5.962   0.468
 1647SOL     OW 5839   6.386   2.572   4.695
 1647SOL    HW1 5840   6.313   2.640   4.693
 1647SOL    HW2 5841   6.467   2.611   4.740
 1648SOL     OW 5842   6.003   5.913   0.916
 1648SOL    HW1 5843   6.081   5.916   0.978
 1648SOL    HW2 5844   5.982   6.006   0.885
 1649SOL     OW 5845   3.511   0.137   4.641
 1649SOL    HW1 5846   3.522   0.044   4.604
 1649SOL    HW2 5847   3.558   0.202   4.582
 1650SOL     OW 5848   2.200   6.447   5.594
 1650SOL    HW1 5849   2.123   6.409   5.543
 1650SOL    HW2 5850   2.169   6.524   5.650
 1651SOL     OW 5851   0.611   1.560   1.418
 1651SOL    HW1 5852   0.513   1.547   1.433
 1651SOL    HW2 5853   0.643   1.495   1.349
 1652SOL     OW 5854   1.250   3.109   2.208
 1652SOL    HW1 5855   1.339   3.096   2.252
 1652SOL    HW2 5856   1.206   3.190   2.246
 1653SOL     OW 5857   1.160   6.802   1.216
 1653SOL    HW1 5858   1.120   6.893   1.230
 1653SOL    HW2 5859   1.088   6.737   1.194
 1654SOL     OW 5860   6.808   3.061   2.184
 1654SOL    HW1 5861   6.833   2.997   2.111
 1654SOL    HW2 5862   6.708   3.061   2.194
 1655SOL     OW 5863   6.546   2.579   5.086
 1655SOL    HW1 5864   6.614   2.516   5.050
 1655SOL    HW2 5865   6.455   2.551   5.056
 1656SOL     OW 5866   2.540   5.068   2.465
 1656SOL    HW1 5867   2.600   5.080   2.544
 1656SOL    HW2 5868   2.590   5.087   2.381
 1657SOL     OW 5869   7.006   0.363   4.188
 1657SOL    HW1 5870   6.980   0.458   4.177
 1657SOL    HW2 5871   6.930   0.304   4.159
 1658SOL     OW 5872   1.108   0.044   1.298
 1658SOL    HW1 5873   1.142   0.137   1.283
 1658SOL    HW2 5874   1.020   0.048   1.346
 1659SOL     OW 5875   3.667   0.889   5.711
 1659SOL    HW1 5876   3.713   0.809   5.672
 1659SOL    HW2 5877   3.639   0.869   5.805
 1660SOL     OW 5878   0.900   5.154   3.929
 1660SOL    HW1 5879   0.986   5.194   3.896
 1660SOL    HW2 5880   0.841   5.132   3.851
 1661SOL     OW 5881   3.260   1.155   2.103
 1661SOL    HW1 5882   3.195   1.164   2.178
 1661SOL    HW2 5883   3.238   1.221   2.032
 1662SOL     OW 5884   6.814   0.310   3.993
 1662SOL    HW1 5885   6.747   0.346   3.928
 1662SOL    HW2 5886   6.861   0.232   3.952
 1663SOL     OW 5887   4.192   6.825   3.020
 1663SOL    HW1 5888   4.095   6.803   3.032
 1663SOL    HW2 5889   4.235   6.839   3.109
 1664SOL     OW 5890   2.632   6.523   4.170
 1664SOL    HW1 5891   2.717   6.544   4.218
 1664SOL    HW2 5892   2.584   6.450   4.219
 1665SOL     OW 5893   0.484   1.282   3.171
 1665SOL    HW1 5894   0.422   1.359   3.185
 1665SOL    HW2 5895   0.540   1.299   3.089
 1666SOL     OW 5896   5.650   3.421   0.223
 1666SOL    HW1 5897   5.689   3.331   0.204
 1666SOL    HW2 5898   5.677   3.484   0.150
 1667SOL     OW 5899   6.879   6.692   1.511
 1667SOL    HW1 5900   6.834   6.781   1.522
 1667SOL    HW2 5901   6.974   6.705   1.485
 1668SOL     OW 5902   5.359   5.991   5.411
 1668SOL    HW1 5903   5.346   5.931   5.490
 1668SOL    HW2 5904   5.394   6.080   5.441
 1669SOL     OW 5905   0.448   5.788   6.266
 1669SOL    HW1 5906   0.513   5.734   6.213
 1669SOL    HW2 5907   0.468   5.886   6.254
 1670SOL     OW 5908   6.923   4.475   6.395
 1670SOL    HW1 5909   6.998   4.458   6.331
 1670SOL    HW2 5910   6.848   4.412   6.375
 1671SOL     OW 5911   4.852   2.989   0.752
 1671SOL    HW1 5912   4.898   3.033   0.674
 1671SOL    HW2 5913   4.893   2.899   0.768
 1672SOL     OW 5914   1.865   3.240   1.415
 1672SOL    HW1 5915   1.930   3.164   1.407
 1672SOL    HW2 5916   1.854   3.263   1.512
 1673SOL     OW 5917   0.226   2.354   3.814
 1673SOL    HW1 5918   0.261   2.340   3.722
 1673SOL    HW2 5919   0.135   2.396   3.809
 1674SOL     OW 5920   0.836   3.928   2.832
 1674SOL    HW1 5921   0.871   3.854   2.774
 1674SOL    HW2 5922   0.807   4.004   2.774
 1675SOL     OW 5923   4.257   0.695   5.820
 1675SOL    HW1 5924   4.282   0.792   5.816
 1675SOL    HW2 5925   4.197   0.679   5.898
 1676SOL     OW 5926   1.953   1.346   2.125
 1676SOL    HW1 5927   2.035   1.344   2.182
 1676SOL    HW2 5928   1.900   1.262   2.139
 1677SOL     OW 5929   3.684   3.439   5.515
 1677SOL    HW1 5930   3.631   3.514   5.476
 1677SOL    HW2 5931   3.782   3.458   5.505
 1678SOL     OW 5932   4.409   5.044   4.987
 1678SOL    HW1 5933   4.426   5.010   4.895
 1678SOL    HW2 5934   4.491   5.088   5.022
 1679SOL     OW 5935   2.236   2.800   5.119
 1679SOL    HW1 5936   2.194   2.811   5.209
 1679SOL    HW2 5937   2.261   2.890   5.083
 1680SOL     OW 5938   0.552   2.854   4.680
 1680SOL    HW1 5939   0.494   2.934   4.662
 1680SOL    HW2 5940   0.647   2.877   4.660
 1681SOL     OW 5941   6.355   5.540   0.154
 1681SOL    HW1 5942   6.265   5.530   0.111
 1681SOL    HW2 5943   6.353   5.616   0.219
 1682SOL     OW 5944   0.333   2.024   5.048
 1682SOL    HW1 5945   0.346   2.045   4.951
 1682SOL    HW2 5946   0.381   1.939   5.071
 1683SOL     OW 5947   4.188   5.667   1.158
 1683SOL    HW1 5948   4.123   5.595   1.133
 1683SOL    HW2 5949   4.281   5.631   1.155
 1684SOL     OW 5950   1.358   6.061   2.536
 1684SOL    HW1 5951   1.393   6.101   2.452
 1684SOL    HW2 5952   1.287   6.121   2.575
 1685SOL     OW 5953   2.295   1.260   5.648
 1685SOL    HW1 5954   2.233   1.281   5.724
 1685SOL    HW2 5955   2.275   1.320   5.571
 1686SOL     OW 5956   2.564   4.996   5.143
 1686SOL    HW1 5957   2.639   5.024   5.203
 1686SOL    HW2 5958   2.480   4.988   5.197
 1687SOL     OW 5959   2.369   3.304   1.122
 1687SOL    HW1 5960   2.303   3.367   1.163
 1687SOL    HW2 5961   2.339   3.210   1.137
 1688SOL     OW 5962   1.613   2.438   3.713
 1688SOL    HW1 5963   1.710   2.422   3.730
 1688SOL    HW2 5964   1.562   2.354   3.732
 1689SOL     OW 5965   4.861   0.885   2.605
 1689SOL    HW1 5966   4.814   0.922   2.524
 1689SOL    HW2 5967   4.823   0.795   2.627
 1690SOL     OW 5968   1.837   2.791   3.308
 1690SOL    HW1 5969   1.931   2.757   3.310
 1690SOL    HW2 5970   1.776   2.721   3.271
 1691SOL     OW 5971   5.635   4.341   3.600
 1691SOL    HW1 5972   5.623   4.345   3.501
 1691SOL    HW2 5973   5.579   4.267   3.637
 1692SOL     OW 5974   5.440   0.547   1.760
 1692SOL    HW1 5975   5.470   0.484   1.688
 1692SOL    HW2 5976   5.405   0.630   1.718
 1693SOL     OW 5977   0.228   2.313   2.398
 1693SOL    HW1 5978   0.281   2.364   2.465
 1693SOL    HW2 5979   0.203   2.224   2.436
 1694SOL     OW 5980   5.360   0.549   3.868
 1694SOL    HW1 5981   5.274   0.528   3.821
 1694SOL    HW2 5982   5.428   0.579   3.801
 1695SOL     OW 5983   2.875   1.604   6.047
 1695SOL    HW1 5984   2.795   1.553   6.078
 1695SOL    HW2 5985   2.940   1.540   6.004
 1696SOL     OW 5986   5.010   4.786   0.517
 1696SOL    HW1 5987   4.982   4.856   0.451
 1696SOL    HW2 5988   4.967   4.804   0.605
 1697SOL     OW 5989   5.361   6.370   1.975
 1697SOL    HW1 5990   5.315   6.282   1.986
 1697SOL    HW2 5991   5.408   6.394   2.061
 1698SOL     OW 5992   5.129   0.861   0.010
 1698SOL    HW1 5993   5.070   0.942   0.014
 1698SOL    HW2 5994   5.157   0.836   0.102
 1699SOL     OW 5995   2.698   1.451   0.841
 1699SOL    HW1 5996   2.753   1.447   0.925
 1699SOL    HW2 5997   2.732   1.384   0.776
 1700SOL     OW 5998   5.843   2.479   3.068
 1700SOL    HW1 5999   5.829   2.548   3.138
 1700SOL    HW2 6000   5.764   2.418   3.064
 1701SOL     OW 6001   5.579   4.441   5.567
 1701SOL    HW1 6002   5.487   4.410   5.543
 1701SOL    HW2 6003   5.617   4.380   5.638
 1702SOL     OW 6004   6.786   3.077   0.605
 1702SOL    HW1 6005   6.695   3.041   0.583
 1702SOL    HW2 6006   6.816   3.040   0.693
 1703SOL     OW 6007   3.967   3.027   2.433
 1703SOL    HW1 6008   3.952   2.999   2.338
 1703SOL    HW2 6009   3.891   2.995   2.489
 1704SOL     OW 6010   0.902   1.537   2.161
 1704SOL    HW1 6011   0.916   1.613   2.097
 1704SOL    HW2 6012   0.804   1.523   2.175
 1705SOL     OW 6013   3.584   2.351   1.273
 1705SOL    HW1 6014   3.524   2.272   1.259
 1705SOL    HW2 6015   3.678   2.325   1.255
 1706SOL     OW 6016   4.765   0.535   1.377
 1706SOL    HW1 6017   4.686   0.551   1.318
 1706SOL    HW2 6018   4.793   0.621   1.419
 1707SOL     OW 6019   4.843   1.493   2.527
 1707SOL    HW1 6020   4.903   1.571   2.547
 1707SOL    HW2 6021   4.748   1.518   2.547
 1708SOL     OW 6022   4.712   4.786   2.381
 1708SOL    HW1 6023   4.738   4.746   2.293
 1708SOL    HW2 6024   4.782   4.853   2.409
 1709SOL     OW 6025   2.281   5.719   1.470
 1709SOL    HW1 6026   2.237   5.669   1.396
 1709SOL    HW2 6027   2.335   5.794   1.433
 1710SOL     OW 6028   5.827   4.907   3.859
 1710SOL    HW1 6029   5.878   4.822   3.850
 1710SOL    HW2 6030   5.733   4.893   3.828
 1711SOL     OW 6031   1.099   5.028   4.568
 1711SOL    HW1 6032   1.049   5.029   4.654
 1711SOL    HW2 6033   1.037   5.004   4.493
 1712SOL     OW 6034   0.212   3.196   6.292
 1712SOL    HW1 6035   0.244   3.101   6.286
 1712SOL    HW2 6036   0.150   3.214   6.216
 1713SOL     OW 6037   3.864   2.160   1.488
 1713SOL    HW1 6038   3.874   2.062   1.469
 1713SOL    HW2 6039   3.784   2.175   1.545
 1714SOL     OW 6040   4.317   1.734   5.373
 1714SOL    HW1 6041   4.226   1.769   5.393
 1714SOL    HW2 6042   4.384   1.808   5.385
 1715SOL     OW 6043   0.115   4.108   2.488
 1715SOL    HW1 6044   0.040   4.174   2.484
 1715SOL    HW2 6045   0.201   4.156   2.504
 1716SOL     OW 6046   4.117   0.280   2.640
 1716SOL    HW1 6047   4.158   0.368   2.662
 1716SOL    HW2 6048   4.119   0.221   2.721
 1717SOL     OW 6049   2.410   6.099   6.251
 1717SOL    HW1 6050   2.439   6.055   6.336
 1717SOL    HW2 6051   2.490   6.120   6.195
 1718SOL     OW 6052   1.935   2.081   1.929
 1718SOL    HW1 6053   1.919   1.988   1.961
 1718SOL    HW2 6054   1.999   2.128   1.990
 1719SOL     OW 6055   2.122   4.112   0.768
 1719SOL    HW1 6056   2.129   4.029   0.713
 1719SOL    HW2 6057   2.069   4.093   0.851
 1720SOL     OW 6058   0.790   1.961   0.374
 1720SOL    HW1 6059   0.824   1.985   0.283
 1720SOL    HW2 6060   0.790   1.861   0.384
 1721SOL     OW 6061   1.064   6.470   2.225
 1721SOL    HW1 6062   1.051   6.566   2.250
 1721SOL    HW2 6063   0.989   6.440   2.167
 1722SOL     OW 6064   4.640   2.385   4.395
 1722SOL    HW1 6065   4.657   2.405   4.491
 1722SOL    HW2 6066   4.552   2.425   4.368
 1723SOL     OW 6067   6.960   2.597   2.509
 1723SOL    HW1 6068   6.966   2.559   2.417
 1723SOL    HW2 6069   6.866   2.628   2.526
 1724SOL     OW 6070   6.239   1.892   1.281
 1724SOL    HW1 6071   6.160   1.952   1.267
 1724SOL    HW2 6072   6.268   1.853   1.194
 1725SOL     OW 6073   2.176   4.636   6.479
 1725SOL    HW1 6074   2.172   4.606   6.574
 1725SOL    HW2 6075   2.232   4.571   6.427
 1726SOL     OW 6076   5.252   5.155   5.705
 1726SOL    HW1 6077   5.163   5.112   5.720
 1726SOL    HW2 6078   5.283   5.135   5.612
 1727SOL     OW 6079   3.849   3.428   4.522
 1727SOL    HW1 6080   3.838   3.478   4.436
 1727SOL    HW2 6081   3.780   3.356   4.528
 1728SOL     OW 6082   5.285   4.924   5.963
 1728SOL    HW1 6083   5.316   4.908   5.869
 1728SOL    HW2 6084   5.359   4.966   6.016
 1729SOL     OW 6085   1.909   3.643   3.866
 1729SOL    HW1 6086   1.862   3.656   3.953
 1729SOL    HW2 6087   1.889   3.719   3.805
 1730SOL     OW 6088   6.809   7.022   5.370
 1730SOL    HW1 6089   6.793   0.084   5.330
 1730SOL    HW2 6090   6.759   7.014   5.456
 1731SOL     OW 6091   6.786   4.954   2.099
 1731SOL    HW1 6092   6.835   4.969   2.185
 1731SOL    HW2 6093   6.840   4.891   2.041
 1732SOL     OW 6094   2.660   4.593   5.697
 1732SOL    HW1 6095   2.650   4.498   5.728
 1732SOL    HW2 6096   2.722   4.596   5.618
 1733SOL     OW 6097   1.316   4.307   2.507
 1733SOL    HW1 6098   1.219   4.323   2.486
 1733SOL    HW2 6099   1.332   4.320   2.605
 1734SOL     OW 6100   4.612   3.210   1.647
 1734SOL    HW1 6101   4.645   3.162   1.565
 1734SOL    HW2 6102   4.610   3.146   1.724
 1735SOL     OW 6103   5.552   5.806   1.265
 1735SOL    HW1 6104   5.517   5.857   1.343
 1735SOL    HW2 6105   5.650   5.792   1.276
 1736SOL     OW 6106   4.042   2.581   1.253
 1736SOL    HW1 6107   4.033   2.654   1.185
 1736SOL    HW2 6108   4.058   2.494   1.206
 1737SOL     OW 6109   2.621   1.155   3.925
 1737SOL    HW1 6110   2.533   1.159   3.973
 1737SOL    HW2 6111   2.681   1.227   3.959
 1738SOL     OW 6112   2.062   1.833   4.237
 1738SOL    HW1 6113   2.159   1.848   4.218
 1738SOL    HW2 6114   2.012   1.824   4.151
 1739SOL     OW 6115   5.617   2.130   5.606
 1739SOL    HW1 6116   5.565   2.161   5.685
 1739SOL    HW2 6117   5.598   2.033   5.589
 1740SOL     OW 6118   0.279   1.791   6.038
 1740SOL    HW1 6119   0.267   1.692   6.050
 1740SOL    HW2 6120   0.276   1.836   6.127
 1741SOL     OW 6121   2.432   0.695   3.903
 1741SOL    HW1 6122   2.522   0.705   3.862
 1741SOL    HW2 6123   2.428   0.746   3.989
 1742SOL     OW 6124   4.957   0.186   6.253
 1742SOL    HW1 6125   4.989   0.215   6.163
 1742SOL    HW2 6126   4.904   0.260   6.295
 1743SOL     OW 6127   1.667   2.114   2.138
 1743SOL    HW1 6128   1.640   2.021   2.162
 1743SOL    HW2 6129   1.625   2.139   2.051
 1744SOL     OW 6130   0.621   0.452   1.767
 1744SOL    HW1 6131   0.717   0.423   1.768
 1744SOL    HW2 6132   0.616   0.551   1.778
 1745SOL     OW 6133   6.254   0.741   3.659
 1745SOL    HW1 6134   6.257   0.799   3.578
 1745SOL    HW2 6135   6.265   0.645   3.631
 1746SOL     OW 6136   2.504   4.644   5.439
 1746SOL    HW1 6137   2.585   4.665   5.385
 1746SOL    HW2 6138   2.529   4.634   5.535
 1747SOL     OW 6139   5.878   1.499   2.879
 1747SOL    HW1 6140   5.874   1.588   2.925
 1747SOL    HW2 6141   5.814   1.499   2.802
 1748SOL     OW 6142   0.639   0.933   3.874
 1748SOL    HW1 6143   0.591   1.009   3.830
 1748SOL    HW2 6144   0.577   0.855   3.885
 1749SOL     OW 6145   2.417   0.278   4.879
 1749SOL    HW1 6146   2.357   0.204   4.908
 1749SOL    HW2 6147   2.444   0.332   4.959
 1750SOL     OW 6148   6.691   6.842   3.616
 1750SOL    HW1 6149   6.643   6.907   3.557
 1750SOL    HW2 6150   6.735   6.892   3.691
 1751SOL     OW 6151   4.206   5.820   4.942
 1751SOL    HW1 6152   4.144   5.856   5.012
 1751SOL    HW2 6153   4.229   5.725   4.963
 1752SOL     OW 6154   0.506   2.143   1.986
 1752SOL    HW1 6155   0.426   2.175   2.037
 1752SOL    HW2 6156   0.501   2.177   1.891
 1753SOL     OW 6157   0.443   2.056   0.650
 1753SOL    HW1 6158   0.376   2.130   0.643
 1753SOL    HW2 6159   0.396   1.969   0.664
 1754SOL     OW 6160   2.929   3.442   0.718
 1754SOL    HW1 6161   2.841   3.489   0.716
 1754SOL    HW2 6162   2.975   3.461   0.805
 1755SOL     OW 6163   6.291   6.048   1.955
 1755SOL    HW1 6164   6.242   6.063   2.041
 1755SOL    HW2 6165   6.273   5.956   1.922
 1756SOL     OW 6166   4.420   4.582   5.809
 1756SOL    HW1 6167   4.444   4.506   5.749
 1756SOL    HW2 6168   4.422   4.551   5.904
 1757SOL     OW 6169   2.610   5.024   4.882
 1757SOL    HW1 6170   2.680   4.963   4.845
 1757SOL    HW2 6171   2.607   5.014   4.981
 1758SOL     OW 6172   2.555   0.363   4.080
 1758SOL    HW1 6173   2.571   0.462   4.085
 1758SOL    HW2 6174   2.579   0.330   3.989
 1759SOL     OW 6175   1.897   5.062   6.410
 1759SOL    HW1 6176   1.801   5.039   6.397
 1759SOL    HW2 6177   1.911   5.098   6.503
 1760SOL     OW 6178   5.719   2.354   2.303
 1760SOL    HW1 6179   5.755   2.417   2.372
 1760SOL    HW2 6180   5.619   2.348   2.313
 1761SOL     OW 6181   0.777   7.019   0.475
 1761SOL    HW1 6182   0.721   7.017   0.558
 1761SOL    HW2 6183   0.718   0.003   0.395
 1762SOL     OW 6184   7.000   1.871   4.868
 1762SOL    HW1 6185   0.029   1.921   4.803
 1762SOL    HW2 6186   6.916   1.922   4.886
 1763SOL     OW 6187   1.773   3.968   4.012
 1763SOL    HW1 6188   1.819   4.051   3.982
 1763SOL    HW2 6189   1.768   3.903   3.936
 1764SOL     OW 6190   2.133   3.701   2.098
 1764SOL    HW1 6191   2.149   3.769   2.026
 1764SOL    HW2 6192   2.158   3.611   2.064
 1765SOL     OW 6193   4.087   1.563   0.324
 1765SOL    HW1 6194   4.081   1.633   0.252
 1765SOL    HW2 6195   4.182   1.553   0.352
 1766SOL     OW 6196   4.852   3.395   2.892
 1766SOL    HW1 6197   4.766   3.377   2.939
 1766SOL    HW2 6198   4.892   3.309   2.861
 1767SOL     OW 6199   6.691   3.927   2.806
 1767SOL    HW1 6200   6.719   3.984   2.883
 1767SOL    HW2 6201   6.653   3.984   2.734
 1768SOL     OW 6202   3.858   1.491   4.874
 1768SOL    HW1 6203   3.941   1.530   4.833
 1768SOL    HW2 6204   3.882   1.410   4.928
 1769SOL     OW 6205   4.644   2.824   5.513
 1769SOL    HW1 6206   4.706   2.884   5.563
 1769SOL    HW2 6207   4.653   2.842   5.415
 1770SOL     OW 6208   0.162   5.379   4.579
 1770SOL    HW1 6209   0.100   5.359   4.503
 1770SOL    HW2 6210   0.256   5.380   4.545
 1771SOL     OW 6211   2.135   5.340   0.213
 1771SOL    HW1 6212   2.112   5.438   0.219
 1771SOL    HW2 6213   2.202   5.326   0.140
 1772SOL     OW 6214   3.687   6.386   3.243
 1772SOL    HW1 6215   3.620   6.455   3.272
 1772SOL    HW2 6216   3.671   6.363   3.148
 1773SOL     OW 6217   3.128   4.688   6.953
 1773SOL    HW1 6218   3.030   4.681   6.931
 1773SOL    HW2 6219   3.165   4.771   6.913
 1774SOL     OW 6220   4.547   6.669   1.700
 1774SOL    HW1 6221   4.626   6.629   1.746
 1774SOL    HW2 6222   4.575   6.704   1.610
 1775SOL     OW 6223   1.316   5.007   3.883
 1775SOL    HW1 6224   1.290   5.017   3.980
 1775SOL    HW2 6225   1.249   5.055   3.826
 1776SOL     OW 6226   3.253   0.854   5.473
 1776SOL    HW1 6227   3.288   0.924   5.411
 1776SOL    HW2 6228   3.193   0.897   5.541
 1777SOL     OW 6229   3.179   5.446   5.891
 1777SOL    HW1 6230   3.222   5.534   5.869
 1777SOL    HW2 6231   3.250   5.379   5.913
 1778SOL     OW 6232   4.902   2.088   4.844
 1778SOL    HW1 6233   4.894   2.062   4.940
 1778SOL    HW2 6234   4.971   2.161   4.834
 1779SOL     OW 6235   4.707   1.522   4.827
 1779SOL    HW1 6236   4.680   1.609   4.868
 1779SOL    HW2 6237   4.745   1.539   4.736
 1780SOL     OW 6238   2.765   4.348   6.097
 1780SOL    HW1 6239   2.734   4.254   6.108
 1780SOL    HW2 6240   2.720   4.406   6.165
 1781SOL     OW 6241   4.437   5.205   3.757
 1781SOL    HW1 6242   4.362   5.171   3.699
 1781SOL    HW2 6243   4.524   5.188   3.711
 1782SOL     OW 6244   2.934   1.952   3.256
 1782SOL    HW1 6245   2.845   1.995   3.268
 1782SOL    HW2 6246   2.975   1.935   3.346
 1783SOL     OW 6247   1.845   3.730   6.495
 1783SOL    HW1 6248   1.747   3.738   6.510
 1783SOL    HW2 6249   1.866   3.748   6.399
 1784SOL     OW 6250   3.201   1.009   4.671
 1784SOL    HW1 6251   3.180   1.104   4.692
 1784SOL    HW2 6252   3.116   0.957   4.662
 1785SOL     OW 6253   5.228   6.225   3.873
 1785SOL    HW1 6254   5.194   6.189   3.959
 1785SOL    HW2 6255   5.207   6.161   3.799
 1786SOL     OW 6256   1.377   3.021   1.012
 1786SOL    HW1 6257   1.438   2.952   1.050
 1786SOL    HW2 6258   1.298   2.976   0.970
 1787SOL     OW 6259   2.259   1.022   4.418
 1787SOL    HW1 6260   2.201   1.101   4.437
 1787SOL    HW2 6261   2.331   1.048   4.354
 1788SOL     OW 6262   3.284   3.128   0.518
 1788SOL    HW1 6263   3.282   3.165   0.610
 1788SOL    HW2 6264   3.368   3.074   0.505
 1789SOL     OW 6265   6.633   2.422   2.287
 1789SOL    HW1 6266   6.685   2.494   2.332
 1789SOL    HW2 6267   6.538   2.425   2.317
 1790SOL     OW 6268   3.935   6.459   4.152
 1790SOL    HW1 6269   4.005   6.491   4.216
 1790SOL    HW2 6270   3.972   6.385   4.096
 1791SOL     OW 6271   0.459   1.719   4.399
 1791SOL    HW1 6272   0.368   1.740   4.363
 1791SOL    HW2 6273   0.522   1.707   4.322
 1792SOL     OW 6274   0.185   2.594   4.186
 1792SOL    HW1 6275   0.162   2.637   4.099
 1792SOL    HW2 6276   0.257   2.646   4.231
 1793SOL     OW 6277   6.618   0.436   3.824
 1793SOL    HW1 6278   6.623   0.398   3.732
 1793SOL    HW2 6279   6.578   0.527   3.822
 1794SOL     OW 6280   5.272   5.813   6.664
 1794SOL    HW1 6281   5.363   5.854   6.675
 1794SOL    HW2 6282   5.282   5.720   6.630
 1795SOL     OW 6283   0.669   3.619   2.356
 1795SOL    HW1 6284   0.604   3.679   2.308
 1795SOL    HW2 6285   0.644   3.613   2.453
 1796SOL     OW 6286   2.128   1.181   4.091
 1796SOL    HW1 6287   2.118   1.241   4.171
 1796SOL    HW2 6288   2.046   1.123   4.083
 1797SOL     OW 6289   0.855   0.978   6.301
 1797SOL    HW1 6290   0.873   0.879   6.301
 1797SOL    HW2 6291   0.861   1.012   6.394
 1798SOL     OW 6292   4.980   2.504   5.034
 1798SOL    HW1 6293   4.964   2.584   5.092
 1798SOL    HW2 6294   5.000   2.425   5.092
 1799SOL     OW 6295   6.889   1.689   6.340
 1799SOL    HW1 6296   6.824   1.759   6.369
 1799SOL    HW2 6297   6.977   1.705   6.383
 1800SOL     OW 6298   4.472   5.635   3.152
 1800SOL    HW1 6299   4.434   5.558   3.203
 1800SOL    HW2 6300   4.489   5.712   3.215
 1801SOL     OW 6301   0.786   1.050   2.136
 1801SOL    HW1 6302   0.851   1.055   2.211
 1801SOL    HW2 6303   0.812   1.116   2.065
 1802SOL     OW 6304   5.193   5.068   2.176
 1802SOL    HW1 6305   5.280   5.019   2.182
 1802SOL    HW2 6306   5.188   5.136   2.249
 1803SOL     OW 6307   6.725   6.218   0.850
 1803SOL    HW1 6308   6.812   6.174   0.871
 1803SOL    HW2 6309   6.680   6.247   0.935
 1804SOL     OW 6310   2.103   3.629   6.153
 1804SOL    HW1 6311   2.201   3.614   6.158
 1804SOL    HW2 6312   2.062   3.566   6.087
 1805SOL     OW 6313   7.018   4.006   5.606
 1805SOL    HW1 6314   0.006   4.087   5.663
 1805SOL    HW2 6315   6.987   4.034   5.516
 1806SOL     OW 6316   0.959   1.208   0.928
 1806SOL    HW1 6317   1.028   1.138   0.949
 1806SOL    HW2 6318   0.995   1.298   0.952
 1807SOL     OW 6319   5.413   2.429   6.041
 1807SOL    HW1 6320   5.496   2.394   5.996
 1807SOL    HW2 6321   5.369   2.496   5.982
 1808SOL     OW 6322   6.512   3.442   5.739
 1808SOL    HW1 6323   6.591   3.495   5.769
 1808SOL    HW2 6324   6.541   3.373   5.673
 1809SOL     OW 6325   2.186   3.187   4.449
 1809SOL    HW1 6326   2.181   3.286   4.435
 1809SOL    HW2 6327   2.156   3.166   4.543
 1810SOL     OW 6328   2.198   0.690   5.640
 1810SOL    HW1 6329   2.164   0.777   5.678
 1810SOL    HW2 6330   2.205   0.698   5.541
 1811SOL     OW 6331   4.318   4.621   3.518
 1811SOL    HW1 6332   4.397   4.568   3.487
 1811SOL    HW2 6333   4.267   4.655   3.439
 1812SOL     OW 6334   4.099   6.980   6.403
 1812SOL    HW1 6335   4.117   6.902   6.463
 1812SOL    HW2 6336   4.180   0.010   6.398
 1813SOL     OW 6337   4.488   4.938   0.864
 1813SOL    HW1 6338   4.395   4.905   0.882
 1813SOL    HW2 6339   4.489   4.990   0.779
 1814SOL     OW 6340   6.598   0.650   0.133
 1814SOL    HW1 6341   6.665   0.583   0.166
 1814SOL    HW2 6342   6.623   0.679   0.041
 1815SOL     OW 6343   6.640   2.220   1.511
 1815SOL    HW1 6344   6.657   2.138   1.565
 1815SOL    HW2 6345   6.727   2.262   1.484
 1816SOL     OW 6346   1.656   3.975   1.041
 1816SOL    HW1 6347   1.589   3.998   1.111
 1816SOL    HW2 6348   1.706   3.893   1.067
 1817SOL     OW 6349   3.237   6.562   3.303
 1817SOL    HW1 6350   3.189   6.641   3.264
 1817SOL    HW2 6351   3.200   6.542   3.394
 1818SOL     OW 6352   1.727   6.427   2.500
 1818SOL    HW1 6353   1.633   6.462   2.498
 1818SOL    HW2 6354   1.728   6.336   2.541
 1819SOL     OW 6355   0.607   5.204   1.738
 1819SOL    HW1 6356   0.546   5.125   1.732
 1819SOL    HW2 6357   0.633   5.233   1.646
 1820SOL     OW 6358   3.684   0.925   2.746
 1820SOL    HW1 6359   3.665   0.832   2.776
 1820SOL    HW2 6360   3.672   0.932   2.647
 1821SOL     OW 6361   2.451   0.656   1.772
 1821SOL    HW1 6362   2.398   0.604   1.839
 1821SOL    HW2 6363   2.412   0.747   1.761
 1822SOL     OW 6364   2.234   3.043   1.131
 1822SOL    HW1 6365   2.165   3.022   1.200
 1822SOL    HW2 6366   2.190   3.053   1.042
 1823SOL     OW 6367   2.691   5.820   3.129
 1823SOL    HW1 6368   2.682   5.749   3.059
 1823SOL    HW2 6369   2.775   5.872   3.113
 1824SOL     OW 6370   3.469   4.296   1.340
 1824SOL    HW1 6371   3.491   4.252   1.427
 1824SOL    HW2 6372   3.425   4.230   1.279
 1825SOL     OW 6373   1.213   2.217   3.474
 1825SOL    HW1 6374   1.289   2.257   3.423
 1825SOL    HW2 6375   1.249   2.157   3.546
 1826SOL     OW 6376   2.907   0.474   0.593
 1826SOL    HW1 6377   2.841   0.434   0.529
 1826SOL    HW2 6378   2.862   0.489   0.681
 1827SOL     OW 6379   0.530   5.493   1.719
 1827SOL    HW1 6380   0.460   5.524   1.783
 1827SOL    HW2 6381   0.548   5.396   1.734
 1828SOL     OW 6382   1.143   2.362   0.799
 1828SOL    HW1 6383   1.173   2.311   0.879
 1828SOL    HW2 6384   1.063   2.318   0.758
 1829SOL     OW 6385   2.849   0.910   3.024
 1829SOL    HW1 6386   2.810   0.821   3.046
 1829SOL    HW2 6387   2.831   0.932   2.928
 1830SOL     OW 6388   6.603   6.381   3.766
 1830SOL    HW1 6389   6.523   6.325   3.742
 1830SOL    HW2 6390   6.581   6.477   3.750
 1831SOL     OW 6391   6.050   0.364   2.706
 1831SOL    HW1 6392   5.996   0.446   2.687
 1831SOL    HW2 6393   6.003   0.283   2.671
 1832SOL     OW 6394   4.642   0.966   1.515
 1832SOL    HW1 6395   4.563   1.025   1.499
 1832SOL    HW2 6396   4.708   0.978   1.441
 1833SOL     OW 6397   5.254   0.353   0.207
 1833SOL    HW1 6398   5.298   0.441   0.225
 1833SOL    HW2 6399   5.210   0.320   0.291
 1834SOL     OW 6400   3.301   3.592   0.476
 1834SOL    HW1 6401   3.211   3.585   0.520
 1834SOL    HW2 6402   3.293   3.649   0.395
 1835SOL     OW 6403   6.956   4.271   2.374
 1835SOL    HW1 6404   6.961   4.273   2.275
 1835SOL    HW2 6405   6.865   4.301   2.404
 1836SOL     OW 6406   5.010   2.291   1.462
 1836SOL    HW1 6407   4.974   2.379   1.433
 1836SOL    HW2 6408   4.964   2.262   1.546
 1837SOL     OW 6409   0.897   0.650   5.164
 1837SOL    HW1 6410   0.905   0.626   5.067
 1837SOL    HW2 6411   0.890   0.566   5.218
 1838SOL     OW 6412   0.008   1.609   4.958
 1838SOL    HW1 6413   6.989   1.558   4.885
 1838SOL    HW2 6414   0.026   1.702   4.927
 1839SOL     OW 6415   5.890   2.287   5.183
 1839SOL    HW1 6416   5.890   2.384   5.206
 1839SOL    HW2 6417   5.871   2.233   5.264
 1840SOL     OW 6418   3.467   6.788   1.223
 1840SOL    HW1 6419   3.391   6.844   1.254
 1840SOL    HW2 6420   3.432   6.709   1.173
 1841SOL     OW 6421   2.525   0.865   3.406
 1841SOL    HW1 6422   2.516   0.937   3.337
 1841SOL    HW2 6423   2.532   0.776   3.361
 1842SOL     OW 6424   1.927   5.752   0.288
 1842SOL    HW1 6425   1.839   5.800   0.291
 1842SOL    HW2 6426   1.973   5.763   0.376
 1843SOL     OW 6427   6.190   2.377   3.373
 1843SOL    HW1 6428   6.115   2.369   3.438
 1843SOL    HW2 6429   6.154   2.383   3.280
 1844SOL     OW 6430   2.985   6.895   5.497
 1844SOL    HW1 6431   3.017   6.970   5.555
 1844SOL    HW2 6432   2.920   6.930   5.430
 1845SOL     OW 6433   2.119   0.174   4.821
 1845SOL    HW1 6434   2.118   0.251   4.757
 1845SOL    HW2 6435   2.036   0.120   4.811
 1846SOL     OW 6436   3.955   2.027   1.212
 1846SOL    HW1 6437   4.046   2.058   1.239
 1846SOL    HW2 6438   3.924   1.956   1.276
 1847SOL     OW 6439   1.545   1.132   6.722
 1847SOL    HW1 6440   1.530   1.047   6.671
 1847SOL    HW2 6441   1.551   1.112   6.820
 1848SOL     OW 6442   1.134   6.065   3.000
 1848SOL    HW1 6443   1.153   6.161   2.980
 1848SOL    HW2 6444   1.036   6.053   3.015
 1849SOL     OW 6445   4.402   2.546   0.911
 1849SOL    HW1 6446   4.471   2.581   0.849
 1849SOL    HW2 6447   4.363   2.461   0.873
 1850SOL     OW 6448   0.991   2.560   1.655
 1850SOL    HW1 6449   0.919   2.602   1.711
 1850SOL    HW2 6450   1.020   2.624   1.584
 1851SOL     OW 6451   6.840   2.688   0.338
 1851SOL    HW1 6452   6.749   2.726   0.351
 1851SOL    HW2 6453   6.891   2.693   0.424
 1852SOL     OW 6454   6.344   4.360   2.565
 1852SOL    HW1 6455   6.288   4.334   2.643
 1852SOL    HW2 6456   6.315   4.308   2.484
 1853SOL     OW 6457   7.009   2.092   2.748
 1853SOL    HW1 6458   6.926   2.139   2.775
 1853SOL    HW2 6459   0.034   2.149   2.685
 1854SOL     OW 6460   2.688   5.638   2.924
 1854SOL    HW1 6461   2.672   5.651   2.826
 1854SOL    HW2 6462   2.614   5.584   2.963
 1855SOL     OW 6463   5.005   2.969   5.300
 1855SOL    HW1 6464   5.078   2.957   5.368
 1855SOL    HW2 6465   4.934   3.029   5.337
 1856SOL     OW 6466   6.280   3.904   6.113
 1856SOL    HW1 6467   6.280   3.991   6.163
 1856SOL    HW2 6468   6.268   3.923   6.015
 1857SOL     OW 6469   4.643   1.991   5.866
 1857SOL    HW1 6470   4.564   1.929   5.868
 1857SOL    HW2 6471   4.684   1.996   5.957
 1858SOL     OW 6472   5.818   3.726   4.165
 1858SOL    HW1 6473   5.829   3.658   4.238
 1858SOL    HW2 6474   5.908   3.747   4.126
 1859SOL     OW 6475   5.317   2.688   3.361
 1859SOL    HW1 6476   5.289   2.704   3.266
 1859SOL    HW2 6477   5.345   2.593   3.371
 1860SOL     OW 6478   6.400   0.299   5.333
 1860SOL    HW1 6479   6.353   0.236   5.271
 1860SOL    HW2 6480   6.479   0.340   5.287
 1861SOL     OW 6481   6.175   6.678   2.164
 1861SOL    HW1 6482   6.129   6.634   2.086
 1861SOL    HW2 6483   6.114   6.675   2.243
 1862SOL     OW 6484   2.072   0.412   6.180
 1862SOL    HW1 6485   2.172   0.417   6.181
 1862SOL    HW2 6486   2.041   0.339   6.240
 1863SOL     OW 6487   0.649   2.737   3.143
 1863SOL    HW1 6488   0.743   2.705   3.154
 1863SOL    HW2 6489   0.627   2.744   3.046
 1864SOL     OW 6490   1.373   0.276   5.056
 1864SOL    HW1 6491   1.421   0.211   4.997
 1864SOL    HW2 6492   1.417   0.279   5.146
 1865SOL     OW 6493   3.394   6.618   6.425
 1865SOL    HW1 6494   3.378   6.716   6.418
 1865SOL    HW2 6495   3.306   6.570   6.428
 1866SOL     OW 6496   4.567   4.861   2.946
 1866SOL    HW1 6497   4.488   4.830   2.894
 1866SOL    HW2 6498   4.632   4.785   2.957
 1867SOL     OW 6499   0.443   3.658   0.222
 1867SOL    HW1 6500   0.429   3.757   0.225
 1867SOL    HW2 6501   0.391   3.615   0.297
 1868SOL     OW 6502   5.114   3.102   6.236
 1868SOL    HW1 6503   5.142   3.083   6.330
 1868SOL    HW2 6504   5.181   3.063   6.173
 1869SOL     OW 6505   5.879   3.064   5.743
 1869SOL    HW1 6506   5.929   3.125   5.682
 1869SOL    HW2 6507   5.938   3.038   5.820
 1870SOL     OW 6508   1.057   3.425   5.321
 1870SOL    HW1 6509   1.125   3.428   5.247
 1870SOL    HW2 6510   1.104   3.426   5.409
 1871SOL     OW 6511   0.791   0.559   6.647
 1871SOL    HW1 6512   0.812   0.526   6.739
 1871SOL    HW2 6513   0.854   0.633   6.623
 1872SOL     OW 6514   3.893   1.601   6.710
 1872SOL    HW1 6515   3.830   1.658   6.658
 1872SOL    HW2 6516   3.929   1.529   6.650
 1873SOL     OW 6517   5.228   0.961   6.240
 1873SOL    HW1 6518   5.190   1.023   6.309
 1873SOL    HW2 6519   5.220   1.002   6.150
 1874SOL     OW 6520   3.063   1.474   0.619
 1874SOL    HW1 6521   3.133   1.412   0.653
 1874SOL    HW2 6522   3.096   1.521   0.537
 1875SOL     OW 6523   6.773   0.606   6.625
 1875SOL    HW1 6524   6.749   0.576   6.532
 1875SOL    HW2 6525   6.872   0.606   6.636
 1876SOL     OW 6526   3.478   6.213   6.029
 1876SOL    HW1 6527   3.456   6.118   6.008
 1876SOL    HW2 6528   3.397   6.260   6.061
 1877SOL     OW 6529   0.795   1.133   2.944
 1877SOL    HW1 6530   0.863   1.117   3.016
 1877SOL    HW2 6531   0.735   1.053   2.936
 1878SOL     OW 6532   6.903   2.859   4.231
 1878SOL    HW1 6533   6.942   2.857   4.139
 1878SOL    HW2 6534   6.869   2.768   4.255
 1879SOL     OW 6535   1.703   5.428   3.805
 1879SOL    HW1 6536   1.651   5.408   3.888
 1879SOL    HW2 6537   1.781   5.366   3.800
 1880SOL     OW 6538   0.041   0.590   4.501
 1880SOL    HW1 6539   7.015   0.573   4.584
 1880SOL    HW2 6540   7.011   0.636   4.434
 1881SOL     OW 6541   6.810   3.175   2.598
 1881SOL    HW1 6542   6.786   3.106   2.530
 1881SOL    HW2 6543   6.783   3.143   2.689
 1882SOL     OW 6544   1.286   3.547   6.605
 1882SOL    HW1 6545   1.380   3.581   6.597
 1882SOL    HW2 6546   1.226   3.601   6.546
 1883SOL     OW 6547   0.934   2.087   3.474
 1883SOL    HW1 6548   0.992   2.006   3.466
 1883SOL    HW2 6549   0.987   2.168   3.449
 1884SOL     OW 6550   6.383   3.162   0.320
 1884SOL    HW1 6551   6.358   3.125   0.230
 1884SOL    HW2 6552   6.300   3.175   0.375
 1885SOL     OW 6553   1.283   2.147   5.938
 1885SOL    HW1 6554   1.321   2.055   5.939
 1885SOL    HW2 6555   1.262   2.175   6.032
 1886SOL     OW 6556   2.526   0.429   1.241
 1886SOL    HW1 6557   2.454   0.440   1.309
 1886SOL    HW2 6558   2.568   0.517   1.221
 1887SOL     OW 6559   1.380   5.984   5.195
 1887SOL    HW1 6560   1.426   5.986   5.106
 1887SOL    HW2 6561   1.436   5.933   5.260
 1888SOL     OW 6562   2.967   2.308   6.891
 1888SOL    HW1 6563   2.949   2.315   6.989
 1888SOL    HW2 6564   3.062   2.280   6.876
 1889SOL     OW 6565   0.143   2.937   5.936
 1889SOL    HW1 6566   0.070   2.873   5.959
 1889SOL    HW2 6567   0.212   2.937   6.009
 1890SOL     OW 6568   1.582   6.718   4.155
 1890SOL    HW1 6569   1.608   6.706   4.059
 1890SOL    HW2 6570   1.662   6.709   4.213
 1891SOL     OW 6571   5.544   2.025   2.409
 1891SOL    HW1 6572   5.557   2.090   2.485
 1891SOL    HW2 6573   5.498   1.943   2.443
 1892SOL     OW 6574   2.516   1.226   1.455
 1892SOL    HW1 6575   2.603   1.236   1.504
 1892SOL    HW2 6576   2.506   1.300   1.389
 1893SOL     OW 6577   3.739   2.826   0.030
 1893SOL    HW1 6578   3.687   2.910   0.040
 1893SOL    HW2 6579   3.837   2.847   0.021
 1894SOL     OW 6580   4.040   3.638   3.792
 1894SOL    HW1 6581   3.975   3.687   3.733
 1894SOL    HW2 6582   4.066   3.552   3.748
 1895SOL     OW 6583   4.525   0.724   1.606
 1895SOL    HW1 6584   4.560   0.807   1.563
 1895SOL    HW2 6585   4.589   0.692   1.675
 1896SOL     OW 6586   6.177   0.154   1.555
 1896SOL    HW1 6587   6.235   0.224   1.513
 1896SOL    HW2 6588   6.207   0.063   1.525
 1897SOL     OW 6589   1.557   4.023   1.753
 1897SOL    HW1 6590   1.610   3.940   1.767
 1897SOL    HW2 6591   1.460   4.004   1.764
 1898SOL     OW 6592   2.397   5.592   2.899
 1898SOL    HW1 6593   2.425   5.688   2.894
 1898SOL    HW2 6594   2.328   5.582   2.971
 1899SOL     OW 6595   1.386   0.648   2.702
 1899SOL    HW1 6596   1.387   0.635   2.602
 1899SOL    HW2 6597   1.330   0.727   2.725
 1900SOL     OW 6598   1.146   0.333   6.438
 1900SOL    HW1 6599   1.168   0.429   6.424
 1900SOL    HW2 6600   1.080   0.324   6.513
 1901SOL     OW 6601   1.876   2.192   0.409
 1901SOL    HW1 6602   1.927   2.166   0.491
 1901SOL    HW2 6603   1.937   2.239   0.345
 1902SOL     OW 6604   2.205   2.156   4.719
 1902SOL    HW1 6605   2.304   2.169   4.732
 1902SOL    HW2 6606   2.189   2.101   4.637
 1903SOL     OW 6607   0.087   3.182   2.598
 1903SOL    HW1 6608   0.009   3.158   2.657
 1903SOL    HW2 6609   0.068   3.152   2.504
 1904SOL     OW 6610   5.808   6.155   3.524
 1904SOL    HW1 6611   5.795   6.200   3.436
 1904SOL    HW2 6612   5.845   6.064   3.510
 1905SOL     OW 6613   2.205   0.463   4.025
 1905SOL    HW1 6614   2.252   0.440   3.939
 1905SOL    HW2 6615   2.267   0.513   4.085
 1906SOL     OW 6616   1.980   0.268   5.125
 1906SOL    HW1 6617   2.042   0.305   5.195
 1906SOL    HW2 6618   2.028   0.263   5.038
 1907SOL     OW 6619   3.329   0.285   2.731
 1907SOL    HW1 6620   3.298   0.217   2.665
 1907SOL    HW2 6621   3.382   0.241   2.803
 1908SOL     OW 6622   3.701   6.913   5.274
 1908SOL    HW1 6623   3.657   6.830   5.309
 1908SOL    HW2 6624   3.776   6.939   5.335
 1909SOL     OW 6625   0.595   3.649   2.652
 1909SOL    HW1 6626   0.627   3.706   2.728
 1909SOL    HW2 6627   0.524   3.586   2.684
 1910SOL     OW 6628   0.323   2.939   6.559
 1910SOL    HW1 6629   0.255   2.981   6.619
 1910SOL    HW2 6630   0.415   2.967   6.588
 1911SOL     OW 6631   6.089   3.617   5.581
 1911SOL    HW1 6632   6.176   3.606   5.630
 1911SOL    HW2 6633   6.077   3.542   5.517
 1912SOL     OW 6634   3.743   5.572   0.851
 1912SOL    HW1 6635   3.718   5.659   0.809
 1912SOL    HW2 6636   3.841   5.557   0.839
 1913SOL     OW 6637   2.282   6.612   4.611
 1913SOL    HW1 6638   2.342   6.689   4.587
 1913SOL    HW2 6639   2.329   6.526   4.589
 1914SOL     OW 6640   3.529   2.878   6.195
 1914SOL    HW1 6641   3.579   2.939   6.257
 1914SOL    HW2 6642   3.563   2.785   6.206
 1915SOL     OW 6643   4.297   2.299   5.262
 1915SOL    HW1 6644   4.218   2.323   5.205
 1915SOL    HW2 6645   4.351   2.228   5.217
 1916SOL     OW 6646   4.090   5.941   1.507
 1916SOL    HW1 6647   4.037   5.978   1.583
 1916SOL    HW2 6648   4.129   5.853   1.533
 1917SOL     OW 6649   2.833   3.062   5.651
 1917SOL    HW1 6650   2.907   3.112   5.604
 1917SOL    HW2 6651   2.846   2.964   5.638
 1918SOL     OW 6652   1.012   1.238   5.266
 1918SOL    HW1 6653   1.027   1.303   5.192
 1918SOL    HW2 6654   1.098   1.222   5.315
 1919SOL     OW 6655   1.631   0.410   1.851
 1919SOL    HW1 6656   1.677   0.402   1.939
 1919SOL    HW2 6657   1.537   0.442   1.865
 1920SOL     OW 6658   0.622   3.777   2.904
 1920SOL    HW1 6659   0.686   3.853   2.894
 1920SOL    HW2 6660   0.534   3.811   2.935
 1921SOL     OW 6661   1.450   4.256   6.439
 1921SOL    HW1 6662   1.424   4.215   6.527
 1921SOL    HW2 6663   1.516   4.196   6.394
 1922SOL     OW 6664   1.854   3.780   1.028
 1922SOL    HW1 6665   1.946   3.756   1.061
 1922SOL    HW2 6666   1.860   3.859   0.967
 1923SOL     OW 6667   3.472   0.700   5.541
 1923SOL    HW1 6668   3.472   0.633   5.467
 1923SOL    HW2 6669   3.401   0.769   5.525
 1924SOL     OW 6670   5.208   5.898   1.066
 1924SOL    HW1 6671   5.116   5.873   1.035
 1924SOL    HW2 6672   5.231   5.846   1.147
 1925SOL     OW 6673   1.982   4.894   0.507
 1925SOL    HW1 6674   1.951   4.866   0.598
 1925SOL    HW2 6675   1.912   4.951   0.464
 1926SOL     OW 6676   2.389   6.656   3.128
 1926SOL    HW1 6677   2.465   6.710   3.164
 1926SOL    HW2 6678   2.390   6.659   3.028
 1927SOL     OW 6679   2.378   4.332   6.976
 1927SOL    HW1 6680   2.281   4.307   6.971
 1927SOL    HW2 6681   2.412   4.317   0.041
 1928SOL     OW 6682   6.901   4.527   5.479
 1928SOL    HW1 6683   6.861   4.537   5.387
 1928SOL    HW2 6684   6.832   4.552   5.547
 1929SOL     OW 6685   1.875   5.891   1.652
 1929SOL    HW1 6686   1.940   5.968   1.648
 1929SOL    HW2 6687   1.915   5.812   1.607
 1930SOL     OW 6688   3.605   4.143   6.329
 1930SOL    HW1 6689   3.698   4.107   6.321
 1930SOL    HW2 6690   3.548   4.078   6.380
 1931SOL     OW 6691   1.181   2.469   1.839
 1931SOL    HW1 6692   1.123   2.430   1.910
 1931SOL    HW2 6693   1.124   2.495   1.761
 1932SOL     OW 6694   4.670   2.688   3.261
 1932SOL    HW1 6695   4.743   2.632   3.220
 1932SOL    HW2 6696   4.582   2.642   3.247
 1933SOL     OW 6697   2.149   3.110   0.888
 1933SOL    HW1 6698   2.065   3.085   0.839
 1933SOL    HW2 6699   2.210   3.159   0.825
 1934SOL     OW 6700   0.376   6.785   5.171
 1934SOL    HW1 6701   0.427   6.707   5.135
 1934SOL    HW2 6702   0.279   6.774   5.150
 1935SOL     OW 6703   4.331   5.936   4.015
 1935SOL    HW1 6704   4.359   5.953   4.109
 1935SOL    HW2 6705   4.321   5.837   4.000
 1936SOL     OW 6706   5.669   3.843   3.872
 1936SOL    HW1 6707   5.745   3.778   3.868
 1936SOL    HW2 6708   5.602   3.812   3.939
 1937SOL     OW 6709   4.053   6.508   1.207
 1937SOL    HW1 6710   4.109   6.428   1.187
 1937SOL    HW2 6711   3.998   6.492   1.289
 1938SOL     OW 6712   2.180   1.815   1.383
 1938SOL    HW1 6713   2.146   1.894   1.333
 1938SOL    HW2 6714   2.172   1.831   1.481
 1939SOL     OW 6715   6.539   6.846   4.495
 1939SOL    HW1 6716   6.564   6.828   4.400
 1939SOL    HW2 6717   6.490   6.767   4.531
 1940SOL     OW 6718   5.869   5.612   0.619
 1940SOL    HW1 6719   5.797   5.543   0.611
 1940SOL    HW2 6720   5.836   5.689   0.675
 1941SOL     OW 6721   1.219   3.272   4.252
 1941SOL    HW1 6722   1.166   3.251   4.170
 1941SOL    HW2 6723   1.315   3.249   4.237
 1942SOL     OW 6724   5.528   2.286   1.207
 1942SOL    HW1 6725   5.566   2.376   1.227
 1942SOL    HW2 6726   5.504   2.240   1.293
 1943SOL     OW 6727   2.269   6.630   3.524
 1943SOL    HW1 6728   2.261   6.694   3.448
 1943SOL    HW2 6729   2.310   6.545   3.491
 1944SOL     OW 6730   6.664   3.241   0.239
 1944SOL    HW1 6731   6.569   3.251   0.269
 1944SOL    HW2 6732   6.707   3.165   0.288
 1945SOL     OW 6733   3.854   5.056   0.550
 1945SOL    HW1 6734   3.904   4.978   0.588
 1945SOL    HW2 6735   3.918   5.129   0.526
 1946SOL     OW 6736   6.034   6.514   0.861
 1946SOL    HW1 6737   6.089   6.431   0.847
 1946SOL    HW2 6738   6.068   6.563   0.941
 1947SOL     OW 6739   5.287   6.089   4.456
 1947SOL    HW1 6740   5.353   6.064   4.526
 1947SOL    HW2 6741   5.215   6.145   4.496
 1948SOL     OW 6742   6.328   5.325   3.897
 1948SOL    HW1 6743   6.250   5.270   3.928
 1948SOL    HW2 6744   6.294   5.412   3.860
 1949SOL     OW 6745   3.378   3.205   6.025
 1949SOL    HW1 6746   3.461   3.169   5.984
 1949SOL    HW2 6747   3.310   3.224   5.954
 1950SOL     OW 6748   4.012   3.273   0.902
 1950SOL    HW1 6749   3.989   3.182   0.868
 1950SOL    HW2 6750   4.061   3.324   0.830
 1951SOL     OW 6751   6.296   4.730   0.147
 1951SOL    HW1 6752   6.212   4.753   0.096
 1951SOL    HW2 6753   6.285   4.757   0.242
 1952SOL     OW 6754   4.736   3.589   1.323
 1952SOL    HW1 6755   4.667   3.531   1.281
 1952SOL    HW2 6756   4.712   3.606   1.419
 1953SOL     OW 6757   6.231   1.677   5.690
 1953SOL    HW1 6758   6.259   1.600   5.747
 1953SOL    HW2 6759   6.241   1.762   5.741
 1954SOL     OW 6760   6.887   0.989   1.642
 1954SOL    HW1 6761   6.967   1.027   1.688
 1954SOL    HW2 6762   6.916   0.946   1.556
 1955SOL     OW 6763   0.649   0.737   3.192
 1955SOL    HW1 6764   0.575   0.692   3.242
 1955SOL    HW2 6765   0.725   0.754   3.255
 1956SOL     OW 6766   4.439   6.997   1.773
 1956SOL    HW1 6767   4.398   6.991   1.682
 1956SOL    HW2 6768   4.485   6.910   1.795
 1957SOL     OW 6769   5.516   4.255   3.971
 1957SOL    HW1 6770   5.553   4.347   3.959
 1957SOL    HW2 6771   5.425   4.261   4.011
 1958SOL     OW 6772   4.738   1.697   1.806
 1958SOL    HW1 6773   4.668   1.724   1.872
 1958SOL    HW2 6774   4.717   1.606   1.771
 1959SOL     OW 6775   1.778   0.458   3.707
 1959SOL    HW1 6776   1.800   0.521   3.632
 1959SOL    HW2 6777   1.845   0.384   3.709
 1960SOL     OW 6778   0.399   4.652   2.261
 1960SOL    HW1 6779   0.326   4.673   2.195
 1960SOL    HW2 6780   0.486   4.645   2.214
 1961SOL     OW 6781   6.277   5.093   5.082
 1961SOL    HW1 6782   6.230   5.140   5.156
 1961SOL    HW2 6783   6.251   4.997   5.081
 1962SOL     OW 6784   1.526   5.988   2.140
 1962SOL    HW1 6785   1.589   6.049   2.188
 1962SOL    HW2 6786   1.434   5.999   2.177
 1963SOL     OW 6787   0.922   1.704   1.312
 1963SOL    HW1 6788   0.927   1.803   1.295
 1963SOL    HW2 6789   0.922   1.688   1.411
 1964SOL     OW 6790   4.332   4.595   1.874
 1964SOL    HW1 6791   4.364   4.602   1.969
 1964SOL    HW2 6792   4.407   4.565   1.815
 1965SOL     OW 6793   1.387   2.923   4.134
 1965SOL    HW1 6794   1.294   2.955   4.115
 1965SOL    HW2 6795   1.387   2.823   4.133
 1966SOL     OW 6796   0.414   6.515   1.013
 1966SOL    HW1 6797   0.408   6.481   0.919
 1966SOL    HW2 6798   0.500   6.485   1.053
 1967SOL     OW 6799   5.396   2.762   4.231
 1967SOL    HW1 6800   5.456   2.683   4.244
 1967SOL    HW2 6801   5.404   2.823   4.310
 1968SOL     OW 6802   1.481   0.011   5.379
 1968SOL    HW1 6803   1.525   0.098   5.358
 1968SOL    HW2 6804   1.413   7.018   5.309
 1969SOL     OW 6805   2.266   1.812   0.408
 1969SOL    HW1 6806   2.279   1.864   0.324
 1969SOL    HW2 6807   2.355   1.797   0.452
 1970SOL     OW 6808   2.594   6.555   6.164
 1970SOL    HW1 6809   2.644   6.610   6.096
 1970SOL    HW2 6810   2.568   6.467   6.123
 1971SOL     OW 6811   0.525   0.393   5.198
 1971SOL    HW1 6812   0.521   0.439   5.287
 1971SOL    HW2 6813   0.467   0.312   5.200
 1972SOL     OW 6814   4.923   2.187   1.706
 1972SOL    HW1 6815   4.931   2.238   1.792
 1972SOL    HW2 6816   5.004   2.131   1.693
 1973SOL     OW 6817   3.511   3.352   0.603
 1973SOL    HW1 6818   3.478   3.379   0.694
 1973SOL    HW2 6819   3.440   3.370   0.535
 1974SOL     OW 6820   5.684   6.813   4.693
 1974SOL    HW1 6821   5.673   6.908   4.722
 1974SOL    HW2 6822   5.724   6.811   4.601
 1975SOL     OW 6823   1.930   1.941   4.462
 1975SOL    HW1 6824   1.965   1.908   4.374
 1975SOL    HW2 6825   1.831   1.924   4.467
 1976SOL     OW 6826   6.540   6.782   0.780
 1976SOL    HW1 6827   6.479   6.730   0.721
 1976SOL    HW2 6828   6.488   6.816   0.859
 1977SOL     OW 6829   1.876   3.156   4.827
 1977SOL    HW1 6830   1.844   3.248   4.807
 1977SOL    HW2 6831   1.798   3.093   4.825
 1978SOL     OW 6832   1.849   5.858   3.219
 1978SOL    HW1 6833   1.806   5.927   3.276
 1978SOL    HW2 6834   1.922   5.813   3.271
 1979SOL     OW 6835   5.475   4.774   6.788
 1979SOL    HW1 6836   5.456   4.713   6.864
 1979SOL    HW2 6837   5.396   4.776   6.727
 1980SOL     OW 6838   3.126   0.504   4.280
 1980SOL    HW1 6839   3.062   0.505   4.356
 1980SOL    HW2 6840   3.220   0.505   4.315
 1981SOL     OW 6841   6.249   3.434   1.991
 1981SOL    HW1 6842   6.173   3.486   1.952
 1981SOL    HW2 6843   6.280   3.365   1.926
 1982SOL     OW 6844   0.448   4.046   4.396
 1982SOL    HW1 6845   0.359   4.021   4.432
 1982SOL    HW2 6846   0.454   4.146   4.387
 1983SOL     OW 6847   1.398   7.023   1.870
 1983SOL    HW1 6848   1.328   6.952   1.868
 1983SOL    HW2 6849   1.460   7.012   1.792
 1984SOL     OW 6850   5.000   2.539   4.748
 1984SOL    HW1 6851   5.035   2.507   4.836
 1984SOL    HW2 6852   5.044   2.625   4.724
 1985SOL     OW 6853   0.703   6.528   2.360
 1985SOL    HW1 6854   0.748   6.491   2.441
 1985SOL    HW2 6855   0.657   6.614   2.384
 1986SOL     OW 6856   2.601   0.998   6.738
 1986SOL    HW1 6857   2.614   0.904   6.708
 1986SOL    HW2 6858   2.527   1.040   6.685
 1987SOL     OW 6859   1.960   1.607   2.831
 1987SOL    HW1 6860   2.003   1.691   2.797
 1987SOL    HW2 6861   1.991   1.589   2.924
 1988SOL     OW 6862   6.676   3.404   0.635
 1988SOL    HW1 6863   6.678   3.489   0.688
 1988SOL    HW2 6864   6.707   3.328   0.692
 1989SOL     OW 6865   2.144   5.686   5.064
 1989SOL    HW1 6866   2.182   5.771   5.102
 1989SOL    HW2 6867   2.071   5.653   5.124
 1990SOL     OW 6868   3.872   5.842   0.919
 1990SOL    HW1 6869   3.941   5.773   0.895
 1990SOL    HW2 6870   3.900   5.888   1.003
 1991SOL     OW 6871   3.112   4.952   6.832
 1991SOL    HW1 6872   3.025   4.988   6.865
 1991SOL    HW2 6873   3.187   4.997   6.881
 1992SOL     OW 6874   7.007   0.473   0.168
 1992SOL    HW1 6875   6.952   0.423   0.235
 1992SOL    HW2 6876   0.031   0.408   0.112
 1993SOL     OW 6877   3.754   2.283   5.935
 1993SOL    HW1 6878   3.849   2.254   5.945
 1993SOL    HW2 6879   3.750   2.383   5.925
 1994SOL     OW 6880   7.012   1.495   0.350
 1994SOL    HW1 6881   6.946   1.439   0.301
 1994SOL    HW2 6882   0.017   1.446   0.431
 1995SOL     OW 6883   5.165   2.925   3.631
 1995SOL    HW1 6884   5.132   2.832   3.647
 1995SOL    HW2 6885   5.096   2.976   3.580
 1996SOL     OW 6886   2.451   2.261   0.920
 1996SOL    HW1 6887   2.405   2.345   0.890
 1996SOL    HW2 6888   2.410   2.182   0.875
 1997SOL     OW 6889   3.460   2.146   4.980
 1997SOL    HW1 6890   3.531   2.077   4.997
 1997SOL    HW2 6891   3.455   2.207   5.058
 1998SOL     OW 6892   2.125   3.899   0.615
 1998SOL    HW1 6893   2.071   3.870   0.536
 1998SOL    HW2 6894   2.144   3.820   0.673
 1999SOL     OW 6895   1.803   6.927   6.374
 1999SOL    HW1 6896   1.796   6.962   6.281
 1999SOL    HW2 6897   1.776   6.830   6.376
 2000SOL     OW 6898   4.151   2.724   5.390
 2000SOL    HW1 6899   4.149   2.686   5.298
 2000SOL    HW2 6900   4.143   2.824   5.385
 2001SOL     OW 6901   2.248   0.597   1.265
 2001SOL    HW1 6902   2.343   0.614   1.239
 2001SOL    HW2 6903   2.233   0.627   1.359
 2002SOL     OW 6904   0.636   4.230   0.499
 2002SOL    HW1 6905   0.543   4.196   0.484
 2002SOL    HW2 6906   0.636   4.295   0.575
 2003SOL     OW 6907   6.251   4.612   2.420
 2003SOL    HW1 6908   6.290   4.638   2.332
 2003SOL    HW2 6909   6.266   4.515   2.436
 2004SOL     OW 6910   5.682   0.708   4.138
 2004SOL    HW1 6911   5.616   0.691   4.211
 2004SOL    HW2 6912   5.675   0.803   4.108
 2005SOL     OW 6913   0.383   4.194   0.424
 2005SOL    HW1 6914   0.339   4.193   0.514
 2005SOL    HW2 6915   0.313   4.191   0.353
 2006SOL     OW 6916   5.783   0.510   3.008
 2006SOL    HW1 6917   5.720   0.555   2.944
 2006SOL    HW2 6918   5.748   0.519   3.101
 2007SOL     OW 6919   4.842   4.349   1.191
 2007SOL    HW1 6920   4.854   4.291   1.272
 2007SOL    HW2 6921   4.932   4.377   1.157
 2008SOL     OW 6922   2.202   4.074   3.740
 2008SOL    HW1 6923   2.163   4.138   3.806
 2008SOL    HW2 6924   2.176   3.980   3.764
 2009SOL     OW 6925   5.365   0.328   2.939
 2009SOL    HW1 6926   5.452   0.309   2.894
 2009SOL    HW2 6927   5.292   0.331   2.870
 2010SOL     OW 6928   3.225   1.721   1.468
 2010SOL    HW1 6929   3.310   1.754   1.509
 2010SOL    HW2 6930   3.244   1.639   1.414
 2011SOL     OW 6931   0.627   0.953   4.706
 2011SOL    HW1 6932   0.567   0.879   4.675
 2011SOL    HW2 6933   0.652   0.938   4.802
 2012SOL     OW 6934   1.154   3.981   2.806
 2012SOL    HW1 6935   1.092   4.034   2.748
 2012SOL    HW2 6936   1.189   3.903   2.754
 2013SOL     OW 6937   6.056   2.598   3.695
 2013SOL    HW1 6938   6.016   2.540   3.625
 2013SOL    HW2 6939   6.049   2.694   3.668
 2014SOL     OW 6940   2.827   6.354   3.511
 2014SOL    HW1 6941   2.839   6.380   3.415
 2014SOL    HW2 6942   2.772   6.270   3.516
 2015SOL     OW 6943   2.380   0.366   0.573
 2015SOL    HW1 6944   2.457   0.380   0.511
 2015SOL    HW2 6945   2.414   0.361   0.667
 2016SOL     OW 6946   2.029   6.143   5.741
 2016SOL    HW1 6947   2.009   6.175   5.833
 2016SOL    HW2 6948   1.943   6.115   5.696
 2017SOL     OW 6949   3.855   0.011   2.881
 2017SOL    HW1 6950   3.847   0.070   2.961
 2017SOL    HW2 6951   3.949   7.006   2.872
 2018SOL     OW 6952   5.727   2.315   4.339
 2018SOL    HW1 6953   5.702   2.226   4.379
 2018SOL    HW2 6954   5.644   2.368   4.321
 2019SOL     OW 6955   5.604   3.643   6.259
 2019SOL    HW1 6956   5.558   3.556   6.241
 2019SOL    HW2 6957   5.695   3.641   6.219
 2020SOL     OW 6958   2.016   0.452   5.927
 2020SOL    HW1 6959   1.920   0.450   5.903
 2020SOL    HW2 6960   2.028   0.412   6.018
 2021SOL     OW 6961   6.510   6.574   4.887
 2021SOL    HW1 6962   6.472   6.577   4.794
 2021SOL    HW2 6963   6.469   6.497   4.937
 2022SOL     OW 6964   1.798   4.623   3.676
 2022SOL    HW1 6965   1.833   4.605   3.768
 2022SOL    HW2 6966   1.749   4.710   3.676
 2023SOL     OW 6967   0.179   0.357   6.622
 2023SOL    HW1 6968   0.252   0.336   6.558
 2023SOL    HW2 6969   0.119   0.427   6.583
 2024SOL     OW 6970   0.217   5.951   3.397
 2024SOL    HW1 6971   0.128   5.961   3.442
 2024SOL    HW2 6972   0.203   5.925   3.302
 2025SOL     OW 6973   4.197   0.845   3.594
 2025SOL    HW1 6974   4.238   0.936   3.589
 2025SOL    HW2 6975   4.262   0.777   3.560
 2026SOL     OW 6976   6.331   3.046   5.774
 2026SOL    HW1 6977   6.359   2.957   5.809
 2026SOL    HW2 6978   6.319   3.110   5.850
 2027SOL     OW 6979   1.243   0.066   0.981
 2027SOL    HW1 6980   1.219   0.131   1.052
 2027SOL    HW2 6981   1.276   7.009   1.023
 2028SOL     OW 6982   3.305   5.407   4.343
 2028SOL    HW1 6983   3.341   5.469   4.413
 2028SOL    HW2 6984   3.343   5.431   4.254
 2029SOL     OW 6985   6.083   1.826   0.164
 2029SOL    HW1 6986   6.045   1.757   0.102
 2029SOL    HW2 6987   6.043   1.816   0.255
 2030SOL     OW 6988   3.435   0.814   3.644
 2030SOL    HW1 6989   3.364   0.819   3.574
 2030SOL    HW2 6990   3.457   0.718   3.662
 2031SOL     OW 6991   6.921   5.871   1.834
 2031SOL    HW1 6992   6.895   5.964   1.806
 2031SOL    HW2 6993   7.020   5.862   1.831
 2032SOL     OW 6994   3.939   0.815   2.010
 2032SOL    HW1 6995   4.000   0.849   1.939
 2032SOL    HW2 6996   3.898   0.892   2.059
 2033SOL     OW 6997   2.815   2.752   7.011
 2033SOL    HW1 6998   2.854   2.701   6.934
 2033SOL    HW2 6999   2.749   2.819   6.977
 2034SOL     OW 7000   2.938   4.897   5.611
 2034SOL    HW1 7001   2.871   4.876   5.682
 2034SOL    HW2 7002   2.968   4.811   5.569
 2035SOL     OW 7003   6.224   6.549   3.243
 2035SOL    HW1 7004   6.154   6.557   3.315
 2035SOL    HW2 7005   6.256   6.640   3.217
 2036SOL     OW 7006   1.155   3.303   2.839
 2036SOL    HW1 7007   1.165   3.295   2.740
 2036SOL    HW2 7008   1.058   3.304   2.863
 2037SOL     OW 7009   6.076   2.973   5.927
 2037SOL    HW1 7010   6.149   2.933   5.871
 2037SOL    HW2 7011   6.040   2.904   5.990
 2038SOL     OW 7012   1.890   1.514   0.174
 2038SOL    HW1 7013   1.927   1.606   0.190
 2038SOL    HW2 7014   1.964   1.454   0.143
 2039SOL     OW 7015   6.785   5.978   3.225
 2039SOL    HW1 7016   6.693   5.991   3.188
 2039SOL    HW2 7017   6.848   5.958   3.150
 2040SOL     OW 7018   1.777   3.005   6.918
 2040SOL    HW1 7019   1.820   2.915   6.928
 2040SOL    HW2 7020   1.691   2.995   6.867
 2041SOL     OW 7021   1.147   6.535   4.728
 2041SOL    HW1 7022   1.091   6.529   4.810
 2041SOL    HW2 7023   1.113   6.608   4.669
 2042SOL     OW 7024   4.840   6.137   6.863
 2042SOL    HW1 7025   4.932   6.153   6.827
 2042SOL    HW2 7026   4.832   6.042   6.894
 2043SOL     OW 7027   6.358   3.459   3.390
 2043SOL    HW1 7028   6.283   3.393   3.400
 2043SOL    HW2 7029   6.422   3.449   3.467
 2044SOL     OW 7030   6.162   0.904   1.299
 2044SOL    HW1 7031   6.223   0.950   1.235
 2044SOL    HW2 7032   6.178   0.938   1.391
 2045SOL     OW 7033   1.877   5.377   4.604
 2045SOL    HW1 7034   1.960   5.353   4.654
 2045SOL    HW2 7035   1.901   5.431   4.523
 2046SOL     OW 7036   6.649   1.771   4.634
 2046SOL    HW1 7037   6.571   1.828   4.608
 2046SOL    HW2 7038   6.654   1.764   4.734
 2047SOL     OW 7039   6.688   2.551   0.035
 2047SOL    HW1 7040   6.626   2.520   0.107
 2047SOL    HW2 7041   6.651   2.634   7.020
 2048SOL     OW 7042   0.472   6.800   5.772
 2048SOL    HW1 7043   0.549   6.766   5.826
 2048SOL    HW2 7044   0.467   6.900   5.782
 2049SOL     OW 7045   5.917   1.505   4.490
 2049SOL    HW1 7046   6.004   1.526   4.534
 2049SOL    HW2 7047   5.913   1.408   4.468
 2050SOL     OW 7048   6.195   2.593   3.927
 2050SOL    HW1 7049   6.134   2.590   3.848
 2050SOL    HW2 7050   6.190   2.505   3.976
 2051SOL     OW 7051   1.718   5.610   6.302
 2051SOL    HW1 7052   1.801   5.665   6.312
 2051SOL    HW2 7053   1.683   5.619   6.209
 2052SOL     OW 7054   1.464   2.750   0.864
 2052SOL    HW1 7055   1.537   2.700   0.911
 2052SOL    HW2 7056   1.381   2.747   0.920
 2053SOL     OW 7057   6.946   5.870   4.524
 2053SOL    HW1 7058   6.950   5.820   4.438
 2053SOL    HW2 7059   6.994   5.818   4.595
 2054SOL     OW 7060   3.625   3.952   3.100
 2054SOL    HW1 7061   3.605   4.006   3.182
 2054SOL    HW2 7062   3.555   3.883   3.087
 2055SOL     OW 7063   5.895   3.251   4.504
 2055SOL    HW1 7064   5.804   3.216   4.481
 2055SOL    HW2 7065   5.944   3.275   4.421
 2056SOL     OW 7066   4.393   5.287   1.271
 2056SOL    HW1 7067   4.332   5.290   1.350
 2056SOL    HW2 7068   4.476   5.236   1.294
 2057SOL     OW 7069   4.677   4.096   5.850
 2057SOL    HW1 7070   4.756   4.052   5.892
 2057SOL    HW2 7071   4.628   4.030   5.793
 2058SOL     OW 7072   0.070   6.516   2.741
 2058SOL    HW1 7073   0.129   6.448   2.786
 2058SOL    HW2 7074   0.093   6.607   2.774
 2059SOL     OW 7075   2.063   5.720   6.078
 2059SOL    HW1 7076   2.003   5.742   6.155
 2059SOL    HW2 7077   2.115   5.801   6.051
 2060SOL     OW 7078   0.378   3.739   1.761
 2060SOL    HW1 7079   0.376   3.816   1.697
 2060SOL    HW2 7080   0.464   3.690   1.752
 2061SOL     OW 7081   1.557   1.507   2.040
 2061SOL    HW1 7082   1.632   1.553   2.090
 2061SOL    HW2 7083   1.595   1.453   1.965
 2062SOL     OW 7084   7.008   5.785   5.142
 2062SOL    HW1 7085   0.056   5.783   5.077
 2062SOL    HW2 7086   6.923   5.805   5.094
 2063SOL     OW 7087   1.417   6.540   4.864
 2063SOL    HW1 7088   1.327   6.543   4.820
 2063SOL    HW2 7089   1.428   6.620   4.924
 2064SOL     OW 7090   7.004   2.323   4.968
 2064SOL    HW1 7091   0.047   2.362   4.910
 2064SOL    HW2 7092   0.011   2.240   5.012
 2065SOL     OW 7093   5.893   3.036   6.279
 2065SOL    HW1 7094   5.902   2.953   6.224
 2065SOL    HW2 7095   5.968   3.099   6.257
 2066SOL     OW 7096   6.918   4.044   5.324
 2066SOL    HW1 7097   6.905   4.100   5.243
 2066SOL    HW2 7098   6.840   4.056   5.386
 2067SOL     OW 7099   0.238   4.639   0.631
 2067SOL    HW1 7100   0.172   4.710   0.609
 2067SOL    HW2 7101   0.240   4.571   0.557
 2068SOL     OW 7102   3.480   0.519   3.689
 2068SOL    HW1 7103   3.532   0.447   3.643
 2068SOL    HW2 7104   3.465   0.492   3.785
 2069SOL     OW 7105   6.646   2.279   4.068
 2069SOL    HW1 7106   6.560   2.322   4.039
 2069SOL    HW2 7107   6.659   2.292   4.166
 2070SOL     OW 7108   1.211   1.580   0.913
 2070SOL    HW1 7109   1.261   1.548   0.993
 2070SOL    HW2 7110   1.272   1.636   0.856
 2071SOL     OW 7111   6.081   0.559   5.755
 2071SOL    HW1 7112   6.071   0.539   5.658
 2071SOL    HW2 7113   6.130   0.645   5.767
 2072SOL     OW 7114   4.753   5.420   4.686
 2072SOL    HW1 7115   4.791   5.422   4.593
 2072SOL    HW2 7116   4.808   5.479   4.745
 2073SOL     OW 7117   4.431   6.435   5.157
 2073SOL    HW1 7118   4.383   6.469   5.237
 2073SOL    HW2 7119   4.527   6.462   5.162
 2074SOL     OW 7120   2.007   2.527   6.222
 2074SOL    HW1 7121   2.057   2.441   6.215
 2074SOL    HW2 7122   1.967   2.536   6.313
 2075SOL     OW 7123   6.827   2.447   3.042
 2075SOL    HW1 7124   6.901   2.452   3.109
 2075SOL    HW2 7125   6.753   2.389   3.079
 2076SOL     OW 7126   5.253   6.546   6.420
 2076SOL    HW1 7127   5.241   6.447   6.433
 2076SOL    HW2 7128   5.190   6.595   6.480
 2077SOL     OW 7129   6.850   2.184   2.065
 2077SOL    HW1 7130   6.778   2.245   2.034
 2077SOL    HW2 7131   6.939   2.223   2.040
 2078SOL     OW 7132   2.340   5.089   6.115
 2078SOL    HW1 7133   2.376   5.142   6.192
 2078SOL    HW2 7134   2.312   5.151   6.042
 2079SOL     OW 7135   0.122   1.260   2.642
 2079SOL    HW1 7136   0.032   1.234   2.610
 2079SOL    HW2 7137   0.142   1.354   2.612
 2080SOL     OW 7138   2.593   0.831   4.991
 2080SOL    HW1 7139   2.555   0.773   4.919
 2080SOL    HW2 7140   2.690   0.811   5.003
 2081SOL     OW 7141   1.141   6.769   4.564
 2081SOL    HW1 7142   1.230   6.732   4.535
 2081SOL    HW2 7143   1.071   6.741   4.498
 2082SOL     OW 7144   0.825   6.200   3.095
 2082SOL    HW1 7145   0.755   6.222   3.163
 2082SOL    HW2 7146   0.850   6.103   3.102
 2083SOL     OW 7147   1.149   6.158   5.220
 2083SOL    HW1 7148   1.224   6.095   5.203
 2083SOL    HW2 7149   1.068   6.107   5.250
 2084SOL     OW 7150   1.097   3.277   2.342
 2084SOL    HW1 7151   1.016   3.277   2.400
 2084SOL    HW2 7152   1.121   3.371   2.317
 2085SOL     OW 7153   4.911   0.542   1.063
 2085SOL    HW1 7154   4.835   0.498   1.111
 2085SOL    HW2 7155   4.976   0.473   1.033
 2086SOL     OW 7156   3.818   6.197   6.819
 2086SOL    HW1 7157   3.790   6.104   6.843
 2086SOL    HW2 7158   3.899   6.223   6.872
 2087SOL     OW 7159   4.584   1.942   1.605
 2087SOL    HW1 7160   4.488   1.914   1.596
 2087SOL    HW2 7161   4.642   1.879   1.553
 2088SOL     OW 7162   1.477   5.705   6.392
 2088SOL    HW1 7163   1.400   5.697   6.328
 2088SOL    HW2 7164   1.549   5.641   6.365
 2089SOL     OW 7165   4.566   2.258   5.409
 2089SOL    HW1 7166   4.545   2.217   5.497
 2089SOL    HW2 7167   4.625   2.338   5.422
 2090SOL     OW 7168   4.726   3.078   5.621
 2090SOL    HW1 7169   4.644   3.048   5.671
 2090SOL    HW2 7170   4.797   3.102   5.687
 2091SOL     OW 7171   0.098   5.330   1.294
 2091SOL    HW1 7172   0.074   5.345   1.390
 2091SOL    HW2 7173   0.120   5.417   1.251
 2092SOL     OW 7174   5.443   3.200   0.652
 2092SOL    HW1 7175   5.540   3.192   0.629
 2092SOL    HW2 7176   5.392   3.125   0.611
 2093SOL     OW 7177   3.331   2.346   1.764
 2093SOL    HW1 7178   3.374   2.281   1.827
 2093SOL    HW2 7179   3.340   2.313   1.670
 2094SOL     OW 7180   5.399   1.624   1.472
 2094SOL    HW1 7181   5.375   1.570   1.391
 2094SOL    HW2 7182   5.468   1.692   1.448
 2095SOL     OW 7183   6.137   6.436   4.618
 2095SOL    HW1 7184   6.081   6.421   4.699
 2095SOL    HW2 7185   6.079   6.458   4.540
 2096SOL     OW 7186   4.807   5.743   3.555
 2096SOL    HW1 7187   4.810   5.723   3.653
 2096SOL    HW2 7188   4.763   5.668   3.507
 2097SOL     OW 7189   2.839   3.174   6.940
 2097SOL    HW1 7190   2.881   3.221   7.017
 2097SOL    HW2 7191   2.895   3.097   6.912
 2098SOL     OW 7192   4.265   6.192   2.501
 2098SOL    HW1 7193   4.219   6.258   2.559
 2098SOL    HW2 7194   4.308   6.121   2.558
 2099SOL     OW 7195   4.030   1.676   0.099
 2099SOL    HW1 7196   3.975   1.752   0.133
 2099SOL    HW2 7197   3.972   1.614   0.046
 2100SOL     OW 7198   5.366   1.421   0.843
 2100SOL    HW1 7199   5.400   1.375   0.761
 2100SOL    HW2 7200   5.360   1.355   0.918
 2101SOL     OW 7201   6.670   6.437   1.350
 2101SOL    HW1 7202   6.714   6.523   1.326
 2101SOL    HW2 7203   6.587   6.456   1.402
 2102SOL     OW 7204   4.857   3.852   1.867
 2102SOL    HW1 7205   4.787   3.880   1.802
 2102SOL    HW2 7206   4.878   3.755   1.854
 2103SOL     OW 7207   3.772   3.832   0.342
 2103SOL    HW1 7208   3.803   3.920   0.378
 2103SOL    HW2 7209   3.672   3.829   0.343
 2104SOL     OW 7210   1.551   4.550   2.165
 2104SOL    HW1 7211   1.526   4.468   2.217
 2104SOL    HW2 7212   1.503   4.550   2.078
 2105SOL     OW 7213   4.945   4.830   6.875
 2105SOL    HW1 7214   5.000   4.826   6.791
 2105SOL    HW2 7215   4.872   4.897   6.864
 2106SOL     OW 7216   4.432   3.723   1.686
 2106SOL    HW1 7217   4.384   3.805   1.654
 2106SOL    HW2 7218   4.375   3.674   1.751
 2107SOL     OW 7219   5.822   2.613   5.679
 2107SOL    HW1 7220   5.921   2.617   5.661
 2107SOL    HW2 7221   5.775   2.586   5.595
 2108SOL     OW 7222   6.274   5.466   5.009
 2108SOL    HW1 7223   6.198   5.519   5.046
 2108SOL    HW2 7224   6.336   5.439   5.083
 2109SOL     OW 7225   3.029   6.045   2.522
 2109SOL    HW1 7226   3.057   5.975   2.457
 2109SOL    HW2 7227   3.088   6.125   2.513
 2110SOL     OW 7228   3.317   0.867   6.645
 2110SOL    HW1 7229   3.294   0.791   6.584
 2110SOL    HW2 7230   3.238   0.886   6.705
 2111SOL     OW 7231   2.376   3.718   5.747
 2111SOL    HW1 7232   2.301   3.657   5.773
 2111SOL    HW2 7233   2.458   3.664   5.730
 2112SOL     OW 7234   5.167   2.156   0.557
 2112SOL    HW1 7235   5.107   2.222   0.602
 2112SOL    HW2 7236   5.123   2.121   0.475
 2113SOL     OW 7237   2.238   0.583   4.896
 2113SOL    HW1 7238   2.336   0.599   4.884
 2113SOL    HW2 7239   2.210   0.613   4.987
 2114SOL     OW 7240   2.852   2.188   6.670
 2114SOL    HW1 7241   2.752   2.196   6.667
 2114SOL    HW2 7242   2.885   2.213   6.761
 2115SOL     OW 7243   1.000   4.310   2.565
 2115SOL    HW1 7244   0.919   4.320   2.622
 2115SOL    HW2 7245   0.994   4.225   2.512
 2116SOL     OW 7246   1.252   3.025   1.925
 2116SOL    HW1 7247   1.239   3.028   2.024
 2116SOL    HW2 7248   1.343   3.059   1.902
 2117SOL     OW 7249   5.535   3.783   1.313
 2117SOL    HW1 7250   5.478   3.781   1.395
 2117SOL    HW2 7251   5.478   3.781   1.231
 2118SOL     OW 7252   6.846   3.344   2.988
 2118SOL    HW1 7253   6.808   3.390   2.908
 2118SOL    HW2 7254   6.785   3.357   3.067
 2119SOL     OW 7255   2.093   1.125   0.822
 2119SOL    HW1 7256   2.039   1.199   0.781
 2119SOL    HW2 7257   2.180   1.162   0.853
 2120SOL     OW 7258   0.332   3.436   2.325
 2120SOL    HW1 7259   0.313   3.491   2.244
 2120SOL    HW2 7260   0.273   3.466   2.400
 2121SOL     OW 7261   1.575   3.014   6.064
 2121SOL    HW1 7262   1.600   2.941   6.127
 2121SOL    HW2 7263   1.478   3.036   6.075
 2122SOL     OW 7264   5.269   6.285   6.448
 2122SOL    HW1 7265   5.308   6.234   6.372
 2122SOL    HW2 7266   5.224   6.221   6.512
 2123SOL     OW 7267   6.215   6.249   1.771
 2123SOL    HW1 7268   6.256   6.195   1.845
 2123SOL    HW2 7269   6.206   6.344   1.800
 2124SOL     OW 7270   2.956   1.594   0.192
 2124SOL    HW1 7271   2.865   1.635   0.186
 2124SOL    HW2 7272   2.979   1.552   0.105
 2125SOL     OW 7273   0.818   5.407   1.965
 2125SOL    HW1 7274   0.861   5.338   1.906
 2125SOL    HW2 7275   0.795   5.488   1.911
 2126SOL     OW 7276   3.145   2.617   6.435
 2126SOL    HW1 7277   3.116   2.636   6.342
 2126SOL    HW2 7278   3.076   2.650   6.500
 2127SOL     OW 7279   0.752   1.951   5.614
 2127SOL    HW1 7280   0.803   1.932   5.698
 2127SOL    HW2 7281   0.694   2.031   5.627
 2128SOL     OW 7282   6.017   2.528   2.387
 2128SOL    HW1 7283   6.046   2.498   2.296
 2128SOL    HW2 7284   6.059   2.616   2.408
 2129SOL     OW 7285   4.324   4.743   4.796
 2129SOL    HW1 7286   4.307   4.672   4.864
 2129SOL    HW2 7287   4.260   4.819   4.810
 2130SOL     OW 7288   2.698   0.692   1.876
 2130SOL    HW1 7289   2.606   0.691   1.837
 2130SOL    HW2 7290   2.757   0.753   1.822
 2131SOL     OW 7291   5.089   0.946   0.784
 2131SOL    HW1 7292   5.088   0.846   0.786
 2131SOL    HW2 7293   5.179   0.979   0.814
 2132SOL     OW 7294   3.011   1.493   6.967
 2132SOL    HW1 7295   2.941   1.445   6.915
 2132SOL    HW2 7296   3.082   1.429   6.995
 2133SOL     OW 7297   3.332   2.211   0.946
 2133SOL    HW1 7298   3.268   2.224   1.021
 2133SOL    HW2 7299   3.401   2.284   0.948
 2134SOL     OW 7300   0.935   0.949   4.746
 2134SOL    HW1 7301   0.839   0.951   4.774
 2134SOL    HW2 7302   0.981   1.032   4.777
 2135SOL     OW 7303   0.347   2.097   4.794
 2135SOL    HW1 7304   0.291   2.027   4.749
 2135SOL    HW2 7305   0.415   2.131   4.730
 2136SOL     OW 7306   1.205   3.575   4.854
 2136SOL    HW1 7307   1.187   3.673   4.863
 2136SOL    HW2 7308   1.279   3.561   4.788
 2137SOL     OW 7309   0.211   6.496   4.386
 2137SOL    HW1 7310   0.131   6.508   4.327
 2137SOL    HW2 7311   0.293   6.523   4.337
 2138SOL     OW 7312   6.131   2.422   2.152
 2138SOL    HW1 7313   6.177   2.462   2.072
 2138SOL    HW2 7314   6.138   2.323   2.149
 2139SOL     OW 7315   3.921   1.112   2.808
 2139SOL    HW1 7316   3.909   1.196   2.756
 2139SOL    HW2 7317   3.879   1.036   2.760
 2140SOL     OW 7318   3.168   6.208   3.384
 2140SOL    HW1 7319   3.260   6.209   3.346
 2140SOL    HW2 7320   3.173   6.206   3.484
 2141SOL     OW 7321   6.900   2.946   1.426
 2141SOL    HW1 7322   6.872   2.973   1.334
 2141SOL    HW2 7323   6.880   3.020   1.491
 2142SOL     OW 7324   1.391   2.235   3.119
 2142SOL    HW1 7325   1.315   2.264   3.061
 2142SOL    HW2 7326   1.359   2.168   3.186
 2143SOL     OW 7327   3.252   4.545   0.716
 2143SOL    HW1 7328   3.324   4.546   0.647
 2143SOL    HW2 7329   3.195   4.463   0.704
 2144SOL     OW 7330   1.398   0.172   2.685
 2144SOL    HW1 7331   1.364   0.214   2.601
 2144SOL    HW2 7332   1.476   0.225   2.719
 2145SOL     OW 7333   3.771   5.662   3.871
 2145SOL    HW1 7334   3.760   5.687   3.775
 2145SOL    HW2 7335   3.832   5.728   3.915
 2146SOL     OW 7336   2.931   3.640   2.100
 2146SOL    HW1 7337   2.955   3.701   2.024
 2146SOL    HW2 7338   2.928   3.693   2.185
 2147SOL     OW 7339   6.755   0.339   6.782
 2147SOL    HW1 7340   6.756   0.439   6.787
 2147SOL    HW2 7341   6.848   0.304   6.794
 2148SOL     OW 7342   4.768   2.839   4.701
 2148SOL    HW1 7343   4.757   2.907   4.629
 2148SOL    HW2 7344   4.703   2.764   4.687
 2149SOL     OW 7345   3.356   0.927   1.129
 2149SOL    HW1 7346   3.362   0.831   1.103
 2149SOL    HW2 7347   3.447   0.969   1.126
 2150SOL     OW 7348   2.764   2.344   2.412
 2150SOL    HW1 7349   2.821   2.426   2.421
 2150SOL    HW2 7350   2.818   2.271   2.369
 2151SOL     OW 7351   2.334   1.688   3.888
 2151SOL    HW1 7352   2.418   1.653   3.847
 2151SOL    HW2 7353   2.355   1.742   3.969
 2152SOL     OW 7354   4.260   5.704   1.626
 2152SOL    HW1 7355   4.193   5.649   1.576
 2152SOL    HW2 7356   4.350   5.692   1.584
 2153SOL     OW 7357   3.862   0.228   3.111
 2153SOL    HW1 7358   3.838   0.236   3.208
 2153SOL    HW2 7359   3.781   0.245   3.055
 2154SOL     OW 7360   3.878   6.587   4.974
 2154SOL    HW1 7361   3.828   6.577   5.061
 2154SOL    HW2 7362   3.961   6.531   4.977
 2155SOL     OW 7363   1.640   5.440   6.766
 2155SOL    HW1 7364   1.569   5.482   6.709
 2155SOL    HW2 7365   1.610   5.442   6.861
 2156SOL     OW 7366   2.585   0.307   2.069
 2156SOL    HW1 7367   2.602   0.315   1.971
 2156SOL    HW2 7368   2.608   0.392   2.115
 2157SOL     OW 7369   6.406   1.210   2.778
 2157SOL    HW1 7370   6.477   1.144   2.751
 2157SOL    HW2 7371   6.356   1.175   2.857
 2158SOL     OW 7372   4.001   6.246   0.669
 2158SOL    HW1 7373   3.934   6.208   0.733
 2158SOL    HW2 7374   3.953   6.286   0.591
 2159SOL     OW 7375   1.760   6.184   5.572
 2159SOL    HW1 7376   1.678   6.149   5.619
 2159SOL    HW2 7377   1.785   6.121   5.498
 2160SOL     OW 7378   4.397   3.225   1.457
 2160SOL    HW1 7379   4.387   3.125   1.452
 2160SOL    HW2 7380   4.470   3.248   1.521
 2161SOL     OW 7381   5.375   2.933   3.447
 2161SOL    HW1 7382   5.310   2.943   3.523
 2161SOL    HW2 7383   5.358   2.845   3.401
 2162SOL     OW 7384   2.713   0.676   0.077
 2162SOL    HW1 7385   2.716   0.761   0.130
 2162SOL    HW2 7386   2.709   0.598   0.139
 2163SOL     OW 7387   0.188   5.779   6.420
 2163SOL    HW1 7388   0.160   5.837   6.343
 2163SOL    HW2 7389   0.278   5.741   6.402
 2164SOL     OW 7390   1.773   2.130   0.037
 2164SOL    HW1 7391   1.800   2.079   6.984
 2164SOL    HW2 7392   1.801   2.079   0.119
 2165SOL     OW 7393   1.031   1.696   2.523
 2165SOL    HW1 7394   1.072   1.729   2.438
 2165SOL    HW2 7395   1.041   1.596   2.527
 2166SOL     OW 7396   2.162   2.436   5.258
 2166SOL    HW1 7397   2.084   2.383   5.226
 2166SOL    HW2 7398   2.170   2.428   5.358
 2167SOL     OW 7399   2.430   0.128   3.086
 2167SOL    HW1 7400   2.499   0.111   3.157
 2167SOL    HW2 7401   2.427   0.225   3.065
 2168SOL     OW 7402   6.860   2.171   3.881
 2168SOL    HW1 7403   6.805   2.154   3.799
 2168SOL    HW2 7404   6.805   2.222   3.948
 2169SOL     OW 7405   5.931   2.266   5.841
 2169SOL    HW1 7406   5.943   2.265   5.742
 2169SOL    HW2 7407   5.933   2.361   5.874
 2170SOL     OW 7408   5.932   5.119   5.535
 2170SOL    HW1 7409   5.956   5.112   5.632
 2170SOL    HW2 7410   5.884   5.205   5.519
 2171SOL     OW 7411   6.106   3.226   0.716
 2171SOL    HW1 7412   6.030   3.287   0.738
 2171SOL    HW2 7413   6.124   3.165   0.793
 2172SOL     OW 7414   2.547   1.939   0.700
 2172SOL    HW1 7415   2.474   1.968   0.762
 2172SOL    HW2 7416   2.600   1.865   0.742
 2173SOL     OW 7417   3.617   0.138   5.535
 2173SOL    HW1 7418   3.558   0.078   5.589
 2173SOL    HW2 7419   3.712   0.124   5.563
 2174SOL     OW 7420   6.361   5.163   6.241
 2174SOL    HW1 7421   6.419   5.198   6.167
 2174SOL    HW2 7422   6.415   5.103   6.301
 2175SOL     OW 7423   2.942   2.239   3.600
 2175SOL    HW1 7424   2.897   2.151   3.616
 2175SOL    HW2 7425   3.025   2.245   3.656
 2176SOL     OW 7426   1.217   2.244   1.306
 2176SOL    HW1 7427   1.170   2.286   1.383
 2176SOL    HW2 7428   1.217   2.145   1.317
 2177SOL     OW 7429   6.555   0.725   2.390
 2177SOL    HW1 7430   6.509   0.798   2.441
 2177SOL    HW2 7431   6.609   0.669   2.454
 2178SOL     OW 7432   1.656   4.220   0.478
 2178SOL    HW1 7433   1.684   4.311   0.450
 2178SOL    HW2 7434   1.722   4.152   0.444
 2179SOL     OW 7435   2.448   5.286   4.401
 2179SOL    HW1 7436   2.350   5.269   4.396
 2179SOL    HW2 7437   2.468   5.339   4.484
 2180SOL     OW 7438   3.299   3.017   1.765
 2180SOL    HW1 7439   3.311   3.056   1.856
 2180SOL    HW2 7440   3.234   2.941   1.770
 2181SOL     OW 7441   5.169   4.435   5.702
 2181SOL    HW1 7442   5.245   4.436   5.768
 2181SOL    HW2 7443   5.120   4.348   5.709
 2182SOL     OW 7444   6.389   3.071   5.501
 2182SOL    HW1 7445   6.456   3.145   5.495
 2182SOL    HW2 7446   6.370   3.051   5.597
 2183SOL     OW 7447   3.805   3.767   0.082
 2183SOL    HW1 7448   3.746   3.689   0.060
 2183SOL    HW2 7449   3.786   3.797   0.176
 2184SOL     OW 7450   3.303   1.184   5.028
 2184SOL    HW1 7451   3.254   1.191   4.941
 2184SOL    HW2 7452   3.379   1.249   5.028
 2185SOL     OW 7453   2.065   2.002   0.823
 2185SOL    HW1 7454   2.066   2.074   0.753
 2185SOL    HW2 7455   1.990   2.019   0.887
 2186SOL     OW 7456   6.899   4.736   2.554
 2186SOL    HW1 7457   6.933   4.642   2.543
 2186SOL    HW2 7458   6.905   4.784   2.467
 2187SOL     OW 7459   0.817   1.184   1.889
 2187SOL    HW1 7460   0.732   1.228   1.916
 2187SOL    HW2 7461   0.829   1.192   1.790
 2188SOL     OW 7462   5.188   5.872   3.719
 2188SOL    HW1 7463   5.240   5.904   3.640
 2188SOL    HW2 7464   5.251   5.837   3.788
 2189SOL     OW 7465   1.752   6.099   6.319
 2189SOL    HW1 7466   1.776   6.156   6.397
 2189SOL    HW2 7467   1.826   6.100   6.252
 2190SOL     OW 7468   6.449   2.387   1.683
 2190SOL    HW1 7469   6.524   2.438   1.724
 2190SOL    HW2 7470   6.476   2.352   1.593
 2191SOL     OW 7471   3.027   1.773   6.209
 2191SOL    HW1 7472   2.992   1.689   6.168
 2191SOL    HW2 7473   3.111   1.753   6.259
 2192SOL     OW 7474   3.943   0.166   4.546
 2192SOL    HW1 7475   4.026   0.118   4.519
 2192SOL    HW2 7476   3.949   0.192   4.642
 2193SOL     OW 7477   6.554   5.717   6.353
 2193SOL    HW1 7478   6.461   5.686   6.336
 2193SOL    HW2 7479   6.551   5.808   6.397
 2194SOL     OW 7480   2.566   4.536   6.883
 2194SOL    HW1 7481   2.520   4.447   6.886
 2194SOL    HW2 7482   2.550   4.579   6.795
 2195SOL     OW 7483   0.135   6.845   2.157
 2195SOL    HW1 7484   0.073   6.851   2.236
 2195SOL    HW2 7485   0.098   6.780   2.091
 2196SOL     OW 7486   2.030   0.704   6.098
 2196SOL    HW1 7487   2.069   0.613   6.110
 2196SOL    HW2 7488   1.942   0.697   6.051
 2197SOL     OW 7489   4.962   3.821   1.546
 2197SOL    HW1 7490   4.882   3.871   1.512
 2197SOL    HW2 7491   5.011   3.878   1.611
 2198SOL     OW 7492   6.969   2.239   6.910
 2198SOL    HW1 7493   7.025   2.193   6.979
 2198SOL    HW2 7494   6.989   2.337   6.911
 2199SOL     OW 7495   5.444   0.519   1.380
 2199SOL    HW1 7496   5.405   0.462   1.307
 2199SOL    HW2 7497   5.481   0.459   1.452
 2200SOL     OW 7498   4.295   0.390   4.813
 2200SOL    HW1 7499   4.363   0.339   4.866
 2200SOL    HW2 7500   4.299   0.487   4.837
 2201SOL     OW 7501   6.385   3.550   2.604
 2201SOL    HW1 7502   6.414   3.461   2.641
 2201SOL    HW2 7503   6.448   3.577   2.531
 2202SOL     OW 7504   3.604   4.956   4.491
 2202SOL    HW1 7505   3.585   4.942   4.394
 2202SOL    HW2 7506   3.518   4.968   4.540
 2203SOL     OW 7507   2.313   2.217   2.355
 2203SOL    HW1 7508   2.328   2.247   2.449
 2203SOL    HW2 7509   2.390   2.162   2.324
 2204SOL     OW 7510   3.386   1.458   6.796
 2204SOL    HW1 7511   3.334   1.386   6.750
 2204SOL    HW2 7512   3.326   1.508   6.859
 2205SOL     OW 7513   1.484   0.246   6.783
 2205SOL    HW1 7514   1.487   0.147   6.773
 2205SOL    HW2 7515   1.548   0.275   6.854
 2206SOL     OW 7516   3.185   4.328   5.497
 2206SOL    HW1 7517   3.163   4.414   5.542
 2206SOL    HW2 7518   3.118   4.310   5.425
 2207SOL     OW 7519   2.013   4.067   6.439
 2207SOL    HW1 7520   2.056   4.147   6.396
 2207SOL    HW2 7521   2.062   3.985   6.410
 2208SOL     OW 7522   1.854   4.641   2.213
 2208SOL    HW1 7523   1.890   4.676   2.127
 2208SOL    HW2 7524   1.771   4.588   2.196
 2209SOL     OW 7525   1.458   6.225   5.328
 2209SOL    HW1 7526   1.468   6.188   5.420
 2209SOL    HW2 7527   1.443   6.150   5.263
 2210SOL     OW 7528   0.346   4.720   3.643
 2210SOL    HW1 7529   0.403   4.703   3.724
 2210SOL    HW2 7530   0.404   4.743   3.565
 2211SOL     OW 7531   5.495   1.409   6.172
 2211SOL    HW1 7532   5.523   1.426   6.266
 2211SOL    HW2 7533   5.558   1.344   6.129
 2212SOL     OW 7534   1.083   6.172   0.069
 2212SOL    HW1 7535   1.104   6.107   7.024
 2212SOL    HW2 7536   1.169   6.207   0.107
 2213SOL     OW 7537   4.477   2.698   5.132
 2213SOL    HW1 7538   4.381   2.716   5.152
 2213SOL    HW2 7539   4.499   2.732   5.040
 2214SOL     OW 7540   4.785   0.895   5.381
 2214SOL    HW1 7541   4.787   0.809   5.432
 2214SOL    HW2 7542   4.803   0.877   5.285
 2215SOL     OW 7543   7.003   1.434   5.673
 2215SOL    HW1 7544   7.009   1.384   5.587
 2215SOL    HW2 7545   6.930   1.503   5.666
 2216SOL     OW 7546   1.772   0.706   6.766
 2216SOL    HW1 7547   1.792   0.804   6.767
 2216SOL    HW2 7548   1.752   0.676   6.673
 2217SOL     OW 7549   3.008   0.377   1.010
 2217SOL    HW1 7550   2.955   0.402   1.092
 2217SOL    HW2 7551   3.105   0.388   1.029
 2218SOL     OW 7552   1.285   6.507   0.270
 2218SOL    HW1 7553   1.256   6.585   0.214
 2218SOL    HW2 7554   1.209   6.479   0.329
 2219SOL     OW 7555   1.208   4.121   3.318
 2219SOL    HW1 7556   1.279   4.140   3.250
 2219SOL    HW2 7557   1.152   4.202   3.333
 2220SOL     OW 7558   0.692   1.422   4.385
 2220SOL    HW1 7559   0.672   1.467   4.471
 2220SOL    HW2 7560   0.609   1.420   4.328
 2221SOL     OW 7561   6.710   0.886   0.007
 2221SOL    HW1 7562   6.688   0.982   7.018
 2221SOL    HW2 7563   6.807   0.877   0.028
 2222SOL     OW 7564   3.743   1.413   0.781
 2222SOL    HW1 7565   3.655   1.460   0.780
 2222SOL    HW2 7566   3.783   1.418   0.872
 2223SOL     OW 7567   5.846   6.217   3.783
 2223SOL    HW1 7568   5.842   6.316   3.788
 2223SOL    HW2 7569   5.841   6.188   3.687
 2224SOL     OW 7570   1.860   4.468   1.257
 2224SOL    HW1 7571   1.844   4.404   1.182
 2224SOL    HW2 7572   1.937   4.527   1.235
 2225SOL     OW 7573   6.186   5.537   3.273
 2225SOL    HW1 7574   6.247   5.537   3.353
 2225SOL    HW2 7575   6.095   5.508   3.302
 2226SOL     OW 7576   3.893   3.588   0.689
 2226SOL    HW1 7577   3.806   3.592   0.639
 2226SOL    HW2 7578   3.946   3.510   0.657
 2227SOL     OW 7579   5.896   4.321   0.140
 2227SOL    HW1 7580   5.869   4.228   0.113
 2227SOL    HW2 7581   5.851   4.388   0.081
 2228SOL     OW 7582   3.348   5.663   0.830
 2228SOL    HW1 7583   3.266   5.607   0.841
 2228SOL    HW2 7584   3.328   5.740   0.769
 2229SOL     OW 7585   4.041   1.898   4.097
 2229SOL    HW1 7586   4.039   1.868   4.192
 2229SOL    HW2 7587   3.949   1.920   4.067
 2230SOL     OW 7588   1.219   6.450   3.947
 2230SOL    HW1 7589   1.122   6.442   3.972
 2230SOL    HW2 7590   1.273   6.386   4.002
 2231SOL     OW 7591   1.833   1.793   1.707
 2231SOL    HW1 7592   1.794   1.725   1.645
 2231SOL    HW2 7593   1.766   1.816   1.778
 2232SOL     OW 7594   0.824   2.749   4.030
 2232SOL    HW1 7595   0.880   2.694   3.968
 2232SOL    HW2 7596   0.869   2.754   4.119
 2233SOL     OW 7597   3.123   4.914   0.608
 2233SOL    HW1 7598   3.082   4.846   0.669
 2233SOL    HW2 7599   3.191   4.870   0.549
 2234SOL     OW 7600   4.663   2.184   1.050
 2234SOL    HW1 7601   4.724   2.114   1.089
 2234SOL    HW2 7602   4.568   2.162   1.071
 2235SOL     OW 7603   1.584   0.233   0.225
 2235SOL    HW1 7604   1.584   0.305   0.294
 2235SOL    HW2 7605   1.645   0.160   0.253
 2236SOL     OW 7606   1.224   4.838   0.745
 2236SOL    HW1 7607   1.204   4.870   0.652
 2236SOL    HW2 7608   1.139   4.838   0.798
 2237SOL     OW 7609   6.213   3.565   5.135
 2237SOL    HW1 7610   6.278   3.640   5.143
 2237SOL    HW2 7611   6.224   3.522   5.045
 2238SOL     OW 7612   6.317   5.045   2.699
 2238SOL    HW1 7613   6.354   4.973   2.640
 2238SOL    HW2 7614   6.392   5.104   2.729
 2239SOL     OW 7615   4.177   5.024   3.588
 2239SOL    HW1 7616   4.198   4.951   3.654
 2239SOL    HW2 7617   4.241   5.019   3.512
 2240SOL     OW 7618   5.901   5.386   3.699
 2240SOL    HW1 7619   5.901   5.314   3.768
 2240SOL    HW2 7620   5.808   5.400   3.665
 2241SOL     OW 7621   0.303   6.195   2.506
 2241SOL    HW1 7622   0.330   6.201   2.410
 2241SOL    HW2 7623   0.369   6.246   2.562
 2242SOL     OW 7624   5.664   1.759   3.411
 2242SOL    HW1 7625   5.710   1.827   3.355
 2242SOL    HW2 7626   5.703   1.668   3.394
 2243SOL     OW 7627   2.608   6.288   5.332
 2243SOL    HW1 7628   2.560   6.338   5.404
 2243SOL    HW2 7629   2.630   6.351   5.257
 2244SOL     OW 7630   4.004   0.550   2.944
 2244SOL    HW1 7631   4.035   0.515   2.856
 2244SOL    HW2 7632   4.038   0.492   3.018
 2245SOL     OW 7633   0.577   2.068   2.290
 2245SOL    HW1 7634   0.546   2.126   2.215
 2245SOL    HW2 7635   0.645   2.117   2.345
 2246SOL     OW 7636   1.546   2.077   5.107
 2246SOL    HW1 7637   1.478   2.083   5.179
 2246SOL    HW2 7638   1.571   2.170   5.078
 2247SOL     OW 7639   2.459   2.362   6.450
 2247SOL    HW1 7640   2.513   2.299   6.506
 2247SOL    HW2 7641   2.514   2.394   6.374
 2248SOL     OW 7642   5.083   4.188   5.612
 2248SOL    HW1 7643   5.065   4.127   5.689
 2248SOL    HW2 7644   5.175   4.171   5.577
 2249SOL     OW 7645   6.112   6.734   2.804
 2249SOL    HW1 7646   6.100   6.832   2.793
 2249SOL    HW2 7647   6.117   6.691   2.713
 2250SOL     OW 7648   5.113   4.090   1.224
 2250SOL    HW1 7649   5.111   3.997   1.187
 2250SOL    HW2 7650   5.029   4.108   1.274
 2251SOL     OW 7651   5.678   1.448   0.296
 2251SOL    HW1 7652   5.696   1.399   0.210
 2251SOL    HW2 7653   5.599   1.407   0.341
 2252SOL     OW 7654   6.325   2.305   4.747
 2252SOL    HW1 7655   6.329   2.275   4.651
 2252SOL    HW2 7656   6.327   2.404   4.751
 2253SOL     OW 7657   0.835   3.083   6.593
 2253SOL    HW1 7658   0.800   3.177   6.600
 2253SOL    HW2 7659   0.912   3.081   6.529
 2254SOL     OW 7660   2.206   2.790   5.783
 2254SOL    HW1 7661   2.223   2.876   5.830
 2254SOL    HW2 7662   2.161   2.726   5.846
 2255SOL     OW 7663   6.296   2.352   0.831
 2255SOL    HW1 7664   6.295   2.264   0.785
 2255SOL    HW2 7665   6.387   2.369   0.869
 2256SOL     OW 7666   4.172   5.818   1.846
 2256SOL    HW1 7667   4.213   5.763   1.774
 2256SOL    HW2 7668   4.093   5.771   1.883
 2257SOL     OW 7669   0.838   2.599   4.407
 2257SOL    HW1 7670   0.889   2.672   4.361
 2257SOL    HW2 7671   0.844   2.610   4.506
 2258SOL     OW 7672   1.465   5.893   4.581
 2258SOL    HW1 7673   1.395   5.869   4.514
 2258SOL    HW2 7674   1.439   5.978   4.627
 2259SOL     OW 7675   5.109   3.797   6.497
 2259SOL    HW1 7676   5.050   3.720   6.473
 2259SOL    HW2 7677   5.152   3.833   6.414
 2260SOL     OW 7678   4.477   4.501   3.018
 2260SOL    HW1 7679   4.468   4.492   2.919
 2260SOL    HW2 7680   4.528   4.423   3.054
 2261SOL     OW 7681   5.922   6.517   0.597
 2261SOL    HW1 7682   5.936   6.525   0.696
 2261SOL    HW2 7683   5.824   6.516   0.577
 2262SOL     OW 7684   5.927   2.434   2.812
 2262SOL    HW1 7685   5.907   2.458   2.907
 2262SOL    HW2 7686   6.026   2.418   2.802
 2263SOL     OW 7687   2.664   5.863   6.279
 2263SOL    HW1 7688   2.644   5.779   6.330
 2263SOL    HW2 7689   2.648   5.847   6.182
 2264SOL     OW 7690   3.308   4.042   2.620
 2264SOL    HW1 7691   3.351   4.049   2.529
 2264SOL    HW2 7692   3.357   3.974   2.674
 2265SOL     OW 7693   0.652   1.094   3.459
 2265SOL    HW1 7694   0.726   1.159   3.475
 2265SOL    HW2 7695   0.564   1.142   3.467
 2266SOL     OW 7696   6.978   1.558   0.986
 2266SOL    HW1 7697   0.048   1.538   0.975
 2266SOL    HW2 7698   6.935   1.566   0.896
 2267SOL     OW 7699   5.437   2.626   4.650
 2267SOL    HW1 7700   5.393   2.550   4.603
 2267SOL    HW2 7701   5.535   2.609   4.657
 2268SOL     OW 7702   6.807   5.156   0.322
 2268SOL    HW1 7703   6.825   5.189   0.414
 2268SOL    HW2 7704   6.709   5.160   0.304
 2269SOL     OW 7705   6.142   5.754   5.226
 2269SOL    HW1 7706   6.230   5.717   5.255
 2269SOL    HW2 7707   6.119   5.834   5.282
 2270SOL     OW 7708   3.674   3.932   0.700
 2270SOL    HW1 7709   3.629   4.013   0.662
 2270SOL    HW2 7710   3.606   3.870   0.738
 2271SOL     OW 7711   6.461   4.006   1.499
 2271SOL    HW1 7712   6.472   3.988   1.401
 2271SOL    HW2 7713   6.374   4.053   1.515
 2272SOL     OW 7714   6.153   2.028   4.765
 2272SOL    HW1 7715   6.168   2.095   4.838
 2272SOL    HW2 7716   6.158   1.936   4.803
 2273SOL     OW 7717   1.585   1.841   2.187
 2273SOL    HW1 7718   1.633   1.810   2.269
 2273SOL    HW2 7719   1.491   1.807   2.189
 2274SOL     OW 7720   1.222   3.728   5.503
 2274SOL    HW1 7721   1.300   3.666   5.496
 2274SOL    HW2 7722   1.152   3.686   5.561
 2275SOL     OW 7723   4.665   6.966   4.381
 2275SOL    HW1 7724   4.620   6.981   4.294
 2275SOL    HW2 7725   4.754   6.923   4.366
 2276SOL     OW 7726   3.226   4.849   1.229
 2276SOL    HW1 7727   3.262   4.864   1.321
 2276SOL    HW2 7728   3.222   4.750   1.211
 2277SOL     OW 7729   3.148   3.561   4.875
 2277SOL    HW1 7730   3.219   3.505   4.832
 2277SOL    HW2 7731   3.110   3.512   4.953
 2278SOL     OW 7732   4.686   6.843   3.744
 2278SOL    HW1 7733   4.627   6.779   3.794
 2278SOL    HW2 7734   4.751   6.791   3.688
 2279SOL     OW 7735   5.930   4.853   4.364
 2279SOL    HW1 7736   5.941   4.830   4.267
 2279SOL    HW2 7737   5.886   4.777   4.412
 2280SOL     OW 7738   5.957   6.407   4.832
 2280SOL    HW1 7739   5.997   6.441   4.917
 2280SOL    HW2 7740   5.930   6.312   4.844
 2281SOL     OW 7741   3.535   1.481   1.831
 2281SOL    HW1 7742   3.542   1.395   1.781
 2281SOL    HW2 7743   3.586   1.475   1.916
 2282SOL     OW 7744   5.118   5.949   5.213
 2282SOL    HW1 7745   5.030   5.974   5.253
 2282SOL    HW2 7746   5.191   5.963   5.279
 2283SOL     OW 7747   0.147   3.734   1.909
 2283SOL    HW1 7748   0.229   3.726   1.853
 2283SOL    HW2 7749   0.113   3.828   1.906
 2284SOL     OW 7750   2.404   1.993   1.562
 2284SOL    HW1 7751   2.402   1.931   1.484
 2284SOL    HW2 7752   2.498   2.018   1.583
 2285SOL     OW 7753   2.140   3.335   6.761
 2285SOL    HW1 7754   2.136   3.404   6.688
 2285SOL    HW2 7755   2.051   3.290   6.770
 2286SOL     OW 7756   6.613   6.095   4.984
 2286SOL    HW1 7757   6.624   6.087   5.083
 2286SOL    HW2 7758   6.693   6.139   4.945
 2287SOL     OW 7759   2.535   2.748   1.772
 2287SOL    HW1 7760   2.460   2.767   1.835
 2287SOL    HW2 7761   2.564   2.653   1.783
 2288SOL     OW 7762   0.302   5.967   4.081
 2288SOL    HW1 7763   0.218   5.993   4.130
 2288SOL    HW2 7764   0.279   5.903   4.008
 2289SOL     OW 7765   5.971   3.499   2.357
 2289SOL    HW1 7766   5.958   3.405   2.388
 2289SOL    HW2 7767   5.885   3.550   2.367
 2290SOL     OW 7768   2.972   3.744   1.835
 2290SOL    HW1 7769   3.035   3.672   1.808
 2290SOL    HW2 7770   2.880   3.723   1.800
 2291SOL     OW 7771   2.333   2.033   0.864
 2291SOL    HW1 7772   2.237   2.027   0.837
 2291SOL    HW2 7773   2.347   1.981   0.949
 2292SOL     OW 7774   5.217   3.430   3.943
 2292SOL    HW1 7775   5.158   3.411   3.864
 2292SOL    HW2 7776   5.173   3.395   4.026
 2293SOL     OW 7777   5.781   0.825   0.908
 2293SOL    HW1 7778   5.712   0.892   0.882
 2293SOL    HW2 7779   5.832   0.857   0.988
 2294SOL     OW 7780   2.937   2.073   6.331
 2294SOL    HW1 7781   3.005   2.100   6.263
 2294SOL    HW2 7782   2.845   2.085   6.294
 2295SOL     OW 7783   6.665   1.075   2.402
 2295SOL    HW1 7784   6.566   1.064   2.414
 2295SOL    HW2 7785   6.692   1.036   2.314
 2296SOL     OW 7786   2.719   5.214   2.925
 2296SOL    HW1 7787   2.710   5.194   3.023
 2296SOL    HW2 7788   2.809   5.184   2.893
 2297SOL     OW 7789   4.731   4.825   6.090
 2297SOL    HW1 7790   4.765   4.767   6.017
 2297SOL    HW2 7791   4.631   4.819   6.094
 2298SOL     OW 7792   3.478   3.709   3.119
 2298SOL    HW1 7793   3.537   3.636   3.154
 2298SOL    HW2 7794   3.424   3.673   3.042
 2299SOL     OW 7795   4.746   4.098   5.052
 2299SOL    HW1 7796   4.679   4.167   5.081
 2299SOL    HW2 7797   4.755   4.028   5.123
 2300SOL     OW 7798   3.571   7.011   3.504
 2300SOL    HW1 7799   3.604   0.018   3.592
 2300SOL    HW2 7800   3.574   0.056   3.436
 2301SOL     OW 7801   3.514   3.033   3.790
 2301SOL    HW1 7802   3.520   2.952   3.731
 2301SOL    HW2 7803   3.477   3.006   3.879
 2302SOL     OW 7804   3.722   0.308   1.313
 2302SOL    HW1 7805   3.648   0.294   1.247
 2302SOL    HW2 7806   3.735   0.407   1.327
 2303SOL     OW 7807   2.263   2.859   1.557
 2303SOL    HW1 7808   2.195   2.787   1.544
 2303SOL    HW2 7809   2.277   2.908   1.471
 2304SOL     OW 7810   5.695   5.436   3.951
 2304SOL    HW1 7811   5.747   5.475   4.027
 2304SOL    HW2 7812   5.739   5.351   3.921
 2305SOL     OW 7813   2.367   0.453   3.749
 2305SOL    HW1 7814   2.391   0.544   3.785
 2305SOL    HW2 7815   2.433   0.428   3.678
 2306SOL     OW 7816   1.604   5.161   2.459
 2306SOL    HW1 7817   1.695   5.120   2.451
 2306SOL    HW2 7818   1.607   5.237   2.523
 2307SOL     OW 7819   0.787   3.579   5.315
 2307SOL    HW1 7820   0.711   3.629   5.355
 2307SOL    HW2 7821   0.844   3.541   5.388
 2308SOL     OW 7822   2.632   4.347   1.179
 2308SOL    HW1 7823   2.544   4.389   1.197
 2308SOL    HW2 7824   2.702   4.418   1.172
 2309SOL     OW 7825   1.579   0.931   4.031
 2309SOL    HW1 7826   1.636   0.942   3.949
 2309SOL    HW2 7827   1.550   0.835   4.038
 2310SOL     OW 7828   6.200   6.291   2.153
 2310SOL    HW1 7829   6.163   6.199   2.166
 2310SOL    HW2 7830   6.293   6.295   2.188
 2311SOL     OW 7831   2.239   5.928   0.253
 2311SOL    HW1 7832   2.227   5.847   0.310
 2311SOL    HW2 7833   2.248   5.901   0.157
 2312SOL     OW 7834   4.252   5.493   3.523
 2312SOL    HW1 7835   4.196   5.416   3.554
 2312SOL    HW2 7836   4.229   5.516   3.428
 2313SOL     OW 7837   4.973   4.993   2.051
 2313SOL    HW1 7838   5.068   5.016   2.071
 2313SOL    HW2 7839   4.965   4.894   2.036
 2314SOL     OW 7840   3.668   6.637   3.072
 2314SOL    HW1 7841   3.638   6.721   3.027
 2314SOL    HW2 7842   3.676   6.563   3.005
 2315SOL     OW 7843   5.268   3.575   5.943
 2315SOL    HW1 7844   5.221   3.582   5.855
 2315SOL    HW2 7845   5.305   3.665   5.968
 2316SOL     OW 7846   5.206   2.433   3.487
 2316SOL    HW1 7847   5.137   2.398   3.423
 2316SOL    HW2 7848   5.189   2.530   3.504
 2317SOL     OW 7849   0.155   5.063   3.435
 2317SOL    HW1 7850   0.100   5.002   3.492
 2317SOL    HW2 7851   0.172   5.148   3.486
 2318SOL     OW 7852   0.151   2.719   3.941
 2318SOL    HW1 7853   0.103   2.696   3.856
 2318SOL    HW2 7854   0.246   2.689   3.935
 2319SOL     OW 7855   1.429   4.367   5.049
 2319SOL    HW1 7856   1.503   4.372   4.981
 2319SOL    HW2 7857   1.458   4.415   5.132
 2320SOL     OW 7858   0.041   3.069   4.325
 2320SOL    HW1 7859   0.053   3.138   4.254
 2320SOL    HW2 7860   0.012   2.983   4.284
 2321SOL     OW 7861   3.485   0.513   5.349
 2321SOL    HW1 7862   3.429   0.467   5.280
 2321SOL    HW2 7863   3.575   0.534   5.310
 2322SOL     OW 7864   2.022   2.110   5.725
 2322SOL    HW1 7865   1.934   2.141   5.691
 2322SOL    HW2 7866   2.088   2.105   5.650
 2323SOL     OW 7867   2.962   5.148   2.851
 2323SOL    HW1 7868   2.976   5.051   2.829
 2323SOL    HW2 7869   2.958   5.201   2.767
 2324SOL     OW 7870   0.154   5.990   2.602
 2324SOL    HW1 7871   0.220   6.056   2.566
 2324SOL    HW2 7872   0.187   5.955   2.690
 2325SOL     OW 7873   1.044   3.832   1.905
 2325SOL    HW1 7874   0.991   3.780   1.837
 2325SOL    HW2 7875   0.993   3.836   1.991
 2326SOL     OW 7876   2.629   3.437   6.023
 2326SOL    HW1 7877   2.538   3.396   6.035
 2326SOL    HW2 7878   2.678   3.436   6.110
 2327SOL     OW 7879   4.765   2.413   4.703
 2327SOL    HW1 7880   4.860   2.442   4.714
 2327SOL    HW2 7881   4.708   2.492   4.682
 2328SOL     OW 7882   4.809   0.997   3.648
 2328SOL    HW1 7883   4.831   0.899   3.647
 2328SOL    HW2 7884   4.731   1.013   3.708
 2329SOL     OW 7885   1.453   5.326   4.168
 2329SOL    HW1 7886   1.374   5.337   4.107
 2329SOL    HW2 7887   1.421   5.297   4.259
 2330SOL     OW 7888   0.043   4.550   2.409
 2330SOL    HW1 7889   0.131   4.573   2.451
 2330SOL    HW2 7890   0.035   4.450   2.401
 2331SOL     OW 7891   6.318   4.686   6.658
 2331SOL    HW1 7892   6.330   4.785   6.666
 2331SOL    HW2 7893   6.351   4.656   6.569
 2332SOL     OW 7894   5.057   2.119   5.555
 2332SOL    HW1 7895   5.076   2.040   5.613
 2332SOL    HW2 7896   4.960   2.143   5.562
 2333SOL     OW 7897   7.005   5.134   2.796
 2333SOL    HW1 7898   6.963   5.044   2.810
 2333SOL    HW2 7899   0.041   5.153   2.871
 2334SOL     OW 7900   3.195   0.023   6.976
 2334SOL    HW1 7901   3.099   0.012   7.002
 2334SOL    HW2 7902   3.225   6.970   6.924
 2335SOL     OW 7903   6.384   1.254   3.291
 2335SOL    HW1 7904   6.461   1.246   3.227
 2335SOL    HW2 7905   6.300   1.225   3.245
 2336SOL     OW 7906   4.650   1.237   5.566
 2336SOL    HW1 7907   4.576   1.304   5.577
 2336SOL    HW2 7908   4.680   1.235   5.471
 2337SOL     OW 7909   5.148   0.489   3.731
 2337SOL    HW1 7910   5.119   0.477   3.637
 2337SOL    HW2 7911   5.090   0.435   3.792
 2338SOL     OW 7912   0.722   6.893   0.027
 2338SOL    HW1 7913   0.788   6.967   0.016
 2338SOL    HW2 7914   0.766   6.805   0.006
 2339SOL     OW 7915   3.298   3.577   5.691
 2339SOL    HW1 7916   3.306   3.634   5.609
 2339SOL    HW2 7917   3.339   3.488   5.673
 2340SOL     OW 7918   3.798   6.565   5.682
 2340SOL    HW1 7919   3.854   6.587   5.603
 2340SOL    HW2 7920   3.799   6.467   5.699
 2341SOL     OW 7921   5.046   4.022   0.303
 2341SOL    HW1 7922   5.032   4.008   0.401
 2341SOL    HW2 7923   5.115   4.093   0.289
 2342SOL     OW 7924   0.783   6.549   5.124
 2342SOL    HW1 7925   0.782   6.552   5.024
 2342SOL    HW2 7926   0.840   6.624   5.160
 2343SOL     OW 7927   1.648   6.960   0.783
 2343SOL    HW1 7928   1.690   7.014   0.856
 2343SOL    HW2 7929   1.624   7.020   0.706
 2344SOL     OW 7930   2.458   2.012   2.229
 2344SOL    HW1 7931   2.557   2.012   2.212
 2344SOL    HW2 7932   2.409   2.028   2.143
 2345SOL     OW 7933   1.711   6.898   5.257
 2345SOL    HW1 7934   1.653   6.934   5.331
 2345SOL    HW2 7935   1.692   6.949   5.173
 2346SOL     OW 7936   4.681   2.911   5.256
 2346SOL    HW1 7937   4.712   2.868   5.171
 2346SOL    HW2 7938   4.708   3.007   5.258
 2347SOL     OW 7939   1.972   4.221   2.149
 2347SOL    HW1 7940   1.974   4.271   2.062
 2347SOL    HW2 7941   1.889   4.245   2.199
 2348SOL     OW 7942   1.894   6.245   3.340
 2348SOL    HW1 7943   1.862   6.169   3.395
 2348SOL    HW2 7944   1.891   6.220   3.243
 2349SOL     OW 7945   0.856   6.183   6.215
 2349SOL    HW1 7946   0.944   6.225   6.192
 2349SOL    HW2 7947   0.866   6.128   6.298
 2350SOL     OW 7948   3.256   0.274   5.749
 2350SOL    HW1 7949   3.254   0.332   5.831
 2350SOL    HW2 7950   3.351   0.246   5.731
 2351SOL     OW 7951   3.419   4.941   3.791
 2351SOL    HW1 7952   3.379   4.969   3.703
 2351SOL    HW2 7953   3.489   5.007   3.818
 2352SOL     OW 7954   6.801   4.053   3.498
 2352SOL    HW1 7955   6.794   4.132   3.438
 2352SOL    HW2 7956   6.793   3.969   3.443
 2353SOL     OW 7957   2.428   4.247   5.339
 2353SOL    HW1 7958   2.401   4.165   5.288
 2353SOL    HW2 7959   2.524   4.267   5.321
 2354SOL     OW 7960   3.618   2.312   6.916
 2354SOL    HW1 7961   3.569   2.301   6.830
 2354SOL    HW2 7962   3.635   2.409   6.934
 2355SOL     OW 7963   1.019   6.589   0.392
 2355SOL    HW1 7964   0.920   6.605   0.385
 2355SOL    HW2 7965   1.065   6.675   0.414
 2356SOL     OW 7966   2.212   4.743   2.014
 2356SOL    HW1 7967   2.184   4.709   2.104
 2356SOL    HW2 7968   2.211   4.843   2.014
 2357SOL     OW 7969   4.935   5.056   4.162
 2357SOL    HW1 7970   4.928   4.966   4.118
 2357SOL    HW2 7971   5.029   5.090   4.151
 2358SOL     OW 7972   3.032   6.746   4.021
 2358SOL    HW1 7973   3.069   6.768   3.931
 2358SOL    HW2 7974   2.973   6.665   4.015
 2359SOL     OW 7975   2.435   1.451   5.922
 2359SOL    HW1 7976   2.527   1.455   5.962
 2359SOL    HW2 7977   2.433   1.508   5.839
 2360SOL     OW 7978   4.050   4.581   0.107
 2360SOL    HW1 7979   4.114   4.597   0.181
 2360SOL    HW2 7980   4.015   4.487   0.111
 2361SOL     OW 7981   3.061   6.867   3.460
 2361SOL    HW1 7982   3.090   6.848   3.554
 2361SOL    HW2 7983   2.961   6.862   3.455
 2362SOL     OW 7984   4.753   6.296   5.104
 2362SOL    HW1 7985   4.685   6.279   5.175
 2362SOL    HW2 7986   4.779   6.392   5.105
 2363SOL     OW 7987   4.490   1.937   5.426
 2363SOL    HW1 7988   4.552   1.998   5.375
 2363SOL    HW2 7989   4.453   1.986   5.505
 2364SOL     OW 7990   5.384   1.456   1.693
 2364SOL    HW1 7991   5.320   1.471   1.768
 2364SOL    HW2 7992   5.383   1.534   1.631
 2365SOL     OW 7993   6.087   4.667   5.352
 2365SOL    HW1 7994   5.990   4.691   5.350
 2365SOL    HW2 7995   6.133   4.720   5.423
 2366SOL     OW 7996   0.770   4.068   5.883
 2366SOL    HW1 7997   0.856   4.108   5.915
 2366SOL    HW2 7998   0.753   4.098   5.789
 2367SOL     OW 7999   0.515   3.487   5.644
 2367SOL    HW1 8000   0.559   3.534   5.567
 2367SOL    HW2 8001   0.422   3.462   5.619
 2368SOL     OW 8002   4.368   1.192   4.952
 2368SOL    HW1 8003   4.377   1.201   5.052
 2368SOL    HW2 8004   4.321   1.106   4.931
 2369SOL     OW 8005   2.781   2.061   3.807
 2369SOL    HW1 8006   2.781   1.981   3.747
 2369SOL    HW2 8007   2.739   2.037   3.894
 2370SOL     OW 8008   4.588   2.660   0.734
 2370SOL    HW1 8009   4.603   2.739   0.794
 2370SOL    HW2 8010   4.544   2.691   0.649
 2371SOL     OW 8011   0.726   6.021   2.537
 2371SOL    HW1 8012   0.813   5.984   2.504
 2371SOL    HW2 8013   0.654   5.952   2.525
 2372SOL     OW 8014   6.655   0.496   6.402
 2372SOL    HW1 8015   6.601   0.419   6.369
 2372SOL    HW2 8016   6.687   0.550   6.324
 2373SOL     OW 8017   6.410   0.746   5.973
 2373SOL    HW1 8018   6.409   0.749   6.073
 2373SOL    HW2 8019   6.437   0.655   5.943
 2374SOL     OW 8020   5.839   5.904   3.266
 2374SOL    HW1 8021   5.821   5.976   3.199
 2374SOL    HW2 8022   5.910   5.842   3.232
 2375SOL     OW 8023   0.841   0.681   3.427
 2375SOL    HW1 8024   0.917   0.632   3.471
 2375SOL    HW2 8025   0.765   0.618   3.412
 2376SOL     OW 8026   6.344   2.545   3.516
 2376SOL    HW1 8027   6.281   2.609   3.560
 2376SOL    HW2 8028   6.292   2.482   3.459
 2377SOL     OW 8029   3.657   4.143   5.549
 2377SOL    HW1 8030   3.670   4.222   5.609
 2377SOL    HW2 8031   3.568   4.150   5.504
 2378SOL     OW 8032   5.368   1.830   0.239
 2378SOL    HW1 8033   5.307   1.909   0.246
 2378SOL    HW2 8034   5.435   1.846   0.166
 2379SOL     OW 8035   6.507   4.142   0.348
 2379SOL    HW1 8036   6.479   4.231   0.310
 2379SOL    HW2 8037   6.434   4.075   0.331
 2380SOL     OW 8038   6.003   1.519   5.234
 2380SOL    HW1 8039   5.941   1.527   5.312
 2380SOL    HW2 8040   5.980   1.589   5.167
 2381SOL     OW 8041   1.506   5.119   4.877
 2381SOL    HW1 8042   1.514   5.064   4.794
 2381SOL    HW2 8043   1.421   5.096   4.923
 2382SOL     OW 8044   2.233   6.254   2.719
 2382SOL    HW1 8045   2.227   6.157   2.740
 2382SOL    HW2 8046   2.249   6.268   2.622
 2383SOL     OW 8047   5.293   5.722   6.154
 2383SOL    HW1 8048   5.200   5.759   6.148
 2383SOL    HW2 8049   5.348   5.780   6.213
 2384SOL     OW 8050   1.331   2.387   1.092
 2384SOL    HW1 8051   1.384   2.308   1.061
 2384SOL    HW2 8052   1.275   2.361   1.171
 2385SOL     OW 8053   0.895   0.925   0.088
 2385SOL    HW1 8054   0.911   0.947   7.020
 2385SOL    HW2 8055   0.797   0.912   0.104
 2386SOL     OW 8056   3.790   4.925   4.689
 2386SOL    HW1 8057   3.878   4.890   4.656
 2386SOL    HW2 8058   3.728   4.934   4.611
 2387SOL     OW 8059   6.712   3.663   4.568
 2387SOL    HW1 8060   6.785   3.671   4.500
 2387SOL    HW2 8061   6.688   3.753   4.603
 2388SOL     OW 8062   0.368   1.414   5.684
 2388SOL    HW1 8063   0.301   1.402   5.757
 2388SOL    HW2 8064   0.456   1.375   5.712
 2389SOL     OW 8065   4.946   4.778   4.046
 2389SOL    HW1 8066   4.871   4.746   4.105
 2389SOL    HW2 8067   4.994   4.699   4.009
 2390SOL     OW 8068   3.524   3.888   4.980
 2390SOL    HW1 8069   3.463   3.958   4.943
 2390SOL    HW2 8070   3.472   3.804   4.997
 2391SOL     OW 8071   3.750   4.003   5.899
 2391SOL    HW1 8072   3.785   3.921   5.944
 2391SOL    HW2 8073   3.686   3.977   5.827
 2392SOL     OW 8074   3.190   4.090   6.347
 2392SOL    HW1 8075   3.282   4.052   6.353
 2392SOL    HW2 8076   3.123   4.022   6.377
 2393SOL     OW 8077   3.857   5.247   1.447
 2393SOL    HW1 8078   3.936   5.188   1.463
 2393SOL    HW2 8079   3.773   5.193   1.449
 2394SOL     OW 8080   0.472   3.557   4.311
 2394SOL    HW1 8081   0.526   3.625   4.260
 2394SOL    HW2 8082   0.525   3.524   4.389
 2395SOL     OW 8083   0.054   3.082   0.184
 2395SOL    HW1 8084   0.010   3.069   0.273
 2395SOL    HW2 8085   0.126   3.151   0.192
 2396SOL     OW 8086   5.418   6.654   0.414
 2396SOL    HW1 8087   5.380   6.624   0.501
 2396SOL    HW2 8088   5.344   6.670   0.349
 2397SOL     OW 8089   0.222   4.499   0.391
 2397SOL    HW1 8090   0.275   4.490   0.307
 2397SOL    HW2 8091   0.177   4.413   0.412
 2398SOL     OW 8092   2.933   5.163   4.918
 2398SOL    HW1 8093   2.945   5.063   4.919
 2398SOL    HW2 8094   2.989   5.204   4.991
 2399SOL     OW 8095   3.620   2.129   3.575
 2399SOL    HW1 8096   3.639   2.093   3.483
 2399SOL    HW2 8097   3.527   2.102   3.602
 2400SOL     OW 8098   1.806   3.458   0.310
 2400SOL    HW1 8099   1.845   3.447   0.218
 2400SOL    HW2 8100   1.879   3.463   0.377
 2401SOL     OW 8101   3.396   0.461   4.227
 2401SOL    HW1 8102   3.393   0.545   4.281
 2401SOL    HW2 8103   3.425   0.385   4.286
 2402SOL     OW 8104   0.122   1.516   3.898
 2402SOL    HW1 8105   0.213   1.504   3.937
 2402SOL    HW2 8106   0.085   1.604   3.927
 2403SOL     OW 8107   3.788   3.652   0.938
 2403SOL    HW1 8108   3.791   3.652   0.838
 2403SOL    HW2 8109   3.791   3.558   0.971
 2404SOL     OW 8110   5.512   1.872   1.466
 2404SOL    HW1 8111   5.514   1.885   1.565
 2404SOL    HW2 8112   5.605   1.879   1.429
 2405SOL     OW 8113   3.531   4.767   5.903
 2405SOL    HW1 8114   3.511   4.856   5.861
 2405SOL    HW2 8115   3.449   4.709   5.896
 2406SOL     OW 8116   2.524   6.705   3.949
 2406SOL    HW1 8117   2.447   6.654   3.910
 2406SOL    HW2 8118   2.570   6.650   4.018
 2407SOL     OW 8119   4.289   2.400   2.859
 2407SOL    HW1 8120   4.307   2.497   2.875
 2407SOL    HW2 8121   4.325   2.373   2.770
 2408SOL     OW 8122   2.499   5.314   2.781
 2408SOL    HW1 8123   2.567   5.270   2.840
 2408SOL    HW2 8124   2.470   5.401   2.822
 2409SOL     OW 8125   2.543   2.903   0.520
 2409SOL    HW1 8126   2.461   2.901   0.578
 2409SOL    HW2 8127   2.516   2.890   0.425
 2410SOL     OW 8128   6.071   3.217   6.090
 2410SOL    HW1 8129   6.068   3.300   6.034
 2410SOL    HW2 8130   6.096   3.139   6.033
 2411SOL     OW 8131   2.920   3.788   5.939
 2411SOL    HW1 8132   3.013   3.752   5.940
 2411SOL    HW2 8133   2.922   3.885   5.965
 2412SOL     OW 8134   2.729   2.735   0.659
 2412SOL    HW1 8135   2.813   2.770   0.700
 2412SOL    HW2 8136   2.686   2.807   0.604
 2413SOL     OW 8137   5.675   3.436   6.521
 2413SOL    HW1 8138   5.653   3.371   6.448
 2413SOL    HW2 8139   5.592   3.463   6.568
 2414SOL     OW 8140   5.678   3.141   3.799
 2414SOL    HW1 8141   5.619   3.214   3.833
 2414SOL    HW2 8142   5.738   3.109   3.872
 2415SOL     OW 8143   1.889   0.030   0.923
 2415SOL    HW1 8144   1.937   0.117   0.922
 2415SOL    HW2 8145   1.911   7.006   0.840
 2416SOL     OW 8146   1.508   2.700   3.827
 2416SOL    HW1 8147   1.553   2.682   3.915
 2416SOL    HW2 8148   1.521   2.622   3.766
 2417SOL     OW 8149   4.866   2.174   0.072
 2417SOL    HW1 8150   4.951   2.218   0.045
 2417SOL    HW2 8151   4.846   2.195   0.168
 2418SOL     OW 8152   3.645   3.621   4.556
 2418SOL    HW1 8153   3.721   3.556   4.563
 2418SOL    HW2 8154   3.666   3.703   4.608
 2419SOL     OW 8155   1.828   7.001   4.064
 2419SOL    HW1 8156   1.875   6.917   4.038
 2419SOL    HW2 8157   1.874   0.052   4.022
 2420SOL     OW 8158   3.224   5.826   1.709
 2420SOL    HW1 8159   3.260   5.859   1.796
 2420SOL    HW2 8160   3.219   5.903   1.644
 2421SOL     OW 8161   3.531   6.760   4.240
 2421SOL    HW1 8162   3.591   6.700   4.188
 2421SOL    HW2 8163   3.576   6.848   4.255
 2422SOL     OW 8164   4.123   0.135   0.996
 2422SOL    HW1 8165   4.078   0.096   1.076
 2422SOL    HW2 8166   4.054   0.179   0.938
 2423SOL     OW 8167   1.404   5.298   1.042
 2423SOL    HW1 8168   1.416   5.393   1.072
 2423SOL    HW2 8169   1.439   5.236   1.113
 2424SOL     OW 8170   5.317   6.472   6.818
 2424SOL    HW1 8171   5.265   6.557   6.816
 2424SOL    HW2 8172   5.409   6.488   6.781
 2425SOL     OW 8173   5.411   6.621   5.908
 2425SOL    HW1 8174   5.415   6.601   5.810
 2425SOL    HW2 8175   5.504   6.630   5.945
 2426SOL     OW 8176   1.409   5.359   3.807
 2426SOL    HW1 8177   1.334   5.294   3.819
 2426SOL    HW2 8178   1.377   5.451   3.828
 2427SOL     OW 8179   4.822   5.929   0.181
 2427SOL    HW1 8180   4.873   5.949   0.265
 2427SOL    HW2 8181   4.734   5.976   0.184
 2428SOL     OW 8182   0.270   0.635   3.050
 2428SOL    HW1 8183   0.340   0.570   3.079
 2428SOL    HW2 8184   0.312   0.724   3.035
 2429SOL     OW 8185   5.696   4.935   2.945
 2429SOL    HW1 8186   5.663   4.847   2.911
 2429SOL    HW2 8187   5.707   4.999   2.869
 2430SOL     OW 8188   5.308   2.513   0.501
 2430SOL    HW1 8189   5.226   2.469   0.539
 2430SOL    HW2 8190   5.376   2.525   0.574
 2431SOL     OW 8191   4.858   1.112   0.676
 2431SOL    HW1 8192   4.817   1.203   0.685
 2431SOL    HW2 8193   4.941   1.108   0.731
 2432SOL     OW 8194   2.849   6.599   1.569
 2432SOL    HW1 8195   2.755   6.633   1.578
 2432SOL    HW2 8196   2.848   6.511   1.521
 2433SOL     OW 8197   1.544   6.864   0.028
 2433SOL    HW1 8198   1.534   6.774   7.014
 2433SOL    HW2 8199   1.454   6.903   0.046
 2434SOL     OW 8200   5.723   1.838   2.830
 2434SOL    HW1 8201   5.634   1.856   2.871
 2434SOL    HW2 8202   5.771   1.769   2.884
 2435SOL     OW 8203   5.501   5.163   6.976
 2435SOL    HW1 8204   5.539   5.256   6.969
 2435SOL    HW2 8205   5.431   5.161   0.019
 2436SOL     OW 8206   1.859   0.543   1.029
 2436SOL    HW1 8207   1.937   0.507   1.079
 2436SOL    HW2 8208   1.891   0.590   0.947
 2437SOL     OW 8209   5.199   6.738   1.300
 2437SOL    HW1 8210   5.138   6.817   1.307
 2437SOL    HW2 8211   5.217   6.701   1.391
 2438SOL     OW 8212   3.865   1.562   3.835
 2438SOL    HW1 8213   3.919   1.477   3.834
 2438SOL    HW2 8214   3.926   1.640   3.844
 2439SOL     OW 8215   0.690   5.017   0.812
 2439SOL    HW1 8216   0.617   5.083   0.830
 2439SOL    HW2 8217   0.651   4.927   0.794
 2440SOL     OW 8218   3.939   7.018   6.187
 2440SOL    HW1 8219   3.977   6.928   6.168
 2440SOL    HW2 8220   3.992   0.035   6.258
 2441SOL     OW 8221   6.030   1.542   6.990
 2441SOL    HW1 8222   6.095   1.481   0.007
 2441SOL    HW2 8223   5.939   1.528   0.002
 2442SOL     OW 8224   5.500   5.232   2.788
 2442SOL    HW1 8225   5.558   5.171   2.735
 2442SOL    HW2 8226   5.556   5.305   2.827
 2443SOL     OW 8227   2.857   0.302   6.885
 2443SOL    HW1 8228   2.805   0.234   6.937
 2443SOL    HW2 8229   2.895   0.261   6.803
 2444SOL     OW 8230   4.231   4.196   0.538
 2444SOL    HW1 8231   4.193   4.199   0.630
 2444SOL    HW2 8232   4.274   4.284   0.517
 2445SOL     OW 8233   5.868   1.313   1.896
 2445SOL    HW1 8234   5.873   1.366   1.981
 2445SOL    HW2 8235   5.784   1.337   1.847
 2446SOL     OW 8236   1.389   2.647   4.119
 2446SOL    HW1 8237   1.314   2.614   4.062
 2446SOL    HW2 8238   1.477   2.621   4.079
 2447SOL     OW 8239   2.473   0.496   0.796
 2447SOL    HW1 8240   2.518   0.434   0.861
 2447SOL    HW2 8241   2.377   0.506   0.821
 2448SOL     OW 8242   6.339   1.143   4.061
 2448SOL    HW1 8243   6.259   1.088   4.084
 2448SOL    HW2 8244   6.376   1.184   4.145
 2449SOL     OW 8245   1.362   3.580   1.444
 2449SOL    HW1 8246   1.412   3.517   1.504
 2449SOL    HW2 8247   1.422   3.654   1.416
 2450SOL     OW 8248   3.420   4.649   6.500
 2450SOL    HW1 8249   3.321   4.636   6.513
 2450SOL    HW2 8250   3.469   4.580   6.553
 2451SOL     OW 8251   1.551   0.677   3.201
 2451SOL    HW1 8252   1.472   0.646   3.148
 2451SOL    HW2 8253   1.570   0.772   3.180
 2452SOL     OW 8254   2.787   1.856   4.055
 2452SOL    HW1 8255   2.862   1.898   4.107
 2452SOL    HW2 8256   2.707   1.915   4.059
 2453SOL     OW 8257   0.376   2.843   0.326
 2453SOL    HW1 8258   0.392   2.926   0.380
 2453SOL    HW2 8259   0.462   2.795   0.312
 2454SOL     OW 8260   2.791   6.807   6.859
 2454SOL    HW1 8261   2.847   6.879   6.820
 2454SOL    HW2 8262   2.749   6.753   6.786
 2455SOL     OW 8263   4.210   0.865   0.358
 2455SOL    HW1 8264   4.294   0.812   0.357
 2455SOL    HW2 8265   4.207   0.921   0.441
 2456SOL     OW 8266   7.009   2.472   6.753
 2456SOL    HW1 8267   7.011   2.508   6.847
 2456SOL    HW2 8268   0.016   2.541   6.690
 2457SOL     OW 8269   6.364   0.786   6.240
 2457SOL    HW1 8270   6.296   0.712   6.237
 2457SOL    HW2 8271   6.419   0.777   6.323
 2458SOL     OW 8272   1.895   6.759   3.738
 2458SOL    HW1 8273   1.939   6.672   3.716
 2458SOL    HW2 8274   1.841   6.789   3.660
 2459SOL     OW 8275   2.629   6.306   5.728
 2459SOL    HW1 8276   2.578   6.357   5.658
 2459SOL    HW2 8277   2.727   6.310   5.708
 2460SOL     OW 8278   1.467   1.244   0.806
 2460SOL    HW1 8279   1.450   1.176   0.735
 2460SOL    HW2 8280   1.514   1.202   0.883
 2461SOL     OW 8281   5.124   0.301   4.148
 2461SOL    HW1 8282   5.179   0.360   4.207
 2461SOL    HW2 8283   5.042   0.350   4.119
 2462SOL     OW 8284   1.848   4.853   6.691
 2462SOL    HW1 8285   1.857   4.948   6.659
 2462SOL    HW2 8286   1.752   4.833   6.706
 2463SOL     OW 8287   5.904   2.078   6.666
 2463SOL    HW1 8288   5.895   2.154   6.602
 2463SOL    HW2 8289   5.816   2.061   6.711
 2464SOL     OW 8290   2.140   3.562   2.903
 2464SOL    HW1 8291   2.075   3.539   2.975
 2464SOL    HW2 8292   2.102   3.536   2.814
 2465SOL     OW 8293   1.258   6.571   6.785
 2465SOL    HW1 8294   1.221   6.656   6.823
 2465SOL    HW2 8295   1.185   6.519   6.742
 2466SOL     OW 8296   2.134   1.984   2.561
 2466SOL    HW1 8297   2.112   1.997   2.464
 2466SOL    HW2 8298   2.192   2.059   2.592
 2467SOL     OW 8299   5.294   1.810   5.219
 2467SOL    HW1 8300   5.241   1.800   5.303
 2467SOL    HW2 8301   5.344   1.725   5.201
 2468SOL     OW 8302   4.316   0.408   0.916
 2468SOL    HW1 8303   4.305   0.394   0.818
 2468SOL    HW2 8304   4.397   0.359   0.948
 2469SOL     OW 8305   4.133   3.640   4.744
 2469SOL    HW1 8306   4.221   3.683   4.765
 2469SOL    HW2 8307   4.142   3.541   4.751
 2470SOL     OW 8308   4.411   4.256   5.817
 2470SOL    HW1 8309   4.489   4.232   5.874
 2470SOL    HW2 8310   4.420   4.213   5.727
 2471SOL     OW 8311   3.394   6.082   0.134
 2471SOL    HW1 8312   3.327   6.148   0.101
 2471SOL    HW2 8313   3.440   6.118   0.215
 2472SOL     OW 8314   4.928   2.293   3.625
 2472SOL    HW1 8315   4.963   2.259   3.538
 2472SOL    HW2 8316   4.920   2.217   3.689
 2473SOL     OW 8317   1.086   3.470   4.417
 2473SOL    HW1 8318   1.154   3.534   4.453
 2473SOL    HW2 8319   1.132   3.400   4.361
 2474SOL     OW 8320   0.164   5.842   1.754
 2474SOL    HW1 8321   0.187   5.865   1.660
 2474SOL    HW2 8322   0.228   5.889   1.816
 2475SOL     OW 8323   3.823   0.722   2.315
 2475SOL    HW1 8324   3.903   0.741   2.372
 2475SOL    HW2 8325   3.824   0.783   2.235
 2476SOL     OW 8326   6.586   1.571   2.954
 2476SOL    HW1 8327   6.616   1.540   3.045
 2476SOL    HW2 8328   6.638   1.522   2.884
 2477SOL     OW 8329   4.099   1.408   2.939
 2477SOL    HW1 8330   4.079   1.494   2.986
 2477SOL    HW2 8331   4.087   1.331   3.002
 2478SOL     OW 8332   5.980   1.621   1.493
 2478SOL    HW1 8333   5.902   1.587   1.546
 2478SOL    HW2 8334   6.060   1.565   1.513
 2479SOL     OW 8335   0.596   3.104   2.228
 2479SOL    HW1 8336   0.618   3.202   2.232
 2479SOL    HW2 8337   0.679   3.053   2.203
 2480SOL     OW 8338   5.016   3.664   0.581
 2480SOL    HW1 8339   4.940   3.599   0.586
 2480SOL    HW2 8340   5.075   3.652   0.661
 2481SOL     OW 8341   3.737   6.471   6.941
 2481SOL    HW1 8342   3.715   6.454   0.009
 2481SOL    HW2 8343   3.729   6.386   6.889
 2482SOL     OW 8344   5.581   3.721   5.640
 2482SOL    HW1 8345   5.591   3.647   5.707
 2482SOL    HW2 8346   5.603   3.687   5.549
 2483SOL     OW 8347   1.652   1.652   0.037
 2483SOL    HW1 8348   1.738   1.629   0.082
 2483SOL    HW2 8349   1.616   1.570   7.019
 2484SOL     OW 8350   3.755   0.674   0.093
 2484SOL    HW1 8351   3.663   0.665   0.053
 2484SOL    HW2 8352   3.820   0.619   0.040
 2485SOL     OW 8353   6.394   3.825   1.842
 2485SOL    HW1 8354   6.485   3.808   1.879
 2485SOL    HW2 8355   6.364   3.747   1.787
 2486SOL     OW 8356   1.845   5.071   4.939
 2486SOL    HW1 8357   1.802   4.984   4.916
 2486SOL    HW2 8358   1.796   5.114   5.015
 2487SOL     OW 8359   4.343   6.070   0.501
 2487SOL    HW1 8360   4.288   5.988   0.520
 2487SOL    HW2 8361   4.440   6.050   0.515
 2488SOL     OW 8362   1.767   4.324   2.312
 2488SOL    HW1 8363   1.680   4.330   2.264
 2488SOL    HW2 8364   1.764   4.382   2.394
 2489SOL     OW 8365   1.408   6.568   3.655
 2489SOL    HW1 8366   1.320   6.581   3.702
 2489SOL    HW2 8367   1.398   6.591   3.558
 2490SOL     OW 8368   0.044   4.891   1.439
 2490SOL    HW1 8369   0.012   4.952   1.367
 2490SOL    HW2 8370   0.140   4.869   1.424
 2491SOL     OW 8371   2.290   4.973   0.280
 2491SOL    HW1 8372   2.200   4.932   0.266
 2491SOL    HW2 8373   2.352   4.943   0.207
 2492SOL     OW 8374   4.973   3.062   1.039
 2492SOL    HW1 8375   4.896   3.064   0.976
 2492SOL    HW2 8376   5.045   3.003   1.003
 2493SOL     OW 8377   5.711   0.283   2.114
 2493SOL    HW1 8378   5.697   0.368   2.166
 2493SOL    HW2 8379   5.771   0.222   2.165
 2494SOL     OW 8380   5.043   4.409   2.856
 2494SOL    HW1 8381   4.948   4.402   2.823
 2494SOL    HW2 8382   5.062   4.331   2.916
 2495SOL     OW 8383   4.914   6.875   4.295
 2495SOL    HW1 8384   4.941   6.856   4.201
 2495SOL    HW2 8385   4.981   6.935   4.338
 2496SOL     OW 8386   6.851   3.021   5.943
 2496SOL    HW1 8387   6.875   2.924   5.940
 2496SOL    HW2 8388   6.755   3.031   5.969
 2497SOL     OW 8389   0.467   0.562   0.684
 2497SOL    HW1 8390   0.554   0.518   0.662
 2497SOL    HW2 8391   0.449   0.551   0.782
 2498SOL     OW 8392   2.955   1.984   4.256
 2498SOL    HW1 8393   2.874   2.019   4.303
 2498SOL    HW2 8394   3.025   2.055   4.252
 2499SOL     OW 8395   6.261   2.563   1.963
 2499SOL    HW1 8396   6.220   2.572   1.872
 2499SOL    HW2 8397   6.358   2.588   1.959
 2500SOL     OW 8398   4.733   3.669   6.649
 2500SOL    HW1 8399   4.643   3.628   6.637
 2500SOL    HW2 8400   4.782   3.621   6.722
 2501SOL     OW 8401   6.032   4.778   0.952
 2501SOL    HW1 8402   6.070   4.686   0.944
 2501SOL    HW2 8403   5.949   4.786   0.898
 2502SOL     OW 8404   1.322   6.368   3.288
 2502SOL    HW1 8405   1.223   6.363   3.300
 2502SOL    HW2 8406   1.366   6.299   3.345
 2503SOL     OW 8407   2.537   6.036   4.214
 2503SOL    HW1 8408   2.464   5.969   4.226
 2503SOL    HW2 8409   2.625   5.991   4.221
 2504SOL     OW 8410   3.708   5.305   4.421
 2504SOL    HW1 8411   3.723   5.249   4.340
 2504SOL    HW2 8412   3.762   5.389   4.414
 2505SOL     OW 8413   0.936   6.507   2.789
 2505SOL    HW1 8414   0.931   6.605   2.811
 2505SOL    HW2 8415   0.943   6.496   2.690
 2506SOL     OW 8416   5.746   4.168   5.433
 2506SOL    HW1 8417   5.698   4.134   5.352
 2506SOL    HW2 8418   5.844   4.170   5.416
 2507SOL     OW 8419   0.642   3.729   0.576
 2507SOL    HW1 8420   0.552   3.714   0.618
 2507SOL    HW2 8421   0.638   3.809   0.517
 2508SOL     OW 8422   1.910   1.524   3.335
 2508SOL    HW1 8423   1.825   1.482   3.302
 2508SOL    HW2 8424   1.951   1.465   3.405
 2509SOL     OW 8425   6.748   2.950   0.847
 2509SOL    HW1 8426   6.727   2.989   0.937
 2509SOL    HW2 8427   6.715   2.856   0.843
 2510SOL     OW 8428   2.657   4.136   1.702
 2510SOL    HW1 8429   2.711   4.215   1.671
 2510SOL    HW2 8430   2.675   4.058   1.643
 2511SOL     OW 8431   3.721   2.111   4.282
 2511SOL    HW1 8432   3.724   2.143   4.376
 2511SOL    HW2 8433   3.626   2.093   4.255
 2512SOL     OW 8434   5.523   3.758   5.148
 2512SOL    HW1 8435   5.533   3.707   5.062
 2512SOL    HW2 8436   5.576   3.713   5.220
 2513SOL     OW 8437   1.446   4.456   5.324
 2513SOL    HW1 8438   1.464   4.528   5.392
 2513SOL    HW2 8439   1.477   4.368   5.360
 2514SOL     OW 8440   6.401   3.076   4.755
 2514SOL    HW1 8441   6.455   3.156   4.778
 2514SOL    HW2 8442   6.429   2.999   4.813
 2515SOL     OW 8443   1.805   6.856   0.561
 2515SOL    HW1 8444   1.709   6.856   0.589
 2515SOL    HW2 8445   1.816   6.912   0.479
 2516SOL     OW 8446   6.001   1.213   2.547
 2516SOL    HW1 8447   6.014   1.150   2.471
 2516SOL    HW2 8448   5.923   1.272   2.529
 2517SOL     OW 8449   1.313   6.143   5.645
 2517SOL    HW1 8450   1.359   6.059   5.674
 2517SOL    HW2 8451   1.315   6.210   5.719
 2518SOL     OW 8452   1.296   4.390   6.828
 2518SOL    HW1 8453   1.266   4.485   6.824
 2518SOL    HW2 8454   1.387   4.385   6.867
 2519SOL     OW 8455   4.352   6.638   3.237
 2519SOL    HW1 8456   4.359   6.735   3.217
 2519SOL    HW2 8457   4.436   6.606   3.281
 2520SOL     OW 8458   2.842   1.729   0.596
 2520SOL    HW1 8459   2.940   1.706   0.594
 2520SOL    HW2 8460   2.795   1.683   0.521
 2521SOL     OW 8461   1.707   0.907   5.111
 2521SOL    HW1 8462   1.695   0.863   5.022
 2521SOL    HW2 8463   1.657   0.994   5.112
 2522SOL     OW 8464   0.364   3.687   4.926
 2522SOL    HW1 8465   0.291   3.650   4.985
 2522SOL    HW2 8466   0.409   3.612   4.878
 2523SOL     OW 8467   0.294   2.889   1.403
 2523SOL    HW1 8468   0.307   2.962   1.336
 2523SOL    HW2 8469   0.323   2.802   1.364
 2524SOL     OW 8470   1.548   6.287   4.905
 2524SOL    HW1 8471   1.528   6.231   4.825
 2524SOL    HW2 8472   1.500   6.375   4.897
 2525SOL     OW 8473   1.088   2.441   5.459
 2525SOL    HW1 8474   1.018   2.379   5.495
 2525SOL    HW2 8475   1.092   2.523   5.515
 2526SOL     OW 8476   1.356   4.270   5.945
 2526SOL    HW1 8477   1.325   4.362   5.920
 2526SOL    HW2 8478   1.296   4.202   5.903
 2527SOL     OW 8479   5.174   5.786   5.011
 2527SOL    HW1 8480   5.122   5.823   4.934
 2527SOL    HW2 8481   5.170   5.849   5.088
 2528SOL     OW 8482   5.843   4.829   0.761
 2528SOL    HW1 8483   5.873   4.893   0.690
 2528SOL    HW2 8484   5.821   4.741   0.719
 2529SOL     OW 8485   6.294   6.791   6.438
 2529SOL    HW1 8486   6.376   6.798   6.495
 2529SOL    HW2 8487   6.319   6.797   6.342
 2530SOL     OW 8488   2.664   6.851   5.282
 2530SOL    HW1 8489   2.707   6.937   5.307
 2530SOL    HW2 8490   2.578   6.869   5.234
 2531SOL     OW 8491   4.881   6.220   4.317
 2531SOL    HW1 8492   4.851   6.259   4.404
 2531SOL    HW2 8493   4.899   6.122   4.329
 2532SOL     OW 8494   0.676   6.463   1.159
 2532SOL    HW1 8495   0.766   6.440   1.123
 2532SOL    HW2 8496   0.680   6.467   1.259
 2533SOL     OW 8497   3.748   6.375   3.668
 2533SOL    HW1 8498   3.676   6.379   3.599
 2533SOL    HW2 8499   3.734   6.295   3.727
 2534SOL     OW 8500   3.714   0.625   3.099
 2534SOL    HW1 8501   3.697   0.642   3.196
 2534SOL    HW2 8502   3.813   0.620   3.084
 2535SOL     OW 8503   3.871   2.104   5.051
 2535SOL    HW1 8504   3.806   2.043   5.006
 2535SOL    HW2 8505   3.824   2.161   5.117
 2536SOL     OW 8506   1.044   2.032   5.204
 2536SOL    HW1 8507   0.990   2.100   5.253
 2536SOL    HW2 8508   0.984   1.956   5.176
 2537SOL     OW 8509   4.000   0.354   6.415
 2537SOL    HW1 8510   4.095   0.355   6.446
 2537SOL    HW2 8511   3.940   0.328   6.491
 2538SOL     OW 8512   1.387   4.716   4.021
 2538SOL    HW1 8513   1.333   4.654   4.078
 2538SOL    HW2 8514   1.482   4.713   4.050
 2539SOL     OW 8515   5.302   1.512   5.712
 2539SOL    HW1 8516   5.258   1.448   5.649
 2539SOL    HW2 8517   5.278   1.487   5.806
 2540SOL     OW 8518   4.370   1.531   2.795
 2540SOL    HW1 8519   4.279   1.489   2.805
 2540SOL    HW2 8520   4.396   1.574   2.882
 2541SOL     OW 8521   2.528   0.162   5.147
 2541SOL    HW1 8522   2.444   0.169   5.202
 2541SOL    HW2 8523   2.556   0.253   5.118
 2542SOL     OW 8524   3.915   1.664   6.239
 2542SOL    HW1 8525   3.859   1.746   6.246
 2542SOL    HW2 8526   3.866   1.586   6.277
 2543SOL     OW 8527   1.480   1.469   3.088
 2543SOL    HW1 8528   1.410   1.429   3.147
 2543SOL    HW2 8529   1.468   1.436   2.994
 2544SOL     OW 8530   0.299   5.926   1.430
 2544SOL    HW1 8531   0.284   5.827   1.439
 2544SOL    HW2 8532   0.215   5.969   1.395
 2545SOL     OW 8533   1.501   0.351   1.418
 2545SOL    HW1 8534   1.481   0.257   1.444
 2545SOL    HW2 8535   1.599   0.368   1.425
 2546SOL     OW 8536   0.080   1.848   1.534
 2546SOL    HW1 8537   0.040   1.938   1.525
 2546SOL    HW2 8538   0.155   1.851   1.601
 2547SOL     OW 8539   6.182   5.260   0.527
 2547SOL    HW1 8540   6.205   5.357   0.536
 2547SOL    HW2 8541   6.166   5.237   0.431
 2548SOL     OW 8542   1.942   6.810   6.066
 2548SOL    HW1 8543   1.965   6.720   6.103
 2548SOL    HW2 8544   2.004   6.879   6.106
 2549SOL     OW 8545   2.361   1.400   0.729
 2549SOL    HW1 8546   2.279   1.396   0.673
 2549SOL    HW2 8547   2.368   1.317   0.785
 2550SOL     OW 8548   7.006   0.177   6.098
 2550SOL    HW1 8549   7.022   0.083   6.129
 2550SOL    HW2 8550   0.023   0.192   6.011
 2551SOL     OW 8551   3.618   4.960   0.694
 2551SOL    HW1 8552   3.670   5.042   0.671
 2551SOL    HW2 8553   3.534   4.985   0.743
 2552SOL     OW 8554   2.194   6.107   5.461
 2552SOL    HW1 8555   2.144   6.161   5.392
 2552SOL    HW2 8556   2.152   6.121   5.551
 2553SOL     OW 8557   4.726   2.594   5.281
 2553SOL    HW1 8558   4.820   2.616   5.254
 2553SOL    HW2 8559   4.663   2.661   5.240
 2554SOL     OW 8560   2.231   6.564   0.679
 2554SOL    HW1 8561   2.242   6.532   0.585
 2554SOL    HW2 8562   2.224   6.486   0.741
 2555SOL     OW 8563   6.027   0.017   6.149
 2555SOL    HW1 8564   6.029   6.963   6.206
 2555SOL    HW2 8565   6.113   0.066   6.158
 2556SOL     OW 8566   4.603   5.587   1.033
 2556SOL    HW1 8567   4.599   5.676   0.987
 2556SOL    HW2 8568   4.527   5.579   1.098
 2557SOL     OW 8569   2.762   3.350   6.263
 2557SOL    HW1 8570   2.860   3.362   6.246
 2557SOL    HW2 8571   2.748   3.269   6.320
 2558SOL     OW 8572   5.140   1.799   5.448
 2558SOL    HW1 8573   5.173   1.844   5.531
 2558SOL    HW2 8574   5.073   1.858   5.403
 2559SOL     OW 8575   6.887   4.045   4.374
 2559SOL    HW1 8576   6.967   4.092   4.337
 2559SOL    HW2 8577   6.805   4.098   4.353
 2560SOL     OW 8578   6.044   3.302   4.727
 2560SOL    HW1 8579   6.006   3.372   4.788
 2560SOL    HW2 8580   5.986   3.294   4.646
 2561SOL     OW 8581   3.216   6.539   4.582
 2561SOL    HW1 8582   3.184   6.625   4.620
 2561SOL    HW2 8583   3.313   6.546   4.558
 2562SOL     OW 8584   1.161   5.034   2.086
 2562SOL    HW1 8585   1.220   5.015   2.008
 2562SOL    HW2 8586   1.142   5.132   2.090
 2563SOL     OW 8587   4.265   2.209   0.470
 2563SOL    HW1 8588   4.303   2.206   0.563
 2563SOL    HW2 8589   4.252   2.116   0.437
 2564SOL     OW 8590   2.248   6.319   5.865
 2564SOL    HW1 8591   2.283   6.250   5.801
 2564SOL    HW2 8592   2.161   6.356   5.830
 2565SOL     OW 8593   0.354   0.170   6.947
 2565SOL    HW1 8594   0.393   0.258   6.920
 2565SOL    HW2 8595   0.406   0.096   6.904
 2566SOL     OW 8596   2.538   0.043   0.368
 2566SOL    HW1 8597   2.563   6.989   0.316
 2566SOL    HW2 8598   2.497   0.111   0.307
 2567SOL     OW 8599   0.444   1.215   1.329
 2567SOL    HW1 8600   0.420   1.153   1.255
 2567SOL    HW2 8601   0.522   1.271   1.302
 2568SOL     OW 8602   4.008   0.355   0.293
 2568SOL    HW1 8603   3.913   0.362   0.323
 2568SOL    HW2 8604   4.059   0.437   0.323
 2569SOL     OW 8605   3.269   1.557   1.782
 2569SOL    HW1 8606   3.368   1.563   1.777
 2569SOL    HW2 8607   3.236   1.490   1.716
 2570SOL     OW 8608   5.276   0.318   6.525
 2570SOL    HW1 8609   5.314   0.254   6.591
 2570SOL    HW2 8610   5.294   0.412   6.554
 2571SOL     OW 8611   2.447   4.482   5.142
 2571SOL    HW1 8612   2.452   4.421   5.222
 2571SOL    HW2 8613   2.504   4.562   5.158
 2572SOL     OW 8614   2.327   5.244   0.051
 2572SOL    HW1 8615   2.358   5.279   6.990
 2572SOL    HW2 8616   2.301   5.148   0.041
 2573SOL     OW 8617   6.530   2.696   1.995
 2573SOL    HW1 8618   6.481   2.739   1.919
 2573SOL    HW2 8619   6.623   2.732   2.001
 2574SOL     OW 8620   6.477   3.702   0.255
 2574SOL    HW1 8621   6.460   3.626   0.192
 2574SOL    HW2 8622   6.558   3.684   0.310
 2575SOL     OW 8623   5.470   5.275   0.915
 2575SOL    HW1 8624   5.474   5.333   0.997
 2575SOL    HW2 8625   5.559   5.273   0.870
 2576SOL     OW 8626   3.764   6.929   4.304
 2576SOL    HW1 8627   3.809   6.851   4.261
 2576SOL    HW2 8628   3.765   6.917   4.404
 2577SOL     OW 8629   3.516   6.761   2.036
 2577SOL    HW1 8630   3.582   6.688   2.055
 2577SOL    HW2 8631   3.561   6.849   2.049
 2578SOL     OW 8632   4.812   1.171   4.070
 2578SOL    HW1 8633   4.773   1.115   3.997
 2578SOL    HW2 8634   4.807   1.268   4.045
 2579SOL     OW 8635   1.317   5.965   2.818
 2579SOL    HW1 8636   1.282   5.964   2.725
 2579SOL    HW2 8637   1.255   6.018   2.877
 2580SOL     OW 8638   3.042   3.296   6.256
 2580SOL    HW1 8639   3.036   3.196   6.254
 2580SOL    HW2 8640   3.138   3.323   6.255
 2581SOL     OW 8641   0.907   5.024   1.068
 2581SOL    HW1 8642   0.910   5.036   0.969
 2581SOL    HW2 8643   0.993   5.057   1.108
 2582SOL     OW 8644   0.688   4.699   2.502
 2582SOL    HW1 8645   0.643   4.778   2.545
 2582SOL    HW2 8646   0.784   4.721   2.484
 2583SOL     OW 8647   0.644   1.026   0.332
 2583SOL    HW1 8648   0.565   1.048   0.389
 2583SOL    HW2 8649   0.728   1.043   0.384
 2584SOL     OW 8650   4.402   5.716   6.783
 2584SOL    HW1 8651   4.365   5.779   6.852
 2584SOL    HW2 8652   4.408   5.764   6.695
 2585SOL     OW 8653   4.850   2.506   0.137
 2585SOL    HW1 8654   4.929   2.563   0.160
 2585SOL    HW2 8655   4.852   2.423   0.192
 2586SOL     OW 8656   3.843   1.105   3.285
 2586SOL    HW1 8657   3.910   1.035   3.310
 2586SOL    HW2 8658   3.768   1.063   3.234
 2587SOL     OW 8659   0.573   0.665   3.648
 2587SOL    HW1 8660   0.658   0.717   3.654
 2587SOL    HW2 8661   0.555   0.642   3.552
 2588SOL     OW 8662   4.299   0.776   6.569
 2588SOL    HW1 8663   4.367   0.789   6.642
 2588SOL    HW2 8664   4.223   0.840   6.584
 2589SOL     OW 8665   0.711   6.002   6.408
 2589SOL    HW1 8666   0.790   5.981   6.466
 2589SOL    HW2 8667   0.646   6.058   6.460
 2590SOL     OW 8668   3.548   5.881   1.020
 2590SOL    HW1 8669   3.625   5.863   1.081
 2590SOL    HW2 8670   3.521   5.796   0.974
 2591SOL     OW 8671   6.635   4.906   3.224
 2591SOL    HW1 8672   6.581   4.827   3.194
 2591SOL    HW2 8673   6.732   4.882   3.224
 2592SOL     OW 8674   3.756   5.009   6.996
 2592SOL    HW1 8675   3.794   4.921   7.026
 2592SOL    HW2 8676   3.830   5.076   6.990
 2593SOL     OW 8677   3.063   5.203   0.918
 2593SOL    HW1 8678   3.036   5.295   0.889
 2593SOL    HW2 8679   3.160   5.202   0.943
 2594SOL     OW 8680   1.827   4.768   6.397
 2594SOL    HW1 8681   1.901   4.761   6.330
 2594SOL    HW2 8682   1.864   4.756   6.489
 2595SOL     OW 8683   6.484   1.407   4.169
 2595SOL    HW1 8684   6.563   1.348   4.184
 2595SOL    HW2 8685   6.421   1.397   4.246
 2596SOL     OW 8686   2.977   1.794   1.557
 2596SOL    HW1 8687   3.069   1.772   1.524
 2596SOL    HW2 8688   2.966   1.894   1.560
 2597SOL     OW 8689   1.592   5.362   5.664
 2597SOL    HW1 8690   1.513   5.369   5.603
 2597SOL    HW2 8691   1.614   5.265   5.678
 2598SOL     OW 8692   6.955   1.402   3.001
 2598SOL    HW1 8693   0.019   1.403   3.041
 2598SOL    HW2 8694   6.894   1.346   3.058
 2599SOL     OW 8695   1.795   6.488   1.253
 2599SOL    HW1 8696   1.792   6.567   1.314
 2599SOL    HW2 8697   1.705   6.445   1.249
 2600SOL     OW 8698   5.275   3.145   4.930
 2600SOL    HW1 8699   5.284   3.075   5.000
 2600SOL    HW2 8700   5.179   3.155   4.905
 2601SOL     OW 8701   1.910   1.426   1.861
 2601SOL    HW1 8702   1.931   1.380   1.947
 2601SOL    HW2 8703   1.983   1.491   1.839
 2602SOL     OW 8704   1.249   4.590   4.461
 2602SOL    HW1 8705   1.280   4.666   4.518
 2602SOL    HW2 8706   1.328   4.545   4.418
 2603SOL     OW 8707   2.960   0.931   4.023
 2603SOL    HW1 8708   2.903   1.003   4.064
 2603SOL    HW2 8709   2.926   0.842   4.050
 2604SOL     OW 8710   4.789   1.894   2.364
 2604SOL    HW1 8711   4.804   1.930   2.456
 2604SOL    HW2 8712   4.721   1.821   2.368
 2605SOL     OW 8713   2.092   3.197   3.646
 2605SOL    HW1 8714   2.115   3.282   3.692
 2605SOL    HW2 8715   2.037   3.140   3.706
 2606SOL     OW 8716   5.438   4.525   1.918
 2606SOL    HW1 8717   5.440   4.524   2.018
 2606SOL    HW2 8718   5.388   4.446   1.885
 2607SOL     OW 8719   1.414   1.517   1.603
 2607SOL    HW1 8720   1.405   1.578   1.681
 2607SOL    HW2 8721   1.353   1.547   1.530
 2608SOL     OW 8722   5.107   5.124   0.372
 2608SOL    HW1 8723   5.205   5.138   0.375
 2608SOL    HW2 8724   5.062   5.205   0.334
 2609SOL     OW 8725   6.142   1.291   1.451
 2609SOL    HW1 8726   6.167   1.383   1.482
 2609SOL    HW2 8727   6.225   1.235   1.443
 2610SOL     OW 8728   1.046   4.498   4.611
 2610SOL    HW1 8729   1.096   4.559   4.548
 2610SOL    HW2 8730   1.056   4.531   4.704
 2611SOL     OW 8731   4.330   0.171   0.715
 2611SOL    HW1 8732   4.265   0.237   0.677
 2611SOL    HW2 8733   4.280   0.097   0.760
 2612SOL     OW 8734   6.353   7.028   5.021
 2612SOL    HW1 8735   6.440   6.999   4.983
 2612SOL    HW2 8736   6.282   7.024   4.950
 2613SOL     OW 8737   2.824   5.470   6.352
 2613SOL    HW1 8738   2.776   5.391   6.314
 2613SOL    HW2 8739   2.808   5.475   6.450
 2614SOL     OW 8740   6.466   1.577   6.281
 2614SOL    HW1 8741   6.451   1.636   6.360
 2614SOL    HW2 8742   6.411   1.609   6.204
 2615SOL     OW 8743   0.894   3.490   2.238
 2615SOL    HW1 8744   0.884   3.424   2.312
 2615SOL    HW2 8745   0.833   3.567   2.254
 2616SOL     OW 8746   3.038   2.582   5.813
 2616SOL    HW1 8747   2.969   2.648   5.782
 2616SOL    HW2 8748   3.110   2.574   5.745
 2617SOL     OW 8749   3.662   6.889   0.523
 2617SOL    HW1 8750   3.577   6.881   0.471
 2617SOL    HW2 8751   3.641   6.919   0.617
 2618SOL     OW 8752   6.629   0.459   3.537
 2618SOL    HW1 8753   6.583   0.378   3.500
 2618SOL    HW2 8754   6.728   0.441   3.542
 2619SOL     OW 8755   4.556   2.176   2.396
 2619SOL    HW1 8756   4.524   2.103   2.336
 2619SOL    HW2 8757   4.553   2.263   2.348
 2620SOL     OW 8758   6.203   6.876   3.216
 2620SOL    HW1 8759   6.185   6.972   3.239
 2620SOL    HW2 8760   6.267   6.872   3.139
 2621SOL     OW 8761   0.720   5.048   1.990
 2621SOL    HW1 8762   0.697   5.096   1.906
 2621SOL    HW2 8763   0.745   5.114   2.061
 2622SOL     OW 8764   1.893   3.542   5.007
 2622SOL    HW1 8765   1.939   3.501   4.928
 2622SOL    HW2 8766   1.876   3.639   4.989
 2623SOL     OW 8767   0.382   1.066   5.440
 2623SOL    HW1 8768   0.286   1.094   5.440
 2623SOL    HW2 8769   0.388   0.967   5.452
 2624SOL     OW 8770   0.259   1.019   4.670
 2624SOL    HW1 8771   0.275   1.038   4.767
 2624SOL    HW2 8772   0.307   1.086   4.614
 2625SOL     OW 8773   2.590   3.949   5.302
 2625SOL    HW1 8774   2.650   3.920   5.228
 2625SOL    HW2 8775   2.511   3.998   5.265
 2626SOL     OW 8776   7.017   0.454   5.727
 2626SOL    HW1 8777   6.937   0.394   5.726
 2626SOL    HW2 8778   7.018   0.511   5.645
 2627SOL     OW 8779   0.608   0.960   6.035
 2627SOL    HW1 8780   0.523   0.973   6.086
 2627SOL    HW2 8781   0.587   0.916   5.947
 2628SOL     OW 8782   2.129   4.067   5.846
 2628SOL    HW1 8783   2.224   4.039   5.859
 2628SOL    HW2 8784   2.126   4.150   5.791
 2629SOL     OW 8785   3.893   3.238   2.197
 2629SOL    HW1 8786   3.916   3.167   2.130
 2629SOL    HW2 8787   3.889   3.199   2.288
 2630SOL     OW 8788   2.990   1.805   2.893
 2630SOL    HW1 8789   2.982   1.905   2.897
 2630SOL    HW2 8790   3.054   1.774   2.963
 2631SOL     OW 8791   5.426   0.529   6.071
 2631SOL    HW1 8792   5.373   0.614   6.078
 2631SOL    HW2 8793   5.408   0.472   6.151
 2632SOL     OW 8794   5.654   3.118   0.187
 2632SOL    HW1 8795   5.557   3.094   0.190
 2632SOL    HW2 8796   5.704   3.063   0.255
 2633SOL     OW 8797   0.667   1.880   4.514
 2633SOL    HW1 8798   0.585   1.829   4.490
 2633SOL    HW2 8799   0.694   1.937   4.437
 2634SOL     OW 8800   0.544   4.655   3.826
 2634SOL    HW1 8801   0.595   4.628   3.907
 2634SOL    HW2 8802   0.606   4.694   3.758
 2635SOL     OW 8803   0.002   6.257   5.039
 2635SOL    HW1 8804   0.095   6.291   5.026
 2635SOL    HW2 8805   7.018   6.171   4.989
 2636SOL     OW 8806   4.173   0.439   5.383
 2636SOL    HW1 8807   4.099   0.382   5.348
 2636SOL    HW2 8808   4.150   0.469   5.476
 2637SOL     OW 8809   5.883   1.590   3.543
 2637SOL    HW1 8810   5.884   1.523   3.469
 2637SOL    HW2 8811   5.943   1.667   3.519
 2638SOL     OW 8812   0.039   0.052   4.015
 2638SOL    HW1 8813   0.109   0.122   4.029
 2638SOL    HW2 8814   0.082   6.990   4.013
 2639SOL     OW 8815   0.456   5.818   0.501
 2639SOL    HW1 8816   0.477   5.915   0.516
 2639SOL    HW2 8817   0.357   5.808   0.487
 2640SOL     OW 8818   0.037   6.149   5.386
 2640SOL    HW1 8819   6.998   6.148   5.311
 2640SOL    HW2 8820   0.091   6.066   5.384
 2641SOL     OW 8821   5.714   2.929   2.116
 2641SOL    HW1 8822   5.785   2.976   2.062
 2641SOL    HW2 8823   5.742   2.834   2.130
 2642SOL     OW 8824   5.513   0.674   3.654
 2642SOL    HW1 8825   5.464   0.693   3.569
 2642SOL    HW2 8826   5.592   0.735   3.661
 2643SOL     OW 8827   1.218   3.869   3.463
 2643SOL    HW1 8828   1.248   3.817   3.383
 2643SOL    HW2 8829   1.220   3.967   3.443
 2644SOL     OW 8830   4.979   5.112   5.131
 2644SOL    HW1 8831   5.058   5.145   5.183
 2644SOL    HW2 8832   5.000   5.023   5.092
 2645SOL     OW 8833   3.950   5.784   3.435
 2645SOL    HW1 8834   3.970   5.881   3.444
 2645SOL    HW2 8835   3.861   5.772   3.390
 2646SOL     OW 8836   6.239   1.621   6.548
 2646SOL    HW1 8837   6.179   1.661   6.618
 2646SOL    HW2 8838   6.243   1.522   6.560
 2647SOL     OW 8839   6.185   6.889   1.538
 2647SOL    HW1 8840   6.150   6.911   1.629
 2647SOL    HW2 8841   6.283   6.870   1.544
 2648SOL     OW 8842   1.105   6.539   3.496
 2648SOL    HW1 8843   1.040   6.601   3.541
 2648SOL    HW2 8844   1.184   6.592   3.465
 2649SOL     OW 8845   6.617   3.305   0.941
 2649SOL    HW1 8846   6.702   3.253   0.940
 2649SOL    HW2 8847   6.593   3.326   1.036
 2650SOL     OW 8848   1.732   4.899   3.652
 2650SOL    HW1 8849   1.807   4.946   3.606
 2650SOL    HW2 8850   1.693   4.959   3.721
 2651SOL     OW 8851   2.540   1.699   1.160
 2651SOL    HW1 8852   2.459   1.741   1.119
 2651SOL    HW2 8853   2.617   1.763   1.153
 2652SOL     OW 8854   4.205   3.436   5.351
 2652SOL    HW1 8855   4.176   3.355   5.300
 2652SOL    HW2 8856   4.235   3.507   5.287
 2653SOL     OW 8857   4.646   0.003   5.867
 2653SOL    HW1 8858   4.689   6.954   5.820
 2653SOL    HW2 8859   4.671   0.089   5.822
 2654SOL     OW 8860   4.278   6.928   1.529
 2654SOL    HW1 8861   4.206   6.871   1.569
 2654SOL    HW2 8862   4.238   7.012   1.493
 2655SOL     OW 8863   5.800   6.497   3.805
 2655SOL    HW1 8864   5.869   6.562   3.773
 2655SOL    HW2 8865   5.713   6.546   3.819
 2656SOL     OW 8866   3.372   5.129   4.242
 2656SOL    HW1 8867   3.378   5.198   4.314
 2656SOL    HW2 8868   3.289   5.075   4.255
 2657SOL     OW 8869   1.277   4.139   6.697
 2657SOL    HW1 8870   1.190   4.094   6.716
 2657SOL    HW2 8871   1.275   4.233   6.731
 2658SOL     OW 8872   5.578   4.722   0.251
 2658SOL    HW1 8873   5.619   4.742   0.340
 2658SOL    HW2 8874   5.601   4.796   0.187
 2659SOL     OW 8875   4.816   2.834   5.013
 2659SOL    HW1 8876   4.906   2.812   5.051
 2659SOL    HW2 8877   4.828   2.890   4.931
 2660SOL     OW 8878   1.186   6.813   1.907
 2660SOL    HW1 8879   1.188   6.763   1.820
 2660SOL    HW2 8880   1.091   6.828   1.934
 2661SOL     OW 8881   1.974   6.803   1.372
 2661SOL    HW1 8882   1.933   6.814   1.281
 2661SOL    HW2 8883   2.073   6.791   1.363
 2662SOL     OW 8884   3.557   6.680   5.652
 2662SOL    HW1 8885   3.485   6.642   5.709
 2662SOL    HW2 8886   3.646   6.648   5.686
 2663SOL     OW 8887   3.737   4.428   0.004
 2663SOL    HW1 8888   3.770   4.383   0.086
 2663SOL    HW2 8889   3.813   4.471   6.983
 2664SOL     OW 8890   4.369   3.646   5.754
 2664SOL    HW1 8891   4.298   3.601   5.700
 2664SOL    HW2 8892   4.418   3.579   5.810
 2665SOL     OW 8893   3.082   3.089   5.182
 2665SOL    HW1 8894   3.132   3.004   5.165
 2665SOL    HW2 8895   3.024   3.110   5.103
 2666SOL     OW 8896   0.596   4.873   1.409
 2666SOL    HW1 8897   0.664   4.943   1.386
 2666SOL    HW2 8898   0.638   4.782   1.399
 2667SOL     OW 8899   1.045   5.659   3.969
 2667SOL    HW1 8900   1.110   5.635   3.897
 2667SOL    HW2 8901   1.074   5.744   4.013
 2668SOL     OW 8902   0.125   3.234   5.167
 2668SOL    HW1 8903   0.082   3.311   5.120
 2668SOL    HW2 8904   0.138   3.257   5.264
 2669SOL     OW 8905   3.378   5.047   5.928
 2669SOL    HW1 8906   3.326   5.100   5.995
 2669SOL    HW2 8907   3.415   5.108   5.859
 2670SOL     OW 8908   5.948   3.855   5.454
 2670SOL    HW1 8909   6.039   3.822   5.479
 2670SOL    HW2 8910   5.945   3.875   5.356
 2671SOL     OW 8911   4.323   5.610   0.322
 2671SOL    HW1 8912   4.361   5.573   0.237
 2671SOL    HW2 8913   4.357   5.558   0.400
 2672SOL     OW 8914   2.398   5.230   0.991
 2672SOL    HW1 8915   2.349   5.150   1.026
 2672SOL    HW2 8916   2.400   5.228   0.891
 2673SOL     OW 8917   6.321   2.011   1.721
 2673SOL    HW1 8918   6.371   1.990   1.637
 2673SOL    HW2 8919   6.385   2.046   1.790
 2674SOL     OW 8920   1.655   4.334   3.941
 2674SOL    HW1 8921   1.629   4.278   4.021
 2674SOL    HW2 8922   1.578   4.393   3.916
 2675SOL     OW 8923   6.267   5.906   3.942
 2675SOL    HW1 8924   6.281   5.876   4.036
 2675SOL    HW2 8925   6.352   5.945   3.906
 2676SOL     OW 8926   3.327   3.142   1.210
 2676SOL    HW1 8927   3.276   3.227   1.222
 2676SOL    HW2 8928   3.370   3.116   1.298
 2677SOL     OW 8929   2.782   4.188   0.069
 2677SOL    HW1 8930   2.705   4.166   0.009
 2677SOL    HW2 8931   2.834   4.264   0.031
 2678SOL     OW 8932   0.294   2.179   2.161
 2678SOL    HW1 8933   0.272   2.084   2.181
 2678SOL    HW2 8934   0.260   2.238   2.235
 2679SOL     OW 8935   2.284   5.021   2.015
 2679SOL    HW1 8936   2.198   5.072   2.002
 2679SOL    HW2 8937   2.356   5.065   1.961
 2680SOL     OW 8938   0.980   1.967   1.206
 2680SOL    HW1 8939   0.912   2.033   1.175
 2680SOL    HW2 8940   1.012   1.912   1.129
 2681SOL     OW 8941   1.315   2.316   5.358
 2681SOL    HW1 8942   1.225   2.357   5.369
 2681SOL    HW2 8943   1.384   2.388   5.351
 2682SOL     OW 8944   4.802   4.739   3.798
 2682SOL    HW1 8945   4.869   4.795   3.845
 2682SOL    HW2 8946   4.847   4.661   3.755
 2683SOL     OW 8947   2.761   5.149   1.930
 2683SOL    HW1 8948   2.666   5.161   1.959
 2683SOL    HW2 8949   2.765   5.089   1.851
 2684SOL     OW 8950   4.338   6.585   2.001
 2684SOL    HW1 8951   4.325   6.567   1.903
 2684SOL    HW2 8952   4.256   6.554   2.050
 2685SOL     OW 8953   6.215   5.748   6.542
 2685SOL    HW1 8954   6.143   5.815   6.526
 2685SOL    HW2 8955   6.202   5.670   6.481
 2686SOL     OW 8956   1.919   1.752   5.890
 2686SOL    HW1 8957   1.857   1.716   5.821
 2686SOL    HW2 8958   1.964   1.677   5.937
 2687SOL     OW 8959   5.168   5.823   1.585
 2687SOL    HW1 8960   5.218   5.877   1.517
 2687SOL    HW2 8961   5.072   5.850   1.585
 2688SOL     OW 8962   2.853   2.679   0.398
 2688SOL    HW1 8963   2.801   2.649   0.478
 2688SOL    HW2 8964   2.819   2.768   0.368
 2689SOL     OW 8965   0.605   3.919   2.412
 2689SOL    HW1 8966   0.567   3.946   2.501
 2689SOL    HW2 8967   0.531   3.902   2.347
 2690SOL     OW 8968   3.837   3.458   4.992
 2690SOL    HW1 8969   3.935   3.446   5.009
 2690SOL    HW2 8970   3.788   3.376   5.024
 2691SOL     OW 8971   0.691   5.422   3.654
 2691SOL    HW1 8972   0.732   5.456   3.739
 2691SOL    HW2 8973   0.605   5.470   3.637
 2692SOL     OW 8974   2.588   6.438   3.632
 2692SOL    HW1 8975   2.502   6.425   3.582
 2692SOL    HW2 8976   2.664   6.445   3.567
 2693SOL     OW 8977   2.207   5.131   3.833
 2693SOL    HW1 8978   2.250   5.209   3.789
 2693SOL    HW2 8979   2.108   5.134   3.820
 2694SOL     OW 8980   4.092   6.462   2.903
 2694SOL    HW1 8981   4.012   6.515   2.875
 2694SOL    HW2 8982   4.099   6.462   3.003
 2695SOL     OW 8983   5.743   1.026   2.208
 2695SOL    HW1 8984   5.665   0.963   2.213
 2695SOL    HW2 8985   5.709   1.120   2.212
 2696SOL     OW 8986   3.615   3.012   5.957
 2696SOL    HW1 8987   3.601   2.940   6.025
 2696SOL    HW2 8988   3.574   2.983   5.870
 2697SOL     OW 8989   3.398   1.238   2.965
 2697SOL    HW1 8990   3.396   1.314   3.030
 2697SOL    HW2 8991   3.493   1.208   2.952
 2698SOL     OW 8992   1.743   4.478   0.578
 2698SOL    HW1 8993   1.733   4.540   0.500
 2698SOL    HW2 8994   1.840   4.456   0.591
 2699SOL     OW 8995   2.716   5.534   1.115
 2699SOL    HW1 8996   2.738   5.618   1.065
 2699SOL    HW2 8997   2.757   5.538   1.206
 2700SOL     OW 8998   2.572   2.629   0.859
 2700SOL    HW1 8999   2.507   2.589   0.795
 2700SOL    HW2 9000   2.650   2.667   0.809
 2701SOL     OW 9001   5.196   2.045   6.237
 2701SOL    HW1 9002   5.220   2.058   6.333
 2701SOL    HW2 9003   5.233   1.958   6.205
 2702SOL     OW 9004   0.466   2.684   3.609
 2702SOL    HW1 9005   0.369   2.664   3.601
 2702SOL    HW2 9006   0.490   2.757   3.545
 2703SOL     OW 9007   1.146   6.483   0.644
 2703SOL    HW1 9008   1.112   6.402   0.693
 2703SOL    HW2 9009   1.101   6.489   0.555
 2704SOL     OW 9010   6.615   5.748   1.870
 2704SOL    HW1 9011   6.615   5.701   1.782
 2704SOL    HW2 9012   6.638   5.683   1.943
 2705SOL     OW 9013   6.185   6.903   4.823
 2705SOL    HW1 9014   6.198   6.846   4.742
 2705SOL    HW2 9015   6.197   6.847   4.905
 2706SOL     OW 9016   6.202   4.918   3.246
 2706SOL    HW1 9017   6.199   4.989   3.317
 2706SOL    HW2 9018   6.245   4.954   3.164
 2707SOL     OW 9019   3.713   0.386   4.215
 2707SOL    HW1 9020   3.697   0.338   4.128
 2707SOL    HW2 9021   3.660   0.470   4.217
 2708SOL     OW 9022   6.394   2.874   1.095
 2708SOL    HW1 9023   6.329   2.811   1.052
 2708SOL    HW2 9024   6.383   2.966   1.056
 2709SOL     OW 9025   5.361   0.017   0.067
 2709SOL    HW1 9026   5.439   0.079   0.064
 2709SOL    HW2 9027   5.282   0.060   0.024
 2710SOL     OW 9028   1.128   2.960   4.125
 2710SOL    HW1 9029   1.052   3.023   4.139
 2710SOL    HW2 9030   1.135   2.937   4.028
 2711SOL     OW 9031   3.068   1.269   3.440
 2711SOL    HW1 9032   3.081   1.181   3.485
 2711SOL    HW2 9033   3.020   1.331   3.503
 2712SOL     OW 9034   2.549   4.713   1.319
 2712SOL    HW1 9035   2.499   4.691   1.403
 2712SOL    HW2 9036   2.630   4.767   1.342
 2713SOL     OW 9037   2.399   3.138   6.230
 2713SOL    HW1 9038   2.413   3.205   6.304
 2713SOL    HW2 9039   2.412   3.046   6.266
 2714SOL     OW 9040   4.215   2.177   6.931
 2714SOL    HW1 9041   4.132   2.121   6.936
 2714SOL    HW2 9042   4.289   2.131   6.980
 2715SOL     OW 9043   5.480   2.827   1.092
 2715SOL    HW1 9044   5.452   2.787   1.179
 2715SOL    HW2 9045   5.516   2.755   1.032
 2716SOL     OW 9046   5.006   3.353   3.554
 2716SOL    HW1 9047   5.105   3.369   3.551
 2716SOL    HW2 9048   4.966   3.379   3.466
 2717SOL     OW 9049   0.507   0.009   2.346
 2717SOL    HW1 9050   0.428   7.027   2.405
 2717SOL    HW2 9051   0.477   0.019   2.251
 2718SOL     OW 9052   1.261   1.223   5.457
 2718SOL    HW1 9053   1.309   1.142   5.492
 2718SOL    HW2 9054   1.291   1.304   5.509
 2719SOL     OW 9055   0.554   4.762   1.817
 2719SOL    HW1 9056   0.641   4.810   1.800
 2719SOL    HW2 9057   0.480   4.829   1.821
 2720SOL     OW 9058   1.565   6.844   2.215
 2720SOL    HW1 9059   1.552   6.864   2.312
 2720SOL    HW2 9060   1.568   6.929   2.163
 2721SOL     OW 9061   3.124   6.224   3.662
 2721SOL    HW1 9062   3.034   6.185   3.679
 2721SOL    HW2 9063   3.195   6.163   3.698
 2722SOL     OW 9064   5.938   5.224   0.604
 2722SOL    HW1 9065   6.029   5.229   0.562
 2722SOL    HW2 9066   5.947   5.237   0.703
 2723SOL     OW 9067   1.081   5.656   6.032
 2723SOL    HW1 9068   1.081   5.679   5.935
 2723SOL    HW2 9069   0.992   5.618   6.058
 2724SOL     OW 9070   1.961   5.964   6.523
 2724SOL    HW1 9071   1.911   6.051   6.525
 2724SOL    HW2 9072   2.054   5.979   6.558
 2725SOL     OW 9073   4.943   4.668   4.735
 2725SOL    HW1 9074   4.901   4.758   4.747
 2725SOL    HW2 9075   5.037   4.680   4.701
 2726SOL     OW 9076   0.311   2.396   1.821
 2726SOL    HW1 9077   0.275   2.478   1.777
 2726SOL    HW2 9078   0.339   2.418   1.915
 2727SOL     OW 9079   0.925   4.710   3.804
 2727SOL    HW1 9080   0.847   4.773   3.812
 2727SOL    HW2 9081   0.996   4.736   3.870
 2728SOL     OW 9082   4.549   6.729   5.030
 2728SOL    HW1 9083   4.450   6.718   5.026
 2728SOL    HW2 9084   4.588   6.718   4.939
 2729SOL     OW 9085   0.278   6.044   0.697
 2729SOL    HW1 9086   0.353   6.072   0.758
 2729SOL    HW2 9087   0.194   6.089   0.725
 2730SOL     OW 9088   1.376   5.471   1.972
 2730SOL    HW1 9089   1.314   5.545   1.946
 2730SOL    HW2 9090   1.469   5.507   1.977
 2731SOL     OW 9091   2.910   3.640   3.434
 2731SOL    HW1 9092   2.942   3.734   3.445
 2731SOL    HW2 9093   2.901   3.618   3.337
 2732SOL     OW 9094   5.835   2.496   1.796
 2732SOL    HW1 9095   5.832   2.504   1.896
 2732SOL    HW2 9096   5.761   2.549   1.756
 2733SOL     OW 9097   6.332   1.753   5.121
 2733SOL    HW1 9098   6.329   1.684   5.193
 2733SOL    HW2 9099   6.276   1.832   5.148
 2734SOL     OW 9100   2.963   5.455   0.826
 2734SOL    HW1 9101   2.992   5.541   0.785
 2734SOL    HW2 9102   2.880   5.422   0.781
 2735SOL     OW 9103   1.582   2.796   1.838
 2735SOL    HW1 9104   1.625   2.764   1.922
 2735SOL    HW2 9105   1.486   2.766   1.835
 2736SOL     OW 9106   6.230   6.229   4.408
 2736SOL    HW1 9107   6.158   6.160   4.412
 2736SOL    HW2 9108   6.225   6.287   4.489
 2737SOL     OW 9109   2.979   4.285   5.342
 2737SOL    HW1 9110   2.993   4.206   5.283
 2737SOL    HW2 9111   2.954   4.364   5.286
 2738SOL     OW 9112   4.998   6.421   1.975
 2738SOL    HW1 9113   5.062   6.345   1.978
 2738SOL    HW2 9114   4.905   6.387   1.989
 2739SOL     OW 9115   1.707   5.046   0.948
 2739SOL    HW1 9116   1.721   5.143   0.930
 2739SOL    HW2 9117   1.761   5.019   1.028
 2740SOL     OW 9118   6.566   4.462   1.716
 2740SOL    HW1 9119   6.586   4.372   1.757
 2740SOL    HW2 9120   6.498   4.451   1.643
 2741SOL     OW 9121   6.219   0.668   4.733
 2741SOL    HW1 9122   6.297   0.636   4.678
 2741SOL    HW2 9123   6.252   0.697   4.823
 2742SOL     OW 9124   1.390   5.137   0.363
 2742SOL    HW1 9125   1.425   5.215   0.414
 2742SOL    HW2 9126   1.312   5.166   0.307
 2743SOL     OW 9127   6.882   4.371   2.906
 2743SOL    HW1 9128   6.891   4.326   2.995
 2743SOL    HW2 9129   6.971   4.374   2.861
 2744SOL     OW 9130   4.788   2.280   0.318
 2744SOL    HW1 9131   4.765   2.347   0.388
 2744SOL    HW2 9132   4.719   2.207   0.318
 2745SOL     OW 9133   0.032   0.845   4.738
 2745SOL    HW1 9134   0.120   0.875   4.701
 2745SOL    HW2 9135   7.009   0.924   4.773
 2746SOL     OW 9136   0.941   2.635   4.640
 2746SOL    HW1 9137   0.926   2.657   4.736
 2746SOL    HW2 9138   1.031   2.593   4.629
 2747SOL     OW 9139   4.810   5.063   6.863
 2747SOL    HW1 9140   4.758   5.087   6.781
 2747SOL    HW2 9141   4.750   5.013   6.926
 2748SOL     OW 9142   4.588   1.148   2.566
 2748SOL    HW1 9143   4.616   1.153   2.662
 2748SOL    HW2 9144   4.665   1.175   2.508
 2749SOL     OW 9145   0.175   4.134   1.126
 2749SOL    HW1 9146   0.223   4.147   1.039
 2749SOL    HW2 9147   0.240   4.106   1.196
 2750SOL     OW 9148   1.628   3.436   0.873
 2750SOL    HW1 9149   1.559   3.392   0.816
 2750SOL    HW2 9150   1.696   3.369   0.902
 2751SOL     OW 9151   1.429   3.138   1.503
 2751SOL    HW1 9152   1.397   3.160   1.411
 2751SOL    HW2 9153   1.360   3.084   1.550
 2752SOL     OW 9154   3.556   4.738   5.496
 2752SOL    HW1 9155   3.626   4.698   5.555
 2752SOL    HW2 9156   3.516   4.665   5.439
 2753SOL     OW 9157   6.815   6.561   5.281
 2753SOL    HW1 9158   6.887   6.558   5.212
 2753SOL    HW2 9159   6.759   6.644   5.268
 2754SOL     OW 9160   0.894   0.474   1.177
 2754SOL    HW1 9161   0.843   0.471   1.263
 2754SOL    HW2 9162   0.864   0.554   1.124
 2755SOL     OW 9163   2.708   6.844   2.140
 2755SOL    HW1 9164   2.805   6.867   2.142
 2755SOL    HW2 9165   2.682   6.803   2.227
 2756SOL     OW 9166   5.730   5.250   0.177
 2756SOL    HW1 9167   5.640   5.213   0.155
 2756SOL    HW2 9168   5.799   5.209   0.118
 2757SOL     OW 9169   2.638   6.655   6.642
 2757SOL    HW1 9170   2.692   6.660   6.558
 2757SOL    HW2 9171   2.598   6.745   6.661
 2758SOL     OW 9172   3.759   6.297   4.347
 2758SOL    HW1 9173   3.670   6.320   4.309
 2758SOL    HW2 9174   3.830   6.347   4.297
 2759SOL     OW 9175   5.034   6.832   6.043
 2759SOL    HW1 9176   4.962   6.881   6.092
 2759SOL    HW2 9177   5.097   6.790   6.108
 2760SOL     OW 9178   0.805   6.394   1.716
 2760SOL    HW1 9179   0.893   6.353   1.691
 2760SOL    HW2 9180   0.733   6.354   1.661
 2761SOL     OW 9181   2.023   5.583   4.480
 2761SOL    HW1 9182   2.111   5.572   4.527
 2761SOL    HW2 9183   1.975   5.662   4.518
 2762SOL     OW 9184   1.524   1.230   5.789
 2762SOL    HW1 9185   1.471   1.187   5.863
 2762SOL    HW2 9186   1.584   1.162   5.748
 2763SOL     OW 9187   5.358   1.564   3.513
 2763SOL    HW1 9188   5.372   1.662   3.499
 2763SOL    HW2 9189   5.261   1.542   3.502
 2764SOL     OW 9190   5.563   1.045   0.895
 2764SOL    HW1 9191   5.593   1.137   0.874
 2764SOL    HW2 9192   5.514   1.045   0.982
 2765SOL     OW 9193   6.107   6.738   1.025
 2765SOL    HW1 9194   6.042   6.810   0.998
 2765SOL    HW2 9195   6.142   6.758   1.116
 2766SOL     OW 9196   4.993   2.098   0.351
 2766SOL    HW1 9197   4.938   2.180   0.339
 2766SOL    HW2 9198   4.936   2.024   0.385
 2767SOL     OW 9199   0.014   5.329   0.627
 2767SOL    HW1 9200   6.950   5.296   0.603
 2767SOL    HW2 9201   0.011   5.428   0.643
 2768SOL     OW 9202   4.320   0.778   0.785
 2768SOL    HW1 9203   4.404   0.754   0.738
 2768SOL    HW2 9204   4.269   0.844   0.731
 2769SOL     OW 9205   1.552   4.170   4.167
 2769SOL    HW1 9206   1.505   4.094   4.122
 2769SOL    HW2 9207   1.650   4.150   4.174
 2770SOL     OW 9208   3.639   5.621   5.560
 2770SOL    HW1 9209   3.589   5.604   5.644
 2770SOL    HW2 9210   3.680   5.535   5.527
 2771SOL     OW 9211   6.478   0.927   3.172
 2771SOL    HW1 9212   6.524   1.016   3.174
 2771SOL    HW2 9213   6.528   0.862   3.230
 2772SOL     OW 9214   4.106   1.395   1.095
 2772SOL    HW1 9215   4.034   1.463   1.110
 2772SOL    HW2 9216   4.149   1.412   1.006
 2773SOL     OW 9217   6.319   2.482   5.264
 2773SOL    HW1 9218   6.312   2.468   5.165
 2773SOL    HW2 9219   6.415   2.500   5.288
 2774SOL     OW 9220   5.870   3.510   3.203
 2774SOL    HW1 9221   5.831   3.601   3.191
 2774SOL    HW2 9222   5.843   3.452   3.126
 2775SOL     OW 9223   0.282   6.058   6.590
 2775SOL    HW1 9224   0.343   5.983   6.616
 2775SOL    HW2 9225   0.283   6.070   6.491
 2776SOL     OW 9226   4.232   5.172   5.717
 2776SOL    HW1 9227   4.251   5.202   5.810
 2776SOL    HW2 9228   4.308   5.118   5.683
 2777SOL     OW 9229   2.484   1.214   2.145
 2777SOL    HW1 9230   2.434   1.184   2.226
 2777SOL    HW2 9231   2.504   1.135   2.087
 2778SOL     OW 9232   1.507   6.958   5.634
 2778SOL    HW1 9233   1.486   6.963   5.537
 2778SOL    HW2 9234   1.495   6.865   5.667
 2779SOL     OW 9235   4.966   6.469   1.127
 2779SOL    HW1 9236   4.929   6.377   1.135
 2779SOL    HW2 9237   5.026   6.474   1.047
 2780SOL     OW 9238   6.663   6.285   6.951
 2780SOL    HW1 9239   6.738   6.289   6.884
 2780SOL    HW2 9240   6.625   6.377   6.964
 2781SOL     OW 9241   5.119   6.660   1.846
 2781SOL    HW1 9242   5.215   6.633   1.838
 2781SOL    HW2 9243   5.074   6.604   1.916
 2782SOL     OW 9244   3.802   1.902   5.949
 2782SOL    HW1 9245   3.704   1.900   5.934
 2782SOL    HW2 9246   3.821   1.930   6.044
 2783SOL     OW 9247   4.961   4.261   3.851
 2783SOL    HW1 9248   4.983   4.224   3.761
 2783SOL    HW2 9249   4.892   4.204   3.895
 2784SOL     OW 9250   3.774   1.507   2.081
 2784SOL    HW1 9251   3.781   1.605   2.098
 2784SOL    HW2 9252   3.774   1.458   2.168
 2785SOL     OW 9253   4.744   1.388   0.699
 2785SOL    HW1 9254   4.715   1.442   0.779
 2785SOL    HW2 9255   4.757   1.449   0.621
 2786SOL     OW 9256   4.906   0.170   1.986
 2786SOL    HW1 9257   4.901   0.076   2.018
 2786SOL    HW2 9258   4.863   0.231   2.053
 2787SOL     OW 9259   3.685   1.755   6.534
 2787SOL    HW1 9260   3.716   1.842   6.573
 2787SOL    HW2 9261   3.586   1.756   6.524
 2788SOL     OW 9262   2.360   4.607   6.042
 2788SOL    HW1 9263   2.455   4.598   6.012
 2788SOL    HW2 9264   2.299   4.595   5.964
 2789SOL     OW 9265   1.899   2.383   3.747
 2789SOL    HW1 9266   1.969   2.313   3.732
 2789SOL    HW2 9267   1.884   2.394   3.846
 2790SOL     OW 9268   3.037   5.818   2.078
 2790SOL    HW1 9269   2.959   5.836   2.018
 2790SOL    HW2 9270   3.073   5.727   2.060
 2791SOL     OW 9271   0.922   3.327   2.995
 2791SOL    HW1 9272   0.833   3.300   3.031
 2791SOL    HW2 9273   0.924   3.426   2.980
 2792SOL     OW 9274   2.135   6.876   3.803
 2792SOL    HW1 9275   2.192   6.793   3.802
 2792SOL    HW2 9276   2.053   6.860   3.749
 2793SOL     OW 9277   5.456   3.638   3.125
 2793SOL    HW1 9278   5.480   3.611   3.218
 2793SOL    HW2 9279   5.357   3.626   3.112
 2794SOL     OW 9280   0.137   2.642   6.601
 2794SOL    HW1 9281   0.132   2.679   6.508
 2794SOL    HW2 9282   0.233   2.630   6.626
 2795SOL     OW 9283   1.555   2.739   0.384
 2795SOL    HW1 9284   1.643   2.692   0.395
 2795SOL    HW2 9285   1.485   2.673   0.358
 2796SOL     OW 9286   6.978   5.966   2.827
 2796SOL    HW1 9287   7.012   6.060   2.835
 2796SOL    HW2 9288   0.027   5.902   2.834
 2797SOL     OW 9289   5.705   5.318   4.335
 2797SOL    HW1 9290   5.745   5.392   4.280
 2797SOL    HW2 9291   5.702   5.345   4.431
 2798SOL     OW 9292   0.325   5.144   2.001
 2798SOL    HW1 9293   0.401   5.172   2.059
 2798SOL    HW2 9294   0.261   5.220   1.991
 2799SOL     OW 9295   5.951   5.865   6.878
 2799SOL    HW1 9296   6.031   5.897   6.828
 2799SOL    HW2 9297   5.911   5.941   6.929
 2800SOL     OW 9298   4.936   5.669   0.494
 2800SOL    HW1 9299   4.863   5.659   0.562
 2800SOL    HW2 9300   4.916   5.611   0.415
 2801SOL     OW 9301   6.317   5.673   6.230
 2801SOL    HW1 9302   6.256   5.713   6.161
 2801SOL    HW2 9303   6.279   5.586   6.262
 2802SOL     OW 9304   5.273   1.360   5.259
 2802SOL    HW1 9305   5.174   1.357   5.272
 2802SOL    HW2 9306   5.297   1.311   5.175
 2803SOL     OW 9307   4.112   6.015   6.757
 2803SOL    HW1 9308   4.169   6.092   6.729
 2803SOL    HW2 9309   4.032   6.010   6.697
 2804SOL     OW 9310   0.367   5.054   5.067
 2804SOL    HW1 9311   0.437   4.985   5.048
 2804SOL    HW2 9312   0.338   5.096   4.981
 2805SOL     OW 9313   5.390   3.402   1.642
 2805SOL    HW1 9314   5.322   3.332   1.663
 2805SOL    HW2 9315   5.349   3.493   1.648
 2806SOL     OW 9316   6.612   4.954   5.963
 2806SOL    HW1 9317   6.543   4.995   5.903
 2806SOL    HW2 9318   6.700   4.951   5.916
 2807SOL     OW 9319   5.020   6.434   4.244
 2807SOL    HW1 9320   5.112   6.435   4.283
 2807SOL    HW2 9321   4.972   6.350   4.271
 2808SOL     OW 9322   5.632   3.922   2.597
 2808SOL    HW1 9323   5.624   3.888   2.503
 2808SOL    HW2 9324   5.643   3.845   2.660
 2809SOL     OW 9325   6.010   3.179   1.244
 2809SOL    HW1 9326   6.027   3.220   1.334
 2809SOL    HW2 9327   5.920   3.209   1.211
 2810SOL     OW 9328   3.430   5.183   3.254
 2810SOL    HW1 9329   3.486   5.216   3.330
 2810SOL    HW2 9330   3.402   5.260   3.197
 2811SOL     OW 9331   1.112   1.903   3.514
 2811SOL    HW1 9332   1.168   1.907   3.596
 2811SOL    HW2 9333   1.096   1.808   3.488
 2812SOL     OW 9334   5.005   4.055   6.300
 2812SOL    HW1 9335   4.981   4.070   6.395
 2812SOL    HW2 9336   5.100   4.081   6.285
 2813SOL     OW 9337   6.873   6.848   6.061
 2813SOL    HW1 9338   6.822   6.771   6.099
 2813SOL    HW2 9339   6.938   6.881   6.129
 2814SOL     OW 9340   3.959   3.525   5.445
 2814SOL    HW1 9341   4.029   3.468   5.402
 2814SOL    HW2 9342   3.983   3.621   5.434
 2815SOL     OW 9343   6.032   0.216   5.479
 2815SOL    HW1 9344   5.974   0.178   5.551
 2815SOL    HW2 9345   6.098   0.148   5.449
 2816SOL     OW 9346   6.707   5.602   3.151
 2816SOL    HW1 9347   6.725   5.587   3.248
 2816SOL    HW2 9348   6.608   5.608   3.136
 2817SOL     OW 9349   2.623   6.989   1.304
 2817SOL    HW1 9350   2.688   0.004   1.367
 2817SOL    HW2 9351   2.530   7.020   1.325
 2818SOL     OW 9352   0.090   0.760   0.743
 2818SOL    HW1 9353   0.055   0.709   0.822
 2818SOL    HW2 9354   0.143   0.698   0.685
 2819SOL     OW 9355   0.560   1.232   1.600
 2819SOL    HW1 9356   0.505   1.210   1.519
 2819SOL    HW2 9357   0.505   1.282   1.666
 2820SOL     OW 9358   0.897   2.917   3.046
 2820SOL    HW1 9359   0.913   2.824   3.079
 2820SOL    HW2 9360   0.895   2.918   2.946
 2821SOL     OW 9361   4.181   3.264   6.975
 2821SOL    HW1 9362   4.125   3.214   0.013
 2821SOL    HW2 9363   4.123   3.306   6.906
 2822SOL     OW 9364   4.302   1.765   0.303
 2822SOL    HW1 9365   4.347   1.805   0.223
 2822SOL    HW2 9366   4.372   1.728   0.365
 2823SOL     OW 9367   4.408   0.015   0.271
 2823SOL    HW1 9368   4.447   7.009   0.185
 2823SOL    HW2 9369   4.322   6.995   0.290
 2824SOL     OW 9370   3.323   1.437   3.473
 2824SOL    HW1 9371   3.238   1.385   3.470
 2824SOL    HW2 9372   3.332   1.483   3.562
 2825SOL     OW 9373   6.179   0.278   6.807
 2825SOL    HW1 9374   6.190   0.180   6.789
 2825SOL    HW2 9375   6.253   0.311   6.865
 2826SOL     OW 9376   4.888   1.251   6.533
 2826SOL    HW1 9377   4.868   1.236   6.630
 2826SOL    HW2 9378   4.877   1.348   6.511
 2827SOL     OW 9379   0.179   0.649   4.926
 2827SOL    HW1 9380   0.099   0.661   4.867
 2827SOL    HW2 9381   0.231   0.569   4.895
 2828SOL     OW 9382   2.844   1.155   6.755
 2828SOL    HW1 9383   2.927   1.117   6.796
 2828SOL    HW2 9384   2.772   1.086   6.756
 2829SOL     OW 9385   3.459   3.460   5.025
 2829SOL    HW1 9386   3.486   3.425   5.115
 2829SOL    HW2 9387   3.532   3.441   4.959
 2830SOL     OW 9388   1.745   3.353   5.971
 2830SOL    HW1 9389   1.697   3.302   6.042
 2830SOL    HW2 9390   1.791   3.288   5.909
 2831SOL     OW 9391   0.729   5.156   3.702
 2831SOL    HW1 9392   0.705   5.253   3.689
 2831SOL    HW2 9393   0.779   5.123   3.622
 2832SOL     OW 9394   0.761   2.190   2.444
 2832SOL    HW1 9395   0.853   2.207   2.408
 2832SOL    HW2 9396   0.738   2.263   2.509
 2833SOL     OW 9397   3.217   2.025   2.309
 2833SOL    HW1 9398   3.308   2.067   2.314
 2833SOL    HW2 9399   3.192   2.011   2.214
 2834SOL     OW 9400   3.887   5.102   6.667
 2834SOL    HW1 9401   3.979   5.068   6.649
 2834SOL    HW2 9402   3.885   5.201   6.652
 2835SOL     OW 9403   0.284   0.477   2.079
 2835SOL    HW1 9404   0.371   0.428   2.081
 2835SOL    HW2 9405   0.210   0.413   2.062
 2836SOL     OW 9406   6.426   0.154   2.420
 2836SOL    HW1 9407   6.401   0.118   2.330
 2836SOL    HW2 9408   6.356   0.129   2.487
 2837SOL     OW 9409   5.248   4.428   2.406
 2837SOL    HW1 9410   5.342   4.416   2.438
 2837SOL    HW2 9411   5.184   4.393   2.474
 2838SOL     OW 9412   2.157   3.781   1.132
 2838SOL    HW1 9413   2.257   3.777   1.138
 2838SOL    HW2 9414   2.124   3.862   1.180
 2839SOL     OW 9415   6.810   1.694   2.073
 2839SOL    HW1 9416   6.859   1.767   2.027
 2839SOL    HW2 9417   6.823   1.702   2.172
 2840SOL     OW 9418   1.925   1.039   3.079
 2840SOL    HW1 9419   1.995   1.102   3.047
 2840SOL    HW2 9420   1.968   0.952   3.105
 2841SOL     OW 9421   0.331   0.829   6.254
 2841SOL    HW1 9422   0.427   0.838   6.279
 2841SOL    HW2 9423   0.303   0.909   6.201
 2842SOL     OW 9424   0.526   3.853   4.189
 2842SOL    HW1 9425   0.565   3.922   4.127
 2842SOL    HW2 9426   0.471   3.899   4.259
 2843SOL     OW 9427   2.681   1.914   2.631
 2843SOL    HW1 9428   2.638   1.841   2.578
 2843SOL    HW2 9429   2.617   1.945   2.702
 2844SOL     OW 9430   0.068   4.856   0.587
 2844SOL    HW1 9431   0.108   4.943   0.615
 2844SOL    HW2 9432   7.009   4.872   0.541
 2845SOL     OW 9433   6.196   2.839   1.342
 2845SOL    HW1 9434   6.099   2.820   1.325
 2845SOL    HW2 9435   6.248   2.824   1.258
 2846SOL     OW 9436   4.021   1.155   6.718
 2846SOL    HW1 9437   3.986   1.094   6.647
 2846SOL    HW2 9438   3.947   1.177   6.782
 2847SOL     OW 9439   4.934   3.331   3.827
 2847SOL    HW1 9440   4.893   3.245   3.797
 2847SOL    HW2 9441   4.978   3.376   3.749
 2848SOL     OW 9442   1.485   2.574   5.032
 2848SOL    HW1 9443   1.569   2.606   4.986
 2848SOL    HW2 9444   1.502   2.565   5.130
 2849SOL     OW 9445   4.153   6.022   0.755
 2849SOL    HW1 9446   4.107   6.102   0.716
 2849SOL    HW2 9447   4.115   5.939   0.714
 2850SOL     OW 9448   1.487   0.330   2.185
 2850SOL    HW1 9449   1.573   0.381   2.170
 2850SOL    HW2 9450   1.453   0.297   2.097
 2851SOL     OW 9451   6.321   1.285   6.291
 2851SOL    HW1 9452   6.339   1.363   6.231
 2851SOL    HW2 9453   6.246   1.231   6.253
 2852SOL     OW 9454   5.851   4.278   6.794
 2852SOL    HW1 9455   5.880   4.328   6.712
 2852SOL    HW2 9456   5.930   4.235   6.837
 2853SOL     OW 9457   1.647   2.713   6.592
 2853SOL    HW1 9458   1.651   2.661   6.506
 2853SOL    HW2 9459   1.580   2.670   6.653
 2854SOL     OW 9460   4.261   1.442   5.384
 2854SOL    HW1 9461   4.165   1.418   5.398
 2854SOL    HW2 9462   4.267   1.539   5.358
 2855SOL     OW 9463   2.344   1.390   0.236
 2855SOL    HW1 9464   2.378   1.345   0.318
 2855SOL    HW2 9465   2.420   1.420   0.179
 2856SOL     OW 9466   1.330   3.199   5.438
 2856SOL    HW1 9467   1.256   3.266   5.444
 2856SOL    HW2 9468   1.410   3.232   5.488
 2857SOL     OW 9469   2.746   1.962   2.255
 2857SOL    HW1 9470   2.783   1.876   2.289
 2857SOL    HW2 9471   2.812   2.036   2.272
 2858SOL     OW 9472   4.869   4.184   2.592
 2858SOL    HW1 9473   4.801   4.257   2.588
 2858SOL    HW2 9474   4.823   4.096   2.607
 2859SOL     OW 9475   5.339   1.614   6.322
 2859SOL    HW1 9476   5.388   1.603   6.408
 2859SOL    HW2 9477   5.351   1.532   6.266
 2860SOL     OW 9478   3.140   1.368   1.961
 2860SOL    HW1 9479   3.110   1.402   2.051
 2860SOL    HW2 9480   3.184   1.442   1.910
 2861SOL     OW 9481   4.041   3.780   5.387
 2861SOL    HW1 9482   3.978   3.857   5.387
 2861SOL    HW2 9483   4.050   3.745   5.293
 2862SOL     OW 9484   5.726   1.471   3.296
 2862SOL    HW1 9485   5.722   1.435   3.202
 2862SOL    HW2 9486   5.733   1.395   3.360
 2863SOL     OW 9487   5.155   1.178   6.427
 2863SOL    HW1 9488   5.060   1.193   6.454
 2863SOL    HW2 9489   5.215   1.196   6.504
 2864SOL     OW 9490   4.707   1.454   1.670
 2864SOL    HW1 9491   4.648   1.374   1.668
 2864SOL    HW2 9492   4.803   1.425   1.679
 2865SOL     OW 9493   3.896   4.100   6.813
 2865SOL    HW1 9494   3.811   4.150   6.798
 2865SOL    HW2 9495   3.894   4.055   6.902
 2866SOL     OW 9496   6.785   5.320   0.539
 2866SOL    HW1 9497   6.765   5.410   0.501
 2866SOL    HW2 9498   6.715   5.295   0.606
 2867SOL     OW 9499   5.938   5.116   2.977
 2867SOL    HW1 9500   5.965   5.057   2.901
 2867SOL    HW2 9501   5.861   5.073   3.025
 2868SOL     OW 9502   0.957   1.822   5.476
 2868SOL    HW1 9503   0.889   1.886   5.511
 2868SOL    HW2 9504   0.914   1.735   5.453
 2869SOL     OW 9505   6.669   1.475   3.212
 2869SOL    HW1 9506   6.684   1.446   3.307
 2869SOL    HW2 9507   6.735   1.546   3.188
 2870SOL     OW 9508   0.325   1.684   4.678
 2870SOL    HW1 9509   0.389   1.751   4.717
 2870SOL    HW2 9510   0.314   1.608   4.742
 2871SOL     OW 9511   0.683   1.807   6.876
 2871SOL    HW1 9512   0.615   1.758   6.930
 2871SOL    HW2 9513   0.639   1.880   6.824
 2872SOL     OW 9514   2.626   1.510   2.686
 2872SOL    HW1 9515   2.701   1.544   2.742
 2872SOL    HW2 9516   2.655   1.505   2.590
 2873SOL     OW 9517   6.716   5.297   2.989
 2873SOL    HW1 9518   6.708   5.361   3.066
 2873SOL    HW2 9519   6.806   5.308   2.947
 2874SOL     OW 9520   3.926   6.773   3.401
 2874SOL    HW1 9521   4.010   6.817   3.433
 2874SOL    HW2 9522   3.847   6.818   3.443
 2875SOL     OW 9523   4.471   6.891   0.591
 2875SOL    HW1 9524   4.442   6.985   0.572
 2875SOL    HW2 9525   4.540   6.892   0.663
 2876SOL     OW 9526   1.385   0.078   1.442
 2876SOL    HW1 9527   1.304   0.076   1.384
 2876SOL    HW2 9528   1.358   0.083   1.538
 2877SOL     OW 9529   3.328   2.629   5.297
 2877SOL    HW1 9530   3.300   2.540   5.259
 2877SOL    HW2 9531   3.293   2.637   5.390
 2878SOL     OW 9532   4.475   5.048   4.691
 2878SOL    HW1 9533   4.443   5.035   4.597
 2878SOL    HW2 9534   4.545   5.119   4.693
 2879SOL     OW 9535   5.406   5.255   0.509
 2879SOL    HW1 9536   5.372   5.172   0.555
 2879SOL    HW2 9537   5.504   5.246   0.492
 2880SOL     OW 9538   6.753   0.477   1.659
 2880SOL    HW1 9539   6.823   0.459   1.729
 2880SOL    HW2 9540   6.710   0.391   1.632
 2881SOL     OW 9541   5.309   5.723   0.204
 2881SOL    HW1 9542   5.217   5.704   0.172
 2881SOL    HW2 9543   5.357   5.780   0.138
 2882SOL     OW 9544   0.708   4.501   2.689
 2882SOL    HW1 9545   0.686   4.411   2.651
 2882SOL    HW2 9546   0.724   4.565   2.613
 2883SOL     OW 9547   5.926   0.202   3.579
 2883SOL    HW1 9548   6.015   0.178   3.539
 2883SOL    HW2 9549   5.928   0.297   3.611
 2884SOL     OW 9550   0.708   0.121   2.727
 2884SOL    HW1 9551   0.744   0.178   2.800
 2884SOL    HW2 9552   0.747   0.029   2.733
 2885SOL     OW 9553   0.804   3.582   2.976
 2885SOL    HW1 9554   0.747   3.657   2.944
 2885SOL    HW2 9555   0.835   3.601   3.070
 2886SOL     OW 9556   2.164   4.321   5.678
 2886SOL    HW1 9557   2.126   4.324   5.585
 2886SOL    HW2 9558   2.260   4.291   5.673
 2887SOL     OW 9559   0.377   0.441   4.813
 2887SOL    HW1 9560   0.402   0.460   4.718
 2887SOL    HW2 9561   0.449   0.476   4.874
 2888SOL     OW 9562   0.719   4.282   7.022
 2888SOL    HW1 9563   0.707   4.294   0.092
 2888SOL    HW2 9564   0.815   4.298   6.998
 2889SOL     OW 9565   1.971   6.913   2.042
 2889SOL    HW1 9566   1.965   7.000   2.092
 2889SOL    HW2 9567   2.050   6.915   1.981
 2890SOL     OW 9568   2.469   5.968   0.906
 2890SOL    HW1 9569   2.563   6.001   0.906
 2890SOL    HW2 9570   2.418   6.015   0.979
 2891SOL     OW 9571   0.843   4.212   3.855
 2891SOL    HW1 9572   0.930   4.232   3.812
 2891SOL    HW2 9573   0.847   4.233   3.953
 2892SOL     OW 9574   4.996   3.173   0.048
 2892SOL    HW1 9575   4.973   3.270   0.058
 2892SOL    HW2 9576   5.063   3.162   7.002
 2893SOL     OW 9577   0.633   6.340   4.698
 2893SOL    HW1 9578   0.717   6.287   4.694
 2893SOL    HW2 9579   0.575   6.317   4.620
 2894SOL     OW 9580   1.727   2.354   1.643
 2894SOL    HW1 9581   1.640   2.402   1.631
 2894SOL    HW2 9582   1.792   2.414   1.690
 2895SOL     OW 9583   4.600   2.474   6.032
 2895SOL    HW1 9584   4.667   2.412   5.991
 2895SOL    HW2 9585   4.510   2.431   6.034
 2896SOL     OW 9586   4.819   5.829   5.963
 2896SOL    HW1 9587   4.790   5.736   5.942
 2896SOL    HW2 9588   4.829   5.881   5.879
 2897SOL     OW 9589   3.841   5.205   3.132
 2897SOL    HW1 9590   3.911   5.146   3.173
 2897SOL    HW2 9591   3.839   5.190   3.033
 2898SOL     OW 9592   4.372   5.039   4.412
 2898SOL    HW1 9593   4.289   5.096   4.408
 2898SOL    HW2 9594   4.441   5.078   4.351
 2899SOL     OW 9595   0.973   1.549   0.448
 2899SOL    HW1 9596   0.894   1.531   0.390
 2899SOL    HW2 9597   1.004   1.643   0.434
 2900SOL     OW 9598   1.666   4.653   5.479
 2900SOL    HW1 9599   1.586   4.682   5.531
 2900SOL    HW2 9600   1.721   4.590   5.534
 2901SOL     OW 9601   3.100   5.749   3.769
 2901SOL    HW1 9602   3.137   5.694   3.695
 2901SOL    HW2 9603   3.105   5.698   3.855
 2902SOL     OW 9604   5.011   6.577   2.560
 2902SOL    HW1 9605   5.022   6.535   2.470
 2902SOL    HW2 9606   5.043   6.671   2.558
 2903SOL     OW 9607   3.310   0.947   0.408
 2903SOL    HW1 9608   3.321   0.950   0.507
 2903SOL    HW2 9609   3.398   0.924   0.365
 2904SOL     OW 9610   2.162   4.168   5.186
 2904SOL    HW1 9611   2.125   4.139   5.098
 2904SOL    HW2 9612   2.253   4.129   5.199
 2905SOL     OW 9613   1.662   2.692   4.053
 2905SOL    HW1 9614   1.648   2.740   4.139
 2905SOL    HW2 9615   1.746   2.638   4.058
 2906SOL     OW 9616   4.360   5.606   1.981
 2906SOL    HW1 9617   4.455   5.599   2.012
 2906SOL    HW2 9618   4.337   5.701   1.962
 2907SOL     OW 9619   0.674   1.629   3.297
 2907SOL    HW1 9620   0.727   1.657   3.217
 2907SOL    HW2 9621   0.702   1.682   3.377
 2908SOL     OW 9622   4.483   6.155   4.273
 2908SOL    HW1 9623   4.496   6.064   4.313
 2908SOL    HW2 9624   4.508   6.225   4.340
 2909SOL     OW 9625   1.572   6.156   3.157
 2909SOL    HW1 9626   1.554   6.064   3.190
 2909SOL    HW2 9627   1.543   6.163   3.061
 2910SOL     OW 9628   4.369   6.581   4.616
 2910SOL    HW1 9629   4.352   6.483   4.603
 2910SOL    HW2 9630   4.455   6.594   4.667
 2911SOL     OW 9631   0.999   5.553   3.415
 2911SOL    HW1 9632   1.097   5.559   3.431
 2911SOL    HW2 9633   0.956   5.639   3.443
 2912SOL     OW 9634   4.638   0.637   0.072
 2912SOL    HW1 9635   4.589   0.725   0.068
 2912SOL    HW2 9636   4.575   0.565   0.100
 2913SOL     OW 9637   2.873   4.776   2.806
 2913SOL    HW1 9638   2.819   4.746   2.885
 2913SOL    HW2 9639   2.817   4.773   2.724
 2914SOL     OW 9640   5.868   6.356   6.771
 2914SOL    HW1 9641   5.948   6.340   6.712
 2914SOL    HW2 9642   5.878   6.443   6.818
 2915SOL     OW 9643   5.573   1.231   4.294
 2915SOL    HW1 9644   5.560   1.316   4.243
 2915SOL    HW2 9645   5.667   1.198   4.282
 2916SOL     OW 9646   0.835   6.363   6.988
 2916SOL    HW1 9647   0.893   6.343   6.910
 2916SOL    HW2 9648   0.857   6.302   0.036
 2917SOL     OW 9649   2.464   6.898   2.880
 2917SOL    HW1 9650   2.456   6.949   2.966
 2917SOL    HW2 9651   2.467   6.961   2.803
 2918SOL     OW 9652   6.717   5.351   4.324
 2918SOL    HW1 9653   6.808   5.367   4.286
 2918SOL    HW2 9654   6.651   5.411   4.280
 2919SOL     OW 9655   6.596   1.474   0.999
 2919SOL    HW1 9656   6.653   1.551   0.969
 2919SOL    HW2 9657   6.599   1.468   1.098
 2920SOL     OW 9658   2.666   2.085   1.604
 2920SOL    HW1 9659   2.608   2.166   1.609
 2920SOL    HW2 9660   2.715   2.074   1.690
 2921SOL     OW 9661   1.230   0.620   3.393
 2921SOL    HW1 9662   1.257   0.713   3.417
 2921SOL    HW2 9663   1.206   0.616   3.296
 2922SOL     OW 9664   4.806   0.548   0.370
 2922SOL    HW1 9665   4.706   0.545   0.369
 2922SOL    HW2 9666   4.839   0.578   0.281
 2923SOL     OW 9667   6.919   5.486   2.198
 2923SOL    HW1 9668   6.885   5.573   2.163
 2923SOL    HW2 9669   6.961   5.500   2.288
 2924SOL     OW 9670   6.735   1.966   6.101
 2924SOL    HW1 9671   6.832   1.991   6.094
 2924SOL    HW2 9672   6.712   1.952   6.197
 2925SOL     OW 9673   4.095   0.902   2.528
 2925SOL    HW1 9674   4.090   0.809   2.564
 2925SOL    HW2 9675   4.161   0.955   2.582
 2926SOL     OW 9676   6.484   1.487   4.580
 2926SOL    HW1 9677   6.444   1.470   4.670
 2926SOL    HW2 9678   6.532   1.575   4.580
 2927SOL     OW 9679   0.619   2.499   2.113
 2927SOL    HW1 9680   0.683   2.543   2.176
 2927SOL    HW2 9681   0.655   2.410   2.086
 2928SOL     OW 9682   0.051   1.173   6.058
 2928SOL    HW1 9683   0.022   1.088   6.014
 2928SOL    HW2 9684   7.002   1.237   6.062
 2929SOL     OW 9685   0.544   2.250   6.853
 2929SOL    HW1 9686   0.472   2.308   6.891
 2929SOL    HW2 9687   0.628   2.303   6.842
 2930SOL     OW 9688   4.617   6.708   4.757
 2930SOL    HW1 9689   4.712   6.735   4.770
 2930SOL    HW2 9690   4.564   6.786   4.723
 2931SOL     OW 9691   5.600   4.831   0.527
 2931SOL    HW1 9692   5.556   4.817   0.616
 2931SOL    HW2 9693   5.690   4.872   0.542
 2932SOL     OW 9694   0.500   4.938   1.060
 2932SOL    HW1 9695   0.470   4.882   1.137
 2932SOL    HW2 9696   0.578   4.893   1.015
 2933SOL     OW 9697   6.254   4.422   3.532
 2933SOL    HW1 9698   6.286   4.488   3.464
 2933SOL    HW2 9699   6.222   4.339   3.485
 2934SOL     OW 9700   4.453   1.102   0.185
 2934SOL    HW1 9701   4.483   1.165   0.114
 2934SOL    HW2 9702   4.368   1.136   0.226
 2935SOL     OW 9703   6.205   2.986   0.534
 2935SOL    HW1 9704   6.177   3.062   0.593
 2935SOL    HW2 9705   6.260   2.921   0.586
 2936SOL     OW 9706   3.560   5.958   1.513
 2936SOL    HW1 9707   3.573   5.964   1.612
 2936SOL    HW2 9708   3.557   6.050   1.474
 2937SOL     OW 9709   4.804   4.556   0.669
 2937SOL    HW1 9710   4.819   4.497   0.748
 2937SOL    HW2 9711   4.842   4.647   0.688
 2938SOL     OW 9712   4.229   5.336   0.174
 2938SOL    HW1 9713   4.174   5.262   0.137
 2938SOL    HW2 9714   4.292   5.369   0.103
 2939SOL     OW 9715   1.330   1.096   3.476
 2939SOL    HW1 9716   1.394   1.145   3.536
 2939SOL    HW2 9717   1.316   1.003   3.512
 2940SOL     OW 9718   5.926   5.471   6.276
 2940SOL    HW1 9719   6.009   5.446   6.226
 2940SOL    HW2 9720   5.884   5.388   6.314
 2941SOL     OW 9721   1.422   3.150   4.657
 2941SOL    HW1 9722   1.435   3.131   4.560
 2941SOL    HW2 9723   1.327   3.177   4.673
 2942SOL     OW 9724   3.391   2.736   1.241
 2942SOL    HW1 9725   3.358   2.668   1.175
 2942SOL    HW2 9726   3.317   2.799   1.264
 2943SOL     OW 9727   4.728   4.637   2.860
 2943SOL    HW1 9728   4.723   4.583   2.777
 2943SOL    HW2 9729   4.726   4.577   2.940
 2944SOL     OW 9730   3.190   5.541   5.182
 2944SOL    HW1 9731   3.096   5.574   5.192
 2944SOL    HW2 9732   3.244   5.573   5.260
 2945SOL     OW 9733   3.616   4.167   4.033
 2945SOL    HW1 9734   3.550   4.165   4.108
 2945SOL    HW2 9735   3.708   4.148   4.069
 2946SOL     OW 9736   1.038   5.051   6.398
 2946SOL    HW1 9737   0.993   4.963   6.409
 2946SOL    HW2 9738   1.137   5.038   6.395
 2947SOL     OW 9739   0.580   3.586   0.835
 2947SOL    HW1 9740   0.507   3.594   0.767
 2947SOL    HW2 9741   0.630   3.501   0.820
 2948SOL     OW 9742   0.721   4.759   5.636
 2948SOL    HW1 9743   0.759   4.666   5.642
 2948SOL    HW2 9744   0.705   4.782   5.540
 2949SOL     OW 9745   2.892   4.811   1.121
 2949SOL    HW1 9746   2.821   4.793   1.053
 2949SOL    HW2 9747   2.977   4.838   1.075
 2950SOL     OW 9748   5.722   3.636   4.635
 2950SOL    HW1 9749   5.653   3.701   4.666
 2950SOL    HW2 9750   5.680   3.567   4.577
 2951SOL     OW 9751   5.968   1.217   0.930
 2951SOL    HW1 9752   5.978   1.245   1.025
 2951SOL    HW2 9753   6.039   1.261   0.875
 2952SOL     OW 9754   1.167   5.518   4.912
 2952SOL    HW1 9755   1.218   5.494   4.829
 2952SOL    HW2 9756   1.229   5.519   4.990
 2953SOL     OW 9757   5.053   3.578   2.850
 2953SOL    HW1 9758   5.096   3.587   2.940
 2953SOL    HW2 9759   4.983   3.507   2.853
 2954SOL     OW 9760   0.360   5.627   1.950
 2954SOL    HW1 9761   0.416   5.593   2.026
 2954SOL    HW2 9762   0.265   5.599   1.964
 2955SOL     OW 9763   1.250   3.858   1.335
 2955SOL    HW1 9764   1.285   3.900   1.251
 2955SOL    HW2 9765   1.173   3.799   1.313
 2956SOL     OW 9766   5.648   6.606   3.023
 2956SOL    HW1 9767   5.626   6.671   3.096
 2956SOL    HW2 9768   5.620   6.645   2.935
 2957SOL     OW 9769   5.990   3.110   2.043
 2957SOL    HW1 9770   5.978   3.082   2.138
 2957SOL    HW2 9771   6.015   3.030   1.988
 2958SOL     OW 9772   2.292   4.814   4.569
 2958SOL    HW1 9773   2.230   4.755   4.518
 2958SOL    HW2 9774   2.280   4.797   4.667
 2959SOL     OW 9775   4.817   4.344   0.836
 2959SOL    HW1 9776   4.897   4.288   0.816
 2959SOL    HW2 9777   4.833   4.397   0.919
 2960SOL     OW 9778   3.789   0.623   6.062
 2960SOL    HW1 9779   3.822   0.703   6.112
 2960SOL    HW2 9780   3.826   0.540   6.103
 2961SOL     OW 9781   4.872   3.432   3.331
 2961SOL    HW1 9782   4.923   3.516   3.348
 2961SOL    HW2 9783   4.789   3.453   3.279
 2962SOL     OW 9784   4.065   0.405   3.167
 2962SOL    HW1 9785   4.004   0.328   3.147
 2962SOL    HW2 9786   4.091   0.401   3.263
 2963SOL     OW 9787   1.797   0.179   6.831
 2963SOL    HW1 9788   1.855   0.251   6.795
 2963SOL    HW2 9789   1.736   0.217   6.901
 2964SOL     OW 9790   0.695   0.414   3.000
 2964SOL    HW1 9791   0.774   0.377   2.951
 2964SOL    HW2 9792   0.613   0.402   2.944
 2965SOL     OW 9793   6.523   1.249   4.882
 2965SOL    HW1 9794   6.486   1.156   4.875
 2965SOL    HW2 9795   6.551   1.281   4.792
 2966SOL     OW 9796   6.458   6.196   4.255
 2966SOL    HW1 9797   6.429   6.189   4.159
 2966SOL    HW2 9798   6.377   6.207   4.313
 2967SOL     OW 9799   5.744   0.821   4.574
 2967SOL    HW1 9800   5.836   0.823   4.613
 2967SOL    HW2 9801   5.719   0.726   4.553
 2968SOL     OW 9802   0.494   3.232   6.381
 2968SOL    HW1 9803   0.433   3.162   6.416
 2968SOL    HW2 9804   0.442   3.300   6.329
 2969SOL     OW 9805   5.342   1.077   4.354
 2969SOL    HW1 9806   5.385   1.002   4.405
 2969SOL    HW2 9807   5.411   1.146   4.333
 2970SOL     OW 9808   1.718   4.437   6.147
 2970SOL    HW1 9809   1.766   4.354   6.175
 2970SOL    HW2 9810   1.690   4.429   6.051
 2971SOL     OW 9811   4.978   4.038   6.838
 2971SOL    HW1 9812   4.999   4.133   6.861
 2971SOL    HW2 9813   4.999   3.980   6.917
 2972SOL     OW 9814   6.083   4.269   6.403
 2972SOL    HW1 9815   6.096   4.174   6.430
 2972SOL    HW2 9816   6.038   4.273   6.314
 2973SOL     OW 9817   5.571   0.892   3.245
 2973SOL    HW1 9818   5.501   0.890   3.315
 2973SOL    HW2 9819   5.592   0.986   3.221
 2974SOL     OW 9820   0.506   4.519   3.076
 2974SOL    HW1 9821   0.519   4.553   3.169
 2974SOL    HW2 9822   0.440   4.578   3.029
 2975SOL     OW 9823   6.248   2.872   5.169
 2975SOL    HW1 9824   6.207   2.810   5.103
 2975SOL    HW2 9825   6.230   2.966   5.142
 2976SOL     OW 9826   4.028   2.119   3.340
 2976SOL    HW1 9827   4.094   2.054   3.377
 2976SOL    HW2 9828   4.067   2.164   3.260
 2977SOL     OW 9829   2.363   6.931   3.608
 2977SOL    HW1 9830   2.276   6.905   3.650
 2977SOL    HW2 9831   2.428   6.856   3.617
 2978SOL     OW 9832   4.868   4.626   0.240
 2978SOL    HW1 9833   4.895   4.719   0.266
 2978SOL    HW2 9834   4.806   4.589   0.309
 2979SOL     OW 9835   4.685   1.242   4.589
 2979SOL    HW1 9836   4.731   1.249   4.501
 2979SOL    HW2 9837   4.740   1.185   4.651
 2980SOL     OW 9838   2.012   6.509   3.621
 2980SOL    HW1 9839   2.108   6.515   3.593
 2980SOL    HW2 9840   1.953   6.541   3.547
 2981SOL     OW 9841   2.347   1.000   6.196
 2981SOL    HW1 9842   2.369   0.933   6.267
 2981SOL    HW2 9843   2.423   1.006   6.131
 2982SOL     OW 9844   4.062   5.127   3.316
 2982SOL    HW1 9845   4.063   5.225   3.294
 2982SOL    HW2 9846   4.140   5.105   3.374
 2983SOL     OW 9847   1.160   1.650   3.123
 2983SOL    HW1 9848   1.137   1.554   3.139
 2983SOL    HW2 9849   1.253   1.656   3.086
 2984SOL     OW 9850   5.296   5.692   1.262
 2984SOL    HW1 9851   5.392   5.721   1.258
 2984SOL    HW2 9852   5.284   5.627   1.337
 2985SOL     OW 9853   1.305   3.084   6.100
 2985SOL    HW1 9854   1.260   3.038   6.177
 2985SOL    HW2 9855   1.236   3.113   6.034
 2986SOL     OW 9856   3.382   4.142   5.530
 2986SOL    HW1 9857   3.349   4.086   5.606
 2986SOL    HW2 9858   3.320   4.219   5.516
 2987SOL     OW 9859   5.966   0.814   4.686
 2987SOL    HW1 9860   6.055   0.772   4.704
 2987SOL    HW2 9861   5.963   0.904   4.729
 2988SOL     OW 9862   0.541   5.811   2.498
 2988SOL    HW1 9863   0.554   5.714   2.482
 2988SOL    HW2 9864   0.459   5.826   2.554
 2989SOL     OW 9865   6.847   6.297   6.741
 2989SOL    HW1 9866   6.863   6.361   6.666
 2989SOL    HW2 9867   6.826   6.207   6.703
 2990SOL     OW 9868   4.374   1.885   4.482
 2990SOL    HW1 9869   4.411   1.799   4.517
 2990SOL    HW2 9870   4.388   1.957   4.551
 2991SOL     OW 9871   6.327   4.388   5.899
 2991SOL    HW1 9872   6.283   4.466   5.945
 2991SOL    HW2 9873   6.295   4.303   5.941
 2992SOL     OW 9874   2.756   5.341   5.366
 2992SOL    HW1 9875   2.829   5.298   5.313
 2992SOL    HW2 9876   2.679   5.361   5.305
 2993SOL     OW 9877   0.805   5.278   1.124
 2993SOL    HW1 9878   0.890   5.322   1.155
 2993SOL    HW2 9879   0.825   5.185   1.095
 2994SOL     OW 9880   3.814   6.692   6.820
 2994SOL    HW1 9881   3.767   6.617   6.866
 2994SOL    HW2 9882   3.874   6.656   6.749
 2995SOL     OW 9883   2.689   2.552   6.621
 2995SOL    HW1 9884   2.639   2.635   6.592
 2995SOL    HW2 9885   2.745   2.520   6.545
 2996SOL     OW 9886   2.576   0.406   3.563
 2996SOL    HW1 9887   2.654   0.466   3.545
 2996SOL    HW2 9888   2.553   0.356   3.479
 2997SOL     OW 9889   5.558   1.044   2.548
 2997SOL    HW1 9890   5.492   1.103   2.595
 2997SOL    HW2 9891   5.531   0.948   2.557
 2998SOL     OW 9892   4.343   0.131   3.945
 2998SOL    HW1 9893   4.416   0.199   3.940
 2998SOL    HW2 9894   4.381   0.040   3.931
 2999SOL     OW 9895   2.972   5.122   4.635
 2999SOL    HW1 9896   2.940   5.123   4.730
 2999SOL    HW2 9897   2.958   5.213   4.595
 3000SOL     OW 9898   2.283   3.635   6.825
 3000SOL    HW1 9899   2.334   3.568   6.879
 3000SOL    HW2 9900   2.185   3.626   6.845
 3001SOL     OW 9901   5.309   6.438   6.133
 3001SOL    HW1 9902   5.337   6.486   6.050
 3001SOL    HW2 9903   5.385   6.435   6.198
 3002SOL     OW 9904   3.908   0.832   6.196
 3002SOL    HW1 9905   3.952   0.768   6.259
 3002SOL    HW2 9906   3.922   0.925   6.229
 3003SOL     OW 9907   2.205   6.939   6.870
 3003SOL    HW1 9908   2.117   6.975   6.899
 3003SOL    HW2 9909   2.217   6.847   6.906
 3004SOL     OW 9910   1.691   4.617   3.290
 3004SOL    HW1 9911   1.759   4.574   3.349
 3004SOL    HW2 9912   1.655   4.699   3.335
 3005SOL     OW 9913   3.573   2.462   0.203
 3005SOL    HW1 9914   3.609   2.515   0.279
 3005SOL    HW2 9915   3.643   2.454   0.132
 3006SOL     OW 9916   5.471   2.214   5.809
 3006SOL    HW1 9917   5.401   2.172   5.868
 3006SOL    HW2 9918   5.556   2.223   5.861
 3007SOL     OW 9919   5.950   5.472   1.071
 3007SOL    HW1 9920   5.874   5.534   1.049
 3007SOL    HW2 9921   6.016   5.520   1.129
 3008SOL     OW 9922   3.420   1.743   6.666
 3008SOL    HW1 9923   3.418   1.649   6.699
 3008SOL    HW2 9924   3.465   1.801   6.734
 3009SOL     OW 9925   0.723   0.866   2.960
 3009SOL    HW1 9926   0.650   0.886   2.896
 3009SOL    HW2 9927   0.686   0.820   3.041
 3010SOL     OW 9928   3.357   6.134   3.135
 3010SOL    HW1 9929   3.309   6.212   3.097
 3010SOL    HW2 9930   3.296   6.054   3.136
 3011SOL     OW 9931   5.098   1.420   1.346
 3011SOL    HW1 9932   5.064   1.364   1.271
 3011SOL    HW2 9933   5.162   1.366   1.401
 3012SOL     OW 9934   1.049   3.899   5.355
 3012SOL    HW1 9935   1.061   3.817   5.411
 3012SOL    HW2 9936   1.138   3.942   5.341
 3013SOL     OW 9937   5.631   5.624   4.752
 3013SOL    HW1 9938   5.556   5.631   4.818
 3013SOL    HW2 9939   5.682   5.710   4.751
 3014SOL     OW 9940   5.192   2.201   4.827
 3014SOL    HW1 9941   5.195   2.291   4.869
 3014SOL    HW2 9942   5.235   2.134   4.888
 3015SOL     OW 9943   3.323   2.336   0.178
 3015SOL    HW1 9944   3.321   2.244   0.139
 3015SOL    HW2 9945   3.417   2.371   0.175
 3016SOL     OW 9946   2.817   6.221   4.248
 3016SOL    HW1 9947   2.810   6.287   4.173
 3016SOL    HW2 9948   2.776   6.134   4.219
 3017SOL     OW 9949   6.887   5.483   1.920
 3017SOL    HW1 9950   6.791   5.467   1.898
 3017SOL    HW2 9951   6.903   5.459   2.016
 3018SOL     OW 9952   2.872   6.278   6.065
 3018SOL    HW1 9953   2.879   6.182   6.093
 3018SOL    HW2 9954   2.875   6.336   6.146
 3019SOL     OW 9955   0.997   0.121   6.734
 3019SOL    HW1 9956   0.955   0.176   6.663
 3019SOL    HW2 9957   1.083   0.163   6.763
 3020SOL     OW 9958   3.934   3.006   2.025
 3020SOL    HW1 9959   3.857   2.963   2.072
 3020SOL    HW2 9960   3.986   2.936   1.976
 3021SOL     OW 9961   3.151   0.301   6.853
 3021SOL    HW1 9962   3.061   0.264   6.876
 3021SOL    HW2 9963   3.223   0.241   6.889
 3022SOL     OW 9964   3.755   5.143   4.194
 3022SOL    HW1 9965   3.822   5.153   4.120
 3022SOL    HW2 9966   3.717   5.050   4.192
 3023SOL     OW 9967   4.020   0.616   2.563
 3023SOL    HW1 9968   4.092   0.592   2.628
 3023SOL    HW2 9969   3.941   0.557   2.577
 3024SOL     OW 9970   4.120   6.410   5.388
 3024SOL    HW1 9971   4.123   6.332   5.326
 3024SOL    HW2 9972   4.030   6.416   5.430
 3025SOL     OW 9973   3.271   1.351   0.761
 3025SOL    HW1 9974   3.313   1.285   0.699
 3025SOL    HW2 9975   3.270   1.314   0.854
 3026SOL     OW 9976   1.482   0.737   0.554
 3026SOL    HW1 9977   1.459   0.689   0.638
 3026SOL    HW2 9978   1.567   0.700   0.516
 3027SOL     OW 9979   3.793   0.485   2.622
 3027SOL    HW1 9980   3.725   0.553   2.651
 3027SOL    HW2 9981   3.745   0.405   2.586
 3028SOL     OW 9982   1.068   4.851   5.504
 3028SOL    HW1 9983   1.018   4.771   5.471
 3028SOL    HW2 9984   1.065   4.853   5.604
 3029SOL     OW 9985   6.938   2.745   4.500
 3029SOL    HW1 9986   6.889   2.809   4.441
 3029SOL    HW2 9987   0.004   2.776   4.515
 3030SOL     OW 9988   0.742   3.138   6.266
 3030SOL    HW1 9989   0.710   3.045   6.251
 3030SOL    HW2 9990   0.687   3.181   6.339
 3031SOL     OW 9991   0.408   3.054   0.532
 3031SOL    HW1 9992   0.484   3.098   0.484
 3031SOL    HW2 9993   0.436   3.032   0.625
 3032SOL     OW 9994   3.742   6.742   1.054
 3032SOL    HW1 9995   3.653   6.739   1.100
 3032SOL    HW2 9996   3.782   6.651   1.051
 3033SOL     OW 9997   6.658   1.933   1.631
 3033SOL    HW1 9998   6.698   1.842   1.627
 3033SOL    HW2 9999   6.560   1.927   1.613
 3034SOL     OW10000   1.314   5.788   3.098
 3034SOL    HW110001   1.353   5.820   3.012
 3034SOL    HW210002   1.272   5.865   3.147
 3035SOL     OW10003   6.963   3.059   6.973
 3035SOL    HW110004   0.009   3.069   6.906
 3035SOL    HW210005   6.995   3.092   0.035
 3036SOL     OW10006   1.538   2.150   6.292
 3036SOL    HW110007   1.594   2.073   6.322
 3036SOL    HW210008   1.573   2.185   6.205
 3037SOL     OW10009   6.747   6.035   5.239
 3037SOL    HW110010   6.741   6.123   5.287
 3037SOL    HW210011   6.742   5.960   5.306
 3038SOL     OW10012   6.050   6.219   6.394
 3038SOL    HW110013   6.078   6.314   6.407
 3038SOL    HW210014   6.016   6.207   6.301
 3039SOL     OW10015   6.911   4.050   1.343
 3039SOL    HW110016   6.879   4.063   1.437
 3039SOL    HW210017   6.959   4.133   1.313
 3040SOL     OW10018   3.961   3.460   6.334
 3040SOL    HW110019   3.902   3.537   6.359
 3040SOL    HW210020   4.042   3.494   6.286
 3041SOL     OW10021   2.195   3.144   4.161
 3041SOL    HW110022   2.220   3.169   4.255
 3041SOL    HW210023   2.184   3.227   4.107
 3042SOL     OW10024   4.558   6.732   2.095
 3042SOL    HW110025   4.468   6.700   2.063
 3042SOL    HW210026   4.629   6.699   2.034
 3043SOL     OW10027   1.225   5.432   1.579
 3043SOL    HW110028   1.200   5.461   1.671
 3043SOL    HW210029   1.323   5.412   1.575
 3044SOL     OW10030   3.505   3.856   5.762
 3044SOL    HW110031   3.433   3.926   5.766
 3044SOL    HW210032   3.466   3.770   5.728
 3045SOL     OW10033   4.641   0.539   3.010
 3045SOL    HW110034   4.720   0.596   3.032
 3045SOL    HW210035   4.621   0.544   2.912
 3046SOL     OW10036   2.112   1.167   6.343
 3046SOL    HW110037   2.166   1.181   6.426
 3046SOL    HW210038   2.173   1.141   6.268
 3047SOL     OW10039   5.616   0.241   2.576
 3047SOL    HW110040   5.561   0.210   2.499
 3047SOL    HW210041   5.565   0.229   2.661
 3048SOL     OW10042   4.071   2.313   1.557
 3048SOL    HW110043   3.998   2.250   1.531
 3048SOL    HW210044   4.042   2.407   1.539
 3049SOL     OW10045   0.480   0.116   2.043
 3049SOL    HW110046   0.536   0.196   2.063
 3049SOL    HW210047   0.534   0.048   1.994
 3050SOL     OW10048   2.691   1.392   2.120
 3050SOL    HW110049   2.698   1.418   2.024
 3050SOL    HW210050   2.627   1.316   2.129
 3051SOL     OW10051   2.104   4.177   6.922
 3051SOL    HW110052   2.111   4.124   7.006
 3051SOL    HW210053   2.012   4.217   6.915
 3052SOL     OW10054   5.523   0.096   2.114
 3052SOL    HW110055   5.507   0.113   2.017
 3052SOL    HW210056   5.589   0.162   2.149
 3053SOL     OW10057   6.897   1.821   6.931
 3053SOL    HW110058   6.964   1.862   6.993
 3053SOL    HW210059   6.893   1.723   6.946
 3054SOL     OW10060   6.695   1.745   0.374
 3054SOL    HW110061   6.664   1.732   0.280
 3054SOL    HW210062   6.656   1.674   0.433
 3055SOL     OW10063   5.329   6.844   3.752
 3055SOL    HW110064   5.263   6.822   3.824
 3055SOL    HW210065   5.421   6.847   3.791
 3056SOL     OW10066   5.758   1.023   4.995
 3056SOL    HW110067   5.738   1.114   5.032
 3056SOL    HW210068   5.856   1.004   5.005
 3057SOL     OW10069   3.970   6.040   3.190
 3057SOL    HW110070   3.993   6.044   3.287
 3057SOL    HW210071   4.040   6.089   3.137
 3058SOL     OW10072   6.847   5.797   1.209
 3058SOL    HW110073   6.803   5.734   1.145
 3058SOL    HW210074   6.946   5.785   1.204
 3059SOL     OW10075   2.380   2.671   4.436
 3059SOL    HW110076   2.339   2.755   4.471
 3059SOL    HW210077   2.407   2.613   4.513
 3060SOL     OW10078   0.141   5.108   0.657
 3060SOL    HW110079   0.085   5.189   0.638
 3060SOL    HW210080   0.232   5.121   0.617
 3061SOL     OW10081   6.512   6.741   5.569
 3061SOL    HW110082   6.467   6.668   5.518
 3061SOL    HW210083   6.464   6.827   5.553
 3062SOL     OW10084   1.518   6.622   6.916
 3062SOL    HW110085   1.547   6.543   6.969
 3062SOL    HW210086   1.423   6.610   6.887
 3063SOL     OW10087   2.752   5.649   1.597
 3063SOL    HW110088   2.772   5.609   1.687
 3063SOL    HW210089   2.739   5.576   1.530
 3064SOL     OW10090   5.504   4.555   3.385
 3064SOL    HW110091   5.504   4.655   3.382
 3064SOL    HW210092   5.584   4.520   3.337
 3065SOL     OW10093   2.298   0.780   0.151
 3065SOL    HW110094   2.330   0.828   0.069
 3065SOL    HW210095   2.344   0.817   0.231
 3066SOL     OW10096   5.456   4.829   0.768
 3066SOL    HW110097   5.460   4.730   0.763
 3066SOL    HW210098   5.486   4.860   0.858
 3067SOL     OW10099   4.065   1.835   5.457
 3067SOL    HW110100   3.982   1.794   5.497
 3067SOL    HW210101   4.039   1.905   5.391
 3068SOL     OW10102   6.410   6.831   1.820
 3068SOL    HW110103   6.349   6.755   1.839
 3068SOL    HW210104   6.445   6.868   1.906
 3069SOL     OW10105   6.500   6.427   1.856
 3069SOL    HW110106   6.548   6.344   1.827
 3069SOL    HW210107   6.561   6.506   1.850
 3070SOL     OW10108   1.598   1.259   1.063
 3070SOL    HW110109   1.692   1.292   1.062
 3070SOL    HW210110   1.584   1.201   1.143
 3071SOL     OW10111   6.501   6.457   2.597
 3071SOL    HW110112   6.496   6.551   2.565
 3071SOL    HW210113   6.538   6.455   2.690
 3072SOL     OW10114   2.024   6.796   6.605
 3072SOL    HW110115   1.945   6.854   6.587
 3072SOL    HW210116   1.999   6.725   6.671
 3073SOL     OW10117   5.931   3.042   4.724
 3073SOL    HW110118   5.998   3.100   4.769
 3073SOL    HW210119   5.923   3.068   4.627
 3074SOL     OW10120   6.264   3.399   1.049
 3074SOL    HW110121   6.176   3.428   1.011
 3074SOL    HW210122   6.328   3.475   1.047
 3075SOL     OW10123   2.540   5.821   1.803
 3075SOL    HW110124   2.579   5.898   1.852
 3075SOL    HW210125   2.598   5.740   1.816
 3076SOL     OW10126   6.582   0.093   4.557
 3076SOL    HW110127   6.560   7.023   4.555
 3076SOL    HW210128   6.682   0.104   4.559
 3077SOL     OW10129   4.930   5.991   2.183
 3077SOL    HW110130   4.976   5.905   2.204
 3077SOL    HW210131   4.833   5.984   2.208
 3078SOL     OW10132   0.855   3.331   2.470
 3078SOL    HW110133   0.778   3.269   2.487
 3078SOL    HW210134   0.843   3.413   2.526
 3079SOL     OW10135   2.100   2.103   3.866
 3079SOL    HW110136   2.021   2.127   3.922
 3079SOL    HW210137   2.072   2.034   3.798
 3080SOL     OW10138   4.820   3.997   3.701
 3080SOL    HW110139   4.889   4.062   3.670
 3080SOL    HW210140   4.801   4.013   3.798
 3081SOL     OW10141   0.274   2.447   5.719
 3081SOL    HW110142   0.328   2.529   5.701
 3081SOL    HW210143   0.178   2.472   5.732
 3082SOL     OW10144   2.880   6.579   4.238
 3082SOL    HW110145   2.947   6.511   4.208
 3082SOL    HW210146   2.913   6.623   4.322
 3083SOL     OW10147   4.106   6.173   3.788
 3083SOL    HW110148   4.102   6.212   3.696
 3083SOL    HW210149   4.197   6.135   3.804
 3084SOL     OW10150   5.851   4.070   4.703
 3084SOL    HW110151   5.939   4.027   4.726
 3084SOL    HW210152   5.787   4.000   4.673
 3085SOL     OW10153   6.837   4.704   1.164
 3085SOL    HW110154   6.838   4.775   1.233
 3085SOL    HW210155   6.774   4.631   1.191
 3086SOL     OW10156   4.175   1.585   1.772
 3086SOL    HW110157   4.241   1.653   1.740
 3086SOL    HW210158   4.223   1.508   1.813
 3087SOL     OW10159   0.140   5.698   3.646
 3087SOL    HW110160   0.097   5.643   3.717
 3087SOL    HW210161   0.099   5.789   3.644
 3088SOL     OW10162   1.968   4.344   5.187
 3088SOL    HW110163   2.048   4.283   5.191
 3088SOL    HW210164   1.998   4.438   5.200
 3089SOL     OW10165   1.387   3.152   6.759
 3089SOL    HW110166   1.381   3.170   6.857
 3089SOL    HW210167   1.460   3.085   6.743
 3090SOL     OW10168   1.684   2.172   1.874
 3090SOL    HW110169   1.706   2.187   1.778
 3090SOL    HW210170   1.762   2.131   1.920
 3091SOL     OW10171   1.941   1.011   1.185
 3091SOL    HW110172   1.921   0.924   1.141
 3091SOL    HW210173   1.888   1.084   1.142
 3092SOL     OW10174   4.571   0.192   0.827
 3092SOL    HW110175   4.481   0.188   0.785
 3092SOL    HW210176   4.641   0.174   0.757
 3093SOL     OW10177   5.183   6.265   5.469
 3093SOL    HW110178   5.173   6.323   5.388
 3093SOL    HW210179   5.228   6.180   5.444
 3094SOL     OW10180   2.946   6.724   4.472
 3094SOL    HW110181   2.906   6.652   4.529
 3094SOL    HW210182   3.042   6.736   4.497
 3095SOL     OW10183   2.115   5.557   5.494
 3095SOL    HW110184   2.160   5.602   5.571
 3095SOL    HW210185   2.130   5.459   5.499
 3096SOL     OW10186   1.915   6.490   5.113
 3096SOL    HW110187   1.911   6.432   5.032
 3096SOL    HW210188   1.942   6.582   5.086
 3097SOL     OW10189   6.388   2.597   0.432
 3097SOL    HW110190   6.296   2.562   0.415
 3097SOL    HW210191   6.453   2.520   0.434
 3098SOL     OW10192   3.052   3.029   0.924
 3098SOL    HW110193   3.062   3.056   1.020
 3098SOL    HW210194   2.955   3.019   0.902
 3099SOL     OW10195   0.478   6.454   2.960
 3099SOL    HW110196   0.567   6.415   2.935
 3099SOL    HW210197   0.466   6.542   2.914
 3100SOL     OW10198   6.738   6.724   4.812
 3100SOL    HW110199   6.652   6.678   4.833
 3100SOL    HW210200   6.813   6.658   4.816
 3101SOL     OW10201   4.871   6.947   6.223
 3101SOL    HW110202   4.893   0.013   6.252
 3101SOL    HW210203   4.779   6.945   6.184
 3102SOL     OW10204   0.445   4.914   2.406
 3102SOL    HW110205   0.397   4.833   2.439
 3102SOL    HW210206   0.514   4.888   2.339
 3103SOL     OW10207   3.954   0.269   2.142
 3103SOL    HW110208   4.020   0.286   2.216
 3103SOL    HW210209   3.931   0.356   2.099
 3104SOL     OW10210   5.403   6.578   5.147
 3104SOL    HW110211   5.340   6.552   5.074
 3104SOL    HW210212   5.441   6.669   5.129
 3105SOL     OW10213   6.082   4.539   1.966
 3105SOL    HW110214   6.007   4.473   1.963
 3105SOL    HW210215   6.100   4.565   2.061
 3106SOL     OW10216   6.554   2.167   2.930
 3106SOL    HW110217   6.590   2.244   2.981
 3106SOL    HW210218   6.624   2.134   2.867
 3107SOL     OW10219   4.316   0.883   4.667
 3107SOL    HW110220   4.302   0.972   4.625
 3107SOL    HW210221   4.368   0.825   4.604
 3108SOL     OW10222   1.228   6.954   4.135
 3108SOL    HW110223   1.240   6.866   4.090
 3108SOL    HW210224   1.316   6.987   4.169
 3109SOL     OW10225   5.335   6.347   2.756
 3109SOL    HW110226   5.325   6.298   2.842
 3109SOL    HW210227   5.393   6.428   2.770
 3110SOL     OW10228   1.652   2.226   3.034
 3110SOL    HW110229   1.666   2.132   3.002
 3110SOL    HW210230   1.559   2.236   3.069
 3111SOL     OW10231   6.359   6.264   3.689
 3111SOL    HW110232   6.283   6.224   3.739
 3111SOL    HW210233   6.368   6.219   3.600
 3112SOL     OW10234   4.410   2.606   6.671
 3112SOL    HW110235   4.314   2.608   6.699
 3112SOL    HW210236   4.420   2.549   6.589
 3113SOL     OW10237   2.292   6.106   3.643
 3113SOL    HW110238   2.306   6.033   3.577
 3113SOL    HW210239   2.350   6.090   3.723
 3114SOL     OW10240   4.403   2.182   0.721
 3114SOL    HW110241   4.390   2.182   0.820
 3114SOL    HW210242   4.486   2.131   0.699
 3115SOL     OW10243   4.198   3.470   6.110
 3115SOL    HW110244   4.240   3.414   6.039
 3115SOL    HW210245   4.188   3.564   6.077
 3116SOL     OW10246   0.220   2.605   0.020
 3116SOL    HW110247   0.316   2.633   0.028
 3116SOL    HW210248   0.170   2.671   6.993
 3117SOL     OW10249   4.224   3.644   5.180
 3117SOL    HW110250   4.241   3.575   5.110
 3117SOL    HW210251   4.168   3.717   5.142
 3118SOL     OW10252   0.159   4.495   1.652
 3118SOL    HW110253   0.249   4.483   1.610
 3118SOL    HW210254   0.104   4.555   1.595
 3119SOL     OW10255   1.801   3.661   5.700
 3119SOL    HW110256   1.838   3.734   5.758
 3119SOL    HW210257   1.875   3.624   5.643
 3120SOL     OW10258   3.270   6.627   4.946
 3120SOL    HW110259   3.313   6.615   5.036
 3120SOL    HW210260   3.171   6.620   4.955
 3121SOL     OW10261   6.907   1.318   3.634
 3121SOL    HW110262   6.931   1.366   3.718
 3121SOL    HW210263   6.984   1.260   3.606
 3122SOL     OW10264   3.185   6.926   6.069
 3122SOL    HW110265   3.163   6.917   6.166
 3122SOL    HW210266   3.191   6.835   6.027
 3123SOL     OW10267   4.311   1.818   4.001
 3123SOL    HW110268   4.222   1.840   4.042
 3123SOL    HW210269   4.382   1.828   4.071
 3124SOL     OW10270   4.076   6.770   4.840
 3124SOL    HW110271   4.093   6.759   4.742
 3124SOL    HW210272   4.005   6.707   4.869
 3125SOL     OW10273   6.602   2.044   5.176
 3125SOL    HW110274   6.510   2.006   5.161
 3125SOL    HW210275   6.654   2.040   5.091
 3126SOL     OW10276   4.361   4.786   6.428
 3126SOL    HW110277   4.285   4.837   6.389
 3126SOL    HW210278   4.350   4.781   6.528
 3127SOL     OW10279   1.086   3.273   3.994
 3127SOL    HW110280   1.116   3.234   3.908
 3127SOL    HW210281   0.994   3.239   4.015
 3128SOL     OW10282   2.365   0.692   6.770
 3128SOL    HW110283   2.449   0.654   6.810
 3128SOL    HW210284   2.346   0.781   6.811
 3129SOL     OW10285   0.498   3.820   6.596
 3129SOL    HW110286   0.424   3.868   6.548
 3129SOL    HW210287   0.582   3.873   6.589
 3130SOL     OW10288   1.988   4.129   1.021
 3130SOL    HW110289   1.995   4.066   1.099
 3130SOL    HW210290   2.051   4.206   1.035
 3131SOL     OW10291   6.956   2.555   1.361
 3131SOL    HW110292   7.003   2.511   1.285
 3131SOL    HW210293   7.006   2.638   1.387
 3132SOL     OW10294   4.418   5.808   5.698
 3132SOL    HW110295   4.407   5.859   5.783
 3132SOL    HW210296   4.357   5.729   5.698
 3133SOL     OW10297   3.625   2.104   3.838
 3133SOL    HW110298   3.546   2.155   3.873
 3133SOL    HW210299   3.638   2.125   3.741
 3134SOL     OW10300   5.114   4.497   1.127
 3134SOL    HW110301   5.162   4.581   1.101
 3134SOL    HW210302   5.113   4.488   1.226
 3135SOL     OW10303   5.469   0.353   5.667
 3135SOL    HW110304   5.403   0.278   5.675
 3135SOL    HW210305   5.514   0.348   5.577
 3136SOL     OW10306   5.636   0.518   0.923
 3136SOL    HW110307   5.569   0.592   0.922
 3136SOL    HW210308   5.720   0.549   0.878
 3137SOL     OW10309   6.335   0.635   3.385
 3137SOL    HW110310   6.338   0.638   3.285
 3137SOL    HW210311   6.350   0.727   3.421
 3138SOL     OW10312   6.194   3.600   4.099
 3138SOL    HW110313   6.145   3.685   4.081
 3138SOL    HW210314   6.219   3.596   4.196
 3139SOL     OW10315   5.137   6.350   0.511
 3139SOL    HW110316   5.065   6.283   0.493
 3139SOL    HW210317   5.101   6.442   0.495
 3140SOL     OW10318   5.838   7.016   6.419
 3140SOL    HW110319   5.937   7.028   6.425
 3140SOL    HW210320   5.793   0.069   6.458
 3141SOL     OW10321   0.251   6.127   6.319
 3141SOL    HW110322   0.318   6.099   6.250
 3141SOL    HW210323   0.224   6.222   6.302
 3142SOL     OW10324   3.740   6.960   1.518
 3142SOL    HW110325   3.678   6.906   1.576
 3142SOL    HW210326   3.797   6.899   1.464
 3143SOL     OW10327   6.845   1.516   6.541
 3143SOL    HW110328   6.847   1.567   6.456
 3143SOL    HW210329   6.807   1.573   6.614
 3144SOL     OW10330   4.236   4.569   1.432
 3144SOL    HW110331   4.230   4.475   1.465
 3144SOL    HW210332   4.259   4.629   1.508
 3145SOL     OW10333   1.914   5.788   1.355
 3145SOL    HW110334   1.823   5.778   1.395
 3145SOL    HW210335   1.906   5.802   1.257
 3146SOL     OW10336   1.432   6.772   3.175
 3146SOL    HW110337   1.466   6.682   3.149
 3146SOL    HW210338   1.487   6.842   3.129
 3147SOL     OW10339   3.049   4.748   0.823
 3147SOL    HW110340   3.112   4.679   0.790
 3147SOL    HW210341   3.087   4.792   0.904
 3148SOL     OW10342   5.010   6.041   4.692
 3148SOL    HW110343   5.034   6.138   4.687
 3148SOL    HW210344   5.093   5.986   4.699
 3149SOL     OW10345   2.640   1.518   6.169
 3149SOL    HW110346   2.545   1.486   6.174
 3149SOL    HW210347   2.676   1.530   6.261
 3150SOL     OW10348   6.762   6.288   3.996
 3150SOL    HW110349   6.739   6.309   4.091
 3150SOL    HW210350   6.715   6.351   3.934
 3151SOL     OW10351   4.389   1.806   6.240
 3151SOL    HW110352   4.489   1.797   6.242
 3151SOL    HW210353   4.363   1.867   6.165
 3152SOL     OW10354   1.632   6.135   0.175
 3152SOL    HW110355   1.702   6.189   0.223
 3152SOL    HW210356   1.574   6.090   0.243
 3153SOL     OW10357   6.342   4.705   2.182
 3153SOL    HW110358   6.356   4.668   2.090
 3153SOL    HW210359   6.297   4.794   2.175
 3154SOL     OW10360   6.485   0.789   6.742
 3154SOL    HW110361   6.392   0.825   6.737
 3154SOL    HW210362   6.529   0.820   6.826
 3155SOL     OW10363   6.536   4.662   1.348
 3155SOL    HW110364   6.522   4.704   1.258
 3155SOL    HW210365   6.462   4.690   1.409
 3156SOL     OW10366   3.213   3.453   3.412
 3156SOL    HW110367   3.278   3.377   3.417
 3156SOL    HW210368   3.174   3.458   3.320
 3157SOL     OW10369   2.265   2.930   4.780
 3157SOL    HW110370   2.307   2.932   4.871
 3157SOL    HW210371   2.201   2.853   4.775
 3158SOL     OW10372   4.519   0.198   2.943
 3158SOL    HW110373   4.547   0.241   2.857
 3158SOL    HW210374   4.577   0.119   2.961
 3159SOL     OW10375   5.302   1.283   0.210
 3159SOL    HW110376   5.207   1.272   0.237
 3159SOL    HW210377   5.319   1.378   0.183
 3160SOL     OW10378   0.376   5.889   4.902
 3160SOL    HW110379   0.426   5.953   4.960
 3160SOL    HW210380   0.321   5.828   4.959
 3161SOL     OW10381   1.724   1.986   3.602
 3161SOL    HW110382   1.626   1.989   3.617
 3161SOL    HW210383   1.745   1.918   3.531
 3162SOL     OW10384   1.378   6.231   1.958
 3162SOL    HW110385   1.310   6.254   1.888
 3162SOL    HW210386   1.458   6.191   1.915
 3163SOL     OW10387   3.634   2.091   6.390
 3163SOL    HW110388   3.656   2.164   6.324
 3163SOL    HW210389   3.643   2.126   6.483
 3164SOL     OW10390   4.621   4.391   1.476
 3164SOL    HW110391   4.700   4.344   1.516
 3164SOL    HW210392   4.650   4.439   1.393
 3165SOL     OW10393   0.705   5.954   0.738
 3165SOL    HW110394   0.642   6.016   0.784
 3165SOL    HW210395   0.782   5.933   0.798
 3166SOL     OW10396   4.574   1.567   5.753
 3166SOL    HW110397   4.625   1.586   5.669
 3166SOL    HW210398   4.634   1.521   5.818
 3167SOL     OW10399   6.872   3.678   1.704
 3167SOL    HW110400   6.845   3.651   1.796
 3167SOL    HW210401   6.923   3.764   1.708
 3168SOL     OW10402   4.666   2.523   6.694
 3168SOL    HW110403   4.693   2.479   6.780
 3168SOL    HW210404   4.571   2.553   6.701
 3169SOL     OW10405   1.578   3.140   4.872
 3169SOL    HW110406   1.621   3.228   4.851
 3169SOL    HW210407   1.501   3.125   4.811
 3170SOL     OW10408   4.017   1.011   1.219
 3170SOL    HW110409   3.981   0.924   1.187
 3170SOL    HW210410   4.101   1.034   1.169
 3171SOL     OW10411   0.426   6.384   1.412
 3171SOL    HW110412   0.372   6.350   1.335
 3171SOL    HW210413   0.370   6.448   1.465
 3172SOL     OW10414   0.288   5.163   6.144
 3172SOL    HW110415   0.356   5.092   6.128
 3172SOL    HW210416   0.255   5.198   6.057
 3173SOL     OW10417   3.175   2.483   0.761
 3173SOL    HW110418   3.153   2.401   0.815
 3173SOL    HW210419   3.266   2.515   0.787
 3174SOL     OW10420   2.992   3.017   6.334
 3174SOL    HW110421   2.925   3.008   6.260
 3174SOL    HW210422   3.070   2.957   6.317
 3175SOL     OW10423   6.797   6.696   0.500
 3175SOL    HW110424   6.858   6.632   0.453
 3175SOL    HW210425   6.760   6.654   0.582
 3176SOL     OW10426   1.853   4.789   4.980
 3176SOL    HW110427   1.887   4.829   5.065
 3176SOL    HW210428   1.762   4.749   4.996
 3177SOL     OW10429   4.739   4.652   4.537
 3177SOL    HW110430   4.829   4.637   4.576
 3177SOL    HW210431   4.668   4.621   4.600
 3178SOL     OW10432   6.274   2.110   0.713
 3178SOL    HW110433   6.248   2.082   0.620
 3178SOL    HW210434   6.302   2.029   0.765
 3179SOL     OW10435   2.020   2.802   2.239
 3179SOL    HW110436   1.979   2.852   2.163
 3179SOL    HW210437   2.082   2.864   2.289
 3180SOL     OW10438   4.517   0.785   6.777
 3180SOL    HW110439   4.611   0.753   6.769
 3180SOL    HW210440   4.493   0.796   6.874
 3181SOL     OW10441   1.211   1.163   2.889
 3181SOL    HW110442   1.128   1.196   2.844
 3181SOL    HW210443   1.190   1.084   2.946
 3182SOL     OW10444   2.261   1.849   4.787
 3182SOL    HW110445   2.312   1.870   4.703
 3182SOL    HW210446   2.163   1.859   4.769
 3183SOL     OW10447   4.354   3.940   1.511
 3183SOL    HW110448   4.402   3.896   1.435
 3183SOL    HW210449   4.407   4.018   1.544
 3184SOL     OW10450   1.320   2.584   2.845
 3184SOL    HW110451   1.390   2.569   2.776
 3184SOL    HW210452   1.248   2.642   2.808
 3185SOL     OW10453   6.105   6.260   0.198
 3185SOL    HW110454   6.018   6.255   0.247
 3185SOL    HW210455   6.136   6.168   0.175
 3186SOL     OW10456   3.902   2.159   2.382
 3186SOL    HW110457   3.996   2.152   2.417
 3186SOL    HW210458   3.904   2.155   2.282
 3187SOL     OW10459   4.736   3.801   0.634
 3187SOL    HW110460   4.671   3.862   0.587
 3187SOL    HW210461   4.780   3.742   0.567
 3188SOL     OW10462   3.809   6.491   5.231
 3188SOL    HW110463   3.743   6.555   5.269
 3188SOL    HW210464   3.815   6.410   5.289
 3189SOL     OW10465   1.877   1.280   1.570
 3189SOL    HW110466   1.935   1.260   1.491
 3189SOL    HW210467   1.921   1.350   1.627
 3190SOL     OW10468   6.930   6.212   1.329
 3190SOL    HW110469   6.995   6.185   1.401
 3190SOL    HW210470   6.950   6.306   1.301
 3191SOL     OW10471   4.159   6.621   0.583
 3191SOL    HW110472   4.258   6.611   0.571
 3191SOL    HW210473   4.141   6.697   0.645
 3192SOL     OW10474   6.990   2.341   0.911
 3192SOL    HW110475   6.944   2.429   0.929
 3192SOL    HW210476   7.014   2.335   0.815
 3193SOL     OW10477   4.180   1.603   5.953
 3193SOL    HW110478   4.140   1.654   6.029
 3193SOL    HW210479   4.164   1.652   5.868
 3194SOL     OW10480   0.738   3.523   6.262
 3194SOL    HW110481   0.664   3.589   6.273
 3194SOL    HW210482   0.742   3.493   6.167
 3195SOL     OW10483   2.760   2.055   2.982
 3195SOL    HW110484   2.822   2.031   2.908
 3195SOL    HW210485   2.813   2.088   3.061
 3196SOL     OW10486   0.054   0.659   5.179
 3196SOL    HW110487   0.015   0.567   5.184
 3196SOL    HW210488   0.132   0.658   5.117
 3197SOL     OW10489   1.467   5.934   3.322
 3197SOL    HW110490   1.488   5.842   3.289
 3197SOL    HW210491   1.502   5.945   3.415
 3198SOL     OW10492   6.522   2.117   5.827
 3198SOL    HW110493   6.546   2.021   5.820
 3198SOL    HW210494   6.464   2.131   5.908
 3199SOL     OW10495   4.741   2.749   1.961
 3199SOL    HW110496   4.691   2.742   1.875
 3199SOL    HW210497   4.759   2.846   1.981
 3200SOL     OW10498   7.012   2.696   2.088
 3200SOL    HW110499   0.075   2.726   2.061
 3200SOL    HW210500   7.018   2.612   2.142
 3201SOL     OW10501   5.357   4.644   4.797
 3201SOL    HW110502   5.286   4.601   4.742
 3201SOL    HW210503   5.354   4.608   4.890
 3202SOL     OW10504   1.482   4.860   2.111
 3202SOL    HW110505   1.468   4.930   2.181
 3202SOL    HW210506   1.544   4.790   2.147
 3203SOL     OW10507   6.228   2.380   6.883
 3203SOL    HW110508   6.315   2.371   6.835
 3203SOL    HW210509   6.155   2.400   6.817
 3204SOL     OW10510   4.892   6.490   1.726
 3204SOL    HW110511   4.971   6.491   1.788
 3204SOL    HW210512   4.865   6.584   1.705
 3205SOL     OW10513   0.686   4.038   6.664
 3205SOL    HW110514   0.756   3.971   6.640
 3205SOL    HW210515   0.697   4.120   6.607
 3206SOL     OW10516   0.081   6.581   6.086
 3206SOL    HW110517   0.035   6.606   6.172
 3206SOL    HW210518   0.098   6.664   6.032
 3207SOL     OW10519   0.398   1.088   5.826
 3207SOL    HW110520   0.374   1.099   5.923
 3207SOL    HW210521   0.315   1.096   5.770
 3208SOL     OW10522   4.815   6.136   5.596
 3208SOL    HW110523   4.836   6.229   5.565
 3208SOL    HW210524   4.716   6.127   5.607
 3209SOL     OW10525   3.400   5.633   2.945
 3209SOL    HW110526   3.429   5.668   3.034
 3209SOL    HW210527   3.479   5.625   2.885
 3210SOL     OW10528   0.840   4.117   1.905
 3210SOL    HW110529   0.933   4.113   1.941
 3210SOL    HW210530   0.821   4.209   1.871
 3211SOL     OW10531   2.910   3.272   1.095
 3211SOL    HW110532   2.956   3.202   1.150
 3211SOL    HW210533   2.874   3.230   1.012
 3212SOL     OW10534   3.420   1.226   0.311
 3212SOL    HW110535   3.328   1.258   0.287
 3212SOL    HW210536   3.464   1.189   0.229
 3213SOL     OW10537   6.390   5.919   2.699
 3213SOL    HW110538   6.460   5.883   2.760
 3213SOL    HW210539   6.415   6.012   2.671
 3214SOL     OW10540   5.025   5.406   0.412
 3214SOL    HW110541   5.119   5.433   0.391
 3214SOL    HW210542   5.005   5.430   0.507
 3215SOL     OW10543   0.240   2.862   1.096
 3215SOL    HW110544   0.283   2.800   1.161
 3215SOL    HW210545   0.289   2.860   1.009
 3216SOL     OW10546   5.643   5.442   1.842
 3216SOL    HW110547   5.686   5.384   1.911
 3216SOL    HW210548   5.546   5.421   1.837
 3217SOL     OW10549   0.153   5.429   2.945
 3217SOL    HW110550   0.224   5.381   2.996
 3217SOL    HW210551   0.196   5.490   2.878
 3218SOL     OW10552   4.132   6.356   3.550
 3218SOL    HW110553   4.058   6.423   3.554
 3218SOL    HW210554   4.157   6.339   3.455
 3219SOL     OW10555   6.987   1.847   3.568
 3219SOL    HW110556   0.052   1.816   3.589
 3219SOL    HW210557   6.922   1.775   3.594
 3220SOL     OW10558   6.967   5.888   5.948
 3220SOL    HW110559   6.926   5.979   5.950
 3220SOL    HW210560   0.036   5.895   5.924
 3221SOL     OW10561   3.254   0.384   1.807
 3221SOL    HW110562   3.248   0.479   1.837
 3221SOL    HW210563   3.164   0.341   1.812
 3222SOL     OW10564   4.560   1.747   3.447
 3222SOL    HW110565   4.564   1.652   3.416
 3222SOL    HW210566   4.548   1.750   3.546
 3223SOL     OW10567   1.901   5.127   6.686
 3223SOL    HW110568   1.985   5.179   6.697
 3223SOL    HW210569   1.869   5.096   6.775
 3224SOL     OW10570   4.126   4.490   6.617
 3224SOL    HW110571   4.087   4.399   6.638
 3224SOL    HW210572   4.124   4.546   6.700
 3225SOL     OW10573   4.428   3.064   5.328
 3225SOL    HW110574   4.487   2.985   5.310
 3225SOL    HW210575   4.483   3.142   5.355
 3226SOL     OW10576   1.262   1.506   4.537
 3226SOL    HW110577   1.169   1.542   4.543
 3226SOL    HW210578   1.311   1.523   4.622
 3227SOL     OW10579   2.914   2.413   6.517
 3227SOL    HW110580   3.010   2.405   6.489
 3227SOL    HW210581   2.886   2.329   6.564
 3228SOL     OW10582   5.519   3.498   3.345
 3228SOL    HW110583   5.464   3.467   3.423
 3228SOL    HW210584   5.616   3.493   3.369
 3229SOL     OW10585   3.703   1.720   5.272
 3229SOL    HW110586   3.755   1.767   5.342
 3229SOL    HW210587   3.764   1.663   5.217
 3230SOL     OW10588   1.194   2.918   3.854
 3230SOL    HW110589   1.221   2.831   3.812
 3230SOL    HW210590   1.226   2.994   3.798
 3231SOL     OW10591   2.537   0.017   2.029
 3231SOL    HW110592   2.555   0.107   2.068
 3231SOL    HW210593   2.598   6.977   2.070
 3232SOL     OW10594   4.172   4.910   3.949
 3232SOL    HW110595   4.187   4.852   3.870
 3232SOL    HW210596   4.259   4.951   3.977
 3233SOL     OW10597   1.649   2.941   1.418
 3233SOL    HW110598   1.631   2.913   1.324
 3233SOL    HW210599   1.581   3.010   1.446
 3234SOL     OW10600   0.062   2.231   0.668
 3234SOL    HW110601   0.033   2.198   0.578
 3234SOL    HW210602   0.048   2.158   0.736
 3235SOL     OW10603   4.698   6.764   1.443
 3235SOL    HW110604   4.762   6.689   1.423
 3235SOL    HW210605   4.721   6.843   1.387
 3236SOL     OW10606   1.421   3.348   0.692
 3236SOL    HW110607   1.362   3.359   0.613
 3236SOL    HW210608   1.516   3.347   0.663
 3237SOL     OW10609   5.856   1.175   3.888
 3237SOL    HW110610   5.797   1.222   3.823
 3237SOL    HW210611   5.900   1.242   3.947
 3238SOL     OW10612   0.536   4.885   0.370
 3238SOL    HW110613   0.568   4.840   0.287
 3238SOL    HW210614   0.436   4.890   0.369
 3239SOL     OW10615   5.699   1.716   0.287
 3239SOL    HW110616   5.646   1.761   0.216
 3239SOL    HW210617   5.701   1.618   0.271
 3240SOL     OW10618   0.871   5.720   5.146
 3240SOL    HW110619   0.848   5.756   5.236
 3240SOL    HW210620   0.851   5.789   5.077
 3241SOL     OW10621   4.828   1.268   4.374
 3241SOL    HW110622   4.780   1.297   4.291
 3241SOL    HW210623   4.907   1.213   4.349
 3242SOL     OW10624   2.991   4.670   1.460
 3242SOL    HW110625   2.999   4.607   1.537
 3242SOL    HW210626   3.077   4.674   1.410
 3243SOL     OW10627   5.899   4.658   0.176
 3243SOL    HW110628   5.975   4.664   0.112
 3243SOL    HW210629   5.829   4.596   0.140
 3244SOL     OW10630   4.979   5.955   0.417
 3244SOL    HW110631   4.991   6.003   0.504
 3244SOL    HW210632   4.951   5.860   0.434
 3245SOL     OW10633   5.042   2.398   5.718
 3245SOL    HW110634   5.007   2.426   5.629
 3245SOL    HW210635   5.110   2.326   5.706
 3246SOL     OW10636   6.157   1.106   3.223
 3246SOL    HW110637   6.070   1.069   3.254
 3246SOL    HW210638   6.141   1.183   3.161
 3247SOL     OW10639   6.447   5.089   3.798
 3247SOL    HW110640   6.395   5.008   3.826
 3247SOL    HW210641   6.390   5.170   3.806
 3248SOL     OW10642   5.912   3.225   1.772
 3248SOL    HW110643   5.827   3.240   1.823
 3248SOL    HW210644   5.981   3.187   1.833
 3249SOL     OW10645   3.744   3.868   5.185
 3249SOL    HW110646   3.727   3.769   5.178
 3249SOL    HW210647   3.675   3.917   5.131
 3250SOL     OW10648   5.481   0.782   2.536
 3250SOL    HW110649   5.403   0.830   2.496
 3250SOL    HW210650   5.448   0.710   2.598
 3251SOL     OW10651   4.001   1.295   2.446
 3251SOL    HW110652   4.077   1.347   2.407
 3251SOL    HW210653   3.977   1.332   2.535
 3252SOL     OW10654   2.405   1.448   2.035
 3252SOL    HW110655   2.407   1.522   2.102
 3252SOL    HW210656   2.418   1.360   2.081
 3253SOL     OW10657   5.322   3.124   2.688
 3253SOL    HW110658   5.409   3.092   2.650
 3253SOL    HW210659   5.316   3.223   2.676
 3254SOL     OW10660   3.885   5.686   5.398
 3254SOL    HW110661   3.874   5.669   5.300
 3254SOL    HW210662   3.800   5.665   5.445
 3255SOL     OW10663   4.550   6.110   1.442
 3255SOL    HW110664   4.466   6.163   1.429
 3255SOL    HW210665   4.628   6.172   1.450
 3256SOL     OW10666   5.608   0.307   6.766
 3256SOL    HW110667   5.675   0.287   6.838
 3256SOL    HW210668   5.539   0.235   6.763
 3257SOL     OW10669   1.526   2.126   1.314
 3257SOL    HW110670   1.518   2.220   1.280
 3257SOL    HW210671   1.481   2.064   1.249
 3258SOL     OW10672   3.903   5.387   2.200
 3258SOL    HW110673   3.999   5.410   2.187
 3258SOL    HW210674   3.849   5.471   2.210
 3259SOL     OW10675   4.701   6.135   4.093
 3259SOL    HW110676   4.606   6.129   4.125
 3259SOL    HW210677   4.761   6.149   4.171
 3260SOL     OW10678   2.111   1.833   1.648
 3260SOL    HW110679   2.013   1.815   1.658
 3260SOL    HW210680   2.131   1.928   1.669
 3261SOL     OW10681   4.436   5.993   0.760
 3261SOL    HW110682   4.505   6.042   0.706
 3261SOL    HW210683   4.346   6.034   0.743
 3262SOL     OW10684   3.688   1.996   2.434
 3262SOL    HW110685   3.765   2.040   2.387
 3262SOL    HW210686   3.604   2.048   2.418
 3263SOL     OW10687   4.384   0.478   4.006
 3263SOL    HW110688   4.328   0.433   4.076
 3263SOL    HW210689   4.326   0.507   3.931
 3264SOL     OW10690   1.444   4.990   0.714
 3264SOL    HW110691   1.503   5.044   0.774
 3264SOL    HW210692   1.377   4.940   0.769
 3265SOL     OW10693   4.410   1.739   5.893
 3265SOL    HW110694   4.344   1.676   5.934
 3265SOL    HW210695   4.475   1.688   5.837
 3266SOL     OW10696   1.146   2.383   0.435
 3266SOL    HW110697   1.122   2.333   0.518
 3266SOL    HW210698   1.186   2.471   0.460
 3267SOL     OW10699   3.525   2.103   0.524
 3267SOL    HW110700   3.459   2.162   0.476
 3267SOL    HW210701   3.518   2.010   0.488
 3268SOL     OW10702   1.157   3.727   6.454
 3268SOL    HW110703   1.218   3.806   6.449
 3268SOL    HW210704   1.064   3.759   6.473
 3269SOL     OW10705   4.289   5.274   1.538
 3269SOL    HW110706   4.276   5.330   1.621
 3269SOL    HW210707   4.205   5.225   1.518
 3270SOL     OW10708   1.333   4.871   5.396
 3270SOL    HW110709   1.372   4.812   5.467
 3270SOL    HW210710   1.233   4.867   5.400
 3271SOL     OW10711   5.434   3.195   3.099
 3271SOL    HW110712   5.367   3.164   3.032
 3271SOL    HW210713   5.479   3.277   3.066
 3272SOL     OW10714   3.500   4.156   0.370
 3272SOL    HW110715   3.414   4.193   0.334
 3272SOL    HW210716   3.505   4.059   0.350
 3273SOL     OW10717   0.758   6.618   2.120
 3273SOL    HW110718   0.752   6.585   2.214
 3273SOL    HW210719   0.751   6.540   2.057
 3274SOL     OW10720   3.899   2.222   0.731
 3274SOL    HW110721   3.815   2.168   0.739
 3274SOL    HW210722   3.976   2.161   0.708
 3275SOL     OW10723   1.014   0.721   6.590
 3275SOL    HW110724   1.052   0.809   6.618
 3275SOL    HW210725   1.060   0.648   6.640
 3276SOL     OW10726   3.281   5.133   6.963
 3276SOL    HW110727   3.350   5.079   7.011
 3276SOL    HW210728   3.326   5.197   6.901
 3277SOL     OW10729   5.240   6.644   0.025
 3277SOL    HW110730   5.336   6.619   0.011
 3277SOL    HW210731   5.213   6.713   6.985
 3278SOL     OW10732   6.691   1.231   5.860
 3278SOL    HW110733   6.780   1.241   5.904
 3278SOL    HW210734   6.650   1.144   5.888
 3279SOL     OW10735   0.314   1.187   0.771
 3279SOL    HW110736   0.239   1.152   0.827
 3279SOL    HW210737   0.301   1.160   0.676
 3280SOL     OW10738   3.030   5.162   5.951
 3280SOL    HW110739   3.046   5.258   5.926
 3280SOL    HW210740   3.051   5.103   5.873
 3281SOL     OW10741   2.147   5.593   0.740
 3281SOL    HW110742   2.192   5.532   0.675
 3281SOL    HW210743   2.075   5.543   0.788
 3282SOL     OW10744   2.184   5.260   4.385
 3282SOL    HW110745   2.153   5.285   4.476
 3282SOL    HW210746   2.117   5.201   4.341
 3283SOL     OW10747   2.797   0.998   1.571
 3283SOL    HW110748   2.810   1.097   1.575
 3283SOL    HW210749   2.820   0.965   1.479
 3284SOL     OW10750   6.304   6.492   6.741
 3284SOL    HW110751   6.251   6.417   6.701
 3284SOL    HW210752   6.242   6.568   6.763
 3285SOL     OW10753   5.975   2.340   3.556
 3285SOL    HW110754   5.887   2.340   3.510
 3285SOL    HW210755   5.962   2.331   3.655
 3286SOL     OW10756   4.149   3.383   3.781
 3286SOL    HW110757   4.106   3.366   3.870
 3286SOL    HW210758   4.198   3.301   3.752
 3287SOL     OW10759   1.550   6.093   0.501
 3287SOL    HW110760   1.633   6.049   0.535
 3287SOL    HW210761   1.486   6.106   0.578
 3288SOL     OW10762   0.973   4.755   6.802
 3288SOL    HW110763   1.044   4.691   6.773
 3288SOL    HW210764   0.888   4.706   6.816
 3289SOL     OW10765   1.901   0.011   5.690
 3289SOL    HW110766   1.978   0.029   5.751
 3289SOL    HW210767   1.822   7.011   5.744
 3290SOL     OW10768   0.214   0.091   1.942
 3290SOL    HW110769   0.309   0.122   1.940
 3290SOL    HW210770   0.210   7.022   1.968
 3291SOL     OW10771   1.543   5.950   6.465
 3291SOL    HW110772   1.611   5.996   6.408
 3291SOL    HW210773   1.540   5.853   6.441
 3292SOL     OW10774   0.209   0.737   6.767
 3292SOL    HW110775   0.284   0.769   6.709
 3292SOL    HW210776   0.131   0.798   6.758
 3293SOL     OW10777   6.509   3.582   2.978
 3293SOL    HW110778   6.477   3.676   2.964
 3293SOL    HW210779   6.563   3.553   2.900
 3294SOL     OW10780   0.322   0.435   5.992
 3294SOL    HW110781   0.312   0.389   5.904
 3294SOL    HW210782   0.231   0.460   6.027
 3295SOL     OW10783   1.452   2.533   1.702
 3295SOL    HW110784   1.406   2.617   1.730
 3295SOL    HW210785   1.464   2.474   1.782
 3296SOL     OW10786   2.033   6.322   1.320
 3296SOL    HW110787   1.961   6.386   1.294
 3296SOL    HW210788   2.087   6.361   1.395
 3297SOL     OW10789   2.837   0.522   5.432
 3297SOL    HW110790   2.929   0.560   5.423
 3297SOL    HW210791   2.827   0.441   5.375
 3298SOL     OW10792   5.917   2.214   3.840
 3298SOL    HW110793   5.832   2.241   3.886
 3298SOL    HW210794   5.989   2.201   3.907
 3299SOL     OW10795   2.353   6.373   3.478
 3299SOL    HW110796   2.339   6.369   3.379
 3299SOL    HW210797   2.311   6.293   3.521
 3300SOL     OW10798   0.389   0.789   5.535
 3300SOL    HW110799   0.307   0.832   5.573
 3300SOL    HW210800   0.467   0.809   5.594
 3301SOL     OW10801   2.094   3.669   3.268
 3301SOL    HW110802   2.063   3.597   3.206
 3301SOL    HW210803   2.107   3.630   3.360
 3302SOL     OW10804   1.580   5.919   4.332
 3302SOL    HW110805   1.555   5.904   4.428
 3302SOL    HW210806   1.538   5.847   4.275
 3303SOL     OW10807   3.909   3.036   1.421
 3303SOL    HW110808   3.927   2.969   1.492
 3303SOL    HW210809   3.811   3.041   1.402
 3304SOL     OW10810   1.696   4.923   4.259
 3304SOL    HW110811   1.771   4.951   4.318
 3304SOL    HW210812   1.609   4.934   4.306
 3305SOL     OW10813   2.808   1.566   2.909
 3305SOL    HW110814   2.736   1.564   2.978
 3305SOL    HW210815   2.870   1.642   2.927
 3306SOL     OW10816   2.328   5.384   3.682
 3306SOL    HW110817   2.421   5.354   3.702
 3306SOL    HW210818   2.331   5.463   3.621
 3307SOL     OW10819   0.421   5.563   6.860
 3307SOL    HW110820   0.390   5.521   6.775
 3307SOL    HW210821   0.347   5.619   6.899
 3308SOL     OW10822   4.559   6.086   0.255
 3308SOL    HW110823   4.465   6.112   0.235
 3308SOL    HW210824   4.621   6.145   0.202
 3309SOL     OW10825   1.039   5.255   1.813
 3309SOL    HW110826   0.980   5.299   1.746
 3309SOL    HW210827   1.076   5.170   1.776
 3310SOL     OW10828   7.005   4.461   4.662
 3310SOL    HW110829   0.052   4.524   4.683
 3310SOL    HW210830   0.011   4.390   4.600
 3311SOL     OW10831   2.520   4.445   1.717
 3311SOL    HW110832   2.508   4.500   1.799
 3311SOL    HW210833   2.617   4.424   1.705
 3312SOL     OW10834   3.509   4.382   6.414
 3312SOL    HW110835   3.484   4.462   6.359
 3312SOL    HW210836   3.519   4.302   6.355
 3313SOL     OW10837   6.713   5.052   2.612
 3313SOL    HW110838   6.700   5.033   2.709
 3313SOL    HW210839   6.666   4.983   2.557
 3314SOL     OW10840   1.572   2.302   4.951
 3314SOL    HW110841   1.671   2.316   4.951
 3314SOL    HW210842   1.526   2.390   4.963
 3315SOL     OW10843   6.470   3.050   4.226
 3315SOL    HW110844   6.559   3.082   4.258
 3315SOL    HW210845   6.476   3.027   4.129
 3316SOL     OW10846   3.541   1.595   5.876
 3316SOL    HW110847   3.558   1.584   5.778
 3316SOL    HW210848   3.525   1.691   5.897
 3317SOL     OW10849   4.873   2.972   1.741
 3317SOL    HW110850   4.810   2.997   1.815
 3317SOL    HW210851   4.838   3.007   1.654
 3318SOL     OW10852   2.943   6.995   0.102
 3318SOL    HW110853   2.903   6.961   0.187
 3318SOL    HW210854   2.875   0.018   0.050
 3319SOL     OW10855   5.924   0.033   4.098
 3319SOL    HW110856   5.866   7.021   4.169
 3319SOL    HW210857   5.869   0.051   4.016
 3320SOL     OW10858   5.182   1.140   6.011
 3320SOL    HW110859   5.281   1.150   5.998
 3320SOL    HW210860   5.142   1.096   5.930
 3321SOL     OW10861   3.629   2.210   1.602
 3321SOL    HW110862   3.576   2.285   1.561
 3321SOL    HW210863   3.654   2.235   1.696
 3322SOL     OW10864   5.186   3.194   1.719
 3322SOL    HW110865   5.114   3.218   1.654
 3322SOL    HW210866   5.220   3.101   1.700
 3323SOL     OW10867   1.986   3.893   7.010
 3323SOL    HW110868   1.939   3.822   0.035
 3323SOL    HW210869   1.985   3.870   6.913
 3324SOL     OW10870   0.919   3.864   6.592
 3324SOL    HW110871   0.902   3.844   6.495
 3324SOL    HW210872   0.890   3.786   6.647
 3325SOL     OW10873   2.497   3.318   6.410
 3325SOL    HW110874   2.570   3.250   6.416
 3325SOL    HW210875   2.509   3.386   6.482
 3326SOL     OW10876   5.118   1.551   1.824
 3326SOL    HW110877   5.055   1.488   1.871
 3326SOL    HW210878   5.080   1.643   1.827
 3327SOL     OW10879   2.919   5.969   1.230
 3327SOL    HW110880   2.829   6.007   1.208
 3327SOL    HW210881   2.908   5.898   1.299
 3328SOL     OW10882   4.611   1.890   2.767
 3328SOL    HW110883   4.585   1.840   2.684
 3328SOL    HW210884   4.604   1.988   2.750
 3329SOL     OW10885   4.950   0.118   5.377
 3329SOL    HW110886   4.875   0.085   5.320
 3329SOL    HW210887   4.917   0.188   5.440
 3330SOL     OW10888   5.693   6.577   1.889
 3330SOL    HW110889   5.681   6.489   1.934
 3330SOL    HW210890   5.603   6.616   1.867
 3331SOL     OW10891   0.937   3.026   2.183
 3331SOL    HW110892   0.896   2.978   2.260
 3331SOL    HW210893   1.011   3.085   2.215
 3332SOL     OW10894   6.681   4.396   7.007
 3332SOL    HW110895   6.685   4.296   7.009
 3332SOL    HW210896   6.596   4.427   0.022
 3333SOL     OW10897   2.802   3.444   6.813
 3333SOL    HW110898   2.742   3.474   6.887
 3333SOL    HW210899   2.820   3.346   6.822
 3334SOL     OW10900   2.081   3.376   2.212
 3334SOL    HW110901   2.136   3.404   2.133
 3334SOL    HW210902   2.029   3.293   2.189
 3335SOL     OW10903   5.142   6.022   6.492
 3335SOL    HW110904   5.169   5.945   6.549
 3335SOL    HW210905   5.061   6.066   6.531
 3336SOL     OW10906   2.418   6.692   4.274
 3336SOL    HW110907   2.395   6.722   4.366
 3336SOL    HW210908   2.516   6.671   4.269
 3337SOL     OW10909   2.881   3.963   1.151
 3337SOL    HW110910   2.806   3.952   1.216
 3337SOL    HW210911   2.960   3.911   1.183
 3338SOL     OW10912   0.185   2.628   1.705
 3338SOL    HW110913   0.224   2.706   1.754
 3338SOL    HW210914   0.122   2.662   1.635
 3339SOL     OW10915   1.511   7.000   6.768
 3339SOL    HW110916   1.593   6.953   6.800
 3339SOL    HW210917   1.495   6.978   6.672
 3340SOL     OW10918   3.985   1.216   4.096
 3340SOL    HW110919   3.899   1.239   4.142
 3340SOL    HW210920   3.980   1.123   4.060
 3341SOL     OW10921   1.890   4.193   3.915
 3341SOL    HW110922   1.970   4.252   3.904
 3341SOL    HW210923   1.807   4.249   3.917
 3342SOL     OW10924   0.893   0.651   2.988
 3342SOL    HW110925   0.840   0.568   3.003
 3342SOL    HW210926   0.832   0.726   2.962
 3343SOL     OW10927   5.685   4.985   6.397
 3343SOL    HW110928   5.746   4.939   6.461
 3343SOL    HW210929   5.601   4.931   6.386
 3344SOL     OW10930   6.222   3.212   4.138
 3344SOL    HW110931   6.211   3.284   4.070
 3344SOL    HW210932   6.275   3.137   4.099
 3345SOL     OW10933   0.853   4.265   6.277
 3345SOL    HW110934   0.862   4.363   6.257
 3345SOL    HW210935   0.940   4.220   6.262
 3346SOL     OW10936   1.171   0.951   6.674
 3346SOL    HW110937   1.152   1.049   6.683
 3346SOL    HW210938   1.268   0.937   6.653
 3347SOL     OW10939   1.122   3.220   5.936
 3347SOL    HW110940   1.050   3.214   5.866
 3347SOL    HW210941   1.092   3.281   6.009
 3348SOL     OW10942   3.865   3.706   4.904
 3348SOL    HW110943   3.915   3.680   4.822
 3348SOL    HW210944   3.831   3.624   4.951
 3349SOL     OW10945   2.262   4.747   2.971
 3349SOL    HW110946   2.247   4.740   3.069
 3349SOL    HW210947   2.292   4.658   2.936
 3350SOL     OW10948   0.116   2.737   6.329
 3350SOL    HW110949   0.197   2.789   6.301
 3350SOL    HW210950   0.088   2.677   6.254
 3351SOL     OW10951   4.884   1.094   1.966
 3351SOL    HW110952   4.914   1.001   1.986
 3351SOL    HW210953   4.796   1.111   2.011
 3352SOL     OW10954   5.923   2.842   1.254
 3352SOL    HW110955   5.869   2.849   1.338
 3352SOL    HW210956   5.894   2.913   1.189
 3353SOL     OW10957   2.667   6.153   0.981
 3353SOL    HW110958   2.753   6.198   0.954
 3353SOL    HW210959   2.659   6.154   1.080
 3354SOL     OW10960   4.388   2.560   5.426
 3354SOL    HW110961   4.309   2.608   5.389
 3354SOL    HW210962   4.425   2.611   5.504
 3355SOL     OW10963   2.072   1.568   6.073
 3355SOL    HW110964   2.147   1.631   6.053
 3355SOL    HW210965   2.106   1.474   6.070
 3356SOL     OW10966   1.467   5.835   6.086
 3356SOL    HW110967   1.516   5.754   6.055
 3356SOL    HW210968   1.381   5.807   6.130
 3357SOL     OW10969   3.521   3.514   2.094
 3357SOL    HW110970   3.541   3.603   2.134
 3357SOL    HW210971   3.493   3.450   2.166
 3358SOL     OW10972   4.891   1.678   3.157
 3358SOL    HW110973   4.953   1.757   3.155
 3358SOL    HW210974   4.800   1.707   3.188
 3359SOL     OW10975   6.892   5.762   3.058
 3359SOL    HW110976   6.819   5.708   3.101
 3359SOL    HW210977   6.874   5.768   2.959
 3360SOL     OW10978   0.622   2.501   6.024
 3360SOL    HW110979   0.654   2.446   6.101
 3360SOL    HW210980   0.681   2.485   5.945
 3361SOL     OW10981   0.742   5.941   4.543
 3361SOL    HW110982   0.752   5.975   4.636
 3361SOL    HW210983   0.767   5.844   4.540
 3362SOL     OW10984   3.744   1.734   2.406
 3362SOL    HW110985   3.670   1.668   2.420
 3362SOL    HW210986   3.707   1.826   2.404
 3363SOL     OW10987   6.652   2.525   1.783
 3363SOL    HW110988   6.659   2.620   1.753
 3363SOL    HW210989   6.744   2.488   1.798
 3364SOL     OW10990   2.516   4.519   3.236
 3364SOL    HW110991   2.579   4.525   3.314
 3364SOL    HW210992   2.433   4.571   3.257
 3365SOL     OW10993   0.258   3.353   4.906
 3365SOL    HW110994   0.280   3.268   4.954
 3365SOL    HW210995   0.342   3.394   4.870
 3366SOL     OW10996   5.860   5.199   3.905
 3366SOL    HW110997   5.846   5.103   3.881
 3366SOL    HW210998   5.876   5.206   4.004
 3367SOL     OW10999   3.232   3.649   2.930
 3367SOL    HW111000   3.248   3.589   2.851
 3367SOL    HW211001   3.196   3.737   2.899
 3368SOL     OW11002   0.802   5.420   6.659
 3368SOL    HW111003   0.887   5.429   6.606
 3368SOL    HW211004   0.763   5.329   6.643
 3369SOL     OW11005   4.656   1.839   1.229
 3369SOL    HW111006   4.725   1.843   1.156
 3369SOL    HW211007   4.702   1.846   1.318
 3370SOL     OW11008   5.912   6.251   1.698
 3370SOL    HW111009   5.958   6.331   1.737
 3370SOL    HW211010   5.916   6.256   1.598
 3371SOL     OW11011   2.097   3.559   1.776
 3371SOL    HW111012   2.156   3.516   1.845
 3371SOL    HW211013   2.108   3.658   1.781
 3372SOL     OW11014   0.368   1.924   6.844
 3372SOL    HW111015   0.448   1.953   6.792
 3372SOL    HW211016   0.286   1.934   6.788
 3373SOL     OW11017   0.414   2.383   3.996
 3373SOL    HW111018   0.328   2.380   3.946
 3373SOL    HW211019   0.436   2.478   4.019
 3374SOL     OW11020   1.103   0.333   3.815
 3374SOL    HW111021   1.019   0.279   3.807
 3374SOL    HW211022   1.181   0.271   3.825
 3375SOL     OW11023   0.041   4.423   0.739
 3375SOL    HW111024   6.990   4.465   0.784
 3375SOL    HW211025   0.118   4.487   0.739
 3376SOL     OW11026   3.359   2.910   4.415
 3376SOL    HW111027   3.299   2.982   4.379
 3376SOL    HW211028   3.304   2.831   4.442
 3377SOL     OW11029   6.490   5.100   5.737
 3377SOL    HW111030   6.479   5.167   5.663
 3377SOL    HW211031   6.415   5.033   5.733
 3378SOL     OW11032   1.119   6.015   6.888
 3378SOL    HW111033   1.114   5.917   6.907
 3378SOL    HW211034   1.147   6.028   6.793
 3379SOL     OW11035   0.777   2.216   4.506
 3379SOL    HW111036   0.774   2.164   4.421
 3379SOL    HW211037   0.705   2.286   4.505
 3380SOL     OW11038   4.544   6.024   5.590
 3380SOL    HW111039   4.477   6.097   5.607
 3380SOL    HW211040   4.508   5.937   5.625
 3381SOL     OW11041   6.705   2.617   1.411
 3381SOL    HW111042   6.801   2.587   1.404
 3381SOL    HW211043   6.695   2.706   1.369
 3382SOL     OW11044   0.116   2.775   6.843
 3382SOL    HW111045   0.126   2.726   6.756
 3382SOL    HW211046   0.145   2.870   6.831
 3383SOL     OW11047   3.387   5.028   0.840
 3383SOL    HW111048   3.367   5.051   0.935
 3383SOL    HW211049   3.374   5.109   0.782
 3384SOL     OW11050   2.459   3.731   0.956
 3384SOL    HW111051   2.423   3.811   1.004
 3384SOL    HW211052   2.523   3.760   0.885
 3385SOL     OW11053   6.518   3.331   4.799
 3385SOL    HW111054   6.616   3.327   4.820
 3385SOL    HW211055   6.505   3.379   4.712
 3386SOL     OW11056   5.373   4.119   6.929
 3386SOL    HW111057   5.348   4.181   7.003
 3386SOL    HW211058   5.337   4.028   6.947
 3387SOL     OW11059   5.174   0.326   3.185
 3387SOL    HW111060   5.139   0.364   3.100
 3387SOL    HW211061   5.231   0.246   3.165
 3388SOL     OW11062   5.267   3.438   2.704
 3388SOL    HW111063   5.202   3.463   2.776
 3388SOL    HW211064   5.302   3.520   2.659
 3389SOL     OW11065   6.750   5.660   6.161
 3389SOL    HW111066   6.690   5.685   6.236
 3389SOL    HW211067   6.826   5.725   6.155
 3390SOL     OW11068   4.680   6.544   6.362
 3390SOL    HW111069   4.693   6.487   6.281
 3390SOL    HW211070   4.647   6.635   6.334
 3391SOL     OW11071   4.759   2.497   3.511
 3391SOL    HW111072   4.840   2.446   3.538
 3391SOL    HW211073   4.779   2.595   3.511
 3392SOL     OW11074   3.539   6.911   4.524
 3392SOL    HW111075   3.537   6.823   4.571
 3392SOL    HW211076   3.470   6.912   4.451
 3393SOL     OW11077   5.964   6.183   0.867
 3393SOL    HW111078   5.924   6.236   0.942
 3393SOL    HW211079   6.041   6.234   0.829
 3394SOL     OW11080   4.860   3.893   0.860
 3394SOL    HW111081   4.928   3.960   0.830
 3394SOL    HW211082   4.805   3.864   0.781
 3395SOL     OW11083   5.091   1.848   2.831
 3395SOL    HW111084   5.074   1.870   2.927
 3395SOL    HW211085   5.089   1.932   2.776
 3396SOL     OW11086   5.671   0.891   3.698
 3396SOL    HW111087   5.703   0.918   3.607
 3396SOL    HW211088   5.737   0.922   3.767
 3397SOL     OW11089   3.591   4.976   6.283
 3397SOL    HW111090   3.582   4.878   6.265
 3397SOL    HW211091   3.657   4.990   6.357
 3398SOL     OW11092   1.275   6.967   5.230
 3398SOL    HW111093   1.194   6.997   5.179
 3398SOL    HW211094   1.247   6.930   5.318
 3399SOL     OW11095   5.746   5.211   3.402
 3399SOL    HW111096   5.703   5.233   3.489
 3399SOL    HW211097   5.713   5.274   3.332
 3400SOL     OW11098   5.562   3.725   6.904
 3400SOL    HW111099   5.598   3.768   6.821
 3400SOL    HW211100   5.615   3.643   6.925
 3401SOL     OW11101   6.046   4.134   6.905
 3401SOL    HW111102   5.985   4.055   6.912
 3401SOL    HW211103   6.125   4.121   6.964
 3402SOL     OW11104   5.896   5.451   0.080
 3402SOL    HW111105   5.829   5.383   0.109
 3402SOL    HW211106   5.864   5.543   0.103
 3403SOL     OW11107   4.897   5.314   6.930
 3403SOL    HW111108   4.990   5.318   6.967
 3403SOL    HW211109   4.874   5.218   6.910
 3404SOL     OW11110   5.083   2.622   6.936
 3404SOL    HW111111   5.127   2.595   6.850
 3404SOL    HW211112   4.987   2.644   6.918
 3405SOL     OW11113   5.932   4.425   6.561
 3405SOL    HW111114   6.000   4.373   6.508
 3405SOL    HW211115   5.959   4.521   6.563
 3406SOL     OW11116   1.580   3.281   2.359
 3406SOL    HW111117   1.504   3.315   2.413
 3406SOL    HW211118   1.593   3.339   2.279
 3407SOL     OW11119   2.087   4.424   0.200
 3407SOL    HW111120   2.021   4.467   0.138
 3407SOL    HW211121   2.113   4.489   0.271
 3408SOL     OW11122   4.966   3.150   4.876
 3408SOL    HW111123   4.925   3.154   4.785
 3408SOL    HW211124   4.910   3.201   4.941
 3409SOL     OW11125   3.697   6.338   0.527
 3409SOL    HW111126   3.606   6.369   0.555
 3409SOL    HW211127   3.749   6.415   0.491
 3410SOL     OW11128   5.966   6.446   2.122
 3410SOL    HW111129   6.057   6.409   2.139
 3410SOL    HW211130   5.973   6.528   2.064
 3411SOL     OW11131   0.523   2.945   0.761
 3411SOL    HW111132   0.426   2.923   0.772
 3411SOL    HW211133   0.570   2.867   0.720
 3412SOL     OW11134   5.220   3.555   1.314
 3412SOL    HW111135   5.234   3.542   1.412
 3412SOL    HW211136   5.152   3.627   1.299
 3413SOL     OW11137   6.418   1.886   6.900
 3413SOL    HW111138   6.380   1.938   6.976
 3413SOL    HW211139   6.430   1.946   6.821
 3414SOL     OW11140   3.059   2.021   5.848
 3414SOL    HW111141   3.032   1.978   5.761
 3414SOL    HW211142   3.134   2.084   5.832
 3415SOL     OW11143   2.567   2.513   4.273
 3415SOL    HW111144   2.511   2.563   4.338
 3415SOL    HW211145   2.559   2.555   4.183
 3416SOL     OW11146   5.732   0.178   0.300
 3416SOL    HW111147   5.699   0.084   0.308
 3416SOL    HW211148   5.817   0.180   0.247
 3417SOL     OW11149   0.032   6.559   3.750
 3417SOL    HW111150   0.087   6.591   3.673
 3417SOL    HW211151   6.973   6.522   3.715
 3418SOL     OW11152   4.026   6.059   3.455
 3418SOL    HW111153   4.121   6.071   3.429
 3418SOL    HW211154   3.983   6.148   3.467
 3419SOL     OW11155   3.642   5.198   6.108
 3419SOL    HW111156   3.594   5.115   6.136
 3419SOL    HW211157   3.728   5.174   6.064
 3420SOL     OW11158   5.218   3.486   4.610
 3420SOL    HW111159   5.282   3.452   4.678
 3420SOL    HW211160   5.194   3.412   4.546
 3421SOL     OW11161   5.404   1.819   3.355
 3421SOL    HW111162   5.488   1.822   3.410
 3421SOL    HW211163   5.422   1.769   3.270
 3422SOL     OW11164   2.498   0.760   0.345
 3422SOL    HW111165   2.567   0.799   0.284
 3422SOL    HW211166   2.513   0.793   0.438
 3423SOL     OW11167   0.379   4.536   6.187
 3423SOL    HW111168   0.345   4.447   6.217
 3423SOL    HW211169   0.302   4.599   6.175
 3424SOL     OW11170   2.812   0.413   1.195
 3424SOL    HW111171   2.734   0.356   1.170
 3424SOL    HW211172   2.839   0.393   1.289
 3425SOL     OW11173   5.035   4.391   2.000
 3425SOL    HW111174   5.040   4.486   2.031
 3425SOL    HW211175   4.956   4.346   2.042
 3426SOL     OW11176   5.243   2.596   1.114
 3426SOL    HW111177   5.335   2.581   1.078
 3426SOL    HW211178   5.189   2.513   1.102
 3427SOL     OW11179   0.749   2.217   2.011
 3427SOL    HW111180   0.652   2.192   2.017
 3427SOL    HW211181   0.805   2.135   2.025
 3428SOL     OW11182   4.381   4.163   0.141
 3428SOL    HW111183   4.421   4.254   0.135
 3428SOL    HW211184   4.431   4.101   0.080
 3429SOL     OW11185   0.562   1.270   0.819
 3429SOL    HW111186   0.555   1.370   0.823
 3429SOL    HW211187   0.471   1.232   0.800
 3430SOL     OW11188   2.357   5.256   5.360
 3430SOL    HW111189   2.270   5.280   5.405
 3430SOL    HW211190   2.379   5.161   5.380
 3431SOL     OW11191   1.340   5.934   1.585
 3431SOL    HW111192   1.268   5.865   1.595
 3431SOL    HW211193   1.430   5.891   1.596
 3432SOL     OW11194   2.477   4.637   6.637
 3432SOL    HW111195   2.485   4.545   6.599
 3432SOL    HW211196   2.484   4.705   6.564
 3433SOL     OW11197   1.320   1.609   5.903
 3433SOL    HW111198   1.279   1.683   5.957
 3433SOL    HW211199   1.384   1.648   5.837
 3434SOL     OW11200   3.895   1.880   1.444
 3434SOL    HW111201   3.795   1.876   1.453
 3434SOL    HW211202   3.936   1.803   1.493
 3435SOL     OW11203   2.090   1.075   0.543
 3435SOL    HW111204   2.133   1.160   0.515
 3435SOL    HW211205   2.123   1.048   0.633
 3436SOL     OW11206   3.515   5.551   0.513
 3436SOL    HW111207   3.490   5.538   0.609
 3436SOL    HW211208   3.596   5.497   0.493
 3437SOL     OW11209   2.490   6.396   5.964
 3437SOL    HW111210   2.563   6.356   5.909
 3437SOL    HW211211   2.403   6.354   5.939
 3438SOL     OW11212   0.693   3.870   1.543
 3438SOL    HW111213   0.662   3.776   1.534
 3438SOL    HW211214   0.701   3.894   1.640
 3439SOL     OW11215   3.136   6.035   4.199
 3439SOL    HW111216   3.118   6.081   4.286
 3439SOL    HW211217   3.118   5.937   4.209
 3440SOL     OW11218   4.007   3.161   2.809
 3440SOL    HW111219   4.036   3.252   2.779
 3440SOL    HW211220   3.989   3.103   2.730
 3441SOL     OW11221   0.487   5.900   6.688
 3441SOL    HW111222   0.480   5.883   6.786
 3441SOL    HW211223   0.547   5.831   6.647
 3442SOL     OW11224   2.483   3.612   1.247
 3442SOL    HW111225   2.514   3.609   1.152
 3442SOL    HW211226   2.428   3.531   1.266
 3443SOL     OW11227   3.351   6.356   1.737
 3443SOL    HW111228   3.409   6.425   1.781
 3443SOL    HW211229   3.258   6.391   1.730
 3444SOL     OW11230   4.905   5.551   1.160
 3444SOL    HW111231   4.978   5.501   1.206
 3444SOL    HW211232   4.884   5.507   1.072
 3445SOL     OW11233   6.465   5.347   3.579
 3445SOL    HW111234   6.416   5.435   3.578
 3445SOL    HW211235   6.441   5.297   3.662
 3446SOL     OW11236   5.729   0.516   1.619
 3446SOL    HW111237   5.701   0.452   1.691
 3446SOL    HW211238   5.690   0.606   1.638
 3447SOL     OW11239   5.055   0.070   0.545
 3447SOL    HW111240   4.967   0.115   0.565
 3447SOL    HW211241   5.129   0.122   0.588
 3448SOL     OW11242   3.266   6.347   6.189
 3448SOL    HW111243   3.276   6.430   6.134
 3448SOL    HW211244   3.340   6.343   6.256
 3449SOL     OW11245   6.124   5.295   4.379
 3449SOL    HW111246   6.128   5.195   4.385
 3449SOL    HW211247   6.080   5.332   4.461
 3450SOL     OW11248   0.979   1.384   6.464
 3450SOL    HW111249   0.973   1.397   6.365
 3450SOL    HW211250   0.943   1.465   6.511
 3451SOL     OW11251   2.020   5.982   7.021
 3451SOL    HW111252   2.019   6.058   0.058
 3451SOL    HW211253   2.114   5.961   6.996
 3452SOL     OW11254   5.899   0.298   6.174
 3452SOL    HW111255   5.957   0.216   6.176
 3452SOL    HW211256   5.803   0.271   6.180
 3453SOL     OW11257   5.899   5.761   6.292
 3453SOL    HW111258   5.960   5.799   6.361
 3453SOL    HW211259   5.904   5.661   6.293
 3454SOL     OW11260   1.031   4.093   4.897
 3454SOL    HW111261   0.972   4.114   4.975
 3454SOL    HW211262   1.123   4.129   4.915
 3455SOL     OW11263   2.737   1.576   4.399
 3455SOL    HW111264   2.732   1.559   4.498
 3455SOL    HW211265   2.776   1.496   4.354
 3456SOL     OW11266   4.828   5.070   2.265
 3456SOL    HW111267   4.868   5.047   2.176
 3456SOL    HW211268   4.880   5.024   2.337
 3457SOL     OW11269   4.060   5.797   4.562
 3457SOL    HW111270   4.014   5.773   4.477
 3457SOL    HW211271   3.992   5.813   4.634
 3458SOL     OW11272   4.603   1.700   2.408
 3458SOL    HW111273   4.581   1.660   2.496
 3458SOL    HW211274   4.542   1.662   2.338
 3459SOL     OW11275   5.071   1.902   3.135
 3459SOL    HW111276   5.033   1.994   3.150
 3459SOL    HW211277   5.169   1.903   3.157
 3460SOL     OW11278   2.785   1.894   6.022
 3460SOL    HW111279   2.844   1.819   5.994
 3460SOL    HW211280   2.838   1.960   6.076
 3461SOL     OW11281   5.275   3.871   6.997
 3461SOL    HW111282   5.228   3.815   6.930
 3461SOL    HW211283   5.233   3.857   0.059
 3462SOL     OW11284   0.614   4.107   5.022
 3462SOL    HW111285   0.650   4.164   4.948
 3462SOL    HW211286   0.553   4.037   4.984
 3463SOL     OW11287   0.762   4.312   0.881
 3463SOL    HW111288   0.797   4.219   0.875
 3463SOL    HW211289   0.770   4.357   0.792
 3464SOL     OW11290   0.643   4.510   6.229
 3464SOL    HW111291   0.676   4.592   6.276
 3464SOL    HW211292   0.546   4.520   6.210
 3465SOL     OW11293   2.358   2.546   2.028
 3465SOL    HW111294   2.446   2.519   2.068
 3465SOL    HW211295   2.309   2.606   2.091
 3466SOL     OW11296   0.158   5.441   6.360
 3466SOL    HW111297   0.208   5.444   6.446
 3466SOL    HW211298   0.224   5.438   6.284
 3467SOL     OW11299   1.341   2.290   6.921
 3467SOL    HW111300   1.266   2.307   6.983
 3467SOL    HW211301   1.428   2.305   6.968
 3468SOL     OW11302   3.863   5.803   2.732
 3468SOL    HW111303   3.802   5.876   2.700
 3468SOL    HW211304   3.892   5.822   2.825
 3469SOL     OW11305   6.012   1.395   3.726
 3469SOL    HW111306   6.079   1.455   3.770
 3469SOL    HW211307   5.951   1.449   3.669
 3470SOL     OW11308   0.051   4.560   1.243
 3470SOL    HW111309   7.021   4.630   1.201
 3470SOL    HW211310   0.147   4.584   1.228
 3471SOL     OW11311   4.020   5.446   4.717
 3471SOL    HW111312   4.119   5.458   4.702
 3471SOL    HW211313   3.987   5.373   4.657
 3472SOL     OW11314   2.707   0.702   3.833
 3472SOL    HW111315   2.771   0.628   3.812
 3472SOL    HW211316   2.708   0.769   3.758
 3473SOL     OW11317   5.836   1.311   5.945
 3473SOL    HW111318   5.784   1.369   5.882
 3473SOL    HW211319   5.907   1.366   5.990
 3474SOL     OW11320   3.274   5.156   1.839
 3474SOL    HW111321   3.209   5.231   1.847
 3474SOL    HW211322   3.248   5.096   1.764
 3475SOL     OW11323   1.313   6.692   4.121
 3475SOL    HW111324   1.269   6.611   4.082
 3475SOL    HW211325   1.411   6.688   4.103
 3476SOL     OW11326   3.758   1.176   3.883
 3476SOL    HW111327   3.854   1.204   3.871
 3476SOL    HW211328   3.748   1.133   3.973
 3477SOL     OW11329   2.720   5.786   2.244
 3477SOL    HW111330   2.663   5.851   2.295
 3477SOL    HW211331   2.810   5.780   2.287
 3478SOL     OW11332   2.994   5.943   5.581
 3478SOL    HW111333   2.998   5.857   5.530
 3478SOL    HW211334   2.903   5.984   5.569
 3479SOL     OW11335   0.262   0.708   3.337
 3479SOL    HW111336   0.229   0.632   3.394
 3479SOL    HW211337   0.259   0.682   3.241
 3480SOL     OW11338   6.701   0.578   4.471
 3480SOL    HW111339   6.761   0.656   4.452
 3480SOL    HW211340   6.756   0.494   4.476
 3481SOL     OW11341   4.516   6.805   6.714
 3481SOL    HW111342   4.544   6.900   6.701
 3481SOL    HW211343   4.527   6.781   6.811
 3482SOL     OW11344   5.323   1.249   1.065
 3482SOL    HW111345   5.268   1.166   1.056
 3482SOL    HW211346   5.374   1.245   1.152
 3483SOL     OW11347   3.047   0.745   1.117
 3483SOL    HW111348   2.959   0.718   1.076
 3483SOL    HW211349   3.116   0.752   1.044
 3484SOL     OW11350   2.744   3.417   1.619
 3484SOL    HW111351   2.778   3.459   1.534
 3484SOL    HW211352   2.821   3.383   1.672
 3485SOL     OW11353   1.398   0.850   4.798
 3485SOL    HW111354   1.430   0.911   4.726
 3485SOL    HW211355   1.344   0.902   4.864
 3486SOL     OW11356   3.240   1.860   2.538
 3486SOL    HW111357   3.230   1.934   2.473
 3486SOL    HW211358   3.149   1.827   2.566
 3487SOL     OW11359   6.085   1.872   6.130
 3487SOL    HW111360   6.150   1.944   6.151
 3487SOL    HW211361   6.034   1.895   6.047
 3488SOL     OW11362   5.830   3.387   3.932
 3488SOL    HW111363   5.884   3.365   3.850
 3488SOL    HW211364   5.846   3.317   4.002
 3489SOL     OW11365   2.844   6.934   0.353
 3489SOL    HW111366   2.861   6.933   0.451
 3489SOL    HW211367   2.764   6.877   0.332
 3490SOL     OW11368   4.729   4.309   6.891
 3490SOL    HW111369   4.796   4.374   6.855
 3490SOL    HW211370   4.700   4.338   6.983
 3491SOL     OW11371   6.573   3.078   5.137
 3491SOL    HW111372   6.639   3.105   5.067
 3491SOL    HW211373   6.499   3.145   5.141
 3492SOL     OW11374   0.592   5.565   0.502
 3492SOL    HW111375   0.553   5.656   0.485
 3492SOL    HW211376   0.662   5.546   0.433
 3493SOL     OW11377   6.575   5.081   6.824
 3493SOL    HW111378   6.649   5.019   6.849
 3493SOL    HW211379   6.515   5.036   6.758
 3494SOL     OW11380   3.850   0.487   0.947
 3494SOL    HW111381   3.888   0.395   0.950
 3494SOL    HW211382   3.903   0.544   0.884
 3495SOL     OW11383   4.440   4.914   2.459
 3495SOL    HW111384   4.532   4.880   2.474
 3495SOL    HW211385   4.391   4.854   2.396
 3496SOL     OW11386   0.989   2.686   1.199
 3496SOL    HW111387   0.965   2.590   1.193
 3496SOL    HW211388   1.038   2.703   1.285
 3497SOL     OW11389   3.693   0.367   2.908
 3497SOL    HW111390   3.738   0.443   2.860
 3497SOL    HW211391   3.678   0.291   2.844
 3498SOL     OW11392   3.035   2.425   1.001
 3498SOL    HW111393   2.995   2.402   1.089
 3498SOL    HW211394   3.065   2.520   1.002
 3499SOL     OW11395   5.375   2.841   4.482
 3499SOL    HW111396   5.354   2.930   4.522
 3499SOL    HW211397   5.393   2.775   4.554
 3500SOL     OW11398   0.094   4.195   5.760
 3500SOL    HW111399   0.153   4.267   5.795
 3500SOL    HW211400   0.114   4.109   5.807
 3501SOL     OW11401   0.401   5.377   4.466
 3501SOL    HW111402   0.469   5.449   4.456
 3501SOL    HW211403   0.411   5.311   4.392
 3502SOL     OW11404   6.746   2.167   2.320
 3502SOL    HW111405   6.711   2.260   2.324
 3502SOL    HW211406   6.776   2.146   2.227
 3503SOL     OW11407   5.431   5.475   5.328
 3503SOL    HW111408   5.405   5.561   5.284
 3503SOL    HW211409   5.390   5.471   5.420
 3504SOL     OW11410   2.618   2.968   1.409
 3504SOL    HW111411   2.601   2.870   1.417
 3504SOL    HW211412   2.535   3.018   1.431
 3505SOL     OW11413   6.059   5.136   5.272
 3505SOL    HW111414   6.013   5.128   5.360
 3505SOL    HW211415   6.061   5.232   5.244
 3506SOL     OW11416   3.807   5.949   4.692
 3506SOL    HW111417   3.804   5.873   4.628
 3506SOL    HW211418   3.755   6.026   4.655
 3507SOL     OW11419   1.436   0.899   6.579
 3507SOL    HW111420   1.503   0.824   6.575
 3507SOL    HW211421   1.373   0.891   6.502
 3508SOL     OW11422   4.291   2.688   6.296
 3508SOL    HW111423   4.367   2.709   6.234
 3508SOL    HW211424   4.243   2.607   6.264
 3509SOL     OW11425   5.692   5.518   6.633
 3509SOL    HW111426   5.691   5.605   6.682
 3509SOL    HW211427   5.749   5.452   6.682
 3510SOL     OW11428   1.759   2.786   1.632
 3510SOL    HW111429   1.724   2.820   1.545
 3510SOL    HW211430   1.693   2.806   1.704
 3511SOL     OW11431   1.133   3.546   6.835
 3511SOL    HW111432   1.149   3.643   6.855
 3511SOL    HW211433   1.169   3.525   6.744
 3512SOL     OW11434   0.971   4.588   0.978
 3512SOL    HW111435   1.067   4.562   0.968
 3512SOL    HW211436   0.928   4.530   1.047
 3513SOL     OW11437   5.620   4.201   0.752
 3513SOL    HW111438   5.695   4.213   0.688
 3513SOL    HW211439   5.652   4.220   0.845
 3514SOL     OW11440   0.805   0.784   1.945
 3514SOL    HW111441   0.793   0.880   1.972
 3514SOL    HW211442   0.746   0.764   1.867
 3515SOL     OW11443   3.895   6.307   2.161
 3515SOL    HW111444   3.842   6.387   2.136
 3515SOL    HW211445   3.868   6.229   2.103
 3516SOL     OW11446   3.967   1.060   1.506
 3516SOL    HW111447   4.012   1.121   1.570
 3516SOL    HW211448   3.979   1.094   1.413
 3517SOL     OW11449   0.456   1.703   0.005
 3517SOL    HW111450   0.450   1.789   6.983
 3517SOL    HW211451   0.467   1.722   0.102
 3518SOL     OW11452   4.927   4.286   5.159
 3518SOL    HW111453   4.851   4.235   5.118
 3518SOL    HW211454   4.994   4.221   5.195
 3519SOL     OW11455   1.468   0.493   6.666
 3519SOL    HW111456   1.473   0.395   6.683
 3519SOL    HW211457   1.427   0.539   6.745
 3520SOL     OW11458   3.732   4.326   1.175
 3520SOL    HW111459   3.648   4.336   1.229
 3520SOL    HW211460   3.719   4.255   1.106
 3521SOL     OW11461   5.723   2.865   1.708
 3521SOL    HW111462   5.769   2.885   1.621
 3521SOL    HW211463   5.684   2.773   1.706
 3522SOL     OW11464   3.149   5.605   1.971
 3522SOL    HW111465   3.248   5.617   1.974
 3522SOL    HW211466   3.116   5.623   1.878
 3523SOL     OW11467   3.271   4.850   5.699
 3523SOL    HW111468   3.319   4.903   5.630
 3523SOL    HW211469   3.206   4.909   5.748
 3524SOL     OW11470   2.370   0.386   1.465
 3524SOL    HW111471   2.326   0.473   1.486
 3524SOL    HW211472   2.469   0.393   1.480
 3525SOL     OW11473   0.919   3.698   1.705
 3525SOL    HW111474   0.972   3.675   1.624
 3525SOL    HW211475   0.878   3.615   1.743
 3526SOL     OW11476   1.196   0.744   3.842
 3526SOL    HW111477   1.173   0.665   3.900
 3526SOL    HW211478   1.167   0.828   3.887
 3527SOL     OW11479   4.979   2.690   5.235
 3527SOL    HW111480   5.067   2.643   5.241
 3527SOL    HW211481   4.987   2.781   5.275
 3528SOL     OW11482   1.052   6.330   3.266
 3528SOL    HW111483   0.992   6.357   3.191
 3528SOL    HW211484   1.060   6.405   3.331
 3529SOL     OW11485   3.444   6.997   5.667
 3529SOL    HW111486   3.495   6.913   5.650
 3529SOL    HW211487   3.348   6.984   5.642
 3530SOL     OW11488   1.854   5.074   2.456
 3530SOL    HW111489   1.902   5.111   2.535
 3530SOL    HW211490   1.876   4.977   2.445
 3531SOL     OW11491   5.133   3.955   0.899
 3531SOL    HW111492   5.182   3.894   0.837
 3531SOL    HW211493   5.130   3.914   0.990
 3532SOL     OW11494   3.206   0.689   0.480
 3532SOL    HW111495   3.258   0.604   0.468
 3532SOL    HW211496   3.242   0.759   0.419
 3533SOL     OW11497   1.359   2.045   3.317
 3533SOL    HW111498   1.408   1.966   3.355
 3533SOL    HW211499   1.289   2.074   3.381
 3534SOL     OW11500   5.618   1.565   5.628
 3534SOL    HW111501   5.624   1.523   5.718
 3534SOL    HW211502   5.586   1.660   5.637
 3535SOL     OW11503   7.009   6.097   0.949
 3535SOL    HW111504   0.075   6.090   0.986
 3535SOL    HW211505   6.944   6.070   1.020
 3536SOL     OW11506   2.096   3.421   3.802
 3536SOL    HW111507   2.034   3.495   3.828
 3536SOL    HW211508   2.104   3.355   3.877
 3537SOL     OW11509   2.158   4.499   0.746
 3537SOL    HW111510   2.110   4.508   0.833
 3537SOL    HW211511   2.103   4.445   0.682
 3538SOL     OW11512   3.009   1.220   3.793
 3538SOL    HW111513   3.056   1.161   3.728
 3538SOL    HW211514   2.913   1.230   3.767
 3539SOL     OW11515   6.108   3.447   5.947
 3539SOL    HW111516   6.196   3.476   5.984
 3539SOL    HW211517   6.042   3.521   5.958
 3540SOL     OW11518   2.196   2.346   5.941
 3540SOL    HW111519   2.272   2.290   5.908
 3540SOL    HW211520   2.194   2.343   6.041
 3541SOL     OW11521   2.637   3.135   0.078
 3541SOL    HW111522   2.686   3.189   0.009
 3541SOL    HW211523   2.606   3.196   0.151
 3542SOL     OW11524   5.623   2.170   0.384
 3542SOL    HW111525   5.631   2.088   0.328
 3542SOL    HW211526   5.714   2.206   0.404
 3543SOL     OW11527   1.173   3.559   3.166
 3543SOL    HW111528   1.214   3.506   3.240
 3543SOL    HW211529   1.245   3.608   3.117
 3544SOL     OW11530   2.231   4.553   6.749
 3544SOL    HW111531   2.227   4.453   6.749
 3544SOL    HW211532   2.320   4.583   6.716
 3545SOL     OW11533   3.896   4.630   0.727
 3545SOL    HW111534   3.916   4.551   0.785
 3545SOL    HW211535   3.802   4.659   0.740
 3546SOL     OW11536   6.403   4.623   3.410
 3546SOL    HW111537   6.399   4.644   3.507
 3546SOL    HW211538   6.385   4.705   3.356
 3547SOL     OW11539   6.662   4.068   4.855
 3547SOL    HW111540   6.628   4.161   4.838
 3547SOL    HW211541   6.690   4.059   4.950
 3548SOL     OW11542   5.590   0.626   5.315
 3548SOL    HW111543   5.680   0.623   5.358
 3548SOL    HW211544   5.543   0.539   5.329
 3549SOL     OW11545   1.612   5.141   5.994
 3549SOL    HW111546   1.697   5.191   6.012
 3549SOL    HW211547   1.612   5.055   6.046
 3550SOL     OW11548   5.551   2.541   4.990
 3550SOL    HW111549   5.645   2.568   4.969
 3550SOL    HW211550   5.519   2.476   4.921
 3551SOL     OW11551   3.215   2.017   5.055
 3551SOL    HW111552   3.308   2.035   5.024
 3551SOL    HW211553   3.166   2.103   5.066
 3552SOL     OW11554   5.910   5.145   2.143
 3552SOL    HW111555   5.940   5.166   2.236
 3552SOL    HW211556   5.843   5.213   2.113
 3553SOL     OW11557   3.562   5.432   6.230
 3553SOL    HW111558   3.610   5.500   6.175
 3553SOL    HW211559   3.596   5.341   6.208
 3554SOL     OW11560   4.256   3.473   0.456
 3554SOL    HW111561   4.165   3.445   0.425
 3554SOL    HW211562   4.299   3.529   0.385
 3555SOL     OW11563   1.604   2.220   4.532
 3555SOL    HW111564   1.657   2.295   4.493
 3555SOL    HW211565   1.607   2.225   4.632
 3556SOL     OW11566   3.997   1.340   3.814
 3556SOL    HW111567   3.983   1.358   3.717
 3556SOL    HW211568   4.073   1.276   3.825
 3557SOL     OW11569   1.100   0.585   3.138
 3557SOL    HW111570   1.071   0.492   3.161
 3557SOL    HW211571   1.032   0.628   3.079
 3558SOL     OW11572   2.710   4.831   0.900
 3558SOL    HW111573   2.771   4.899   0.861
 3558SOL    HW211574   2.666   4.780   0.826
 3559SOL     OW11575   1.997   6.478   4.286
 3559SOL    HW111576   2.068   6.515   4.227
 3559SOL    HW211577   2.003   6.521   4.376
 3560SOL     OW11578   2.121   5.116   3.177
 3560SOL    HW111579   2.156   5.104   3.085
 3560SOL    HW211580   2.032   5.071   3.185
 3561SOL     OW11581   5.087   5.144   6.029
 3561SOL    HW111582   5.000   5.096   6.035
 3561SOL    HW211583   5.158   5.081   5.999
 3562SOL     OW11584   3.632   2.066   4.533
 3562SOL    HW111585   3.565   2.099   4.599
 3562SOL    HW211586   3.602   1.977   4.498
 3563SOL     OW11587   6.117   2.205   6.245
 3563SOL    HW111588   6.110   2.245   6.336
 3563SOL    HW211589   6.034   2.224   6.193
 3564SOL     OW11590   0.492   5.050   3.063
 3564SOL    HW111591   0.405   5.005   3.085
 3564SOL    HW211592   0.515   5.035   2.967
 3565SOL     OW11593   3.460   5.126   2.551
 3565SOL    HW111594   3.432   5.188   2.624
 3565SOL    HW211595   3.492   5.040   2.590
 3566SOL     OW11596   6.285   0.797   5.727
 3566SOL    HW111597   6.344   0.873   5.700
 3566SOL    HW211598   6.315   0.760   5.815
 3567SOL     OW11599   0.109   2.609   6.081
 3567SOL    HW111600   0.098   2.510   6.077
 3567SOL    HW211601   0.037   2.652   6.027
 3568SOL     OW11602   6.218   4.012   5.323
 3568SOL    HW111603   6.253   3.949   5.254
 3568SOL    HW211604   6.247   3.981   5.414
 3569SOL     OW11605   3.171   1.779   5.230
 3569SOL    HW111606   3.208   1.707   5.172
 3569SOL    HW211607   3.181   1.868   5.183
 3570SOL     OW11608   4.775   0.400   6.341
 3570SOL    HW111609   4.716   0.351   6.277
 3570SOL    HW211610   4.838   0.459   6.290
 3571SOL     OW11611   0.269   5.342   7.010
 3571SOL    HW111612   0.268   5.357   6.911
 3571SOL    HW211613   0.305   5.424   0.028
 3572SOL     OW11614   5.289   3.935   3.752
 3572SOL    HW111615   5.212   3.932   3.815
 3572SOL    HW211616   5.350   3.858   3.769
 3573SOL     OW11617   0.179   4.668   3.956
 3573SOL    HW111618   0.245   4.604   3.993
 3573SOL    HW211619   0.200   4.761   3.987
 3574SOL     OW11620   0.509   4.512   0.502
 3574SOL    HW111621   0.509   4.525   0.402
 3574SOL    HW211622   0.415   4.506   0.535
 3575SOL     OW11623   5.503   4.824   3.360
 3575SOL    HW111624   5.521   4.904   3.303
 3575SOL    HW211625   5.479   4.854   3.452
 3576SOL     OW11626   1.973   1.622   5.542
 3576SOL    HW111627   2.052   1.565   5.564
 3576SOL    HW211628   1.914   1.630   5.623
 3577SOL     OW11629   1.230   3.477   5.817
 3577SOL    HW111630   1.277   3.546   5.872
 3577SOL    HW211631   1.237   3.388   5.861
 3578SOL     OW11632   3.951   3.087   0.729
 3578SOL    HW111633   4.039   3.101   0.684
 3578SOL    HW211634   3.883   3.149   0.690
 3579SOL     OW11635   0.271   4.191   4.771
 3579SOL    HW111636   0.320   4.276   4.790
 3579SOL    HW211637   0.181   4.193   4.815
 3580SOL     OW11638   6.152   1.600   0.886
 3580SOL    HW111639   6.081   1.654   0.841
 3580SOL    HW211640   6.124   1.579   0.980
 3581SOL     OW11641   6.373   6.955   3.876
 3581SOL    HW111642   6.341   6.908   3.958
 3581SOL    HW211643   6.432   0.004   3.902
 3582SOL     OW11644   1.029   1.912   6.079
 3582SOL    HW111645   0.996   2.002   6.109
 3582SOL    HW211646   0.957   1.844   6.092
 3583SOL     OW11647   0.851   3.603   6.684
 3583SOL    HW111648   0.759   3.577   6.715
 3583SOL    HW211649   0.919   3.559   6.742
 3584SOL     OW11650   6.110   5.608   7.001
 3584SOL    HW111651   6.082   5.692   6.955
 3584SOL    HW211652   6.030   5.564   0.014
 3585SOL     OW11653   3.567   5.530   5.055
 3585SOL    HW111654   3.528   5.552   4.966
 3585SOL    HW211655   3.574   5.431   5.065
 3586SOL     OW11656   0.021   1.932   5.367
 3586SOL    HW111657   0.024   1.898   5.461
 3586SOL    HW211658   7.007   1.863   5.308
 3587SOL     OW11659   2.538   4.783   0.182
 3587SOL    HW111660   2.575   4.872   0.157
 3587SOL    HW211661   2.609   4.729   0.229
 3588SOL     OW11662   0.648   2.561   4.961
 3588SOL    HW111663   0.626   2.653   4.927
 3588SOL    HW211664   0.583   2.496   4.924
 3589SOL     OW11665   3.786   1.788   4.236
 3589SOL    HW111666   3.711   1.852   4.220
 3589SOL    HW211667   3.845   1.822   4.308
 3590SOL     OW11668   0.071   3.972   5.933
 3590SOL    HW111669   0.106   3.884   5.901
 3590SOL    HW211670   7.012   3.957   5.981
 3591SOL     OW11671   4.731   3.578   6.341
 3591SOL    HW111672   4.830   3.567   6.333
 3591SOL    HW211673   4.699   3.532   6.424
 3592SOL     OW11674   6.038   4.292   2.997
 3592SOL    HW111675   5.960   4.261   3.052
 3592SOL    HW211676   6.107   4.221   2.995
 3593SOL     OW11677   2.371   5.960   4.586
 3593SOL    HW111678   2.358   5.875   4.636
 3593SOL    HW211679   2.290   5.978   4.530
 3594SOL     OW11680   3.700   0.482   2.263
 3594SOL    HW111681   3.708   0.468   2.164
 3594SOL    HW211682   3.758   0.558   2.290
 3595SOL     OW11683   2.404   5.556   6.127
 3595SOL    HW111684   2.446   5.543   6.037
 3595SOL    HW211685   2.449   5.497   6.193
 3596SOL     OW11686   6.196   2.510   2.876
 3596SOL    HW111687   6.234   2.507   2.783
 3596SOL    HW211688   6.222   2.428   2.925
 3597SOL     OW11689   2.489   6.662   4.879
 3597SOL    HW111690   2.556   6.735   4.869
 3597SOL    HW211691   2.431   6.681   4.958
 3598SOL     OW11692   1.456   6.571   6.147
 3598SOL    HW111693   1.524   6.597   6.078
 3598SOL    HW211694   1.456   6.638   6.221
 3599SOL     OW11695   0.467   2.307   5.383
 3599SOL    HW111696   0.434   2.385   5.328
 3599SOL    HW211697   0.409   2.228   5.367
 3600SOL     OW11698   0.870   3.066   0.308
 3600SOL    HW111699   0.861   3.130   0.231
 3600SOL    HW211700   0.880   3.117   0.393
 3601SOL     OW11701   6.574   4.249   0.593
 3601SOL    HW111702   6.626   4.333   0.578
 3601SOL    HW211703   6.546   4.211   0.504
 3602SOL     OW11704   1.447   1.686   0.821
 3602SOL    HW111705   1.456   1.647   0.729
 3602SOL    HW211706   1.533   1.678   0.870
 3603SOL     OW11707   3.389   6.715   4.004
 3603SOL    HW111708   3.406   6.617   4.003
 3603SOL    HW211709   3.412   6.753   4.093
 3604SOL     OW11710   6.745   4.662   4.127
 3604SOL    HW111711   6.670   4.727   4.114
 3604SOL    HW211712   6.820   4.686   4.066
 3605SOL     OW11713   5.323   4.449   5.407
 3605SOL    HW111714   5.245   4.478   5.353
 3605SOL    HW211715   5.328   4.349   5.409
 3606SOL     OW11716   6.982   5.482   5.206
 3606SOL    HW111717   7.003   5.578   5.188
 3606SOL    HW211718   0.017   5.424   5.153
 3607SOL     OW11719   5.181   6.524   0.941
 3607SOL    HW111720   5.232   6.587   0.882
 3607SOL    HW211721   5.244   6.458   0.982
 3608SOL     OW11722   6.521   1.838   2.008
 3608SOL    HW111723   6.617   1.854   1.984
 3608SOL    HW211724   6.514   1.815   2.105
 3609SOL     OW11725   0.495   0.274   3.782
 3609SOL    HW111726   0.545   0.202   3.830
 3609SOL    HW211727   0.493   0.356   3.838
 3610SOL     OW11728   0.997   0.788   5.619
 3610SOL    HW111729   1.014   0.708   5.675
 3610SOL    HW211730   1.058   0.787   5.540
 3611SOL     OW11731   3.728   6.016   5.743
 3611SOL    HW111732   3.635   6.021   5.705
 3611SOL    HW211733   3.731   5.947   5.815
 3612SOL     OW11734   6.182   6.991   5.693
 3612SOL    HW111735   6.233   0.011   5.764
 3612SOL    HW211736   6.089   7.027   5.689
 3613SOL     OW11737   4.917   5.239   1.598
 3613SOL    HW111738   4.913   5.306   1.672
 3613SOL    HW211739   4.994   5.260   1.538
 3614SOL     OW11740   3.536   3.179   2.720
 3614SOL    HW111741   3.605   3.212   2.785
 3614SOL    HW211742   3.457   3.240   2.722
 3615SOL     OW11743   5.120   6.070   0.158
 3615SOL    HW111744   5.093   6.023   0.074
 3615SOL    HW211745   5.072   6.031   0.236
 3616SOL     OW11746   7.005   1.937   6.144
 3616SOL    HW111747   7.002   1.930   6.243
 3616SOL    HW211748   0.073   1.935   6.113
 3617SOL     OW11749   4.918   0.896   6.685
 3617SOL    HW111750   4.865   0.817   6.713
 3617SOL    HW211751   4.889   0.926   6.594
 3618SOL     OW11752   1.984   1.741   5.058
 3618SOL    HW111753   1.932   1.722   5.141
 3618SOL    HW211754   1.939   1.814   5.006
 3619SOL     OW11755   6.391   2.993   3.778
 3619SOL    HW111756   6.486   2.977   3.751
 3619SOL    HW211757   6.359   2.916   3.833
 3620SOL     OW11758   6.183   5.829   6.012
 3620SOL    HW111759   6.268   5.881   6.005
 3620SOL    HW211760   6.105   5.889   5.997
 3621SOL     OW11761   2.822   2.404   5.945
 3621SOL    HW111762   2.823   2.321   5.890
 3621SOL    HW211763   2.881   2.473   5.904
 3622SOL     OW11764   2.013   2.602   3.653
 3622SOL    HW111765   1.993   2.511   3.687
 3622SOL    HW211766   1.938   2.664   3.675
 3623SOL     OW11767   6.137   6.146   3.826
 3623SOL    HW111768   6.127   6.047   3.832
 3623SOL    HW211769   6.046   6.189   3.832
 3624SOL     OW11770   1.104   6.974   2.339
 3624SOL    HW111771   1.177   6.941   2.280
 3624SOL    HW211772   1.036   7.023   2.283
 3625SOL     OW11773   5.648   3.464   6.923
 3625SOL    HW111774   5.737   3.425   6.899
 3625SOL    HW211775   5.576   3.399   6.901
 3626SOL     OW11776   1.529   3.812   5.353
 3626SOL    HW111777   1.623   3.809   5.388
 3626SOL    HW211778   1.487   3.723   5.364
 3627SOL     OW11779   3.689   3.010   3.445
 3627SOL    HW111780   3.771   2.960   3.417
 3627SOL    HW211781   3.711   3.070   3.522
 3628SOL     OW11782   1.570   6.941   1.628
 3628SOL    HW111783   1.522   6.853   1.636
 3628SOL    HW211784   1.598   6.955   1.534
 3629SOL     OW11785   5.953   2.213   4.619
 3629SOL    HW111786   6.023   2.163   4.669
 3629SOL    HW211787   5.912   2.154   4.550
 3630SOL     OW11788   5.001   2.789   3.194
 3630SOL    HW111789   4.956   2.824   3.276
 3630SOL    HW211790   5.100   2.807   3.201
 3631SOL     OW11791   2.231   0.214   3.733
 3631SOL    HW111792   2.277   0.155   3.800
 3631SOL    HW211793   2.269   0.307   3.739
 3632SOL     OW11794   4.695   6.842   0.796
 3632SOL    HW111795   4.715   6.753   0.755
 3632SOL    HW211796   4.657   6.829   0.887
 3633SOL     OW11797   3.124   1.908   5.594
 3633SOL    HW111798   3.079   1.903   5.506
 3633SOL    HW211799   3.214   1.950   5.583
 3634SOL     OW11800   0.956   5.554   4.537
 3634SOL    HW111801   0.933   5.459   4.558
 3634SOL    HW211802   0.947   5.610   4.619
 3635SOL     OW11803   2.754   6.677   6.394
 3635SOL    HW111804   2.742   6.609   6.321
 3635SOL    HW211805   2.770   6.767   6.353
 3636SOL     OW11806   0.704   5.692   6.594
 3636SOL    HW111807   0.673   5.654   6.681
 3636SOL    HW211808   0.764   5.627   6.548
 3637SOL     OW11809   5.749   2.017   1.448
 3637SOL    HW111810   5.773   2.055   1.359
 3637SOL    HW211811   5.739   2.091   1.514
 3638SOL     OW11812   0.164   4.795   4.842
 3638SOL    HW111813   0.151   4.879   4.789
 3638SOL    HW211814   0.145   4.813   4.938
 3639SOL     OW11815   3.465   4.563   1.394
 3639SOL    HW111816   3.549   4.599   1.352
 3639SOL    HW211817   3.465   4.463   1.386
 3640SOL     OW11818   3.483   0.740   6.990
 3640SOL    HW111819   3.443   0.649   6.986
 3640SOL    HW211820   3.469   0.786   6.902
 3641SOL     OW11821   4.903   3.149   4.100
 3641SOL    HW111822   4.925   3.232   4.151
 3641SOL    HW211823   4.857   3.174   4.014
 3642SOL     OW11824   4.728   1.030   0.211
 3642SOL    HW111825   4.647   1.023   0.153
 3642SOL    HW211826   4.705   1.081   0.294
 3643SOL     OW11827   3.301   5.765   4.676
 3643SOL    HW111828   3.237   5.736   4.606
 3643SOL    HW211829   3.259   5.753   4.766
 3644SOL     OW11830   6.268   1.539   1.554
 3644SOL    HW111831   6.279   1.623   1.607
 3644SOL    HW211832   6.328   1.468   1.592
 3645SOL     OW11833   7.022   2.497   3.802
 3645SOL    HW111834   6.985   2.496   3.895
 3645SOL    HW211835   6.953   2.531   3.739
 3646SOL     OW11836   6.467   4.093   6.859
 3646SOL    HW111837   6.558   4.108   6.899
 3646SOL    HW211838   6.453   3.995   6.844
 3647SOL     OW11839   1.914   3.443   0.046
 3647SOL    HW111840   1.951   3.498   6.999
 3647SOL    HW211841   1.916   3.347   0.021
 3648SOL     OW11842   3.339   4.929   3.215
 3648SOL    HW111843   3.267   4.892   3.274
 3648SOL    HW211844   3.340   5.029   3.222
 3649SOL     OW11845   5.231   3.140   2.105
 3649SOL    HW111846   5.295   3.079   2.058
 3649SOL    HW211847   5.158   3.166   2.042
 3650SOL     OW11848   0.749   4.461   0.623
 3650SOL    HW111849   0.820   4.529   0.642
 3650SOL    HW211850   0.688   4.494   0.552
 3651SOL     OW11851   0.673   0.052   3.916
 3651SOL    HW111852   0.766   0.038   3.883
 3651SOL    HW211853   0.661   0.008   4.005
 3652SOL     OW11854   6.085   6.168   2.965
 3652SOL    HW111855   6.053   6.219   2.886
 3652SOL    HW211856   6.103   6.073   2.938
 3653SOL     OW11857   0.651   1.540   4.618
 3653SOL    HW111858   0.676   1.634   4.639
 3653SOL    HW211859   0.645   1.487   4.703
 3654SOL     OW11860   2.745   5.627   0.527
 3654SOL    HW111861   2.801   5.577   0.462
 3654SOL    HW211862   2.659   5.654   0.484
 3655SOL     OW11863   2.561   0.075   3.539
 3655SOL    HW111864   2.584   0.089   3.635
 3655SOL    HW211865   2.474   0.028   3.532
 3656SOL     OW11866   0.871   3.864   2.117
 3656SOL    HW111867   0.863   3.951   2.069
 3656SOL    HW211868   0.786   3.812   2.106
 3657SOL     OW11869   5.117   5.195   6.588
 3657SOL    HW111870   5.051   5.126   6.616
 3657SOL    HW211871   5.129   5.192   6.489
 3658SOL     OW11872   1.723   6.409   4.228
 3658SOL    HW111873   1.814   6.438   4.258
 3658SOL    HW211874   1.726   6.314   4.199
 3659SOL     OW11875   2.233   3.252   5.371
 3659SOL    HW111876   2.295   3.174   5.365
 3659SOL    HW211877   2.162   3.234   5.439
 3660SOL     OW11878   4.519   0.599   2.735
 3660SOL    HW111879   4.429   0.558   2.724
 3660SOL    HW211880   4.519   0.690   2.693
 3661SOL     OW11881   4.664   1.735   6.234
 3661SOL    HW111882   4.669   1.635   6.242
 3661SOL    HW211883   4.735   1.776   6.290
 3662SOL     OW11884   4.199   0.589   3.838
 3662SOL    HW111885   4.108   0.563   3.869
 3662SOL    HW211886   4.192   0.665   3.773
 3663SOL     OW11887   1.394   1.982   0.538
 3663SOL    HW111888   1.372   2.005   0.443
 3663SOL    HW211889   1.486   2.014   0.560
 3664SOL     OW11890   4.989   1.787   1.880
 3664SOL    HW111891   4.963   1.792   1.976
 3664SOL    HW211892   4.910   1.759   1.825
 3665SOL     OW11893   1.983   6.462   5.396
 3665SOL    HW111894   2.002   6.531   5.325
 3665SOL    HW211895   1.886   6.436   5.392
 3666SOL     OW11896   1.804   3.742   3.329
 3666SOL    HW111897   1.791   3.644   3.348
 3666SOL    HW211898   1.883   3.754   3.269
 3667SOL     OW11899   0.135   0.830   1.109
 3667SOL    HW111900   0.149   0.898   1.037
 3667SOL    HW211901   0.040   0.836   1.142
 3668SOL     OW11902   1.394   1.136   2.481
 3668SOL    HW111903   1.306   1.183   2.488
 3668SOL    HW211904   1.461   1.198   2.439
 3669SOL     OW11905   5.637   1.374   3.825
 3669SOL    HW111906   5.619   1.461   3.778
 3669SOL    HW211907   5.561   1.311   3.809
 3670SOL     OW11908   2.157   4.167   0.176
 3670SOL    HW111909   2.221   4.177   0.253
 3670SOL    HW211910   2.116   4.257   0.156
 3671SOL     OW11911   6.018   0.310   3.991
 3671SOL    HW111912   5.963   0.264   3.921
 3671SOL    HW211913   5.966   0.312   4.077
 3672SOL     OW11914   5.781   2.234   1.680
 3672SOL    HW111915   5.777   2.156   1.742
 3672SOL    HW211916   5.790   2.319   1.732
 3673SOL     OW11917   4.362   0.191   6.589
 3673SOL    HW111918   4.409   0.262   6.641
 3673SOL    HW211919   4.282   0.159   6.641
 3674SOL     OW11920   0.460   6.845   4.892
 3674SOL    HW111921   0.394   6.914   4.863
 3674SOL    HW211922   0.458   6.836   4.992
 3675SOL     OW11923   1.386   3.033   5.009
 3675SOL    HW111924   1.319   3.094   5.052
 3675SOL    HW211925   1.465   3.086   4.979
 3676SOL     OW11926   5.211   4.346   4.809
 3676SOL    HW111927   5.196   4.248   4.820
 3676SOL    HW211928   5.239   4.386   4.896
 3677SOL     OW11929   2.236   6.463   2.904
 3677SOL    HW111930   2.215   6.387   2.842
 3677SOL    HW211931   2.301   6.524   2.859
 3678SOL     OW11932   0.308   2.946   4.437
 3678SOL    HW111933   0.397   2.972   4.399
 3678SOL    HW211934   0.236   2.991   4.385
 3679SOL     OW11935   1.761   0.511   2.911
 3679SOL    HW111936   1.797   0.575   2.843
 3679SOL    HW211937   1.825   0.503   2.987
 3680SOL     OW11938   5.597   2.097   3.135
 3680SOL    HW111939   5.669   2.038   3.171
 3680SOL    HW211940   5.559   2.153   3.208
 3681SOL     OW11941   0.827   0.373   5.239
 3681SOL    HW111942   0.848   0.314   5.317
 3681SOL    HW211943   0.728   0.377   5.226
 3682SOL     OW11944   5.468   2.487   6.826
 3682SOL    HW111945   5.453   2.574   6.780
 3682SOL    HW211946   5.470   2.501   6.925
 3683SOL     OW11947   0.019   0.039   3.251
 3683SOL    HW111948   0.027   0.025   3.350
 3683SOL    HW211949   6.950   0.040   3.225
 3684SOL     OW11950   1.443   4.973   6.657
 3684SOL    HW111951   1.500   4.902   6.699
 3684SOL    HW211952   1.353   4.935   6.638
 3685SOL     OW11953   6.737   6.166   5.967
 3685SOL    HW111954   6.657   6.138   5.914
 3685SOL    HW211955   6.815   6.177   5.905
 3686SOL     OW11956   5.896   6.341   2.836
 3686SOL    HW111957   5.926   6.425   2.880
 3686SOL    HW211958   5.833   6.293   2.897
 3687SOL     OW11959   3.794   6.280   5.683
 3687SOL    HW111960   3.782   6.194   5.733
 3687SOL    HW211961   3.891   6.307   5.687
 3688SOL     OW11962   6.639   3.648   6.592
 3688SOL    HW111963   6.556   3.596   6.568
 3688SOL    HW211964   6.686   3.675   6.508
 3689SOL     OW11965   2.003   0.941   6.707
 3689SOL    HW111966   2.043   0.860   6.664
 3689SOL    HW211967   1.938   0.983   6.645
 3690SOL     OW11968   4.780   6.682   0.311
 3690SOL    HW111969   4.693   6.640   0.339
 3690SOL    HW211970   4.844   6.680   0.387
 3691SOL     OW11971   3.038   2.706   0.176
 3691SOL    HW111972   2.968   2.690   0.246
 3691SOL    HW211973   3.006   2.775   0.112
 3692SOL     OW11974   0.790   5.950   5.004
 3692SOL    HW111975   0.712   5.983   4.952
 3692SOL    HW211976   0.854   6.026   5.020
 3693SOL     OW11977   1.997   2.915   2.848
 3693SOL    HW111978   1.904   2.882   2.861
 3693SOL    HW211979   1.995   3.012   2.824
 3694SOL     OW11980   1.294   5.243   3.124
 3694SOL    HW111981   1.362   5.220   3.192
 3694SOL    HW211982   1.207   5.199   3.146
 3695SOL     OW11983   0.107   2.809   2.301
 3695SOL    HW111984   0.064   2.802   2.211
 3695SOL    HW211985   0.169   2.732   2.315
 3696SOL     OW11986   3.117   5.867   5.096
 3696SOL    HW111987   3.174   5.791   5.064
 3696SOL    HW211988   3.162   5.911   5.173
 3697SOL     OW11989   0.051   6.659   3.320
 3697SOL    HW111990   6.996   6.672   3.374
 3697SOL    HW211991   0.031   6.675   3.223
 3698SOL     OW11992   2.116   0.398   4.404
 3698SOL    HW111993   2.108   0.327   4.333
 3698SOL    HW211994   2.170   0.362   4.480
 3699SOL     OW11995   0.667   3.338   3.594
 3699SOL    HW111996   0.677   3.247   3.553
 3699SOL    HW211997   0.663   3.407   3.522
 3700SOL     OW11998   0.362   0.105   5.146
 3700SOL    HW111999   0.382   0.088   5.243
 3700SOL    HW212000   0.273   0.064   5.123
 3701SOL     OW12001   1.436   0.365   3.748
 3701SOL    HW112002   1.470   0.440   3.804
 3701SOL    HW212003   1.455   0.384   3.652
 3702SOL     OW12004   6.054   6.559   2.610
 3702SOL    HW112005   5.969   6.531   2.654
 3702SOL    HW212006   6.110   6.478   2.591
 3703SOL     OW12007   4.517   1.768   6.613
 3703SOL    HW112008   4.509   1.867   6.604
 3703SOL    HW212009   4.426   1.729   6.629
 3704SOL     OW12010   3.777   1.493   1.604
 3704SOL    HW112011   3.716   1.414   1.601
 3704SOL    HW212012   3.819   1.499   1.695
 3705SOL     OW12013   4.639   5.876   3.832
 3705SOL    HW112014   4.566   5.817   3.799
 3705SOL    HW212015   4.711   5.821   3.874
 3706SOL     OW12016   1.452   4.203   5.463
 3706SOL    HW112017   1.387   4.128   5.478
 3706SOL    HW212018   1.526   4.195   5.530
 3707SOL     OW12019   5.504   4.148   5.594
 3707SOL    HW112020   5.599   4.157   5.564
 3707SOL    HW212021   5.444   4.144   5.514
 3708SOL     OW12022   6.546   0.995   6.231
 3708SOL    HW112023   6.637   0.958   6.245
 3708SOL    HW212024   6.477   0.926   6.252
 3709SOL     OW12025   3.521   0.963   0.744
 3709SOL    HW112026   3.598   1.019   0.716
 3709SOL    HW212027   3.436   1.010   0.722
 3710SOL     OW12028   6.961   5.697   6.864
 3710SOL    HW112029   6.963   5.738   6.773
 3710SOL    HW212030   0.025   5.663   6.887
 3711SOL     OW12031   0.853   0.084   3.232
 3711SOL    HW112032   0.933   0.024   3.231
 3711SOL    HW212033   0.770   0.029   3.235
 3712SOL     OW12034   0.293   6.111   0.013
 3712SOL    HW112035   0.292   6.163   6.955
 3712SOL    HW212036   0.357   6.154   0.077
 3713SOL     OW12037   1.814   6.332   4.905
 3713SOL    HW112038   1.714   6.327   4.897
 3713SOL    HW212039   1.850   6.391   4.833
 3714SOL     OW12040   4.427   5.896   5.285
 3714SOL    HW112041   4.392   5.963   5.350
 3714SOL    HW212042   4.391   5.806   5.306
 3715SOL     OW12043   5.616   3.703   2.761
 3715SOL    HW112044   5.655   3.679   2.850
 3715SOL    HW212045   5.637   3.630   2.695
 3716SOL     OW12046   6.080   6.524   5.346
 3716SOL    HW112047   6.041   6.616   5.347
 3716SOL    HW212048   6.029   6.466   5.410
 3717SOL     OW12049   5.358   5.850   6.396
 3717SOL    HW112050   5.289   5.918   6.421
 3717SOL    HW212051   5.448   5.879   6.429
 3718SOL     OW12052   1.626   0.592   6.964
 3718SOL    HW112053   1.675   0.628   6.885
 3718SOL    HW212054   1.529   0.614   6.956
 3719SOL     OW12055   5.471   4.507   1.046
 3719SOL    HW112056   5.441   4.412   1.054
 3719SOL    HW212057   5.539   4.514   0.973
 3720SOL     OW12058   6.357   2.201   6.027
 3720SOL    HW112059   6.346   2.165   6.119
 3720SOL    HW212060   6.291   2.274   6.012
 3721SOL     OW12061   4.931   4.448   1.771
 3721SOL    HW112062   4.966   4.404   1.854
 3721SOL    HW212063   4.839   4.483   1.788
 3722SOL     OW12064   6.306   6.397   1.300
 3722SOL    HW112065   6.304   6.480   1.355
 3722SOL    HW212066   6.252   6.325   1.345
 3723SOL     OW12067   6.473   6.386   2.119
 3723SOL    HW112068   6.473   6.413   2.023
 3723SOL    HW212069   6.529   6.304   2.131
 3724SOL     OW12070   2.156   4.546   5.852
 3724SOL    HW112071   2.159   4.460   5.801
 3724SOL    HW212072   2.092   4.537   5.928
 3725SOL     OW12073   5.956   5.264   0.884
 3725SOL    HW112074   5.950   5.351   0.931
 3725SOL    HW212075   5.993   5.195   0.946
 3726SOL     OW12076   6.443   4.713   0.568
 3726SOL    HW112077   6.420   4.626   0.612
 3726SOL    HW212078   6.455   4.784   0.637
 3727SOL     OW12079   6.971   1.812   5.613
 3727SOL    HW112080   6.955   1.859   5.700
 3727SOL    HW212081   0.021   1.750   5.622
 3728SOL     OW12082   0.975   4.299   6.898
 3728SOL    HW112083   1.064   4.265   6.929
 3728SOL    HW212084   0.987   4.351   6.814
 3729SOL     OW12085   0.902   1.981   3.095
 3729SOL    HW112086   0.998   1.978   3.124
 3729SOL    HW212087   0.869   1.888   3.081
 3730SOL     OW12088   2.739   5.471   6.632
 3730SOL    HW112089   2.747   5.502   6.727
 3730SOL    HW212090   2.771   5.377   6.625
 3731SOL     OW12091   5.512   0.319   1.057
 3731SOL    HW112092   5.510   0.228   1.017
 3731SOL    HW212093   5.567   0.380   1.000
 3732SOL     OW12094   2.400   2.205   5.833
 3732SOL    HW112095   2.465   2.193   5.758
 3732SOL    HW212096   2.355   2.118   5.853
 3733SOL     OW12097   1.305   3.397   2.099
 3733SOL    HW112098   1.252   3.397   2.014
 3733SOL    HW212099   1.323   3.302   2.128
 3734SOL     OW12100   4.677   1.197   2.177
 3734SOL    HW112101   4.614   1.176   2.252
 3734SOL    HW212102   4.770   1.200   2.211
 3735SOL     OW12103   2.711   0.846   3.612
 3735SOL    HW112104   2.658   0.874   3.532
 3735SOL    HW212105   2.809   0.852   3.590
 3736SOL     OW12106   6.536   2.379   0.426
 3736SOL    HW112107   6.522   2.280   0.429
 3736SOL    HW212108   6.633   2.399   0.412
 3737SOL     OW12109   4.681   0.102   3.328
 3737SOL    HW112110   4.724   0.050   3.402
 3737SOL    HW212111   4.694   0.200   3.345
 3738SOL     OW12112   0.239   6.000   2.090
 3738SOL    HW112113   0.291   5.985   2.005
 3738SOL    HW212114   0.288   6.066   2.147
 3739SOL     OW12115   2.458   4.886   1.685
 3739SOL    HW112116   2.511   4.840   1.756
 3739SOL    HW212117   2.377   4.831   1.663
 3740SOL     OW12118   5.764   0.367   0.513
 3740SOL    HW112119   5.744   0.295   0.447
 3740SOL    HW212120   5.862   0.370   0.531
 3741SOL     OW12121   5.350   3.043   1.340
 3741SOL    HW112122   5.289   2.968   1.315
 3741SOL    HW212123   5.297   3.125   1.359
 3742SOL     OW12124   2.560   2.181   6.608
 3742SOL    HW112125   2.600   2.105   6.557
 3742SOL    HW212126   2.477   2.149   6.654
 3743SOL     OW12127   5.116   2.792   0.919
 3743SOL    HW112128   5.134   2.717   0.983
 3743SOL    HW212129   5.045   2.765   0.855
 3744SOL     OW12130   0.489   6.052   2.723
 3744SOL    HW112131   0.540   6.023   2.804
 3744SOL    HW212132   0.552   6.063   2.646
 3745SOL     OW12133   3.891   5.123   1.963
 3745SOL    HW112134   3.886   5.024   1.949
 3745SOL    HW212135   3.799   5.162   1.961
 3746SOL     OW12136   5.673   1.362   3.018
 3746SOL    HW112137   5.596   1.374   2.954
 3746SOL    HW212138   5.759   1.373   2.969
 3747SOL     OW12139   2.830   0.041   5.344
 3747SOL    HW112140   2.757   0.108   5.361
 3747SOL    HW212141   2.919   0.086   5.356
 3748SOL     OW12142   5.699   0.330   1.834
 3748SOL    HW112143   5.703   0.305   1.931
 3748SOL    HW212144   5.791   0.339   1.798
 3749SOL     OW12145   1.935   6.207   3.632
 3749SOL    HW112146   1.969   6.178   3.721
 3749SOL    HW212147   1.955   6.304   3.618
 3750SOL     OW12148   1.318   3.882   0.554
 3750SOL    HW112149   1.375   3.878   0.471
 3750SOL    HW212150   1.244   3.816   0.546
 3751SOL     OW12151   6.866   3.693   1.994
 3751SOL    HW112152   6.931   3.624   1.962
 3751SOL    HW212153   6.898   3.732   2.080
 3752SOL     OW12154   5.206   0.619   6.581
 3752SOL    HW112155   5.265   0.699   6.593
 3752SOL    HW212156   5.138   0.638   6.510
 3753SOL     OW12157   6.676   0.581   5.523
 3753SOL    HW112158   6.711   0.511   5.585
 3753SOL    HW212159   6.582   0.605   5.549
 3754SOL     OW12160   1.768   0.434   1.421
 3754SOL    HW112161   1.788   0.384   1.337
 3754SOL    HW212162   1.816   0.392   1.498
 3755SOL     OW12163   5.050   5.568   5.219
 3755SOL    HW112164   5.067   5.641   5.153
 3755SOL    HW212165   5.101   5.585   5.303
 3756SOL     OW12166   3.026   5.105   6.593
 3756SOL    HW112167   3.075   5.078   6.510
 3756SOL    HW212168   3.066   5.058   6.672
 3757SOL     OW12169   6.146   5.204   1.962
 3757SOL    HW112170   6.072   5.158   2.011
 3757SOL    HW212171   6.223   5.141   1.951
 3758SOL     OW12172   2.269   1.557   4.442
 3758SOL    HW112173   2.169   1.555   4.454
 3758SOL    HW212174   2.292   1.522   4.351
 3759SOL     OW12175   4.184   0.050   5.930
 3759SOL    HW112176   4.107   7.015   5.918
 3759SOL    HW212177   4.262   0.020   5.875
 3760SOL     OW12178   0.633   1.797   4.177
 3760SOL    HW112179   0.707   1.857   4.207
 3760SOL    HW212180   0.663   1.743   4.099
 3761SOL     OW12181   6.540   1.218   5.470
 3761SOL    HW112182   6.615   1.155   5.449
 3761SOL    HW212183   6.483   1.178   5.542
 3762SOL     OW12184   1.296   4.187   1.551
 3762SOL    HW112185   1.242   4.163   1.470
 3762SOL    HW212186   1.306   4.287   1.556
 3763SOL     OW12187   0.371   3.585   6.926
 3763SOL    HW112188   0.435   3.541   6.989
 3763SOL    HW212189   0.277   3.559   6.949
 3764SOL     OW12190   1.292   6.843   2.140
 3764SOL    HW112191   1.278   6.849   2.041
 3764SOL    HW212192   1.383   6.877   2.162
 3765SOL     OW12193   5.685   1.299   0.878
 3765SOL    HW112194   5.780   1.275   0.901
 3765SOL    HW212195   5.648   1.358   0.950
 3766SOL     OW12196   1.893   2.515   4.236
 3766SOL    HW112197   1.985   2.495   4.267
 3766SOL    HW212198   1.829   2.506   4.312
 3767SOL     OW12199   3.353   4.531   6.936
 3767SOL    HW112200   3.257   4.557   6.945
 3767SOL    HW212201   3.401   4.552   7.021
 3768SOL     OW12202   0.793   6.883   4.385
 3768SOL    HW112203   0.830   6.805   4.436
 3768SOL    HW212204   0.801   6.966   4.440
 3769SOL     OW12205   5.967   5.358   4.929
 3769SOL    HW112206   5.869   5.341   4.944
 3769SOL    HW212207   5.990   5.449   4.965
 3770SOL     OW12208   0.840   0.505   6.906
 3770SOL    HW112209   0.921   0.513   6.963
 3770SOL    HW212210   0.765   0.466   6.960
 3771SOL     OW12211   5.248   4.257   0.362
 3771SOL    HW112212   5.152   4.259   0.392
 3771SOL    HW212213   5.307   4.282   0.439
 3772SOL     OW12214   0.414   0.323   0.207
 3772SOL    HW112215   0.356   0.243   0.192
 3772SOL    HW212216   0.357   0.404   0.217
 3773SOL     OW12217   6.079   3.285   5.730
 3773SOL    HW112218   6.167   3.243   5.704
 3773SOL    HW212219   6.093   3.348   5.806
 3774SOL     OW12220   5.714   5.672   1.663
 3774SOL    HW112221   5.703   5.749   1.726
 3774SOL    HW212222   5.638   5.608   1.675
 3775SOL     OW12223   4.955   5.284   3.027
 3775SOL    HW112224   4.912   5.315   2.943
 3775SOL    HW212225   5.006   5.200   3.009
 3776SOL     OW12226   3.587   2.582   6.965
 3776SOL    HW112227   3.622   2.671   6.995
 3776SOL    HW212228   3.487   2.586   6.960
 3777SOL     OW12229   3.053   4.895   3.312
 3777SOL    HW112230   3.012   4.883   3.221
 3777SOL    HW212231   3.044   4.991   3.340
 3778SOL     OW12232   2.566   5.504   3.143
 3778SOL    HW112233   2.644   5.441   3.147
 3778SOL    HW212234   2.483   5.453   3.119
 3779SOL     OW12235   0.811   4.654   1.400
 3779SOL    HW112236   0.884   4.585   1.396
 3779SOL    HW212237   0.791   4.685   1.307
 3780SOL     OW12238   6.545   4.333   4.816
 3780SOL    HW112239   6.551   4.424   4.775
 3780SOL    HW212240   6.486   4.275   4.760
 3781SOL     OW12241   0.620   0.127   3.530
 3781SOL    HW112242   0.594   0.124   3.626
 3781SOL    HW212243   0.652   0.218   3.507
 3782SOL     OW12244   2.997   0.234   2.570
 3782SOL    HW112245   3.040   0.158   2.520
 3782SOL    HW212246   3.027   0.321   2.531
 3783SOL     OW12247   6.131   5.619   4.158
 3783SOL    HW112248   6.185   5.559   4.100
 3783SOL    HW212249   6.159   5.608   4.253
 3784SOL     OW12250   5.203   3.131   2.941
 3784SOL    HW112251   5.233   3.122   2.846
 3784SOL    HW212252   5.103   3.136   2.945
 3785SOL     OW12253   1.740   3.247   5.276
 3785SOL    HW112254   1.763   3.187   5.200
 3785SOL    HW212255   1.777   3.209   5.361
 3786SOL     OW12256   2.134   3.945   3.178
 3786SOL    HW112257   2.113   4.010   3.105
 3786SOL    HW212258   2.123   3.852   3.145
 3787SOL     OW12259   5.736   0.786   1.754
 3787SOL    HW112260   5.646   0.825   1.773
 3787SOL    HW212261   5.767   0.816   1.663
 3788SOL     OW12262   6.883   4.552   4.975
 3788SOL    HW112263   6.969   4.569   5.023
 3788SOL    HW212264   6.875   4.616   4.898
 3789SOL     OW12265   6.874   3.526   3.825
 3789SOL    HW112266   6.801   3.468   3.860
 3789SOL    HW212267   6.837   3.616   3.801
 3790SOL     OW12268   0.997   5.334   6.094
 3790SOL    HW112269   1.041   5.358   6.181
 3790SOL    HW212270   0.962   5.241   6.099
 3791SOL     OW12271   4.749   1.892   6.450
 3791SOL    HW112272   4.830   1.910   6.506
 3791SOL    HW212273   4.674   1.861   6.508
 3792SOL     OW12274   1.436   1.822   3.468
 3792SOL    HW112275   1.486   1.765   3.533
 3792SOL    HW212276   1.340   1.793   3.466
 3793SOL     OW12277   4.294   6.595   1.734
 3793SOL    HW112278   4.270   6.602   1.637
 3793SOL    HW212279   4.389   6.624   1.747
 3794SOL     OW12280   2.733   2.915   1.675
 3794SOL    HW112281   2.772   2.867   1.596
 3794SOL    HW212282   2.639   2.883   1.690
 3795SOL     OW12283   4.809   5.813   1.109
 3795SOL    HW112284   4.823   5.864   1.194
 3795SOL    HW212285   4.820   5.715   1.127
 3796SOL     OW12286   4.515   1.958   2.253
 3796SOL    HW112287   4.421   1.953   2.285
 3796SOL    HW212288   4.553   1.866   2.246
 3797SOL     OW12289   0.605   3.413   3.076
 3797SOL    HW112290   0.534   3.484   3.082
 3797SOL    HW212291   0.683   3.448   3.024
 3798SOL     OW12292   2.207   6.269   2.449
 3798SOL    HW112293   2.280   6.299   2.387
 3798SOL    HW212294   2.126   6.326   2.433
 3799SOL     OW12295   6.563   2.840   3.598
 3799SOL    HW112296   6.639   2.831   3.533
 3799SOL    HW212297   6.579   2.781   3.677
 3800SOL     OW12298   5.838   1.404   4.059
 3800SOL    HW112299   5.779   1.413   3.980
 3800SOL    HW212300   5.890   1.489   4.072
 3801SOL     OW12301   6.200   6.660   1.810
 3801SOL    HW112302   6.124   6.680   1.872
 3801SOL    HW212303   6.170   6.670   1.716
 3802SOL     OW12304   1.182   1.829   1.609
 3802SOL    HW112305   1.093   1.784   1.609
 3802SOL    HW212306   1.244   1.779   1.548
 3803SOL     OW12307   4.125   3.525   2.977
 3803SOL    HW112308   4.184   3.601   2.950
 3803SOL    HW212309   4.112   3.463   2.899
 3804SOL     OW12310   4.406   1.023   3.616
 3804SOL    HW112311   4.420   0.944   3.675
 3804SOL    HW212312   4.486   1.038   3.559
 3805SOL     OW12313   1.913   3.079   1.825
 3805SOL    HW112314   1.984   3.127   1.875
 3805SOL    HW212315   1.954   3.024   1.752
 3806SOL     OW12316   3.347   3.914   5.254
 3806SOL    HW112317   3.352   3.827   5.206
 3806SOL    HW212318   3.327   3.987   5.189
 3807SOL     OW12319   2.109   5.301   2.860
 3807SOL    HW112320   2.080   5.380   2.914
 3807SOL    HW212321   2.149   5.333   2.774
 3808SOL     OW12322   3.903   1.292   0.068
 3808SOL    HW112323   3.990   1.278   0.116
 3808SOL    HW212324   3.842   1.347   0.125
 3809SOL     OW12325   5.555   2.931   1.451
 3809SOL    HW112326   5.487   2.975   1.393
 3809SOL    HW212327   5.623   2.998   1.481
 3810SOL     OW12328   5.954   2.918   3.643
 3810SOL    HW112329   5.875   2.892   3.587
 3810SOL    HW212330   5.937   2.893   3.738
 3811SOL     OW12331   0.105   6.607   4.668
 3811SOL    HW112332   0.202   6.632   4.671
 3811SOL    HW212333   0.084   6.565   4.580
 3812SOL     OW12334   4.144   5.022   5.322
 3812SOL    HW112335   4.104   4.946   5.271
 3812SOL    HW212336   4.159   5.100   5.261
 3813SOL     OW12337   5.548   3.898   0.088
 3813SOL    HW112338   5.598   3.858   0.011
 3813SOL    HW212339   5.451   3.906   0.065
 3814SOL     OW12340   6.430   6.998   5.295
 3814SOL    HW112341   6.523   6.980   5.262
 3814SOL    HW212342   6.370   7.017   5.217
 3815SOL     OW12343   4.071   2.136   0.961
 3815SOL    HW112344   4.030   2.079   1.032
 3815SOL    HW212345   4.046   2.100   0.871
 3816SOL     OW12346   1.237   4.782   6.562
 3816SOL    HW112347   1.140   4.791   6.538
 3816SOL    HW212348   1.291   4.784   6.478
 3817SOL     OW12349   4.928   3.347   2.183
 3817SOL    HW112350   4.947   3.445   2.179
 3817SOL    HW212351   4.953   3.304   2.096
 3818SOL     OW12352   6.373   1.380   6.917
 3818SOL    HW112353   6.463   1.357   6.954
 3818SOL    HW212354   6.361   1.479   6.917
 3819SOL     OW12355   5.911   5.363   2.857
 3819SOL    HW112356   5.811   5.358   2.855
 3819SOL    HW212357   5.947   5.291   2.916
 3820SOL     OW12358   5.251   6.909   4.141
 3820SOL    HW112359   5.278   6.986   4.083
 3820SOL    HW212360   5.314   6.902   4.218
 3821SOL     OW12361   1.590   0.737   2.097
 3821SOL    HW112362   1.512   0.701   2.046
 3821SOL    HW212363   1.665   0.756   2.034
 3822SOL     OW12364   2.306   6.409   0.420
 3822SOL    HW112365   2.251   6.346   0.474
 3822SOL    HW212366   2.278   6.407   0.325
 3823SOL     OW12367   3.189   3.850   6.087
 3823SOL    HW112368   3.203   3.762   6.040
 3823SOL    HW212369   3.265   3.911   6.065
 3824SOL     OW12370   0.574   2.361   0.599
 3824SOL    HW112371   0.591   2.316   0.511
 3824SOL    HW212372   0.479   2.348   0.625
 3825SOL     OW12373   0.639   4.900   0.120
 3825SOL    HW112374   0.650   4.997   0.098
 3825SOL    HW212375   0.557   4.865   0.075
 3826SOL     OW12376   1.055   3.746   0.513
 3826SOL    HW112377   1.037   3.716   0.420
 3826SOL    HW212378   1.013   3.682   0.578
 3827SOL     OW12379   1.247   0.844   1.694
 3827SOL    HW112380   1.316   0.913   1.671
 3827SOL    HW212381   1.157   0.888   1.698
 3828SOL     OW12382   3.379   3.267   3.709
 3828SOL    HW112383   3.461   3.323   3.696
 3828SOL    HW212384   3.405   3.176   3.741
 3829SOL     OW12385   0.945   4.744   2.466
 3829SOL    HW112386   0.966   4.786   2.377
 3829SOL    HW212387   1.030   4.709   2.506
 3830SOL     OW12388   1.081   0.859   5.160
 3830SOL    HW112389   0.990   0.818   5.157
 3830SOL    HW212390   1.125   0.837   5.247
 3831SOL     OW12391   4.628   2.139   2.659
 3831SOL    HW112392   4.598   2.147   2.563
 3831SOL    HW212393   4.639   2.231   2.697
 3832SOL     OW12394   6.639   0.627   2.983
 3832SOL    HW112395   6.597   0.593   3.067
 3832SOL    HW212396   6.721   0.574   2.962
 3833SOL     OW12397   0.580   6.154   6.587
 3833SOL    HW112398   0.594   6.221   6.660
 3833SOL    HW212399   0.514   6.085   6.618
 3834SOL     OW12400   3.509   4.132   0.654
 3834SOL    HW112401   3.414   4.114   0.677
 3834SOL    HW212402   3.516   4.156   0.557
 3835SOL     OW12403   3.934   6.078   4.465
 3835SOL    HW112404   3.920   6.035   4.554
 3835SOL    HW212405   3.955   6.175   4.478
 3836SOL     OW12406   0.159   4.873   5.955
 3836SOL    HW112407   0.221   4.931   5.903
 3836SOL    HW212408   0.066   4.908   5.948
 3837SOL     OW12409   4.758   4.206   6.289
 3837SOL    HW112410   4.728   4.199   6.384
 3837SOL    HW212411   4.837   4.147   6.274
 3838SOL     OW12412   0.925   2.925   3.747
 3838SOL    HW112413   1.010   2.902   3.793
 3838SOL    HW212414   0.905   2.855   3.678
 3839SOL     OW12415   5.487   1.910   2.944
 3839SOL    HW112416   5.524   1.984   3.000
 3839SOL    HW212417   5.444   1.842   3.004
 3840SOL     OW12418   2.981   1.556   6.610
 3840SOL    HW112419   3.016   1.647   6.633
 3840SOL    HW212420   3.052   1.506   6.560
 3841SOL     OW12421   0.201   3.363   4.480
 3841SOL    HW112422   0.249   3.328   4.400
 3841SOL    HW212423   0.193   3.463   4.473
 3842SOL     OW12424   1.703   2.438   2.278
 3842SOL    HW112425   1.762   2.357   2.273
 3842SOL    HW212426   1.758   2.517   2.308
 3843SOL     OW12427   5.523   4.414   2.872
 3843SOL    HW112428   5.575   4.490   2.832
 3843SOL    HW212429   5.541   4.409   2.970
 3844SOL     OW12430   1.019   2.521   5.197
 3844SOL    HW112431   1.063   2.466   5.267
 3844SOL    HW212432   0.959   2.464   5.141
 3845SOL     OW12433   3.683   4.487   6.112
 3845SOL    HW112434   3.641   4.410   6.064
 3845SOL    HW212435   3.611   4.548   6.146
 3846SOL     OW12436   6.911   4.844   3.271
 3846SOL    HW112437   6.895   4.941   3.290
 3846SOL    HW212438   6.977   4.807   3.337
 3847SOL     OW12439   5.083   3.000   4.464
 3847SOL    HW112440   5.116   2.906   4.450
 3847SOL    HW212441   5.151   3.064   4.430
 3848SOL     OW12442   4.448   4.533   2.741
 3848SOL    HW112443   4.371   4.586   2.777
 3848SOL    HW212444   4.475   4.568   2.652
 3849SOL     OW12445   1.072   1.628   5.743
 3849SOL    HW112446   1.054   1.570   5.663
 3849SOL    HW212447   1.171   1.638   5.755
 3850SOL     OW12448   2.440   3.712   1.691
 3850SOL    HW112449   2.401   3.633   1.739
 3850SOL    HW212450   2.539   3.713   1.704
 3851SOL     OW12451   1.082   4.268   2.985
 3851SOL    HW112452   1.033   4.355   2.991
 3851SOL    HW212453   1.020   4.192   3.004
 3852SOL     OW12454   4.067   6.238   4.029
 3852SOL    HW112455   4.151   6.279   4.064
 3852SOL    HW212456   4.077   6.218   3.931
 3853SOL     OW12457   0.641   4.153   3.712
 3853SOL    HW112458   0.562   4.207   3.742
 3853SOL    HW212459   0.722   4.182   3.763
 3854SOL     OW12460   1.690   1.970   2.574
 3854SOL    HW112461   1.648   2.038   2.513
 3854SOL    HW212462   1.751   2.016   2.638
 3855SOL     OW12463   5.036   6.473   6.113
 3855SOL    HW112464   4.979   6.469   6.195
 3855SOL    HW212465   5.132   6.483   6.139
 3856SOL     OW12466   6.710   0.524   5.971
 3856SOL    HW112467   6.629   0.517   5.912
 3856SOL    HW212468   6.726   0.437   6.016
 3857SOL     OW12469   0.716   6.017   6.859
 3857SOL    HW112470   0.755   6.000   6.950
 3857SOL    HW212471   0.625   5.974   6.853
 3858SOL     OW12472   2.581   1.233   5.671
 3858SOL    HW112473   2.600   1.219   5.768
 3858SOL    HW212474   2.487   1.265   5.659
 3859SOL     OW12475   5.343   1.248   2.105
 3859SOL    HW112476   5.377   1.258   2.199
 3859SOL    HW212477   5.326   1.339   2.066
 3860SOL     OW12478   2.226   1.500   4.160
 3860SOL    HW112479   2.164   1.564   4.114
 3860SOL    HW212480   2.311   1.493   4.108
 3861SOL     OW12481   4.377   5.278   3.191
 3861SOL    HW112482   4.319   5.316   3.119
 3861SOL    HW212483   4.398   5.183   3.170
 3862SOL     OW12484   0.552   0.543   4.973
 3862SOL    HW112485   0.528   0.475   5.042
 3862SOL    HW212486   0.520   0.633   5.002
 3863SOL     OW12487   5.491   2.350   0.237
 3863SOL    HW112488   5.537   2.280   0.291
 3863SOL    HW212489   5.556   2.393   0.175
 3864SOL     OW12490   2.423   0.986   5.379
 3864SOL    HW112491   2.467   0.973   5.467
 3864SOL    HW212492   2.420   1.084   5.358
 3865SOL     OW12493   3.887   0.945   0.545
 3865SOL    HW112494   3.942   0.890   0.608
 3865SOL    HW212495   3.845   0.887   0.476
 3866SOL     OW12496   3.151   0.456   0.740
 3866SOL    HW112497   3.101   0.478   0.657
 3866SOL    HW212498   3.153   0.357   0.754
 3867SOL     OW12499   0.655   5.115   4.073
 3867SOL    HW112500   0.733   5.114   4.011
 3867SOL    HW212501   0.608   5.027   4.069
 3868SOL     OW12502   3.047   6.524   0.399
 3868SOL    HW112503   2.974   6.566   0.454
 3868SOL    HW212504   3.008   6.489   0.314
 3869SOL     OW12505   6.348   3.882   4.879
 3869SOL    HW112506   6.385   3.967   4.843
 3869SOL    HW212507   6.385   3.804   4.828
 3870SOL     OW12508   6.180   5.986   0.105
 3870SOL    HW112509   6.106   5.922   0.080
 3870SOL    HW212510   6.208   5.968   0.200
 3871SOL     OW12511   3.392   0.555   2.767
 3871SOL    HW112512   3.358   0.463   2.746
 3871SOL    HW212513   3.409   0.604   2.681
 3872SOL     OW12514   3.784   2.929   3.962
 3872SOL    HW112515   3.700   2.913   3.911
 3872SOL    HW212516   3.762   2.952   4.057
 3873SOL     OW12517   6.761   2.915   1.123
 3873SOL    HW112518   6.858   2.938   1.114
 3873SOL    HW212519   6.740   2.836   1.065
 3874SOL     OW12520   4.385   6.103   6.864
 3874SOL    HW112521   4.354   6.140   6.777
 3874SOL    HW212522   4.476   6.138   6.884
 3875SOL     OW12523   2.065   3.248   2.477
 3875SOL    HW112524   1.980   3.297   2.494
 3875SOL    HW212525   2.128   3.307   2.427
 3876SOL     OW12526   3.680   5.751   1.376
 3876SOL    HW112527   3.598   5.704   1.344
 3876SOL    HW212528   3.654   5.826   1.437
 3877SOL     OW12529   5.940   2.834   0.574
 3877SOL    HW112530   5.923   2.765   0.644
 3877SOL    HW212531   5.971   2.919   0.617
 3878SOL     OW12532   3.347   0.321   4.541
 3878SOL    HW112533   3.365   0.247   4.606
 3878SOL    HW212534   3.392   0.405   4.573
 3879SOL     OW12535   5.727   5.367   1.246
 3879SOL    HW112536   5.783   5.412   1.177
 3879SOL    HW212537   5.632   5.398   1.238
 3880SOL     OW12538   5.469   4.722   4.508
 3880SOL    HW112539   5.567   4.707   4.494
 3880SOL    HW212540   5.445   4.695   4.602
 3881SOL     OW12541   1.267   3.414   1.806
 3881SOL    HW112542   1.350   3.381   1.760
 3881SOL    HW212543   1.189   3.407   1.744
 3882SOL     OW12544   1.404   0.976   5.555
 3882SOL    HW112545   1.414   0.911   5.631
 3882SOL    HW212546   1.491   0.985   5.508
 3883SOL     OW12547   4.070   0.907   3.308
 3883SOL    HW112548   4.039   0.813   3.321
 3883SOL    HW212549   4.170   0.909   3.311
 3884SOL     OW12550   0.268   5.374   3.319
 3884SOL    HW112551   0.310   5.367   3.229
 3884SOL    HW212552   0.234   5.467   3.333
 3885SOL     OW12553   6.243   0.115   2.623
 3885SOL    HW112554   6.218   0.210   2.640
 3885SOL    HW212555   6.178   0.055   2.669
 3886SOL     OW12556   5.902   6.151   4.852
 3886SOL    HW112557   5.984   6.096   4.834
 3886SOL    HW212558   5.847   6.105   4.922
 3887SOL     OW12559   0.131   0.670   6.361
 3887SOL    HW112560   0.207   0.728   6.332
 3887SOL    HW212561   0.110   0.604   6.289
 3888SOL     OW12562   6.603   0.217   4.991
 3888SOL    HW112563   6.604   0.124   4.953
 3888SOL    HW212564   6.599   0.284   4.917
 3889SOL     OW12565   0.106   3.361   6.453
 3889SOL    HW112566   0.011   3.355   6.420
 3889SOL    HW212567   0.164   3.302   6.397
 3890SOL     OW12568   5.650   5.463   2.830
 3890SOL    HW112569   5.664   5.461   2.731
 3890SOL    HW212570   5.655   5.557   2.863
 3891SOL     OW12571   5.732   4.594   4.937
 3891SOL    HW112572   5.756   4.653   4.859
 3891SOL    HW212573   5.806   4.529   4.953
 3892SOL     OW12574   0.258   2.246   1.574
 3892SOL    HW112575   0.313   2.199   1.643
 3892SOL    HW212576   0.278   2.344   1.575
 3893SOL     OW12577   4.584   4.235   1.139
 3893SOL    HW112578   4.538   4.308   1.189
 3893SOL    HW212579   4.683   4.251   1.141
 3894SOL     OW12580   3.533   1.663   1.319
 3894SOL    HW112581   3.446   1.642   1.274
 3894SOL    HW212582   3.582   1.578   1.339
 3895SOL     OW12583   1.578   0.680   5.721
 3895SOL    HW112584   1.493   0.723   5.751
 3895SOL    HW212585   1.558   0.591   5.681
 3896SOL     OW12586   0.063   0.421   6.250
 3896SOL    HW112587   0.023   0.330   6.245
 3896SOL    HW212588   0.049   0.469   6.164
 3897SOL     OW12589   3.412   5.727   2.537
 3897SOL    HW112590   3.439   5.802   2.597
 3897SOL    HW212591   3.385   5.648   2.592
 3898SOL     OW12592   3.304   3.685   5.063
 3898SOL    HW112593   3.251   3.679   4.978
 3898SOL    HW212594   3.351   3.598   5.079
 3899SOL     OW12595   5.761   0.129   5.034
 3899SOL    HW112596   5.674   0.109   5.078
 3899SOL    HW212597   5.817   0.047   5.030
 3900SOL     OW12598   4.833   3.090   3.812
 3900SOL    HW112599   4.785   3.006   3.840
 3900SOL    HW212600   4.858   3.083   3.715
 3901SOL     OW12601   3.074   0.608   5.784
 3901SOL    HW112602   3.040   0.541   5.849
 3901SOL    HW212603   3.170   0.628   5.804
 3902SOL     OW12604   5.750   3.666   2.349
 3902SOL    HW112605   5.770   3.760   2.377
 3902SOL    HW212606   5.656   3.659   2.317
 3903SOL     OW12607   4.532   5.817   0.380
 3903SOL    HW112608   4.518   5.915   0.365
 3903SOL    HW212609   4.451   5.767   0.348
 3904SOL     OW12610   2.072   0.708   5.130
 3904SOL    HW112611   2.049   0.793   5.178
 3904SOL    HW212612   1.995   0.681   5.072
 3905SOL     OW12613   6.710   6.849   5.851
 3905SOL    HW112614   6.740   6.768   5.801
 3905SOL    HW212615   6.770   6.866   5.929
 3906SOL     OW12616   3.860   5.457   5.142
 3906SOL    HW112617   3.880   5.374   5.194
 3906SOL    HW212618   3.771   5.448   5.097
 3907SOL     OW12619   5.743   6.973   5.341
 3907SOL    HW112620   5.774   0.040   5.325
 3907SOL    HW212621   5.769   6.945   5.433
 3908SOL     OW12622   1.063   1.029   0.279
 3908SOL    HW112623   1.144   1.010   0.223
 3908SOL    HW212624   0.982   0.998   0.230
 3909SOL     OW12625   0.399   5.148   5.609
 3909SOL    HW112626   0.435   5.152   5.515
 3909SOL    HW212627   0.454   5.208   5.668
 3910SOL     OW12628   3.621   3.724   1.655
 3910SOL    HW112629   3.541   3.678   1.692
 3910SOL    HW212630   3.638   3.691   1.562
 3911SOL     OW12631   4.153   1.253   0.143
 3911SOL    HW112632   4.175   1.271   0.047
 3911SOL    HW212633   4.202   1.318   0.201
 3912SOL     OW12634   3.524   0.729   6.342
 3912SOL    HW112635   3.491   0.651   6.290
 3912SOL    HW212636   3.608   0.704   6.390
 3913SOL     OW12637   2.348   5.794   6.282
 3913SOL    HW112638   2.300   5.876   6.251
 3913SOL    HW212639   2.349   5.726   6.209
 3914SOL     OW12640   3.882   1.233   1.139
 3914SOL    HW112641   3.937   1.152   1.161
 3914SOL    HW212642   3.942   1.313   1.131
 3915SOL     OW12643   3.614   6.215   1.723
 3915SOL    HW112644   3.516   6.233   1.728
 3915SOL    HW212645   3.649   6.239   1.633
 3916SOL     OW12646   1.764   6.009   3.479
 3916SOL    HW112647   1.843   6.023   3.539
 3916SOL    HW212648   1.688   5.972   3.533
 3917SOL     OW12649   1.415   4.790   6.334
 3917SOL    HW112650   1.404   4.691   6.338
 3917SOL    HW212651   1.508   4.814   6.362
 3918SOL     OW12652   5.403   6.989   2.863
 3918SOL    HW112653   5.477   6.924   2.848
 3918SOL    HW212654   5.316   6.949   2.835
 3919SOL     OW12655   2.882   6.039   6.926
 3919SOL    HW112656   2.911   6.021   6.832
 3919SOL    HW212657   2.952   6.007   6.990
 3920SOL     OW12658   2.543   2.791   6.581
 3920SOL    HW112659   2.505   2.829   6.497
 3920SOL    HW212660   2.598   2.861   6.627
 3921SOL     OW12661   7.002   2.916   1.025
 3921SOL    HW112662   0.071   2.929   1.047
 3921SOL    HW212663   6.973   2.984   0.957
 3922SOL     OW12664   5.840   4.417   1.487
 3922SOL    HW112665   5.854   4.486   1.559
 3922SOL    HW212666   5.928   4.378   1.460
 3923SOL     OW12667   6.964   1.811   0.334
 3923SOL    HW112668   7.015   1.730   0.303
 3923SOL    HW212669   6.869   1.785   0.353
 3924SOL     OW12670   0.102   5.826   3.168
 3924SOL    HW112671   0.146   5.879   3.096
 3924SOL    HW212672   0.022   5.779   3.131
 3925SOL     OW12673   3.702   4.119   1.021
 3925SOL    HW112674   3.631   4.049   1.016
 3925SOL    HW212675   3.699   4.176   0.939
 3926SOL     OW12676   6.337   5.620   2.505
 3926SOL    HW112677   6.359   5.523   2.516
 3926SOL    HW212678   6.414   5.675   2.539
 3927SOL     OW12679   6.804   3.683   4.078
 3927SOL    HW112680   6.860   3.723   4.006
 3927SOL    HW212681   6.860   3.621   4.133
 3928SOL     OW12682   2.753   5.335   4.815
 3928SOL    HW112683   2.664   5.290   4.816
 3928SOL    HW212684   2.823   5.272   4.848
 3929SOL     OW12685   0.569   1.709   6.008
 3929SOL    HW112686   0.532   1.801   6.016
 3929SOL    HW212687   0.587   1.688   5.912
 3930SOL     OW12688   1.943   1.790   4.004
 3930SOL    HW112689   1.886   1.852   3.950
 3930SOL    HW212690   1.978   1.717   3.946
 3931SOL     OW12691   2.021   1.883   2.816
 3931SOL    HW112692   2.074   1.922   2.741
 3931SOL    HW212693   2.044   1.930   2.901
 3932SOL     OW12694   1.278   3.801   2.638
 3932SOL    HW112695   1.241   3.713   2.607
 3932SOL    HW212696   1.342   3.786   2.713
 3933SOL     OW12697   2.375   0.152   6.433
 3933SOL    HW112698   2.466   0.141   6.395
 3933SOL    HW212699   2.353   0.074   6.491
 3934SOL     OW12700   0.416   0.966   1.206
 3934SOL    HW112701   0.506   0.959   1.165
 3934SOL    HW212702   0.349   0.918   1.148
 3935SOL     OW12703   2.015   0.100   6.030
 3935SOL    HW112704   2.086   0.079   5.963
 3935SOL    HW212705   2.058   0.126   6.117
 3936SOL     OW12706   0.283   4.920   5.645
 3936SOL    HW112707   0.193   4.933   5.602
 3936SOL    HW212708   0.328   5.009   5.655
 3937SOL     OW12709   0.303   0.745   2.062
 3937SOL    HW112710   0.308   0.646   2.065
 3937SOL    HW212711   0.231   0.778   2.123
 3938SOL     OW12712   6.815   2.620   3.683
 3938SOL    HW112713   6.718   2.597   3.686
 3938SOL    HW212714   6.831   2.687   3.610
 3939SOL     OW12715   3.106   1.760   2.167
 3939SOL    HW112716   3.202   1.746   2.191
 3939SOL    HW212717   3.095   1.751   2.068
 3940SOL     OW12718   4.060   5.098   2.197
 3940SOL    HW112719   4.093   5.016   2.243
 3940SOL    HW212720   4.126   5.126   2.127
 3941SOL     OW12721   5.301   1.819   6.135
 3941SOL    HW112722   5.238   1.787   6.065
 3941SOL    HW212723   5.315   1.748   6.203
 3942SOL     OW12724   0.559   0.023   5.499
 3942SOL    HW112725   0.632   0.021   5.431
 3942SOL    HW212726   0.505   6.967   5.494
 3943SOL     OW12727   0.869   3.554   2.639
 3943SOL    HW112728   0.842   3.522   2.730
 3943SOL    HW212729   0.842   3.650   2.628
 3944SOL     OW12730   5.782   3.893   5.652
 3944SOL    HW112731   5.697   3.842   5.646
 3944SOL    HW212732   5.831   3.887   5.564
 3945SOL     OW12733   0.944   2.010   2.042
 3945SOL    HW112734   0.857   1.971   2.011
 3945SOL    HW212735   1.020   1.958   2.002
 3946SOL     OW12736   6.468   4.686   5.959
 3946SOL    HW112737   6.542   4.738   5.917
 3946SOL    HW212738   6.394   4.675   5.893
 3947SOL     OW12739   5.978   5.287   1.758
 3947SOL    HW112740   6.050   5.278   1.826
 3947SOL    HW212741   5.986   5.214   1.690
 3948SOL     OW12742   1.220   4.714   1.167
 3948SOL    HW112743   1.279   4.723   1.086
 3948SOL    HW212744   1.191   4.619   1.176
 3949SOL     OW12745   5.669   0.950   2.960
 3949SOL    HW112746   5.721   1.005   2.894
 3949SOL    HW212747   5.732   0.902   3.021
 3950SOL     OW12748   3.005   3.608   1.537
 3950SOL    HW112749   3.046   3.547   1.604
 3950SOL    HW212750   2.988   3.698   1.579
 3951SOL     OW12751   0.324   6.830   0.460
 3951SOL    HW112752   0.278   6.869   0.540
 3951SOL    HW212753   0.325   6.898   0.386
 3952SOL     OW12754   0.037   4.197   4.254
 3952SOL    HW112755   0.133   4.184   4.230
 3952SOL    HW212756   7.020   4.252   4.184
 3953SOL     OW12757   3.111   4.318   1.214
 3953SOL    HW112758   3.162   4.287   1.134
 3953SOL    HW212759   3.029   4.367   1.184
 3954SOL     OW12760   6.036   5.431   5.271
 3954SOL    HW112761   6.002   5.503   5.211
 3954SOL    HW212762   6.136   5.438   5.278
 3955SOL     OW12763   3.811   6.297   6.555
 3955SOL    HW112764   3.773   6.382   6.519
 3955SOL    HW212765   3.793   6.292   6.653
 3956SOL     OW12766   0.856   2.088   2.837
 3956SOL    HW112767   0.900   2.018   2.781
 3956SOL    HW212768   0.878   2.071   2.934
 3957SOL     OW12769   4.866   6.626   3.659
 3957SOL    HW112770   4.820   6.538   3.675
 3957SOL    HW212771   4.965   6.613   3.664
 3958SOL     OW12772   5.634   0.277   6.233
 3958SOL    HW112773   5.619   0.288   6.135
 3958SOL    HW212774   5.620   0.182   6.259
 3959SOL     OW12775   3.540   6.654   0.866
 3959SOL    HW112776   3.484   6.624   0.944
 3959SOL    HW212777   3.609   6.718   0.898
 3960SOL     OW12778   4.920   1.515   6.547
 3960SOL    HW112779   4.923   1.524   6.646
 3960SOL    HW212780   4.967   1.593   6.505
 3961SOL     OW12781   5.394   2.573   2.074
 3961SOL    HW112782   5.361   2.517   1.998
 3961SOL    HW212783   5.404   2.667   2.044
 3962SOL     OW12784   2.184   4.997   6.821
 3962SOL    HW112785   2.130   5.060   6.877
 3962SOL    HW212786   2.193   4.909   6.868
 3963SOL     OW12787   4.580   4.528   4.120
 3963SOL    HW112788   4.576   4.523   4.020
 3963SOL    HW212789   4.489   4.510   4.158
 3964SOL     OW12790   4.907   4.847   3.509
 3964SOL    HW112791   4.842   4.819   3.439
 3964SOL    HW212792   4.867   4.832   3.600
 3965SOL     OW12793   4.304   2.924   5.851
 3965SOL    HW112794   4.232   2.978   5.893
 3965SOL    HW212795   4.271   2.882   5.767
 3966SOL     OW12796   6.142   5.533   0.621
 3966SOL    HW112797   6.149   5.582   0.708
 3966SOL    HW212798   6.047   5.534   0.590
 3967SOL     OW12799   1.798   4.312   2.860
 3967SOL    HW112800   1.817   4.214   2.865
 3967SOL    HW212801   1.863   4.362   2.917
 3968SOL     OW12802   6.389   0.291   1.313
 3968SOL    HW112803   6.325   0.330   1.246
 3968SOL    HW212804   6.386   0.346   1.397
 3969SOL     OW12805   1.362   3.467   2.535
 3969SOL    HW112806   1.381   3.431   2.626
 3969SOL    HW212807   1.275   3.516   2.536
 3970SOL     OW12808   5.347   5.577   4.085
 3970SOL    HW112809   5.400   5.493   4.075
 3970SOL    HW212810   5.351   5.607   4.181
 3971SOL     OW12811   2.473   5.102   1.842
 3971SOL    HW112812   2.458   5.017   1.791
 3971SOL    HW212813   2.526   5.165   1.786
 3972SOL     OW12814   1.706   5.395   0.588
 3972SOL    HW112815   1.744   5.482   0.621
 3972SOL    HW212816   1.757   5.364   0.508
 3973SOL     OW12817   1.135   4.319   5.749
 3973SOL    HW112818   1.175   4.380   5.681
 3973SOL    HW212819   1.048   4.357   5.781
 3974SOL     OW12820   0.931   0.362   4.684
 3974SOL    HW112821   0.840   0.399   4.702
 3974SOL    HW212822   0.958   0.303   4.760
 3975SOL     OW12823   5.268   0.308   6.229
 3975SOL    HW112824   5.359   0.267   6.221
 3975SOL    HW212825   5.242   0.310   6.326
 3976SOL     OW12826   1.409   5.116   1.303
 3976SOL    HW112827   1.330   5.126   1.364
 3976SOL    HW212828   1.416   5.021   1.274
 3977SOL     OW12829   3.157   4.626   5.562
 3977SOL    HW112830   3.219   4.691   5.604
 3977SOL    HW212831   3.093   4.592   5.631
 3978SOL     OW12832   5.017   0.038   4.452
 3978SOL    HW112833   5.099   0.068   4.500
 3978SOL    HW212834   4.937   0.084   4.491
 3979SOL     OW12835   2.783   5.852   1.970
 3979SOL    HW112836   2.775   5.792   1.890
 3979SOL    HW212837   2.731   5.814   2.046
 3980SOL     OW12838   0.477   5.516   6.435
 3980SOL    HW112839   0.423   5.479   6.511
 3980SOL    HW212840   0.466   5.615   6.431
 3981SOL     OW12841   1.769   1.878   6.156
 3981SOL    HW112842   1.802   1.787   6.181
 3981SOL    HW212843   1.840   1.925   6.103
 3982SOL     OW12844   2.335   0.629   4.242
 3982SOL    HW112845   2.247   0.662   4.275
 3982SOL    HW212846   2.395   0.706   4.221
 3983SOL     OW12847   4.397   5.110   4.083
 3983SOL    HW112848   4.465   5.159   4.137
 3983SOL    HW212849   4.420   5.013   4.081
 3984SOL     OW12850   1.358   0.598   3.015
 3984SOL    HW112851   1.259   0.597   3.028
 3984SOL    HW212852   1.387   0.511   2.975
 3985SOL     OW12853   4.079   4.748   6.477
 3985SOL    HW112854   3.980   4.742   6.460
 3985SOL    HW212855   4.120   4.658   6.464
 3986SOL     OW12856   6.583   2.317   2.634
 3986SOL    HW112857   6.675   2.314   2.674
 3986SOL    HW212858   6.551   2.224   2.617
 3987SOL     OW12859   3.158   5.579   3.980
 3987SOL    HW112860   3.256   5.563   3.991
 3987SOL    HW212861   3.112   5.492   3.963
 3988SOL     OW12862   3.564   3.414   6.449
 3988SOL    HW112863   3.641   3.350   6.447
 3988SOL    HW212864   3.595   3.504   6.416
 3989SOL     OW12865   6.374   1.641   7.013
 3989SOL    HW112866   6.354   1.700   0.063
 3989SOL    HW212867   6.418   1.693   6.940
 3990SOL     OW12868   5.418   2.528   3.074
 3990SOL    HW112869   5.386   2.477   2.994
 3990SOL    HW212870   5.474   2.606   3.044
 3991SOL     OW12871   5.681   1.275   2.133
 3991SOL    HW112872   5.673   1.209   2.057
 3991SOL    HW212873   5.774   1.312   2.135
 3992SOL     OW12874   3.687   2.153   0.104
 3992SOL    HW112875   3.648   2.184   0.018
 3992SOL    HW212876   3.633   2.077   0.140
 3993SOL     OW12877   0.445   2.548   3.222
 3993SOL    HW112878   0.410   2.509   3.137
 3993SOL    HW212879   0.516   2.616   3.202
 3994SOL     OW12880   0.524   1.224   6.419
 3994SOL    HW112881   0.577   1.306   6.441
 3994SOL    HW212882   0.487   1.233   6.326
 3995SOL     OW12883   1.316   3.700   4.259
 3995SOL    HW112884   1.390   3.752   4.217
 3995SOL    HW212885   1.279   3.636   4.192
 3996SOL     OW12886   0.792   1.182   4.326
 3996SOL    HW112887   0.749   1.269   4.351
 3996SOL    HW212888   0.790   1.171   4.227
 3997SOL     OW12889   5.040   2.638   3.646
 3997SOL    HW112890   5.007   2.586   3.724
 3997SOL    HW212891   4.963   2.676   3.595
 3998SOL     OW12892   3.882   1.045   2.408
 3998SOL    HW112893   3.950   0.979   2.440
 3998SOL    HW212894   3.915   1.138   2.423
 3999SOL     OW12895   5.480   3.444   3.811
 3999SOL    HW112896   5.561   3.488   3.849
 3999SOL    HW212897   5.415   3.425   3.884
 4000SOL     OW12898   2.993   4.904   3.042
 4000SOL    HW112899   3.067   4.965   3.014
 4000SOL    HW212900   2.950   4.865   2.961
 4001SOL     OW12901   2.275   2.180   4.291
 4001SOL    HW112902   2.237   2.123   4.364
 4001SOL    HW212903   2.373   2.189   4.303
 4002SOL     OW12904   2.941   2.495   0.642
 4002SOL    HW112905   3.038   2.497   0.667
 4002SOL    HW212906   2.899   2.583   0.666
 4003SOL     OW12907   3.003   6.523   4.965
 4003SOL    HW112908   3.023   6.467   4.884
 4003SOL    HW212909   2.909   6.507   4.994
 4004SOL     OW12910   6.089   2.130   4.032
 4004SOL    HW112911   6.094   2.127   4.131
 4004SOL    HW212912   6.092   2.036   3.995
 4005SOL     OW12913   5.768   5.667   1.006
 4005SOL    HW112914   5.798   5.718   1.087
 4005SOL    HW212915   5.764   5.729   0.927
 4006SOL     OW12916   4.077   5.224   2.598
 4006SOL    HW112917   4.166   5.269   2.600
 4006SOL    HW212918   4.017   5.267   2.666
 4007SOL     OW12919   1.191   2.833   1.592
 4007SOL    HW112920   1.200   2.758   1.526
 4007SOL    HW212921   1.258   2.820   1.665
 4008SOL     OW12922   3.495   2.036   4.152
 4008SOL    HW112923   3.450   2.070   4.070
 4008SOL    HW212924   3.427   2.018   4.223
 4009SOL     OW12925   4.899   3.115   0.472
 4009SOL    HW112926   4.905   3.213   0.453
 4009SOL    HW212927   4.816   3.078   0.429
 4010SOL     OW12928   2.193   3.292   1.571
 4010SOL    HW112929   2.270   3.316   1.630
 4010SOL    HW212930   2.141   3.374   1.548
 4011SOL     OW12931   0.796   0.922   1.372
 4011SOL    HW112932   0.831   0.829   1.386
 4011SOL    HW212933   0.840   0.962   1.292
 4012SOL     OW12934   4.438   5.261   1.967
 4012SOL    HW112935   4.392   5.172   1.967
 4012SOL    HW212936   4.386   5.324   1.910
 4013SOL     OW12937   3.216   6.948   0.316
 4013SOL    HW112938   3.125   6.916   0.289
 4013SOL    HW212939   3.250   7.011   0.246
 4014SOL     OW12940   4.194   5.806   3.159
 4014SOL    HW112941   4.148   5.733   3.209
 4014SOL    HW212942   4.289   5.813   3.190
 4015SOL     OW12943   4.388   5.663   6.183
 4015SOL    HW112944   4.410   5.581   6.235
 4015SOL    HW212945   4.472   5.716   6.167
 4016SOL     OW12946   1.942   5.750   6.348
 4016SOL    HW112947   1.954   5.823   6.415
 4016SOL    HW212948   1.995   5.670   6.375
 4017SOL     OW12949   0.287   6.380   0.762
 4017SOL    HW112950   0.369   6.343   0.718
 4017SOL    HW212951   0.218   6.308   0.768
 4018SOL     OW12952   5.349   6.762   2.407
 4018SOL    HW112953   5.424   6.817   2.445
 4018SOL    HW212954   5.263   6.786   2.453
 4019SOL     OW12955   5.798   3.366   2.982
 4019SOL    HW112956   5.823   3.278   2.942
 4019SOL    HW212957   5.709   3.394   2.948
 4020SOL     OW12958   5.599   2.327   5.379
 4020SOL    HW112959   5.695   2.299   5.386
 4020SOL    HW212960   5.546   2.281   5.450
 4021SOL     OW12961   2.931   3.295   5.549
 4021SOL    HW112962   2.970   3.369   5.603
 4021SOL    HW212963   2.833   3.311   5.536
 4022SOL     OW12964   4.549   0.470   0.346
 4022SOL    HW112965   4.497   0.499   0.266
 4022SOL    HW212966   4.516   0.381   0.378
 4023SOL     OW12967   6.751   1.597   5.377
 4023SOL    HW112968   6.667   1.599   5.432
 4023SOL    HW212969   6.788   1.689   5.369
 4024SOL     OW12970   3.318   5.196   3.989
 4024SOL    HW112971   3.331   5.185   4.088
 4024SOL    HW212972   3.406   5.192   3.943
 4025SOL     OW12973   1.057   6.426   4.367
 4025SOL    HW112974   1.070   6.331   4.392
 4025SOL    HW212975   1.063   6.436   4.268
 4026SOL     OW12976   6.126   6.066   4.184
 4026SOL    HW112977   6.188   6.064   4.105
 4026SOL    HW212978   6.081   5.977   4.193
 4027SOL     OW12979   3.408   4.091   2.000
 4027SOL    HW112980   3.384   4.116   1.906
 4027SOL    HW212981   3.325   4.089   2.056
 4028SOL     OW12982   1.384   2.219   3.881
 4028SOL    HW112983   1.409   2.205   3.977
 4028SOL    HW212984   1.287   2.198   3.868
 4029SOL     OW12985   2.509   4.360   6.592
 4029SOL    HW112986   2.424   4.329   6.635
 4029SOL    HW212987   2.534   4.298   6.518
 4030SOL     OW12988   1.542   1.729   6.434
 4030SOL    HW112989   1.571   1.813   6.388
 4030SOL    HW212990   1.599   1.653   6.403
 4031SOL     OW12991   4.446   5.888   2.904
 4031SOL    HW112992   4.526   5.863   2.960
 4031SOL    HW212993   4.381   5.813   2.903
 4032SOL     OW12994   5.954   0.620   2.650
 4032SOL    HW112995   5.862   0.592   2.621
 4032SOL    HW212996   5.947   0.693   2.718
 4033SOL     OW12997   3.065   3.228   3.254
 4033SOL    HW112998   3.093   3.303   3.194
 4033SOL    HW212999   3.144   3.198   3.308
 4034SOL     OW13000   6.209   1.774   4.895
 4034SOL    HW113001   6.132   1.710   4.893
 4034SOL    HW213002   6.256   1.765   4.983
 4035SOL     OW13003   6.878   3.247   0.949
 4035SOL    HW113004   6.961   3.255   1.004
 4035SOL    HW213005   6.902   3.244   0.852
 4036SOL     OW13006   5.709   0.027   3.022
 4036SOL    HW113007   5.807   0.050   3.021
 4036SOL    HW213008   5.682   0.003   3.115
 4037SOL     OW13009   1.657   2.049   0.589
 4037SOL    HW113010   1.661   1.952   0.565
 4037SOL    HW213011   1.713   2.102   0.525
 4038SOL     OW13012   4.954   4.733   1.871
 4038SOL    HW113013   5.010   4.790   1.810
 4038SOL    HW213014   4.873   4.701   1.822
 4039SOL     OW13015   5.206   5.219   1.527
 4039SOL    HW113016   5.295   5.184   1.557
 4039SOL    HW213017   5.206   5.319   1.533
 4040SOL     OW13018   2.873   0.156   6.644
 4040SOL    HW113019   2.925   0.075   6.670
 4040SOL    HW213020   2.921   0.204   6.571
 4041SOL     OW13021   1.609   5.910   1.733
 4041SOL    HW113022   1.586   6.007   1.741
 4041SOL    HW213023   1.708   5.900   1.718
 4042SOL     OW13024   6.335   4.474   3.089
 4042SOL    HW113025   6.408   4.413   3.060
 4042SOL    HW213026   6.269   4.422   3.144
 4043SOL     OW13027   5.196   2.156   4.537
 4043SOL    HW113028   5.102   2.143   4.506
 4043SOL    HW213029   5.202   2.137   4.635
 4044SOL     OW13030   4.623   0.914   4.442
 4044SOL    HW113031   4.696   0.917   4.510
 4044SOL    HW213032   4.658   0.944   4.353
 4045SOL     OW13033   2.893   4.493   6.350
 4045SOL    HW113034   2.967   4.476   6.415
 4045SOL    HW213035   2.888   4.417   6.285
 4046SOL     OW13036   0.761   1.839   3.472
 4046SOL    HW113037   0.817   1.833   3.555
 4046SOL    HW213038   0.774   1.929   3.430
 4047SOL     OW13039   3.126   2.793   1.316
 4047SOL    HW113040   3.089   2.868   1.371
 4047SOL    HW213041   3.127   2.709   1.370
 4048SOL     OW13042   5.642   1.375   1.763
 4048SOL    HW113043   5.561   1.419   1.724
 4048SOL    HW213044   5.615   1.290   1.808
 4049SOL     OW13045   6.306   6.102   6.757
 4049SOL    HW113046   6.315   6.146   6.846
 4049SOL    HW213047   6.276   6.007   6.769
 4050SOL     OW13048   1.807   6.414   0.478
 4050SOL    HW113049   1.710   6.400   0.498
 4050SOL    HW213050   1.844   6.484   0.539
 4051SOL     OW13051   3.805   3.348   0.110
 4051SOL    HW113052   3.735   3.417   0.129
 4051SOL    HW213053   3.802   3.323   0.013
 4052SOL     OW13054   1.184   0.632   1.536
 4052SOL    HW113055   1.242   0.685   1.598
 4052SOL    HW213056   1.203   0.658   1.442
 4053SOL     OW13057   3.239   4.911   4.009
 4053SOL    HW113058   3.173   4.983   3.994
 4053SOL    HW213059   3.295   4.898   3.927
 4054SOL     OW13060   1.727   2.622   1.283
 4054SOL    HW113061   1.653   2.555   1.291
 4054SOL    HW213062   1.764   2.642   1.374
 4055SOL     OW13063   2.893   3.751   5.518
 4055SOL    HW113064   2.881   3.842   5.477
 4055SOL    HW213065   2.832   3.741   5.596
 4056SOL     OW13066   4.232   2.789   6.884
 4056SOL    HW113067   4.276   2.737   6.956
 4056SOL    HW213068   4.176   2.728   6.827
 4057SOL     OW13069   5.251   2.949   6.829
 4057SOL    HW113070   5.268   3.029   6.887
 4057SOL    HW213071   5.154   2.927   6.830
 4058SOL     OW13072   1.366   1.739   4.283
 4058SOL    HW113073   1.281   1.711   4.329
 4058SOL    HW213074   1.440   1.677   4.310
 4059SOL     OW13075   1.978   2.382   2.875
 4059SOL    HW113076   2.036   2.449   2.921
 4059SOL    HW213077   1.883   2.412   2.880
 4060SOL     OW13078   4.458   5.389   5.256
 4060SOL    HW113079   4.416   5.299   5.259
 4060SOL    HW213080   4.523   5.394   5.181
 4061SOL     OW13081   3.424   4.745   1.615
 4061SOL    HW113082   3.463   4.714   1.702
 4061SOL    HW213083   3.440   4.676   1.545
 4062SOL     OW13084   3.730   1.531   3.160
 4062SOL    HW113085   3.647   1.513   3.213
 4062SOL    HW213086   3.725   1.483   3.073
 4063SOL     OW13087   4.832   6.859   5.032
 4063SOL    HW113088   4.803   6.910   4.951
 4063SOL    HW213089   4.932   6.856   5.036
 4064SOL     OW13090   1.882   6.943   3.093
 4064SOL    HW113091   1.845   0.004   3.064
 4064SOL    HW213092   1.863   6.929   3.190
 4065SOL     OW13093   1.584   6.583   0.211
 4065SOL    HW113094   1.498   6.633   0.210
 4065SOL    HW213095   1.600   6.546   0.302
 4066SOL     OW13096   5.099   5.101   2.593
 4066SOL    HW113097   5.094   5.194   2.630
 4066SOL    HW213098   5.166   5.049   2.646
 4067SOL     OW13099   5.904   3.078   2.294
 4067SOL    HW113100   5.877   3.032   2.378
 4067SOL    HW213101   5.843   3.155   2.277
 4068SOL     OW13102   4.579   0.434   4.552
 4068SOL    HW113103   4.489   0.396   4.534
 4068SOL    HW213104   4.623   0.382   4.626
 4069SOL     OW13105   3.893   3.484   6.666
 4069SOL    HW113106   3.794   3.471   6.671
 4069SOL    HW213107   3.936   3.399   6.634
 4070SOL     OW13108   1.118   3.597   2.530
 4070SOL    HW113109   1.096   3.637   2.441
 4070SOL    HW213110   1.036   3.561   2.573
 4071SOL     OW13111   1.099   1.149   4.843
 4071SOL    HW113112   1.100   1.245   4.814
 4071SOL    HW213113   1.189   1.123   4.876
 4072SOL     OW13114   1.185   6.345   3.661
 4072SOL    HW113115   1.147   6.407   3.592
 4072SOL    HW213116   1.193   6.395   3.748
 4073SOL     OW13117   2.644   5.536   5.971
 4073SOL    HW113118   2.743   5.532   5.957
 4073SOL    HW213119   2.598   5.521   5.883
 4074SOL     OW13120   0.932   2.705   2.060
 4074SOL    HW113121   1.009   2.675   2.116
 4074SOL    HW213122   0.961   2.783   2.004
 4075SOL     OW13123   4.837   2.428   2.920
 4075SOL    HW113124   4.767   2.411   2.850
 4075SOL    HW213125   4.908   2.358   2.913
 4076SOL     OW13126   2.681   4.014   5.587
 4076SOL    HW113127   2.651   3.959   5.665
 4076SOL    HW213128   2.654   3.968   5.502
 4077SOL     OW13129   3.191   6.454   0.730
 4077SOL    HW113130   3.124   6.498   0.791
 4077SOL    HW213131   3.142   6.397   0.664
 4078SOL     OW13132   6.627   5.424   1.839
 4078SOL    HW113133   6.611   5.485   1.762
 4078SOL    HW213134   6.599   5.469   1.924
 4079SOL     OW13135   1.371   1.064   3.206
 4079SOL    HW113136   1.373   1.069   3.306
 4079SOL    HW213137   1.460   1.034   3.172
 4080SOL     OW13138   2.617   2.928   6.934
 4080SOL    HW113139   2.536   2.873   6.953
 4080SOL    HW213140   2.624   3.002   7.000
 4081SOL     OW13141   1.775   1.233   4.509
 4081SOL    HW113142   1.748   1.138   4.490
 4081SOL    HW213143   1.697   1.281   4.550
 4082SOL     OW13144   1.545   1.929   0.091
 4082SOL    HW113145   1.610   1.857   0.117
 4082SOL    HW213146   1.594   2.016   0.083
 4083SOL     OW13147   5.944   3.947   3.490
 4083SOL    HW113148   5.858   3.992   3.514
 4083SOL    HW213149   6.008   3.955   3.566
 4084SOL     OW13150   4.897   3.152   3.260
 4084SOL    HW113151   4.997   3.158   3.258
 4084SOL    HW213152   4.858   3.243   3.274
 4085SOL     OW13153   2.759   5.213   0.425
 4085SOL    HW113154   2.748   5.202   0.327
 4085SOL    HW213155   2.789   5.126   0.465
 4086SOL     OW13156   0.549   4.771   0.712
 4086SOL    HW113157   0.468   4.715   0.701
 4086SOL    HW213158   0.587   4.792   0.621
 4087SOL     OW13159   2.249   1.106   2.289
 4087SOL    HW113160   2.219   1.054   2.369
 4087SOL    HW213161   2.202   1.194   2.286
 4088SOL     OW13162   6.407   1.067   5.677
 4088SOL    HW113163   6.478   1.051   5.746
 4088SOL    HW213164   6.340   1.133   5.713
 4089SOL     OW13165   0.105   5.522   4.091
 4089SOL    HW113166   0.058   5.559   4.171
 4089SOL    HW213167   0.195   5.565   4.083
 4090SOL     OW13168   1.875   5.787   5.173
 4090SOL    HW113169   1.838   5.854   5.237
 4090SOL    HW213170   1.890   5.700   5.220
 4091SOL     OW13171   1.149   5.447   7.024
 4091SOL    HW113172   1.081   5.515   7.000
 4091SOL    HW213173   1.240   5.479   6.998
 4092SOL     OW13174   5.389   3.084   4.025
 4092SOL    HW113175   5.297   3.065   3.993
 4092SOL    HW213176   5.451   3.012   3.995
 4093SOL     OW13177   5.371   6.520   1.736
 4093SOL    HW113178   5.365   6.438   1.792
 4093SOL    HW213179   5.410   6.595   1.790
 4094SOL     OW13180   1.216   4.180   7.016
 4094SOL    HW113181   1.236   4.151   0.082
 4094SOL    HW213182   1.298   4.218   6.974
 4095SOL     OW13183   0.612   3.038   0.096
 4095SOL    HW113184   0.537   3.070   0.039
 4095SOL    HW213185   0.616   3.092   0.180
 4096SOL     OW13186   2.653   0.910   6.305
 4096SOL    HW113187   2.708   0.988   6.334
 4096SOL    HW213188   2.662   0.897   6.206
 4097SOL     OW13189   5.802   4.819   5.493
 4097SOL    HW113190   5.782   4.793   5.398
 4097SOL    HW213191   5.858   4.902   5.493
 4098SOL     OW13192   1.976   3.000   1.253
 4098SOL    HW113193   1.882   3.019   1.226
 4098SOL    HW213194   1.977   2.917   1.309
 4099SOL     OW13195   3.304   4.808   0.426
 4099SOL    HW113196   3.395   4.851   0.427
 4099SOL    HW213197   3.314   4.709   0.424
 4100SOL     OW13198   1.351   1.061   4.167
 4100SOL    HW113199   1.425   1.000   4.140
 4100SOL    HW213200   1.266   1.035   4.120
 4101SOL     OW13201   0.042   1.486   6.248
 4101SOL    HW113202   0.033   1.414   6.316
 4101SOL    HW213203   6.995   1.551   6.258
 4102SOL     OW13204   2.272   0.748   0.677
 4102SOL    HW113205   2.256   0.658   0.718
 4102SOL    HW213206   2.252   0.744   0.579
 4103SOL     OW13207   6.947   6.763   1.958
 4103SOL    HW113208   6.858   6.807   1.943
 4103SOL    HW213209   6.946   6.672   1.915
 4104SOL     OW13210   0.409   5.158   3.753
 4104SOL    HW113211   0.392   5.082   3.816
 4104SOL    HW213212   0.507   5.180   3.753
 4105SOL     OW13213   5.073   0.775   2.090
 4105SOL    HW113214   5.069   0.721   2.174
 4105SOL    HW213215   5.033   0.722   2.015
 4106SOL     OW13216   0.704   2.210   3.311
 4106SOL    HW113217   0.628   2.215   3.377
 4106SOL    HW213218   0.774   2.149   3.346
 4107SOL     OW13219   1.078   5.706   7.008
 4107SOL    HW113220   1.078   5.693   0.080
 4107SOL    HW213221   1.163   5.670   6.969
 4108SOL     OW13222   6.974   5.290   4.747
 4108SOL    HW113223   0.028   5.306   4.692
 4108SOL    HW213224   6.899   5.347   4.713
 4109SOL     OW13225   5.471   6.662   4.412
 4109SOL    HW113226   5.458   6.761   4.420
 4109SOL    HW213227   5.425   6.629   4.330
 4110SOL     OW13228   3.920   3.219   6.215
 4110SOL    HW113229   3.870   3.226   6.129
 4110SOL    HW213230   3.962   3.307   6.237
 4111SOL     OW13231   6.388   4.957   6.677
 4111SOL    HW113232   6.451   4.957   6.600
 4111SOL    HW213233   6.336   5.042   6.677
 4112SOL     OW13234   4.634   0.187   4.185
 4112SOL    HW113235   4.716   0.235   4.216
 4112SOL    HW213236   4.623   0.201   4.086
 4113SOL     OW13237   4.873   5.572   4.857
 4113SOL    HW113238   4.932   5.507   4.905
 4113SOL    HW213239   4.887   5.664   4.893
 4114SOL     OW13240   6.801   1.691   3.166
 4114SOL    HW113241   6.788   1.744   3.083
 4114SOL    HW213242   6.891   1.712   3.206
 4115SOL     OW13243   3.196   4.898   3.571
 4115SOL    HW113244   3.146   4.857   3.494
 4115SOL    HW213245   3.142   4.889   3.654
 4116SOL     OW13246   4.593   2.160   3.666
 4116SOL    HW113247   4.496   2.141   3.652
 4116SOL    HW213248   4.617   2.140   3.761
 4117SOL     OW13249   1.441   2.359   3.372
 4117SOL    HW113250   1.400   2.395   3.288
 4117SOL    HW213251   1.531   2.319   3.351
 4118SOL     OW13252   5.569   6.637   6.365
 4118SOL    HW113253   5.481   6.631   6.411
 4118SOL    HW213254   5.635   6.681   6.425
 4119SOL     OW13255   3.313   1.023   3.193
 4119SOL    HW113256   3.327   1.082   3.114
 4119SOL    HW213257   3.309   1.078   3.276
 4120SOL     OW13258   3.557   1.416   6.144
 4120SOL    HW113259   3.638   1.450   6.191
 4120SOL    HW213260   3.556   1.452   6.050
 4121SOL     OW13261   6.330   0.437   2.937
 4121SOL    HW113262   6.308   0.523   2.984
 4121SOL    HW213263   6.331   0.454   2.838
 4122SOL     OW13264   1.956   6.746   5.016
 4122SOL    HW113265   1.866   6.758   4.974
 4122SOL    HW213266   2.025   6.733   4.945
 4123SOL     OW13267   3.936   5.115   3.991
 4123SOL    HW113268   3.978   5.035   3.947
 4123SOL    HW213269   4.001   5.191   3.991
 4124SOL     OW13270   6.771   6.705   1.222
 4124SOL    HW113271   6.804   6.729   1.130
 4124SOL    HW213272   6.837   6.738   1.290
 4125SOL     OW13273   4.634   2.549   2.655
 4125SOL    HW113274   4.643   2.598   2.742
 4125SOL    HW213275   4.537   2.535   2.634
 4126SOL     OW13276   2.057   3.571   2.644
 4126SOL    HW113277   2.069   3.661   2.603
 4126SOL    HW213278   1.968   3.533   2.617
 4127SOL     OW13279   5.222   2.572   5.259
 4127SOL    HW113280   5.211   2.524   5.346
 4127SOL    HW213281   5.319   2.589   5.242
 4128SOL     OW13282   0.774   3.220   1.218
 4128SOL    HW113283   0.857   3.165   1.213
 4128SOL    HW213284   0.793   3.314   1.190
 4129SOL     OW13285   3.439   1.193   0.581
 4129SOL    HW113286   3.533   1.162   0.598
 4129SOL    HW213287   3.417   1.181   0.484
 4130SOL     OW13288   6.173   1.989   0.455
 4130SOL    HW113289   6.112   1.913   0.434
 4130SOL    HW213290   6.265   1.953   0.474
 4131SOL     OW13291   0.196   1.338   2.954
 4131SOL    HW113292   0.230   1.358   2.862
 4131SOL    HW213293   0.149   1.250   2.954
 4132SOL     OW13294   5.451   4.135   4.676
 4132SOL    HW113295   5.378   4.085   4.722
 4132SOL    HW213296   5.492   4.200   4.739
 4133SOL     OW13297   4.004   6.244   1.471
 4133SOL    HW113298   3.960   6.330   1.447
 4133SOL    HW213299   3.967   6.171   1.413
 4134SOL     OW13300   2.306   3.656   0.566
 4134SOL    HW113301   2.379   3.605   0.519
 4134SOL    HW213302   2.293   3.619   0.658
 4135SOL     OW13303   0.265   2.605   2.309
 4135SOL    HW113304   0.264   2.505   2.305
 4135SOL    HW213305   0.339   2.636   2.368
 4136SOL     OW13306   1.043   3.996   2.499
 4136SOL    HW113307   1.078   3.910   2.463
 4136SOL    HW213308   1.015   4.055   2.424
 4137SOL     OW13309   1.662   3.354   6.793
 4137SOL    HW113310   1.614   3.438   6.817
 4137SOL    HW213311   1.627   3.320   6.705
 4138SOL     OW13312   3.365   5.001   1.439
 4138SOL    HW113313   3.376   4.952   1.525
 4138SOL    HW213314   3.453   5.007   1.392
 4139SOL     OW13315   1.485   1.512   3.883
 4139SOL    HW113316   1.459   1.471   3.795
 4139SOL    HW213317   1.424   1.476   3.954
 4140SOL     OW13318   3.328   1.703   3.946
 4140SOL    HW113319   3.315   1.633   4.016
 4140SOL    HW213320   3.415   1.688   3.900
 4141SOL     OW13321   5.535   0.097   0.887
 4141SOL    HW113322   5.552   0.143   0.799
 4141SOL    HW213323   5.553   7.027   0.878
 4142SOL     OW13324   6.203   3.975   1.752
 4142SOL    HW113325   6.206   4.055   1.812
 4142SOL    HW213326   6.271   3.908   1.783
 4143SOL     OW13327   6.014   2.624   0.401
 4143SOL    HW113328   5.990   2.696   0.466
 4143SOL    HW213329   6.075   2.558   0.444
 4144SOL     OW13330   4.866   1.465   0.231
 4144SOL    HW113331   4.934   1.532   0.261
 4144SOL    HW213332   4.817   1.500   0.151
 4145SOL     OW13333   0.801   6.235   0.269
 4145SOL    HW113334   0.900   6.232   0.285
 4145SOL    HW213335   0.767   6.142   0.255
 4146SOL     OW13336   6.698   0.771   3.600
 4146SOL    HW113337   6.666   0.703   3.667
 4146SOL    HW213338   6.798   0.771   3.597
 4147SOL     OW13339   4.845   4.686   6.534
 4147SOL    HW113340   4.902   4.644   6.464
 4147SOL    HW213341   4.761   4.722   6.493
 4148SOL     OW13342   2.601   0.442   5.544
 4148SOL    HW113343   2.697   0.458   5.517
 4148SOL    HW213344   2.548   0.525   5.527
 4149SOL     OW13345   0.271   3.381   1.303
 4149SOL    HW113346   0.172   3.391   1.313
 4149SOL    HW213347   0.295   3.284   1.302
 4150SOL     OW13348   0.196   1.671   5.200
 4150SOL    HW113349   0.191   1.574   5.224
 4150SOL    HW213350   0.106   1.702   5.167
 4151SOL     OW13351   2.919   6.028   6.180
 4151SOL    HW113352   2.843   5.968   6.205
 4151SOL    HW213353   2.954   6.072   6.262
 4152SOL     OW13354   4.028   5.618   1.520
 4152SOL    HW113355   3.979   5.585   1.439
 4152SOL    HW213356   4.010   5.557   1.597
 4153SOL     OW13357   6.118   5.142   1.530
 4153SOL    HW113358   6.109   5.043   1.517
 4153SOL    HW213359   6.081   5.189   1.451
 4154SOL     OW13360   0.060   6.265   3.776
 4154SOL    HW113361   0.016   6.346   3.737
 4154SOL    HW213362   0.042   6.262   3.874
 4155SOL     OW13363   0.119   1.603   0.735
 4155SOL    HW113364   0.157   1.545   0.806
 4155SOL    HW213365   0.193   1.650   0.686
 4156SOL     OW13366   6.318   5.569   4.760
 4156SOL    HW113367   6.302   5.541   4.855
 4156SOL    HW213368   6.360   5.660   4.759
 4157SOL     OW13369   5.305   6.208   3.414
 4157SOL    HW113370   5.225   6.211   3.475
 4157SOL    HW213371   5.354   6.122   3.427
 4158SOL     OW13372   0.728   2.980   1.848
 4158SOL    HW113373   0.758   2.885   1.858
 4158SOL    HW213374   0.808   3.037   1.826
 4159SOL     OW13375   2.094   2.707   3.406
 4159SOL    HW113376   2.164   2.779   3.406
 4159SOL    HW213377   2.086   2.668   3.498
 4160SOL     OW13378   5.780   6.558   6.940
 4160SOL    HW113379   5.841   6.600   7.007
 4160SOL    HW213380   5.698   6.525   6.986
 4161SOL     OW13381   1.716   2.093   1.547
 4161SOL    HW113382   1.737   2.188   1.572
 4161SOL    HW213383   1.648   2.093   1.473
 4162SOL     OW13384   6.240   5.977   0.376
 4162SOL    HW113385   6.179   5.949   0.450
 4162SOL    HW213386   6.312   6.036   0.413
 4163SOL     OW13387   5.671   1.184   3.222
 4163SOL    HW113388   5.613   1.190   3.303
 4163SOL    HW213389   5.635   1.246   3.152
 4164SOL     OW13390   1.369   0.139   4.466
 4164SOL    HW113391   1.376   0.207   4.540
 4164SOL    HW213392   1.300   0.071   4.490
 4165SOL     OW13393   4.854   0.309   5.534
 4165SOL    HW113394   4.808   0.393   5.504
 4165SOL    HW213395   4.934   0.333   5.589
 4166SOL     OW13396   5.082   1.125   1.664
 4166SOL    HW113397   5.041   1.053   1.607
 4166SOL    HW213398   5.122   1.084   1.746
 4167SOL     OW13399   3.416   4.858   0.034
 4167SOL    HW113400   3.471   4.780   0.065
 4167SOL    HW213401   3.413   4.859   6.962
 4168SOL     OW13402   6.954   3.839   0.995
 4168SOL    HW113403   6.912   3.807   1.081
 4168SOL    HW213404   6.961   3.939   0.997
 4169SOL     OW13405   6.166   4.851   5.097
 4169SOL    HW113406   6.113   4.812   5.022
 4169SOL    HW213407   6.153   4.796   5.179
 4170SOL     OW13408   5.028   3.258   5.140
 4170SOL    HW113409   5.006   3.160   5.137
 4170SOL    HW213410   4.968   3.303   5.205
 4171SOL     OW13411   6.763   5.099   1.180
 4171SOL    HW113412   6.721   5.176   1.133
 4171SOL    HW213413   6.862   5.113   1.186
 4172SOL     OW13414   2.507   2.506   0.047
 4172SOL    HW113415   2.544   2.469   6.990
 4172SOL    HW213416   2.581   2.544   0.103
 4173SOL     OW13417   5.603   3.363   4.794
 4173SOL    HW113418   5.629   3.285   4.737
 4173SOL    HW213419   5.505   3.357   4.815
 4174SOL     OW13420   4.749   1.825   2.102
 4174SOL    HW113421   4.767   1.872   2.188
 4174SOL    HW213422   4.747   1.891   2.027
 4175SOL     OW13423   2.148   4.514   4.650
 4175SOL    HW113424   2.221   4.446   4.664
 4175SOL    HW213425   2.097   4.525   4.735
 4176SOL     OW13426   4.178   6.748   1.271
 4176SOL    HW113427   4.232   6.744   1.355
 4176SOL    HW213428   4.148   6.657   1.246
 4177SOL     OW13429   5.681   4.863   5.724
 4177SOL    HW113430   5.720   4.848   5.633
 4177SOL    HW213431   5.628   4.783   5.752
 4178SOL     OW13432   4.120   6.959   3.502
 4178SOL    HW113433   4.176   6.880   3.524
 4178SOL    HW213434   4.157   0.012   3.548
 4179SOL     OW13435   5.260   3.852   3.283
 4179SOL    HW113436   5.360   3.845   3.284
 4179SOL    HW213437   5.228   3.862   3.189
 4180SOL     OW13438   4.729   2.462   0.509
 4180SOL    HW113439   4.747   2.447   0.606
 4180SOL    HW213440   4.702   2.558   0.495
 4181SOL     OW13441   3.917   0.659   6.690
 4181SOL    HW113442   3.880   0.712   6.767
 4181SOL    HW213443   4.017   0.668   6.688
 4182SOL     OW13444   0.460   5.562   3.580
 4182SOL    HW113445   0.473   5.560   3.481
 4182SOL    HW213446   0.418   5.649   3.607
 4183SOL     OW13447   2.501   1.665   0.559
 4183SOL    HW113448   2.498   1.742   0.622
 4183SOL    HW213449   2.504   1.579   0.611
 4184SOL     OW13450   3.082   6.746   2.262
 4184SOL    HW113451   3.153   6.773   2.328
 4184SOL    HW213452   3.033   6.827   2.231
 4185SOL     OW13453   0.696   4.631   3.333
 4185SOL    HW113454   0.705   4.689   3.252
 4185SOL    HW213455   0.772   4.565   3.335
 4186SOL     OW13456   2.405   5.008   6.664
 4186SOL    HW113457   2.387   4.947   6.587
 4186SOL    HW213458   2.325   5.010   6.724
 4187SOL     OW13459   2.490   3.250   5.579
 4187SOL    HW113460   2.528   3.207   5.661
 4187SOL    HW213461   2.452   3.179   5.520
 4188SOL     OW13462   5.265   0.454   5.205
 4188SOL    HW113463   5.262   0.494   5.297
 4188SOL    HW213464   5.215   0.367   5.206
 4189SOL     OW13465   3.139   4.920   4.540
 4189SOL    HW113466   3.072   4.968   4.597
 4189SOL    HW213467   3.128   4.947   4.445
 4190SOL     OW13468   1.213   0.280   1.217
 4190SOL    HW113469   1.138   0.345   1.230
 4190SOL    HW213470   1.298   0.322   1.249
 4191SOL     OW13471   5.039   4.544   4.323
 4191SOL    HW113472   5.030   4.641   4.343
 4191SOL    HW213473   5.011   4.526   4.228
 4192SOL     OW13474   0.367   1.612   3.238
 4192SOL    HW113475   0.461   1.645   3.247
 4192SOL    HW213476   0.334   1.582   3.328
 4193SOL     OW13477   6.098   0.294   1.005
 4193SOL    HW113478   6.038   0.355   0.952
 4193SOL    HW213479   6.119   0.337   1.093
 4194SOL     OW13480   4.843   0.495   4.484
 4194SOL    HW113481   4.748   0.465   4.476
 4194SOL    HW213482   4.849   0.593   4.468
 4195SOL     OW13483   3.960   5.402   1.679
 4195SOL    HW113484   3.914   5.360   1.601
 4195SOL    HW213485   3.998   5.330   1.738
 4196SOL     OW13486   6.247   2.896   2.850
 4196SOL    HW113487   6.180   2.942   2.791
 4196SOL    HW213488   6.199   2.846   2.922
 4197SOL     OW13489   4.756   5.572   5.932
 4197SOL    HW113490   4.662   5.552   5.906
 4197SOL    HW213491   4.805   5.487   5.951
 4198SOL     OW13492   5.858   2.076   0.697
 4198SOL    HW113493   5.903   2.121   0.774
 4198SOL    HW213494   5.789   2.013   0.732
 4199SOL     OW13495   0.925   2.598   6.307
 4199SOL    HW113496   0.946   2.675   6.248
 4199SOL    HW213497   0.936   2.512   6.256
 4200SOL     OW13498   3.098   0.268   6.204
 4200SOL    HW113499   3.026   0.217   6.157
 4200SOL    HW213500   3.073   0.365   6.208
 4201SOL     OW13501   5.514   6.851   3.489
 4201SOL    HW113502   5.451   6.879   3.561
 4201SOL    HW213503   5.605   6.887   3.509
 4202SOL     OW13504   3.100   5.438   6.292
 4202SOL    HW113505   3.165   5.433   6.368
 4202SOL    HW213506   3.008   5.452   6.328
 4203SOL     OW13507   4.464   3.882   0.263
 4203SOL    HW113508   4.469   3.937   0.347
 4203SOL    HW213509   4.526   3.921   0.195
 4204SOL     OW13510   4.134   3.648   4.333
 4204SOL    HW113511   4.229   3.642   4.363
 4204SOL    HW213512   4.126   3.609   4.241
 4205SOL     OW13513   4.482   6.498   4.259
 4205SOL    HW113514   4.562   6.525   4.205
 4205SOL    HW213515   4.512   6.455   4.344
 4206SOL     OW13516   6.020   1.044   5.306
 4206SOL    HW113517   6.111   1.079   5.283
 4206SOL    HW213518   5.991   1.083   5.394
 4207SOL     OW13519   2.265   2.282   1.933
 4207SOL    HW113520   2.275   2.377   1.962
 4207SOL    HW213521   2.184   2.272   1.875
 4208SOL     OW13522   0.004   3.776   5.285
 4208SOL    HW113523   0.025   3.774   5.187
 4208SOL    HW213524   6.977   3.857   5.307
 4209SOL     OW13525   7.019   6.507   4.220
 4209SOL    HW113526   7.020   6.569   4.142
 4209SOL    HW213527   6.948   6.537   4.285
 4210SOL     OW13528   3.773   3.729   2.345
 4210SOL    HW113529   3.795   3.655   2.282
 4210SOL    HW213530   3.704   3.789   2.303
 4211SOL     OW13531   3.539   0.746   5.968
 4211SOL    HW113532   3.617   0.698   6.007
 4211SOL    HW213533   3.505   0.814   6.034
 4212SOL     OW13534   6.261   2.257   2.930
 4212SOL    HW113535   6.215   2.198   2.865
 4212SOL    HW213536   6.360   2.248   2.920
 4213SOL     OW13537   2.428   0.318   2.512
 4213SOL    HW113538   2.405   0.267   2.595
 4213SOL    HW213539   2.410   0.415   2.526
 4214SOL     OW13540   1.109   5.787   5.481
 4214SOL    HW113541   1.190   5.729   5.487
 4214SOL    HW213542   1.128   5.865   5.421
 4215SOL     OW13543   4.329   6.947   6.128
 4215SOL    HW113544   4.337   7.017   6.199
 4215SOL    HW213545   4.259   6.975   6.061
 4216SOL     OW13546   1.595   0.928   3.118
 4216SOL    HW113547   1.689   0.955   3.139
 4216SOL    HW213548   1.580   0.933   3.019
 4217SOL     OW13549   1.126   0.947   3.064
 4217SOL    HW113550   1.086   0.856   3.070
 4217SOL    HW213551   1.208   0.952   3.121
 4218SOL     OW13552   3.571   1.241   1.679
 4218SOL    HW113553   3.566   1.161   1.738
 4218SOL    HW213554   3.575   1.212   1.584
 4219SOL     OW13555   3.902   5.873   4.013
 4219SOL    HW113556   3.936   5.937   4.082
 4219SOL    HW213557   3.894   5.920   3.925
 4220SOL     OW13558   6.727   3.129   3.217
 4220SOL    HW113559   6.693   3.131   3.311
 4220SOL    HW213560   6.679   3.198   3.163
 4221SOL     OW13561   6.248   5.475   6.407
 4221SOL    HW113562   6.222   5.435   6.319
 4221SOL    HW213563   6.292   5.406   6.464
 4222SOL     OW13564   0.466   1.626   1.802
 4222SOL    HW113565   0.546   1.618   1.743
 4222SOL    HW213566   0.495   1.639   1.896
 4223SOL     OW13567   3.616   3.572   0.015
 4223SOL    HW113568   3.529   3.530   7.015
 4223SOL    HW213569   3.676   3.578   6.964
 4224SOL     OW13570   5.323   4.493   4.044
 4224SOL    HW113571   5.329   4.527   4.138
 4224SOL    HW213572   5.411   4.505   3.998
 4225SOL     OW13573   2.612   2.445   5.380
 4225SOL    HW113574   2.608   2.544   5.367
 4225SOL    HW213575   2.581   2.399   5.297
 4226SOL     OW13576   0.427   6.680   2.811
 4226SOL    HW113577   0.396   6.759   2.863
 4226SOL    HW213578   0.423   6.700   2.713
 4227SOL     OW13579   3.540   5.351   1.376
 4227SOL    HW113580   3.561   5.414   1.301
 4227SOL    HW213581   3.569   5.392   1.463
 4228SOL     OW13582   1.337   5.431   5.124
 4228SOL    HW113583   1.411   5.474   5.176
 4228SOL    HW213584   1.293   5.361   5.180
 4229SOL     OW13585   4.659   6.419   6.121
 4229SOL    HW113586   4.690   6.324   6.109
 4229SOL    HW213587   4.708   6.478   6.056
 4230SOL     OW13588   0.301   5.647   2.810
 4230SOL    HW113589   0.289   5.745   2.823
 4230SOL    HW213590   0.323   5.628   2.714
 4231SOL     OW13591   5.678   6.623   5.992
 4231SOL    HW113592   5.736   6.542   5.996
 4231SOL    HW213593   5.704   6.686   6.066
 4232SOL     OW13594   0.130   4.634   3.315
 4232SOL    HW113595   0.058   4.585   3.365
 4232SOL    HW213596   0.211   4.642   3.373
 4233SOL     OW13597   6.579   6.873   6.124
 4233SOL    HW113598   6.597   6.856   6.027
 4233SOL    HW213599   6.656   6.839   6.178
 4234SOL     OW13600   2.516   5.852   4.879
 4234SOL    HW113601   2.551   5.930   4.826
 4234SOL    HW213602   2.580   5.830   4.952
 4235SOL     OW13603   5.375   4.375   5.856
 4235SOL    HW113604   5.359   4.331   5.944
 4235SOL    HW213605   5.469   4.359   5.827
 4236SOL     OW13606   6.301   3.664   2.111
 4236SOL    HW113607   6.336   3.602   2.040
 4236SOL    HW213608   6.260   3.610   2.185
 4237SOL     OW13609   5.311   5.940   3.467
 4237SOL    HW113610   5.324   5.912   3.372
 4237SOL    HW213611   5.384   5.901   3.524
 4238SOL     OW13612   1.956   6.406   2.372
 4238SOL    HW113613   1.881   6.442   2.427
 4238SOL    HW213614   2.011   6.481   2.336
 4239SOL     OW13615   5.116   0.930   2.635
 4239SOL    HW113616   5.149   0.916   2.728
 4239SOL    HW213617   5.016   0.922   2.634
 4240SOL     OW13618   2.442   5.942   0.547
 4240SOL    HW113619   2.383   5.997   0.605
 4240SOL    HW213620   2.485   5.870   0.601
 4241SOL     OW13621   5.870   1.082   0.322
 4241SOL    HW113622   5.954   1.033   0.297
 4241SOL    HW213623   5.844   1.057   0.415
 4242SOL     OW13624   3.417   1.501   4.137
 4242SOL    HW113625   3.397   1.404   4.149
 4242SOL    HW213626   3.513   1.512   4.112
 4243SOL     OW13627   6.465   3.204   2.630
 4243SOL    HW113628   6.468   3.129   2.696
 4243SOL    HW213629   6.369   3.222   2.605
 4244SOL     OW13630   4.233   4.351   1.659
 4244SOL    HW113631   4.269   4.322   1.748
 4244SOL    HW213632   4.154   4.411   1.673
 4245SOL     OW13633   6.734   1.206   6.400
 4245SOL    HW113634   6.721   1.126   6.342
 4245SOL    HW213635   6.734   1.288   6.343
 4246SOL     OW13636   0.001   4.109   3.168
 4246SOL    HW113637   0.072   4.120   3.238
 4246SOL    HW213638   7.011   4.011   3.155
 4247SOL     OW13639   2.679   6.153   3.839
 4247SOL    HW113640   2.694   6.194   3.750
 4247SOL    HW213641   2.738   6.198   3.907
 4248SOL     OW13642   3.848   1.567   3.425
 4248SOL    HW113643   3.803   1.546   3.338
 4248SOL    HW213644   3.787   1.543   3.501
 4249SOL     OW13645   6.038   2.667   4.458
 4249SOL    HW113646   6.095   2.691   4.379
 4249SOL    HW213647   6.017   2.569   4.455
 4250SOL     OW13648   6.496   4.582   2.695
 4250SOL    HW113649   6.466   4.496   2.653
 4250SOL    HW213650   6.431   4.610   2.764
 4251SOL     OW13651   5.428   4.543   1.457
 4251SOL    HW113652   5.499   4.527   1.525
 4251SOL    HW213653   5.465   4.527   1.365
 4252SOL     OW13654   5.617   6.017   6.058
 4252SOL    HW113655   5.525   6.032   6.022
 4252SOL    HW213656   5.635   6.083   6.130
 4253SOL     OW13657   3.545   6.231   0.800
 4253SOL    HW113658   3.459   6.191   0.833
 4253SOL    HW213659   3.524   6.302   0.732
 4254SOL     OW13660   0.617   3.161   1.656
 4254SOL    HW113661   0.605   3.129   1.562
 4254SOL    HW213662   0.659   3.088   1.711
 4255SOL     OW13663   6.434   4.134   3.852
 4255SOL    HW113664   6.343   4.149   3.892
 4255SOL    HW213665   6.488   4.217   3.862
 4256SOL     OW13666   2.403   6.567   6.987
 4256SOL    HW113667   2.320   6.622   6.994
 4256SOL    HW213668   2.388   6.479   0.003
 4257SOL     OW13669   2.612   0.442   4.575
 4257SOL    HW113670   2.675   0.465   4.501
 4257SOL    HW213671   2.548   0.372   4.544
 4258SOL     OW13672   4.983   6.429   0.760
 4258SOL    HW113673   5.056   6.448   0.825
 4258SOL    HW213674   5.018   6.372   0.686
 4259SOL     OW13675   2.727   1.098   0.828
 4259SOL    HW113676   2.709   1.049   0.743
 4259SOL    HW213677   2.641   1.125   0.870
 4260SOL     OW13678   5.011   0.382   0.834
 4260SOL    HW113679   5.095   0.355   0.788
 4260SOL    HW213680   4.957   0.301   0.857
 4261SOL     OW13681   1.857   0.145   1.962
 4261SOL    HW113682   1.819   0.085   1.892
 4261SOL    HW213683   1.931   0.200   1.922
 4262SOL     OW13684   1.085   4.909   5.763
 4262SOL    HW113685   1.007   4.864   5.805
 4262SOL    HW213686   1.162   4.910   5.827
 4263SOL     OW13687   2.640   6.131   3.520
 4263SOL    HW113688   2.675   6.055   3.465
 4263SOL    HW213689   2.542   6.121   3.534
 4264SOL     OW13690   0.322   2.545   2.961
 4264SOL    HW113691   0.273   2.486   2.898
 4264SOL    HW213692   0.266   2.625   2.984
 4265SOL     OW13693   5.584   1.662   0.784
 4265SOL    HW113694   5.607   1.626   0.875
 4265SOL    HW213695   5.485   1.662   0.772
 4266SOL     OW13696   1.836   5.303   0.320
 4266SOL    HW113697   1.922   5.302   0.269
 4266SOL    HW213698   1.787   5.389   0.300
 4267SOL     OW13699   1.724   3.406   4.552
 4267SOL    HW113700   1.780   3.335   4.510
 4267SOL    HW213701   1.648   3.429   4.492
 4268SOL     OW13702   1.478   6.173   6.062
 4268SOL    HW113703   1.535   6.092   6.068
 4268SOL    HW213704   1.474   6.219   6.151
 4269SOL     OW13705   2.348   0.907   1.829
 4269SOL    HW113706   2.337   0.973   1.755
 4269SOL    HW213707   2.431   0.929   1.881
 4270SOL     OW13708   4.105   3.627   4.054
 4270SOL    HW113709   4.098   3.609   3.955
 4270SOL    HW213710   4.120   3.724   4.069
 4271SOL     OW13711   6.772   0.868   6.563
 4271SOL    HW113712   6.759   0.773   6.590
 4271SOL    HW213713   6.688   0.902   6.519
 4272SOL     OW13714   6.207   2.784   4.637
 4272SOL    HW113715   6.142   2.728   4.585
 4272SOL    HW213716   6.274   2.823   4.574
 4273SOL     OW13717   4.217   6.804   4.599
 4273SOL    HW113718   4.278   6.725   4.592
 4273SOL    HW213719   4.248   6.863   4.674
 4274SOL     OW13720   1.029   6.241   1.639
 4274SOL    HW113721   1.003   6.216   1.545
 4274SOL    HW213722   1.110   6.299   1.637
 4275SOL     OW13723   6.532   0.686   3.821
 4275SOL    HW113724   6.524   0.748   3.898
 4275SOL    HW213725   6.456   0.700   3.758
 4276SOL     OW13726   2.335   5.021   2.931
 4276SOL    HW113727   2.347   5.040   2.833
 4276SOL    HW213728   2.299   4.928   2.942
 4277SOL     OW13729   6.272   4.364   4.187
 4277SOL    HW113730   6.345   4.425   4.158
 4277SOL    HW213731   6.187   4.416   4.196
 4278SOL     OW13732   0.253   0.384   4.443
 4278SOL    HW113733   0.171   0.440   4.444
 4278SOL    HW213734   0.231   0.292   4.476
 4279SOL     OW13735   3.067   0.880   4.399
 4279SOL    HW113736   3.121   0.960   4.373
 4279SOL    HW213737   3.085   0.805   4.335
 4280SOL     OW13738   4.629   0.206   6.214
 4280SOL    HW113739   4.648   0.156   6.299
 4280SOL    HW213740   4.546   0.170   6.172
 4281SOL     OW13741   0.721   4.907   3.847
 4281SOL    HW113742   0.639   4.887   3.901
 4281SOL    HW213743   0.701   4.980   3.782
 4282SOL     OW13744   3.639   4.210   6.041
 4282SOL    HW113745   3.636   4.165   6.131
 4282SOL    HW213746   3.640   4.141   5.970
 4283SOL     OW13747   1.538   0.793   3.653
 4283SOL    HW113748   1.444   0.825   3.654
 4283SOL    HW213749   1.547   0.714   3.714
 4284SOL     OW13750   4.252   4.756   1.650
 4284SOL    HW113751   4.273   4.695   1.727
 4284SOL    HW213752   4.155   4.778   1.651
 4285SOL     OW13753   0.475   0.673   5.999
 4285SOL    HW113754   0.429   0.585   5.988
 4285SOL    HW213755   0.511   0.679   6.092
 4286SOL     OW13756   4.448   6.035   5.928
 4286SOL    HW113757   4.366   6.072   5.972
 4286SOL    HW213758   4.498   5.979   5.993
 4287SOL     OW13759   5.726   2.517   6.487
 4287SOL    HW113760   5.736   2.566   6.574
 4287SOL    HW213761   5.727   2.582   6.411
 4288SOL     OW13762   0.838   6.056   3.586
 4288SOL    HW113763   0.762   6.101   3.633
 4288SOL    HW213764   0.922   6.071   3.637
 4289SOL     OW13765   6.668   2.671   0.809
 4289SOL    HW113766   6.578   2.713   0.808
 4289SOL    HW213767   6.683   2.627   0.897
 4290SOL     OW13768   1.380   6.832   2.674
 4290SOL    HW113769   1.397   6.894   2.750
 4290SOL    HW213770   1.383   6.738   2.707
 4291SOL     OW13771   4.195   3.346   1.325
 4291SOL    HW113772   4.261   3.293   1.379
 4291SOL    HW213773   4.212   3.444   1.337
 4292SOL     OW13774   6.102   3.988   0.421
 4292SOL    HW113775   6.009   4.022   0.411
 4292SOL    HW213776   6.100   3.896   0.461
 4293SOL     OW13777   2.332   3.163   0.246
 4293SOL    HW113778   2.364   3.229   0.314
 4293SOL    HW213779   2.232   3.163   0.244
 4294SOL     OW13780   2.780   2.929   6.680
 4294SOL    HW113781   2.803   3.015   6.635
 4294SOL    HW213782   2.727   2.948   6.763
 4295SOL     OW13783   3.996   5.494   4.095
 4295SOL    HW113784   4.043   5.558   4.155
 4295SOL    HW213785   4.062   5.432   4.053
 4296SOL     OW13786   4.115   0.589   0.339
 4296SOL    HW113787   4.126   0.687   0.322
 4296SOL    HW213788   4.123   0.570   0.437
 4297SOL     OW13789   5.188   0.892   6.778
 4297SOL    HW113790   5.169   0.879   6.875
 4297SOL    HW213791   5.103   0.887   6.726
 4298SOL     OW13792   3.741   5.338   0.509
 4298SOL    HW113793   3.763   5.248   0.470
 4298SOL    HW213794   3.826   5.386   0.532
 4299SOL     OW13795   0.599   2.783   6.495
 4299SOL    HW113796   0.583   2.866   6.549
 4299SOL    HW213797   0.678   2.734   6.532
 4300SOL     OW13798   4.148   0.287   6.918
 4300SOL    HW113799   4.179   0.333   6.835
 4300SOL    HW213800   4.221   0.288   6.986
 4301SOL     OW13801   4.237   1.233   1.480
 4301SOL    HW113802   4.164   1.258   1.544
 4301SOL    HW213803   4.241   1.133   1.471
 4302SOL     OW13804   1.265   6.710   5.918
 4302SOL    HW113805   1.263   6.640   5.990
 4302SOL    HW213806   1.353   6.706   5.871
 4303SOL     OW13807   6.955   4.869   4.458
 4303SOL    HW113808   6.860   4.896   4.472
 4303SOL    HW213809   6.964   4.819   4.372
 4304SOL     OW13810   3.079   3.991   3.290
 4304SOL    HW113811   3.142   4.052   3.242
 4304SOL    HW213812   3.026   3.939   3.223
 4305SOL     OW13813   6.549   0.298   4.751
 4305SOL    HW113814   6.567   0.217   4.695
 4305SOL    HW213815   6.457   0.332   4.732
 4306SOL     OW13816   5.773   3.681   6.499
 4306SOL    HW113817   5.724   3.595   6.483
 4306SOL    HW213818   5.725   3.734   6.569
 4307SOL     OW13819   3.827   3.978   6.288
 4307SOL    HW113820   3.911   4.032   6.282
 4307SOL    HW213821   3.804   3.964   6.384
 4308SOL     OW13822   6.145   5.364   6.867
 4308SOL    HW113823   6.064   5.378   6.810
 4308SOL    HW213824   6.154   5.441   6.930
 4309SOL     OW13825   0.942   1.273   0.092
 4309SOL    HW113826   0.850   1.258   0.130
 4309SOL    HW213827   0.987   1.185   0.077
 4310SOL     OW13828   1.311   2.878   2.558
 4310SOL    HW113829   1.367   2.933   2.497
 4310SOL    HW213830   1.345   2.784   2.559
 4311SOL     OW13831   1.848   6.146   3.054
 4311SOL    HW113832   1.783   6.203   3.105
 4311SOL    HW213833   1.804   6.110   2.972
 4312SOL     OW13834   1.435   4.731   0.904
 4312SOL    HW113835   1.515   4.711   0.848
 4312SOL    HW213836   1.360   4.762   0.845
 4313SOL     OW13837   4.958   1.389   1.984
 4313SOL    HW113838   4.948   1.292   1.960
 4313SOL    HW213839   4.868   1.428   2.003
 4314SOL     OW13840   6.194   0.670   4.297
 4314SOL    HW113841   6.248   0.591   4.267
 4314SOL    HW213842   6.120   0.686   4.232
 4315SOL     OW13843   2.002   7.000   1.559
 4315SOL    HW113844   2.029   0.043   1.494
 4315SOL    HW213845   1.991   6.913   1.511
 4316SOL     OW13846   5.138   0.262   2.093
 4316SOL    HW113847   5.175   0.325   2.025
 4316SOL    HW213848   5.065   0.207   2.053
 4317SOL     OW13849   4.512   1.684   4.586
 4317SOL    HW113850   4.534   1.612   4.520
 4317SOL    HW213851   4.559   1.665   4.672
 4318SOL     OW13852   0.423   3.734   4.602
 4318SOL    HW113853   0.513   3.698   4.626
 4318SOL    HW213854   0.392   3.796   4.673
 4319SOL     OW13855   2.129   2.750   1.138
 4319SOL    HW113856   2.209   2.723   1.192
 4319SOL    HW213857   2.156   2.813   1.066
 4320SOL     OW13858   6.402   5.719   1.432
 4320SOL    HW113859   6.484   5.759   1.392
 4320SOL    HW213860   6.332   5.789   1.441
 4321SOL     OW13861   6.816   6.622   5.762
 4321SOL    HW113862   6.887   6.572   5.811
 4321SOL    HW213863   6.848   6.643   5.669
 4322SOL     OW13864   6.444   2.634   6.511
 4322SOL    HW113865   6.484   2.564   6.451
 4322SOL    HW213866   6.485   2.626   6.602
 4323SOL     OW13867   4.740   3.657   0.936
 4323SOL    HW113868   4.782   3.638   1.025
 4323SOL    HW213869   4.778   3.741   0.898
 4324SOL     OW13870   5.565   4.523   6.607
 4324SOL    HW113871   5.518   4.442   6.642
 4324SOL    HW213872   5.534   4.604   6.655
 4325SOL     OW13873   2.219   1.414   1.510
 4325SOL    HW113874   2.256   1.424   1.602
 4325SOL    HW213875   2.267   1.476   1.448
 4326SOL     OW13876   4.734   5.003   5.217
 4326SOL    HW113877   4.820   5.055   5.219
 4326SOL    HW213878   4.745   4.919   5.270
 4327SOL     OW13879   6.019   5.886   2.130
 4327SOL    HW113880   6.065   5.854   2.047
 4327SOL    HW213881   6.070   5.961   2.170
 4328SOL     OW13882   4.636   3.683   5.411
 4328SOL    HW113883   4.538   3.665   5.420
 4328SOL    HW213884   4.666   3.662   5.318
 4329SOL     OW13885   4.277   1.650   5.654
 4329SOL    HW113886   4.279   1.730   5.714
 4329SOL    HW213887   4.284   1.680   5.559
 4330SOL     OW13888   2.575   0.431   5.087
 4330SOL    HW113889   2.546   0.499   5.153
 4330SOL    HW213890   2.658   0.462   5.041
 4331SOL     OW13891   5.462   2.147   1.474
 4331SOL    HW113892   5.398   2.176   1.545
 4331SOL    HW213893   5.527   2.081   1.511
 4332SOL     OW13894   5.056   4.145   2.332
 4332SOL    HW113895   5.015   4.114   2.418
 4332SOL    HW213896   4.987   4.145   2.260
 4333SOL     OW13897   3.743   0.419   5.000
 4333SOL    HW113898   3.727   0.331   4.956
 4333SOL    HW213899   3.758   0.404   5.098
 4334SOL     OW13900   1.629   2.867   2.647
 4334SOL    HW113901   1.687   2.901   2.574
 4334SOL    HW213902   1.598   2.943   2.705
 4335SOL     OW13903   3.843   3.540   2.543
 4335SOL    HW113904   3.901   3.460   2.529
 4335SOL    HW213905   3.826   3.584   2.455
 4336SOL     OW13906   2.147   6.346   6.904
 4336SOL    HW113907   2.065   6.373   6.954
 4336SOL    HW213908   2.132   6.357   6.806
 4337SOL     OW13909   0.295   4.225   0.704
 4337SOL    HW113910   0.362   4.288   0.745
 4337SOL    HW213911   0.325   4.131   0.719
 4338SOL     OW13912   5.639   5.795   5.095
 4338SOL    HW113913   5.680   5.836   5.013
 4338SOL    HW213914   5.712   5.759   5.154
 4339SOL     OW13915   5.754   3.431   5.268
 4339SOL    HW113916   5.814   3.360   5.304
 4339SOL    HW213917   5.673   3.388   5.227
 4340SOL     OW13918   6.639   3.696   1.313
 4340SOL    HW113919   6.606   3.649   1.230
 4340SOL    HW213920   6.564   3.704   1.378
 4341SOL     OW13921   0.668   6.064   1.893
 4341SOL    HW113922   0.691   6.037   1.986
 4341SOL    HW213923   0.742   6.119   1.855
 4342SOL     OW13924   6.107   3.747   4.449
 4342SOL    HW113925   6.131   3.843   4.463
 4342SOL    HW213926   6.023   3.741   4.395
 4343SOL     OW13927   2.559   5.801   5.362
 4343SOL    HW113928   2.475   5.764   5.402
 4343SOL    HW213929   2.539   5.886   5.314
 4344SOL     OW13930   1.391   5.295   2.287
 4344SOL    HW113931   1.442   5.232   2.346
 4344SOL    HW213932   1.324   5.346   2.342
 4345SOL     OW13933   3.077   3.311   5.331
 4345SOL    HW113934   3.082   3.218   5.295
 4345SOL    HW213935   3.016   3.314   5.410
 4346SOL     OW13936   1.767   2.952   2.397
 4346SOL    HW113937   1.812   2.863   2.394
 4346SOL    HW213938   1.801   3.009   2.322
 4347SOL     OW13939   6.386   6.934   3.025
 4347SOL    HW113940   6.405   6.860   2.961
 4347SOL    HW213941   6.466   6.949   3.083
 4348SOL     OW13942   6.952   4.418   3.204
 4348SOL    HW113943   0.018   4.400   3.233
 4348SOL    HW213944   6.945   4.510   3.165
 4349SOL     OW13945   6.902   1.564   2.777
 4349SOL    HW113946   6.902   1.489   2.844
 4349SOL    HW213947   6.956   1.640   2.813
 4350SOL     OW13948   4.822   1.448   4.026
 4350SOL    HW113949   4.836   1.444   3.927
 4350SOL    HW213950   4.778   1.534   4.050
 4351SOL     OW13951   2.030   5.441   0.964
 4351SOL    HW113952   2.109   5.497   0.988
 4351SOL    HW213953   2.055   5.344   0.968
 4352SOL     OW13954   0.673   3.132   2.548
 4352SOL    HW113955   0.668   3.196   2.625
 4352SOL    HW213956   0.582   3.124   2.506
 4353SOL     OW13957   3.795   3.253   6.467
 4353SOL    HW113958   3.815   3.293   6.378
 4353SOL    HW213959   3.880   3.227   6.511
 4354SOL     OW13960   2.460   7.013   5.792
 4354SOL    HW113961   2.542   0.009   5.740
 4354SOL    HW213962   2.422   6.927   5.756
 4355SOL     OW13963   2.825   0.182   2.118
 4355SOL    HW113964   2.863   0.223   2.201
 4355SOL    HW213965   2.746   0.235   2.087
 4356SOL     OW13966   5.065   4.212   0.859
 4356SOL    HW113967   5.146   4.260   0.892
 4356SOL    HW213968   5.078   4.114   0.867
 4357SOL     OW13969   6.440   1.100   0.516
 4357SOL    HW113970   6.419   1.050   0.600
 4357SOL    HW213971   6.499   1.044   0.458
 4358SOL     OW13972   0.543   6.233   0.133
 4358SOL    HW113973   0.642   6.229   0.123
 4358SOL    HW213974   0.510   6.324   0.105
 4359SOL     OW13975   2.297   2.142   6.742
 4359SOL    HW113976   2.281   2.052   6.700
 4359SOL    HW213977   2.218   2.201   6.726
 4360SOL     OW13978   1.360   2.062   3.659
 4360SOL    HW113979   1.328   1.971   3.685
 4360SOL    HW213980   1.399   2.108   3.740
 4361SOL     OW13981   2.493   3.455   0.937
 4361SOL    HW113982   2.450   3.399   1.008
 4361SOL    HW213983   2.459   3.549   0.943
 4362SOL     OW13984   5.719   5.423   3.231
 4362SOL    HW113985   5.720   5.511   3.184
 4362SOL    HW213986   5.626   5.401   3.259
 4363SOL     OW13987   5.136   2.946   0.417
 4363SOL    HW113988   5.163   2.968   0.323
 4363SOL    HW213989   5.046   2.985   0.436
 4364SOL     OW13990   2.914   3.344   4.750
 4364SOL    HW113991   2.815   3.336   4.767
 4364SOL    HW213992   2.963   3.337   4.836
 4365SOL     OW13993   2.122   1.596   1.795
 4365SOL    HW113994   2.193   1.529   1.772
 4365SOL    HW213995   2.151   1.687   1.765
 4366SOL     OW13996   6.330   6.786   0.170
 4366SOL    HW113997   6.335   6.866   0.230
 4366SOL    HW213998   6.388   6.713   0.207
 4367SOL     OW13999   2.298   4.777   4.855
 4367SOL    HW114000   2.381   4.722   4.845
 4367SOL    HW214001   2.223   4.718   4.885
 4368SOL     OW14002   3.994   4.270   1.106
 4368SOL    HW114003   3.900   4.268   1.138
 4368SOL    HW214004   4.036   4.179   1.119
 4369SOL     OW14005   4.166   5.373   2.995
 4369SOL    HW114006   4.099   5.447   2.999
 4369SOL    HW214007   4.235   5.395   2.926
 4370SOL     OW14008   4.381   5.112   2.644
 4370SOL    HW114009   4.368   5.034   2.583
 4370SOL    HW214010   4.459   5.166   2.613
 4371SOL     OW14011   1.046   2.109   1.690
 4371SOL    HW114012   1.116   2.076   1.754
 4371SOL    HW214013   0.971   2.043   1.687
 4372SOL     OW14014   3.315   1.550   2.749
 4372SOL    HW114015   3.246   1.478   2.755
 4372SOL    HW214016   3.394   1.526   2.806
 4373SOL     OW14017   6.595   2.443   6.361
 4373SOL    HW114018   6.605   2.390   6.278
 4373SOL    HW214019   6.684   2.452   6.406
 4374SOL     OW14020   1.641   1.900   1.890
 4374SOL    HW114021   1.637   1.995   1.858
 4374SOL    HW214022   1.602   1.895   1.982
 4375SOL     OW14023   4.159   0.152   2.866
 4375SOL    HW114024   4.146   0.073   2.925
 4375SOL    HW214025   4.211   0.222   2.916
 4376SOL     OW14026   7.003   6.472   1.201
 4376SOL    HW114027   6.969   6.560   1.235
 4376SOL    HW214028   6.968   6.456   1.109
 4377SOL     OW14029   5.278   4.271   1.098
 4377SOL    HW114030   5.240   4.185   1.131
 4377SOL    HW214031   5.214   4.346   1.115
 4378SOL     OW14032   2.348   2.160   2.616
 4378SOL    HW114033   2.439   2.131   2.645
 4378SOL    HW214034   2.319   2.239   2.670
 4379SOL     OW14035   1.950   1.481   2.549
 4379SOL    HW114036   1.955   1.580   2.534
 4379SOL    HW214037   2.028   1.452   2.603
 4380SOL     OW14038   0.777   6.915   2.190
 4380SOL    HW114039   0.791   7.013   2.209
 4380SOL    HW214040   0.719   6.876   2.262
 4381SOL     OW14041   0.706   5.473   5.124
 4381SOL    HW114042   0.771   5.548   5.115
 4381SOL    HW214043   0.707   5.438   5.218
 4382SOL     OW14044   0.163   2.901   4.870
 4382SOL    HW114045   0.168   2.836   4.947
 4382SOL    HW214046   0.073   2.944   4.869
 4383SOL     OW14047   0.591   3.003   6.647
 4383SOL    HW114048   0.690   3.019   6.639
 4383SOL    HW214049   0.569   2.982   6.742
 4384SOL     OW14050   5.421   0.536   4.825
 4384SOL    HW114051   5.495   0.473   4.802
 4384SOL    HW214052   5.442   0.584   4.910
 4385SOL     OW14053   5.625   2.145   5.101
 4385SOL    HW114054   5.538   2.194   5.110
 4385SOL    HW214055   5.700   2.207   5.125
 4386SOL     OW14056   1.716   4.129   5.540
 4386SOL    HW114057   1.739   4.058   5.474
 4386SOL    HW214058   1.745   4.218   5.506
 4387SOL     OW14059   6.880   2.393   1.737
 4387SOL    HW114060   6.944   2.462   1.702
 4387SOL    HW214061   6.913   2.302   1.712
 4388SOL     OW14062   4.325   2.380   6.060
 4388SOL    HW114063   4.261   2.399   6.134
 4388SOL    HW214064   4.294   2.298   6.010
 4389SOL     OW14065   6.300   3.408   1.343
 4389SOL    HW114066   6.232   3.373   1.278
 4389SOL    HW214067   6.345   3.488   1.304
 4390SOL     OW14068   3.887   0.083   1.218
 4390SOL    HW114069   3.858   0.166   1.266
 4390SOL    HW214070   3.918   0.015   1.284
 4391SOL     OW14071   2.375   5.587   6.972
 4391SOL    HW114072   2.304   5.540   7.025
 4391SOL    HW214073   2.376   5.553   6.878
 4392SOL     OW14074   6.547   3.447   5.121
 4392SOL    HW114075   6.609   3.376   5.087
 4392SOL    HW214076   6.453   3.424   5.096
 4393SOL     OW14077   6.191   1.012   2.634
 4393SOL    HW114078   6.266   0.978   2.577
 4393SOL    HW214079   6.140   1.082   2.584
 4394SOL     OW14080   6.619   5.285   2.544
 4394SOL    HW114081   6.683   5.214   2.571
 4394SOL    HW214082   6.602   5.278   2.445
 4395SOL     OW14083   1.560   0.034   2.082
 4395SOL    HW114084   1.622   0.101   2.043
 4395SOL    HW214085   1.481   0.021   2.021
 4396SOL     OW14086   2.548   2.237   4.296
 4396SOL    HW114087   2.632   2.193   4.330
 4396SOL    HW214088   2.561   2.336   4.295
 4397SOL     OW14089   1.320   2.167   4.203
 4397SOL    HW114090   1.228   2.133   4.182
 4397SOL    HW214091   1.331   2.176   4.302
 4398SOL     OW14092   0.615   3.840   5.911
 4398SOL    HW114093   0.664   3.920   5.877
 4398SOL    HW214094   0.628   3.832   6.009
 4399SOL     OW14095   2.812   0.044   2.755
 4399SOL    HW114096   2.860   0.062   2.669
 4399SOL    HW214097   2.717   0.072   2.746
 4400SOL     OW14098   2.607   6.662   5.460
 4400SOL    HW114099   2.675   6.664   5.533
 4400SOL    HW214100   2.629   6.731   5.392
 4401SOL     OW14101   2.774   6.971   5.916
 4401SOL    HW114102   2.771   6.980   5.816
 4401SOL    HW214103   2.683   6.987   5.954
 4402SOL     OW14104   1.672   0.730   2.373
 4402SOL    HW114105   1.640   0.771   2.288
 4402SOL    HW214106   1.772   0.733   2.376
 4403SOL     OW14107   1.155   1.004   0.547
 4403SOL    HW114108   1.133   1.007   0.450
 4403SOL    HW214109   1.145   0.911   0.581
 4404SOL     OW14110   1.568   6.048   5.759
 4404SOL    HW114111   1.536   6.019   5.849
 4404SOL    HW214112   1.629   5.978   5.721
 4405SOL     OW14113   1.863   3.947   2.102
 4405SOL    HW114114   1.879   3.975   2.007
 4405SOL    HW214115   1.907   4.013   2.164
 4406SOL     OW14116   0.577   3.052   1.059
 4406SOL    HW114117   0.661   3.081   1.105
 4406SOL    HW214118   0.599   2.985   0.988
 4407SOL     OW14119   6.300   5.381   0.926
 4407SOL    HW114120   6.297   5.295   0.876
 4407SOL    HW214121   6.342   5.452   0.869
 4408SOL     OW14122   2.602   0.293   0.967
 4408SOL    HW114123   2.632   0.198   0.961
 4408SOL    HW214124   2.550   0.305   1.052
 4409SOL     OW14125   4.747   1.556   2.079
 4409SOL    HW114126   4.663   1.519   2.120
 4409SOL    HW214127   4.747   1.656   2.089
 4410SOL     OW14128   1.250   4.718   0.081
 4410SOL    HW114129   1.180   4.682   0.142
 4410SOL    HW214130   1.217   4.800   0.035
 4411SOL     OW14131   3.825   4.356   5.331
 4411SOL    HW114132   3.862   4.412   5.257
 4411SOL    HW214133   3.802   4.266   5.296
 4412SOL     OW14134   4.303   6.317   4.139
 4412SOL    HW114135   4.337   6.408   4.162
 4412SOL    HW214136   4.367   6.248   4.171
 4413SOL     OW14137   5.731   4.647   4.448
 4413SOL    HW114138   5.754   4.594   4.530
 4413SOL    HW214139   5.703   4.584   4.375
 4414SOL     OW14140   3.372   5.648   1.544
 4414SOL    HW114141   3.456   5.599   1.569
 4414SOL    HW214142   3.337   5.696   1.624
 4415SOL     OW14143   5.022   2.701   0.496
 4415SOL    HW114144   5.073   2.780   0.460
 4415SOL    HW214145   4.971   2.658   0.423
 4416SOL     OW14146   3.805   1.871   3.805
 4416SOL    HW114147   3.727   1.934   3.806
 4416SOL    HW214148   3.870   1.898   3.734
 4417SOL     OW14149   5.695   3.965   4.267
 4417SOL    HW114150   5.738   3.877   4.245
 4417SOL    HW214151   5.763   4.038   4.257
 4418SOL     OW14152   6.104   1.893   2.081
 4418SOL    HW114153   6.127   1.980   2.124
 4418SOL    HW214154   6.042   1.909   2.004
 4419SOL     OW14155   5.796   6.718   6.226
 4419SOL    HW114156   5.725   6.685   6.289
 4419SOL    HW214157   5.885   6.712   6.271
 4420SOL     OW14158   4.484   1.075   1.793
 4420SOL    HW114159   4.460   1.082   1.889
 4420SOL    HW214160   4.437   0.996   1.752
 4421SOL     OW14161   1.762   1.691   4.562
 4421SOL    HW114162   1.721   1.781   4.545
 4421SOL    HW214163   1.712   1.645   4.635
 4422SOL     OW14164   1.430   3.876   0.033
 4422SOL    HW114165   1.339   3.854   7.025
 4422SOL    HW214166   1.493   3.891   6.984
 4423SOL     OW14167   0.265   3.392   5.542
 4423SOL    HW114168   0.176   3.361   5.575
 4423SOL    HW214169   0.254   3.478   5.492
 4424SOL     OW14170   5.484   0.889   4.483
 4424SOL    HW114171   5.439   0.881   4.572
 4424SOL    HW214172   5.582   0.871   4.494
 4425SOL     OW14173   2.511   4.284   0.165
 4425SOL    HW114174   2.465   4.319   0.246
 4425SOL    HW214175   2.576   4.213   0.191
 4426SOL     OW14176   0.751   1.110   4.053
 4426SOL    HW114177   0.719   1.036   3.993
 4426SOL    HW214178   0.833   1.151   4.013
 4427SOL     OW14179   6.630   6.169   2.181
 4427SOL    HW114180   6.619   6.092   2.119
 4427SOL    HW214181   6.653   6.136   2.273
 4428SOL     OW14182   4.037   1.021   3.723
 4428SOL    HW114183   4.011   1.096   3.663
 4428SOL    HW214184   4.087   0.952   3.670
 4429SOL     OW14185   2.988   6.988   2.139
 4429SOL    HW114186   3.053   6.985   2.062
 4429SOL    HW214187   2.918   0.028   2.120
 4430SOL     OW14188   4.878   4.734   5.400
 4430SOL    HW114189   4.949   4.805   5.401
 4430SOL    HW214190   4.918   4.647   5.428
 4431SOL     OW14191   3.012   1.425   2.759
 4431SOL    HW114192   3.014   1.524   2.773
 4431SOL    HW214193   2.967   1.381   2.837
 4432SOL     OW14194   2.912   3.444   5.910
 4432SOL    HW114195   2.859   3.517   5.955
 4432SOL    HW214196   2.937   3.474   5.818
 4433SOL     OW14197   5.657   1.699   4.267
 4433SOL    HW114198   5.690   1.681   4.360
 4433SOL    HW214199   5.578   1.641   4.249
 4434SOL     OW14200   5.419   1.417   2.855
 4434SOL    HW114201   5.413   1.361   2.772
 4434SOL    HW214202   5.356   1.494   2.847
 4435SOL     OW14203   4.770   3.893   1.238
 4435SOL    HW114204   4.773   3.793   1.242
 4435SOL    HW214205   4.823   3.925   1.159
 4436SOL     OW14206   4.360   0.760   1.199
 4436SOL    HW114207   4.427   0.690   1.176
 4436SOL    HW214208   4.268   0.718   1.203
 4437SOL     OW14209   0.895   2.868   2.758
 4437SOL    HW114210   0.989   2.838   2.776
 4437SOL    HW214211   0.893   2.923   2.675
 4438SOL     OW14212   4.748   0.212   6.556
 4438SOL    HW114213   4.721   0.276   6.484
 4438SOL    HW214214   4.806   0.258   6.623
 4439SOL     OW14215   0.022   4.030   2.226
 4439SOL    HW114216   7.021   4.105   2.168
 4439SOL    HW214217   0.035   4.063   2.320
 4440SOL     OW14218   2.747   4.414   0.751
 4440SOL    HW114219   2.746   4.512   0.774
 4440SOL    HW214220   2.694   4.364   0.820
 4441SOL     OW14221   0.517   1.663   2.069
 4441SOL    HW114222   0.423   1.675   2.103
 4441SOL    HW214223   0.574   1.624   2.142
 4442SOL     OW14224   1.907   4.742   4.493
 4442SOL    HW114225   1.914   4.833   4.453
 4442SOL    HW214226   1.968   4.680   4.445
 4443SOL     OW14227   1.514   3.339   5.587
 4443SOL    HW114228   1.513   3.436   5.609
 4443SOL    HW214229   1.498   3.286   5.670
 4444SOL     OW14230   3.413   4.351   5.743
 4444SOL    HW114231   3.385   4.263   5.705
 4444SOL    HW214232   3.513   4.357   5.743
 4445SOL     OW14233   1.827   6.201   6.592
 4445SOL    HW114234   1.820   6.151   6.678
 4445SOL    HW214235   1.815   6.299   6.610
 4446SOL     OW14236   5.033   1.649   1.538
 4446SOL    HW114237   5.117   1.702   1.532
 4446SOL    HW214238   5.036   1.573   1.473
 4447SOL     OW14239   4.993   4.871   6.208
 4447SOL    HW114240   4.900   4.875   6.170
 4447SOL    HW214241   5.043   4.797   6.162
 4448SOL     OW14242   2.375   4.514   1.487
 4448SOL    HW114243   2.415   4.489   1.576
 4448SOL    HW214244   2.276   4.515   1.494
 4449SOL     OW14245   5.038   1.325   6.183
 4449SOL    HW114246   5.089   1.330   6.268
 4449SOL    HW214247   5.059   1.240   6.135
 4450SOL     OW14248   3.772   2.542   5.779
 4450SOL    HW114249   3.733   2.580   5.695
 4450SOL    HW214250   3.842   2.475   5.756
 4451SOL     OW14251   5.381   4.596   3.609
 4451SOL    HW114252   5.443   4.536   3.559
 4451SOL    HW214253   5.310   4.630   3.547
 4452SOL     OW14254   5.657   5.707   4.312
 4452SOL    HW114255   5.651   5.796   4.357
 4452SOL    HW214256   5.579   5.651   4.338
 4453SOL     OW14257   1.367   2.805   1.235
 4453SOL    HW114258   1.466   2.812   1.235
 4453SOL    HW214259   1.336   2.767   1.147
 4454SOL     OW14260   1.295   1.848   0.040
 4454SOL    HW114261   1.299   1.755   0.077
 4454SOL    HW214262   1.389   1.882   0.026
 4455SOL     OW14263   5.331   5.814   5.614
 4455SOL    HW114264   5.261   5.767   5.561
 4455SOL    HW214265   5.347   5.765   5.699
 4456SOL     OW14266   2.576   6.252   2.979
 4456SOL    HW114267   2.499   6.228   3.039
 4456SOL    HW214268   2.615   6.169   2.939
 4457SOL     OW14269   3.603   1.313   2.718
 4457SOL    HW114270   3.641   1.263   2.795
 4457SOL    HW214271   3.562   1.398   2.751
 4458SOL     OW14272   1.983   2.752   0.488
 4458SOL    HW114273   1.958   2.848   0.473
 4458SOL    HW214274   2.082   2.742   0.479
 4459SOL     OW14275   4.211   2.207   4.470
 4459SOL    HW114276   4.261   2.204   4.383
 4459SOL    HW214277   4.273   2.182   4.544
 4460SOL     OW14278   1.598   2.976   6.712
 4460SOL    HW114279   1.630   3.026   6.632
 4460SOL    HW214280   1.608   2.878   6.696
 4461SOL     OW14281   1.978   0.873   0.925
 4461SOL    HW114282   2.040   0.804   0.964
 4461SOL    HW214283   2.031   0.954   0.898
 4462SOL     OW14284   6.394   4.591   1.939
 4462SOL    HW114285   6.308   4.541   1.949
 4462SOL    HW214286   6.467   4.527   1.918
 4463SOL     OW14287   4.689   1.142   0.464
 4463SOL    HW114288   4.601   1.097   0.480
 4463SOL    HW214289   4.761   1.092   0.512
 4464SOL     OW14290   6.981   5.734   0.601
 4464SOL    HW114291   6.915   5.681   0.548
 4464SOL    HW214292   6.933   5.798   0.661
 4465SOL     OW14293   3.755   4.963   0.989
 4465SOL    HW114294   3.714   5.052   1.013
 4465SOL    HW214295   3.689   4.890   1.008
 4466SOL     OW14296   1.156   1.662   2.792
 4466SOL    HW114297   1.227   1.609   2.838
 4466SOL    HW214298   1.191   1.694   2.704
 4467SOL     OW14299   1.508   5.746   2.750
 4467SOL    HW114300   1.490   5.832   2.797
 4467SOL    HW214301   1.564   5.687   2.808
 4468SOL     OW14302   1.936   4.109   0.534
 4468SOL    HW114303   1.868   4.056   0.584
 4468SOL    HW214304   2.017   4.121   0.592
 4469SOL     OW14305   3.268   0.667   1.797
 4469SOL    HW114306   3.267   0.650   1.896
 4469SOL    HW214307   3.268   0.765   1.780
 4470SOL     OW14308   0.372   1.887   2.266
 4470SOL    HW114309   0.402   1.803   2.312
 4470SOL    HW214310   0.445   1.955   2.269
 4471SOL     OW14311   1.073   2.406   6.628
 4471SOL    HW114312   1.098   2.488   6.577
 4471SOL    HW214313   1.153   2.346   6.636
 4472SOL     OW14314   0.915   3.210   1.841
 4472SOL    HW114315   0.965   3.140   1.890
 4472SOL    HW214316   0.976   3.258   1.778
 4473SOL     OW14317   5.819   3.160   4.098
 4473SOL    HW114318   5.865   3.071   4.110
 4473SOL    HW214319   5.729   3.157   4.141
 4474SOL     OW14320   2.385   0.226   2.261
 4474SOL    HW114321   2.388   0.276   2.348
 4474SOL    HW214322   2.455   0.263   2.199
 4475SOL     OW14323   1.077   4.203   2.018
 4475SOL    HW114324   1.137   4.187   1.940
 4475SOL    HW214325   1.081   4.300   2.043
 4476SOL     OW14326   5.909   1.009   3.212
 4476SOL    HW114327   5.907   0.927   3.154
 4476SOL    HW214328   5.830   1.066   3.192
 4477SOL     OW14329   1.496   0.273   5.310
 4477SOL    HW114330   1.417   0.322   5.347
 4477SOL    HW214331   1.580   0.310   5.350
 4478SOL     OW14332   3.338   0.177   2.084
 4478SOL    HW114333   3.293   0.099   2.040
 4478SOL    HW214334   3.374   0.239   2.014
 4479SOL     OW14335   0.680   2.222   0.854
 4479SOL    HW114336   0.583   2.235   0.875
 4479SOL    HW214337   0.689   2.183   0.762
 4480SOL     OW14338   0.347   4.428   5.097
 4480SOL    HW114339   0.305   4.351   5.146
 4480SOL    HW214340   0.367   4.400   5.003
 4481SOL     OW14341   3.432   5.647   4.364
 4481SOL    HW114342   3.345   5.695   4.379
 4481SOL    HW214343   3.507   5.712   4.368
 4482SOL     OW14344   2.020   3.036   5.288
 4482SOL    HW114345   2.051   3.041   5.193
 4482SOL    HW214346   1.923   3.012   5.290
 4483SOL     OW14347   6.419   2.773   2.276
 4483SOL    HW114348   6.344   2.708   2.265
 4483SOL    HW214349   6.487   2.758   2.205
 4484SOL     OW14350   3.220   2.151   6.832
 4484SOL    HW114351   3.161   2.078   6.797
 4484SOL    HW214352   3.298   2.163   6.771
 4485SOL     OW14353   5.705   2.586   4.546
 4485SOL    HW114354   5.762   2.506   4.530
 4485SOL    HW214355   5.759   2.656   4.594
 4486SOL     OW14356   6.455   5.625   5.180
 4486SOL    HW114357   6.474   5.650   5.085
 4486SOL    HW214358   6.537   5.583   5.220
 4487SOL     OW14359   2.703   2.978   6.274
 4487SOL    HW114360   2.662   2.886   6.272
 4487SOL    HW214361   2.699   3.018   6.182
 4488SOL     OW14362   0.408   3.724   5.793
 4488SOL    HW114363   0.439   3.639   5.751
 4488SOL    HW214364   0.487   3.774   5.827
 4489SOL     OW14365   5.386   5.633   4.889
 4489SOL    HW114366   5.344   5.585   4.811
 4489SOL    HW214367   5.314   5.671   4.947
 4490SOL     OW14368   5.637   2.077   2.029
 4490SOL    HW114369   5.705   2.085   2.102
 4490SOL    HW214370   5.570   2.007   2.054
 4491SOL     OW14371   7.020   3.433   3.604
 4491SOL    HW114372   6.970   3.481   3.676
 4491SOL    HW214373   0.069   3.490   3.573
 4492SOL     OW14374   5.667   4.575   2.556
 4492SOL    HW114375   5.598   4.502   2.563
 4492SOL    HW214376   5.726   4.557   2.478
 4493SOL     OW14377   5.209   5.539   4.679
 4493SOL    HW114378   5.111   5.545   4.700
 4493SOL    HW214379   5.222   5.494   4.591
 4494SOL     OW14380   0.388   1.125   6.675
 4494SOL    HW114381   0.371   1.038   6.629
 4494SOL    HW214382   0.468   1.169   6.634
 4495SOL     OW14383   4.131   0.172   3.763
 4495SOL    HW114384   4.197   0.164   3.838
 4495SOL    HW214385   4.045   0.128   3.789
 4496SOL     OW14386   5.403   6.525   1.252
 4496SOL    HW114387   5.418   6.491   1.345
 4496SOL    HW214388   5.366   6.618   1.255
 4497SOL     OW14389   4.311   2.390   6.513
 4497SOL    HW114390   4.397   2.345   6.540
 4497SOL    HW214391   4.235   2.348   6.561
 4498SOL     OW14392   0.102   3.934   0.052
 4498SOL    HW114393   0.052   3.968   7.000
 4498SOL    HW214394   0.194   3.906   0.025
 4499SOL     OW14395   6.224   3.398   3.927
 4499SOL    HW114396   6.206   3.440   3.838
 4499SOL    HW214397   6.213   3.466   3.999
 4500SOL     OW14398   3.343   3.343   4.750
 4500SOL    HW114399   3.325   3.290   4.833
 4500SOL    HW214400   3.440   3.338   4.728
 4501SOL     OW14401   6.683   3.716   3.142
 4501SOL    HW114402   6.620   3.651   3.098
 4501SOL    HW214403   6.753   3.743   3.075
 4502SOL     OW14404   0.467   2.696   7.027
 4502SOL    HW114405   0.562   2.681   0.029
 4502SOL    HW214406   0.461   2.784   6.980
 4503SOL     OW14407   3.555   6.876   1.694
 4503SOL    HW114408   3.482   6.943   1.685
 4503SOL    HW214409   3.518   6.790   1.730
 4504SOL     OW14410   0.431   0.808   4.572
 4504SOL    HW114411   0.367   0.885   4.577
 4504SOL    HW214412   0.389   0.733   4.521
 4505SOL     OW14413   6.177   4.943   2.164
 4505SOL    HW114414   6.154   5.040   2.173
 4505SOL    HW214415   6.158   4.913   2.071
 4506SOL     OW14416   4.806   2.893   3.356
 4506SOL    HW114417   4.737   2.827   3.324
 4506SOL    HW214418   4.808   2.971   3.295
 4507SOL     OW14419   6.286   4.483   3.793
 4507SOL    HW114420   6.253   4.450   3.705
 4507SOL    HW214421   6.382   4.456   3.804
 4508SOL     OW14422   1.212   5.166   6.860
 4508SOL    HW114423   1.310   5.148   6.851
 4508SOL    HW214424   1.191   5.258   6.826
 4509SOL     OW14425   4.946   2.128   3.123
 4509SOL    HW114426   4.972   2.158   3.031
 4509SOL    HW214427   4.847   2.114   3.126
 4510SOL     OW14428   4.268   2.214   3.960
 4510SOL    HW114429   4.301   2.307   3.945
 4510SOL    HW214430   4.173   2.207   3.929
 4511SOL     OW14431   5.937   3.808   6.305
 4511SOL    HW114432   5.884   3.887   6.275
 4511SOL    HW214433   5.895   3.768   6.387
 4512SOL     OW14434   2.610   0.928   6.027
 4512SOL    HW114435   2.563   0.848   5.991
 4512SOL    HW214436   2.649   0.981   5.952
 4513SOL     OW14437   0.418   4.912   6.156
 4513SOL    HW114438   0.336   4.859   6.133
 4513SOL    HW214439   0.416   4.938   6.252
 4514SOL     OW14440   3.114   2.154   6.091
 4514SOL    HW114441   3.076   2.119   6.006
 4514SOL    HW214442   3.185   2.223   6.070
 4515SOL     OW14443   5.953   1.907   5.367
 4515SOL    HW114444   5.876   1.949   5.415
 4515SOL    HW214445   5.988   1.831   5.420
 4516SOL     OW14446   2.392   0.032   0.085
 4516SOL    HW114447   2.444   6.983   0.045
 4516SOL    HW214448   2.339   0.076   0.013
 4517SOL     OW14449   4.919   6.430   6.711
 4517SOL    HW114450   4.997   6.484   6.678
 4517SOL    HW214451   4.834   6.475   6.684
 4518SOL     OW14452   6.852   0.061   2.388
 4518SOL    HW114453   6.912   0.138   2.407
 4518SOL    HW214454   6.811   0.070   2.297
 4519SOL     OW14455   5.805   0.108   1.017
 4519SOL    HW114456   5.815   0.191   1.071
 4519SOL    HW214457   5.768   0.131   0.927
 4520SOL     OW14458   3.986   6.514   6.070
 4520SOL    HW114459   4.067   6.460   6.047
 4520SOL    HW214460   3.935   6.467   6.142
 4521SOL     OW14461   5.835   2.211   5.462
 4521SOL    HW114462   5.756   2.192   5.520
 4521SOL    HW214463   5.913   2.235   5.519
 4522SOL     OW14464   5.624   5.391   3.595
 4522SOL    HW114465   5.539   5.439   3.575
 4522SOL    HW214466   5.604   5.301   3.635
 4523SOL     OW14467   0.977   4.354   0.198
 4523SOL    HW114468   1.007   4.358   0.103
 4523SOL    HW214469   1.012   4.270   0.240
 4524SOL     OW14470   6.511   3.179   2.326
 4524SOL    HW114471   6.569   3.259   2.340
 4524SOL    HW214472   6.423   3.208   2.290
 4525SOL     OW14473   4.733   2.442   5.525
 4525SOL    HW114474   4.717   2.492   5.610
 4525SOL    HW214475   4.745   2.506   5.450
 4526SOL     OW14476   6.761   0.253   6.077
 4526SOL    HW114477   6.706   0.220   6.154
 4526SOL    HW214478   6.849   0.207   6.077
 4527SOL     OW14479   6.841   0.918   2.752
 4527SOL    HW114480   6.928   0.968   2.757
 4527SOL    HW214481   6.841   0.859   2.671
 4528SOL     OW14482   4.653   0.422   6.919
 4528SOL    HW114483   4.740   0.389   6.883
 4528SOL    HW214484   4.666   0.510   6.963
 4529SOL     OW14485   1.870   0.611   5.000
 4529SOL    HW114486   1.779   0.650   5.012
 4529SOL    HW214487   1.879   0.576   4.907
 4530SOL     OW14488   2.300   5.477   3.937
 4530SOL    HW114489   2.313   5.438   3.846
 4530SOL    HW214490   2.390   5.500   3.977
 4531SOL     OW14491   0.704   3.231   5.458
 4531SOL    HW114492   0.787   3.219   5.403
 4531SOL    HW214493   0.729   3.261   5.550
 4532SOL     OW14494   6.485   1.669   2.232
 4532SOL    HW114495   6.511   1.678   2.328
 4532SOL    HW214496   6.537   1.593   2.191
 4533SOL     OW14497   1.757   0.985   2.632
 4533SOL    HW114498   1.680   0.964   2.692
 4533SOL    HW214499   1.728   0.981   2.536
 4534SOL     OW14500   5.720   4.488   5.337
 4534SOL    HW114501   5.660   4.565   5.315
 4534SOL    HW214502   5.693   4.449   5.425
 4535SOL     OW14503   3.268   0.598   2.041
 4535SOL    HW114504   3.190   0.650   2.076
 4535SOL    HW214505   3.328   0.572   2.117
 4536SOL     OW14506   4.075   1.587   4.754
 4536SOL    HW114507   4.159   1.606   4.805
 4536SOL    HW214508   4.079   1.634   4.665
 4537SOL     OW14509   4.139   3.592   1.095
 4537SOL    HW114510   4.102   3.661   1.156
 4537SOL    HW214511   4.073   3.517   1.085
 4538SOL     OW14512   2.345   0.596   2.521
 4538SOL    HW114513   2.260   0.648   2.516
 4538SOL    HW214514   2.387   0.592   2.430
 4539SOL     OW14515   3.332   6.343   4.863
 4539SOL    HW114516   3.428   6.337   4.837
 4539SOL    HW214517   3.305   6.439   4.870
 4540SOL     OW14518   2.522   2.417   6.787
 4540SOL    HW114519   2.552   2.327   6.755
 4540SOL    HW214520   2.575   2.488   6.741
 4541SOL     OW14521   5.553   1.932   6.200
 4541SOL    HW114522   5.464   1.964   6.168
 4541SOL    HW214523   5.559   1.833   6.188
 4542SOL     OW14524   0.689   2.396   1.400
 4542SOL    HW114525   0.710   2.308   1.443
 4542SOL    HW214526   0.666   2.463   1.472
 4543SOL     OW14527   5.075   2.404   1.051
 4543SOL    HW114528   5.108   2.311   1.034
 4543SOL    HW214529   4.976   2.407   1.042
 4544SOL     OW14530   3.498   5.827   6.698
 4544SOL    HW114531   3.470   5.766   6.772
 4544SOL    HW214532   3.500   5.921   6.732
 4545SOL     OW14533   6.114   2.964   4.311
 4545SOL    HW114534   6.209   2.959   4.343
 4545SOL    HW214535   6.100   3.049   4.262
 4546SOL     OW14536   2.364   0.343   4.270
 4546SOL    HW114537   2.427   0.346   4.193
 4546SOL    HW214538   2.323   0.433   4.283
 4547SOL     OW14539   6.438   1.900   0.479
 4547SOL    HW114540   6.490   1.967   0.426
 4547SOL    HW214541   6.475   1.808   0.462
 4548SOL     OW14542   2.016   2.223   3.160
 4548SOL    HW114543   1.962   2.249   3.080
 4548SOL    HW214544   2.048   2.305   3.207
 4549SOL     OW14545   5.377   3.983   2.532
 4549SOL    HW114546   5.379   4.042   2.451
 4549SOL    HW214547   5.470   3.974   2.568
 4550SOL     OW14548   1.125   4.932   3.163
 4550SOL    HW114549   1.216   4.911   3.198
 4550SOL    HW214550   1.058   4.921   3.237
 4551SOL     OW14551   0.679   3.293   4.475
 4551SOL    HW114552   0.695   3.315   4.379
 4551SOL    HW214553   0.731   3.355   4.533
 4552SOL     OW14554   5.440   1.921   1.208
 4552SOL    HW114555   5.394   2.004   1.177
 4552SOL    HW214556   5.418   1.906   1.304
 4553SOL     OW14557   4.790   4.197   0.347
 4553SOL    HW114558   4.783   4.099   0.327
 4553SOL    HW214559   4.736   4.219   0.428
 4554SOL     OW14560   6.701   0.058   2.638
 4554SOL    HW114561   6.608   0.022   2.642
 4554SOL    HW214562   6.716   0.103   2.550
 4555SOL     OW14563   1.865   1.904   5.602
 4555SOL    HW114564   1.954   1.860   5.618
 4555SOL    HW214565   1.852   1.920   5.504
 4556SOL     OW14566   5.411   4.018   4.933
 4556SOL    HW114567   5.371   3.938   4.977
 4556SOL    HW214568   5.457   4.075   5.002
 4557SOL     OW14569   4.509   5.551   4.476
 4557SOL    HW114570   4.521   5.602   4.561
 4557SOL    HW214571   4.597   5.512   4.447
 4558SOL     OW14572   0.431   4.396   4.834
 4558SOL    HW114573   0.474   4.486   4.831
 4558SOL    HW214574   0.497   4.326   4.809
 4559SOL     OW14575   0.169   3.473   2.565
 4559SOL    HW114576   0.122   3.403   2.618
 4559SOL    HW214577   0.102   3.536   2.527
 4560SOL     OW14578   5.809   3.688   1.091
 4560SOL    HW114579   5.781   3.665   1.185
 4560SOL    HW214580   5.897   3.645   1.071
 4561SOL     OW14581   3.250   2.160   3.356
 4561SOL    HW114582   3.181   2.109   3.303
 4561SOL    HW214583   3.243   2.257   3.334
 4562SOL     OW14584   1.850   6.810   0.088
 4562SOL    HW114585   1.760   6.817   0.044
 4562SOL    HW214586   1.842   6.756   0.172
 4563SOL     OW14587   0.060   2.759   1.482
 4563SOL    HW114588   7.018   2.831   1.482
 4563SOL    HW214589   0.146   2.795   1.448
 4564SOL     OW14590   0.204   6.478   2.017
 4564SOL    HW114591   0.294   6.510   2.046
 4564SOL    HW214592   0.152   6.449   2.097
 4565SOL     OW14593   1.546   0.617   4.306
 4565SOL    HW114594   1.531   0.522   4.333
 4565SOL    HW214595   1.500   0.635   4.219
 4566SOL     OW14596   0.332   3.134   0.918
 4566SOL    HW114597   0.423   3.108   0.950
 4566SOL    HW214598   0.284   3.052   0.886
 4567SOL     OW14599   6.669   1.442   6.819
 4567SOL    HW114600   6.640   1.518   6.761
 4567SOL    HW214601   6.640   1.356   6.779
 4568SOL     OW14602   2.032   3.847   5.598
 4568SOL    HW114603   2.000   3.819   5.508
 4568SOL    HW214604   2.101   3.919   5.589
 4569SOL     OW14605   2.628   0.600   3.262
 4569SOL    HW114606   2.690   0.582   3.339
 4569SOL    HW214607   2.682   0.611   3.178
 4570SOL     OW14608   0.077   6.419   2.242
 4570SOL    HW114609   7.008   6.431   2.219
 4570SOL    HW214610   0.097   6.464   2.328
 4571SOL     OW14611   4.451   3.661   6.394
 4571SOL    HW114612   4.438   3.698   6.486
 4571SOL    HW214613   4.544   3.683   6.363
 4572SOL     OW14614   1.890   0.730   6.431
 4572SOL    HW114615   1.856   0.812   6.478
 4572SOL    HW214616   1.983   0.747   6.398
 4573SOL     OW14617   6.718   0.112   0.786
 4573SOL    HW114618   6.702   0.101   0.884
 4573SOL    HW214619   6.630   0.125   0.739
 4574SOL     OW14620   5.845   4.255   0.627
 4574SOL    HW114621   5.862   4.346   0.590
 4574SOL    HW214622   5.914   4.233   0.695
 4575SOL     OW14623   5.922   0.335   5.828
 4575SOL    HW114624   5.964   0.423   5.805
 4575SOL    HW214625   5.825   0.349   5.846
 4576SOL     OW14626   3.470   5.922   5.704
 4576SOL    HW114627   3.407   5.859   5.659
 4576SOL    HW214628   3.467   5.909   5.803
 4577SOL     OW14629   0.977   2.240   4.135
 4577SOL    HW114630   1.015   2.309   4.197
 4577SOL    HW214631   0.884   2.266   4.108
 4578SOL     OW14632   0.731   2.371   5.309
 4578SOL    HW114633   0.643   2.326   5.326
 4578SOL    HW214634   0.752   2.366   5.211
 4579SOL     OW14635   4.305   0.359   2.952
 4579SOL    HW114636   4.399   0.324   2.947
 4579SOL    HW214637   4.294   0.413   3.036
 4580SOL     OW14638   5.526   3.892   0.747
 4580SOL    HW114639   5.549   3.898   0.650
 4580SOL    HW214640   5.447   3.951   0.766
 4581SOL     OW14641   1.766   6.210   2.251
 4581SOL    HW114642   1.811   6.129   2.290
 4581SOL    HW214643   1.784   6.289   2.310
 4582SOL     OW14644   4.491   0.703   4.555
 4582SOL    HW114645   4.553   0.757   4.498
 4582SOL    HW214646   4.525   0.609   4.562
 4583SOL     OW14647   2.977   1.917   6.913
 4583SOL    HW114648   2.979   1.904   7.012
 4583SOL    HW214649   2.885   1.945   6.885
 4584SOL     OW14650   1.605   5.006   5.365
 4584SOL    HW114651   1.565   5.060   5.439
 4584SOL    HW214652   1.594   4.909   5.386
 4585SOL     OW14653   1.400   5.541   3.032
 4585SOL    HW114654   1.322   5.485   3.003
 4585SOL    HW214655   1.368   5.629   3.065
 4586SOL     OW14656   3.986   4.625   1.059
 4586SOL    HW114657   3.961   4.706   1.007
 4586SOL    HW214658   3.945   4.544   1.016
 4587SOL     OW14659   3.616   4.099   3.352
 4587SOL    HW114660   3.701   4.079   3.400
 4587SOL    HW214661   3.542   4.108   3.420
 4588SOL     OW14662   2.641   3.458   5.483
 4588SOL    HW114663   2.582   3.534   5.456
 4588SOL    HW214664   2.586   3.389   5.530
 4589SOL     OW14665   5.962   0.889   1.837
 4589SOL    HW114666   5.960   0.861   1.932
 4589SOL    HW214667   5.887   0.846   1.787
 4590SOL     OW14668   4.503   5.641   1.548
 4590SOL    HW114669   4.520   5.643   1.647
 4590SOL    HW214670   4.577   5.590   1.504
 4591SOL     OW14671   1.759   0.614   4.670
 4591SOL    HW114672   1.714   0.673   4.603
 4591SOL    HW214673   1.778   0.525   4.629
 4592SOL     OW14674   3.076   1.376   3.177
 4592SOL    HW114675   3.011   1.336   3.111
 4592SOL    HW214676   3.071   1.326   3.263
 4593SOL     OW14677   5.130   6.201   2.207
 4593SOL    HW114678   5.077   6.117   2.197
 4593SOL    HW214679   5.227   6.180   2.208
 4594SOL     OW14680   2.717   1.162   3.135
 4594SOL    HW114681   2.731   1.068   3.102
 4594SOL    HW214682   2.724   1.163   3.235
 4595SOL     OW14683   4.887   3.212   5.805
 4595SOL    HW114684   4.842   3.190   5.892
 4595SOL    HW214685   4.879   3.310   5.788
 4596SOL     OW14686   6.628   1.072   2.677
 4596SOL    HW114687   6.694   1.016   2.727
 4596SOL    HW214688   6.664   1.093   2.586
 4597SOL     OW14689   3.467   5.678   6.922
 4597SOL    HW114690   3.485   5.581   6.937
 4597SOL    HW214691   3.496   5.730   7.002
 4598SOL     OW14692   1.185   5.640   1.208
 4598SOL    HW114693   1.180   5.608   1.113
 4598SOL    HW214694   1.147   5.569   1.269
 4599SOL     OW14695   1.580   4.938   0.484
 4599SOL    HW114696   1.511   4.988   0.431
 4599SOL    HW214697   1.554   4.937   0.580
 4600SOL     OW14698   0.551   6.080   5.059
 4600SOL    HW114699   0.623   6.037   5.113
 4600SOL    HW214700   0.499   6.143   5.118
 4601SOL     OW14701   1.376   1.535   5.186
 4601SOL    HW114702   1.431   1.616   5.166
 4601SOL    HW214703   1.280   1.560   5.192
 4602SOL     OW14704   3.396   6.453   7.013
 4602SOL    HW114705   3.491   6.435   0.011
 4602SOL    HW214706   3.391   6.539   6.961
 4603SOL     OW14707   3.911   5.888   1.283
 4603SOL    HW114708   3.831   5.842   1.322
 4603SOL    HW214709   3.985   5.887   1.350
 4604SOL     OW14710   4.385   0.466   0.133
 4604SOL    HW114711   4.300   0.498   0.092
 4604SOL    HW214712   4.397   0.369   0.113
 4605SOL     OW14713   1.270   6.010   2.197
 4605SOL    HW114714   1.196   5.955   2.235
 4605SOL    HW214715   1.245   6.107   2.204
 4606SOL     OW14716   0.319   6.702   2.320
 4606SOL    HW114717   0.270   6.772   2.269
 4606SOL    HW214718   0.254   6.649   2.375
 4607SOL     OW14719   2.228   3.122   3.112
 4607SOL    HW114720   2.208   3.092   3.206
 4607SOL    HW214721   2.240   3.042   3.054
 4608SOL     OW14722   0.389   5.426   3.814
 4608SOL    HW114723   0.387   5.481   3.730
 4608SOL    HW214724   0.358   5.333   3.794
 4609SOL     OW14725   5.107   5.074   6.975
 4609SOL    HW114726   5.180   5.006   6.983
 4609SOL    HW214727   5.019   5.027   6.964
 4610SOL     OW14728   5.234   1.486   0.435
 4610SOL    HW114729   5.192   1.521   0.352
 4610SOL    HW214730   5.295   1.410   0.412
 4611SOL     OW14731   0.828   6.720   6.288
 4611SOL    HW114732   0.746   6.773   6.266
 4611SOL    HW214733   0.888   6.719   6.208
 4612SOL     OW14734   1.913   6.368   0.763
 4612SOL    HW114735   1.984   6.304   0.735
 4612SOL    HW214736   1.937   6.460   0.732
 4613SOL     OW14737   1.185   5.552   2.187
 4613SOL    HW114738   1.116   5.479   2.181
 4613SOL    HW214739   1.267   5.525   2.136
 4614SOL     OW14740   5.779   3.500   3.458
 4614SOL    HW114741   5.847   3.487   3.386
 4614SOL    HW214742   5.786   3.425   3.524
 4615SOL     OW14743   1.369   1.385   0.274
 4615SOL    HW114744   1.306   1.357   0.346
 4615SOL    HW214745   1.462   1.357   0.298
 4616SOL     OW14746   6.898   1.195   4.534
 4616SOL    HW114747   6.892   1.135   4.613
 4616SOL    HW214748   6.829   1.267   4.541
 4617SOL     OW14749   0.990   1.887   2.729
 4617SOL    HW114750   1.012   1.825   2.804
 4617SOL    HW214751   1.006   1.842   2.642
 4618SOL     OW14752   2.414   3.026   5.455
 4618SOL    HW114753   2.473   2.964   5.507
 4618SOL    HW214754   2.436   3.020   5.358
 4619SOL     OW14755   2.957   5.983   3.723
 4619SOL    HW114756   2.993   5.901   3.769
 4619SOL    HW214757   2.905   5.955   3.642
 4620SOL     OW14758   1.115   5.302   0.654
 4620SOL    HW114759   1.191   5.343   0.706
 4620SOL    HW214760   1.101   5.354   0.570
 4621SOL     OW14761   4.761   0.462   2.381
 4621SOL    HW114762   4.737   0.399   2.455
 4621SOL    HW214763   4.733   0.555   2.407
 4622SOL     OW14764   4.019   5.282   0.835
 4622SOL    HW114765   3.949   5.215   0.861
 4622SOL    HW214766   4.033   5.278   0.736
 4623SOL     OW14767   5.262   6.077   1.907
 4623SOL    HW114768   5.320   6.000   1.880
 4623SOL    HW214769   5.166   6.053   1.893
 4624SOL     OW14770   3.239   6.827   2.760
 4624SOL    HW114771   3.321   6.877   2.788
 4624SOL    HW214772   3.159   6.863   2.807
 4625SOL     OW14773   1.864   4.986   1.580
 4625SOL    HW114774   1.850   4.898   1.625
 4625SOL    HW214775   1.803   4.993   1.501
 4626SOL     OW14776   4.667   3.902   1.654
 4626SOL    HW114777   4.622   3.991   1.649
 4626SOL    HW214778   4.599   3.832   1.673
 4627SOL     OW14779   1.967   5.319   4.928
 4627SOL    HW114780   1.930   5.227   4.910
 4627SOL    HW214781   1.898   5.387   4.905
 4628SOL     OW14782   4.683   4.353   4.771
 4628SOL    HW114783   4.753   4.403   4.822
 4628SOL    HW214784   4.608   4.415   4.748
 4629SOL     OW14785   2.710   5.566   5.535
 4629SOL    HW114786   2.729   5.486   5.477
 4629SOL    HW214787   2.710   5.648   5.478
 4630SOL     OW14788   1.953   6.016   2.345
 4630SOL    HW114789   2.040   6.060   2.321
 4630SOL    HW214790   1.959   5.978   2.437
 4631SOL     OW14791   0.965   5.854   3.438
 4631SOL    HW114792   1.001   5.947   3.449
 4631SOL    HW214793   0.982   5.822   3.346
 4632SOL     OW14794   2.291   4.241   2.780
 4632SOL    HW114795   2.376   4.288   2.753
 4632SOL    HW214796   2.279   4.248   2.879
 4633SOL     OW14797   5.927   0.616   4.430
 4633SOL    HW114798   5.944   0.566   4.514
 4633SOL    HW214799   6.013   0.654   4.395
 4634SOL     OW14800   2.929   3.830   4.892
 4634SOL    HW114801   2.855   3.868   4.836
 4634SOL    HW214802   2.904   3.834   4.989
 4635SOL     OW14803   4.520   4.154   1.617
 4635SOL    HW114804   4.509   4.230   1.553
 4635SOL    HW214805   4.467   4.172   1.700
 4636SOL     OW14806   2.284   4.343   0.427
 4636SOL    HW114807   2.201   4.367   0.479
 4636SOL    HW214808   2.311   4.421   0.370
 4637SOL     OW14809   0.859   6.819   1.061
 4637SOL    HW114810   0.911   6.748   1.014
 4637SOL    HW214811   0.814   6.878   0.994
 4638SOL     OW14812   4.128   5.094   0.068
 4638SOL    HW114813   4.067   5.143   0.006
 4638SOL    HW214814   4.073   5.051   0.141
 4639SOL     OW14815   3.622   3.057   6.373
 4639SOL    HW114816   3.557   3.110   6.426
 4639SOL    HW214817   3.715   3.076   6.405
 4640SOL     OW14818   5.119   4.188   4.538
 4640SOL    HW114819   5.156   4.197   4.630
 4640SOL    HW214820   5.179   4.129   4.483
 4641SOL     OW14821   2.521   0.610   4.816
 4641SOL    HW114822   2.616   0.595   4.846
 4641SOL    HW214823   2.506   0.563   4.729
 4642SOL     OW14824   0.978   6.832   3.005
 4642SOL    HW114825   1.055   6.865   2.950
 4642SOL    HW214826   0.986   6.869   3.098
 4643SOL     OW14827   6.641   2.102   0.413
 4643SOL    HW114828   6.672   2.070   0.324
 4643SOL    HW214829   6.695   2.059   0.485
 4644SOL     OW14830   0.829   6.969   5.404
 4644SOL    HW114831   0.777   6.885   5.393
 4644SOL    HW214832   0.924   6.947   5.425
 4645SOL     OW14833   1.302   0.689   4.493
 4645SOL    HW114834   1.249   0.603   4.497
 4645SOL    HW214835   1.392   0.671   4.454
 4646SOL     OW14836   2.576   5.657   3.378
 4646SOL    HW114837   2.554   5.751   3.352
 4646SOL    HW214838   2.583   5.601   3.296
 4647SOL     OW14839   1.601   0.354   2.748
 4647SOL    HW114840   1.659   0.335   2.669
 4647SOL    HW214841   1.655   0.401   2.818
 4648SOL     OW14842   3.646   0.659   2.824
 4648SOL    HW114843   3.676   0.644   2.918
 4648SOL    HW214844   3.554   0.622   2.811
 4649SOL     OW14845   5.755   0.817   0.490
 4649SOL    HW114846   5.784   0.901   0.534
 4649SOL    HW214847   5.797   0.810   0.399
 4650SOL     OW14848   5.004   5.656   1.961
 4650SOL    HW114849   5.101   5.659   1.987
 4650SOL    HW214850   4.952   5.611   2.034
 4651SOL     OW14851   6.441   3.265   6.303
 4651SOL    HW114852   6.373   3.315   6.249
 4651SOL    HW214853   6.405   3.175   6.326
 4652SOL     OW14854   6.446   6.335   4.620
 4652SOL    HW114855   6.492   6.392   4.551
 4652SOL    HW214856   6.363   6.381   4.651
 4653SOL     OW14857   5.621   6.041   1.134
 4653SOL    HW114858   5.637   6.082   1.224
 4653SOL    HW214859   5.597   5.944   1.145
 4654SOL     OW14860   0.746   5.862   6.174
 4654SOL    HW114861   0.707   5.918   6.248
 4654SOL    HW214862   0.841   5.889   6.158
 4655SOL     OW14863   6.047   3.578   0.935
 4655SOL    HW114864   6.014   3.668   0.905
 4655SOL    HW214865   5.999   3.507   0.884
 4656SOL     OW14866   1.472   0.988   1.636
 4656SOL    HW114867   1.539   1.035   1.693
 4656SOL    HW214868   1.518   0.935   1.566
 4657SOL     OW14869   4.453   6.042   1.683
 4657SOL    HW114870   4.427   6.129   1.725
 4657SOL    HW214871   4.446   6.049   1.583
 4658SOL     OW14872   3.060   0.279   4.670
 4658SOL    HW114873   3.072   0.276   4.570
 4658SOL    HW214874   3.103   0.199   4.711
 4659SOL     OW14875   2.980   4.759   6.283
 4659SOL    HW114876   2.927   4.679   6.311
 4659SOL    HW214877   3.077   4.737   6.282
 4660SOL     OW14878   1.094   6.151   4.513
 4660SOL    HW114879   1.145   6.066   4.498
 4660SOL    HW214880   1.151   6.214   4.566
 4661SOL     OW14881   3.162   4.741   6.610
 4661SOL    HW114882   3.107   4.818   6.642
 4661SOL    HW214883   3.119   4.655   6.638
 4662SOL     OW14884   2.695   0.053   5.639
 4662SOL    HW114885   2.672   0.092   5.550
 4662SOL    HW214886   2.765   0.110   5.683
 4663SOL     OW14887   0.509   0.955   1.724
 4663SOL    HW114888   0.572   1.029   1.701
 4663SOL    HW214889   0.447   0.939   1.648
 4664SOL     OW14890   1.419   0.760   0.236
 4664SOL    HW114891   1.453   0.762   0.330
 4664SOL    HW214892   1.377   0.849   0.214
 4665SOL     OW14893   3.413   7.001   6.190
 4665SOL    HW114894   3.501   6.971   6.154
 4665SOL    HW214895   3.345   6.999   6.117
 4666SOL     OW14896   2.335   2.875   6.989
 4666SOL    HW114897   2.245   2.916   6.999
 4666SOL    HW214898   2.325   2.778   6.963
 4667SOL     OW14899   6.598   3.712   1.995
 4667SOL    HW114900   6.692   3.681   2.003
 4667SOL    HW214901   6.556   3.717   2.085
 4668SOL     OW14902   5.182   1.383   3.782
 4668SOL    HW114903   5.188   1.336   3.870
 4668SOL    HW214904   5.169   1.481   3.797
 4669SOL     OW14905   4.614   6.086   0.556
 4669SOL    HW114906   4.688   6.118   0.615
 4669SOL    HW214907   4.623   6.129   0.466
 4670SOL     OW14908   1.354   2.607   6.288
 4670SOL    HW114909   1.285   2.667   6.327
 4670SOL    HW214910   1.358   2.522   6.341
 4671SOL     OW14911   1.054   3.178   6.441
 4671SOL    HW114912   1.035   3.273   6.419
 4671SOL    HW214913   1.113   3.174   6.522
 4672SOL     OW14914   2.773   4.864   6.118
 4672SOL    HW114915   2.845   4.839   6.183
 4672SOL    HW214916   2.685   4.830   6.151
 4673SOL     OW14917   5.228   0.114   1.664
 4673SOL    HW114918   5.146   0.169   1.655
 4673SOL    HW214919   5.307   0.165   1.631
 4674SOL     OW14920   5.014   1.251   0.294
 4674SOL    HW114921   4.988   1.155   0.283
 4674SOL    HW214922   4.944   1.310   0.253
 4675SOL     OW14923   2.774   1.168   0.330
 4675SOL    HW114924   2.863   1.140   0.364
 4675SOL    HW214925   2.735   1.238   0.391
 4676SOL     OW14926   6.836   6.610   4.431
 4676SOL    HW114927   6.736   6.607   4.427
 4676SOL    HW214928   6.865   6.701   4.462
 4677SOL     OW14929   2.676   0.912   0.182
 4677SOL    HW114930   2.611   0.958   0.121
 4677SOL    HW214931   2.705   0.976   0.253
 4678SOL     OW14932   2.293   4.602   2.685
 4678SOL    HW114933   2.223   4.539   2.650
 4678SOL    HW214934   2.379   4.552   2.699
 4679SOL     OW14935   3.665   1.413   0.038
 4679SOL    HW114936   3.624   1.339   7.012
 4679SOL    HW214937   3.594   1.454   0.095
 4680SOL     OW14938   2.014   0.778   2.051
 4680SOL    HW114939   1.929   0.789   2.000
 4680SOL    HW214940   2.074   0.856   2.032
 4681SOL     OW14941   6.108   5.507   5.939
 4681SOL    HW114942   6.009   5.503   5.930
 4681SOL    HW214943   6.138   5.603   5.940
 4682SOL     OW14944   4.037   4.161   6.366
 4682SOL    HW114945   4.134   4.158   6.342
 4682SOL    HW214946   4.026   4.212   6.451
 4683SOL     OW14947   4.667   4.392   2.599
 4683SOL    HW114948   4.587   4.437   2.637
 4683SOL    HW214949   4.666   4.402   2.499
 4684SOL     OW14950   0.067   1.654   4.516
 4684SOL    HW114951   0.104   1.670   4.608
 4684SOL    HW214952   7.009   1.705   4.506
 4685SOL     OW14953   0.264   6.323   5.035
 4685SOL    HW114954   0.326   6.272   5.094
 4685SOL    HW214955   0.315   6.392   4.985
 4686SOL     OW14956   5.544   5.551   0.549
 4686SOL    HW114957   5.604   5.578   0.474
 4686SOL    HW214958   5.520   5.454   0.539
 4687SOL     OW14959   6.681   4.926   5.502
 4687SOL    HW114960   6.640   4.835   5.497
 4687SOL    HW214961   6.624   4.985   5.559
 4688SOL     OW14962   6.324   3.651   5.753
 4688SOL    HW114963   6.370   3.730   5.795
 4688SOL    HW214964   6.390   3.576   5.743
 4689SOL     OW14965   5.992   0.745   0.323
 4689SOL    HW114966   6.050   0.821   0.293
 4689SOL    HW214967   5.954   0.698   0.243
 4690SOL     OW14968   1.343   0.899   6.929
 4690SOL    HW114969   1.432   0.944   6.939
 4690SOL    HW214970   1.276   0.966   6.897
 4691SOL     OW14971   3.016   4.956   2.053
 4691SOL    HW114972   2.971   4.910   2.130
 4691SOL    HW214973   3.022   5.054   2.071
 4692SOL     OW14974   7.019   5.524   2.446
 4692SOL    HW114975   0.026   5.612   2.477
 4692SOL    HW214976   7.021   5.458   2.521
 4693SOL     OW14977   0.841   0.940   3.351
 4693SOL    HW114978   0.844   0.848   3.391
 4693SOL    HW214979   0.767   0.992   3.394
 4694SOL     OW14980   3.046   0.844   0.217
 4694SOL    HW114981   3.073   0.768   0.158
 4694SOL    HW214982   2.972   0.814   0.278
 4695SOL     OW14983   2.379   3.115   1.461
 4695SOL    HW114984   2.420   3.153   1.544
 4695SOL    HW214985   2.287   3.154   1.448
 4696SOL     OW14986   0.243   4.388   5.862
 4696SOL    HW114987   0.329   4.395   5.812
 4696SOL    HW214988   0.206   4.480   5.878
 4697SOL     OW14989   1.948   3.022   0.491
 4697SOL    HW114990   2.032   3.075   0.504
 4697SOL    HW214991   1.875   3.082   0.460
 4698SOL     OW14992   3.703   6.032   2.671
 4698SOL    HW114993   3.710   6.105   2.739
 4698SOL    HW214994   3.610   5.994   2.672
 4699SOL     OW14995   0.970   6.086   2.166
 4699SOL    HW114996   0.937   6.130   2.082
 4699SOL    HW214997   0.981   5.988   2.150
 4700SOL     OW14998   6.406   1.538   2.658
 4700SOL    HW114999   6.482   1.473   2.650
 4700SOL    HW215000   6.341   1.504   2.726
 4701SOL     OW15001   2.116   2.292   1.055
 4701SOL    HW115002   2.122   2.194   1.074
 4701SOL    HW215003   2.025   2.326   1.079
 4702SOL     OW15004   5.899   4.712   6.806
 4702SOL    HW115005   5.951   4.668   6.732
 4702SOL    HW215006   5.819   4.757   6.768
 4703SOL     OW15007   1.306   2.741   1.838
 4703SOL    HW115008   1.255   2.664   1.878
 4703SOL    HW215009   1.257   2.826   1.857
 4704SOL     OW15010   1.174   6.754   6.958
 4704SOL    HW115011   1.176   6.854   6.953
 4704SOL    HW215012   1.193   6.726   0.025
 4705SOL     OW15013   3.620   3.132   2.386
 4705SOL    HW115014   3.580   3.097   2.301
 4705SOL    HW215015   3.641   3.056   2.447
 4706SOL     OW15016   3.644   6.482   6.431
 4706SOL    HW115017   3.705   6.531   6.367
 4706SOL    HW215018   3.553   6.522   6.427
 4707SOL     OW15019   2.495   5.740   0.719
 4707SOL    HW115020   2.469   5.801   0.793
 4707SOL    HW215021   2.502   5.647   0.753
 4708SOL     OW15022   1.134   2.758   6.447
 4708SOL    HW115023   1.116   2.791   6.540
 4708SOL    HW215024   1.053   2.709   6.413
 4709SOL     OW15025   4.003   5.899   5.504
 4709SOL    HW115026   3.958   5.829   5.449
 4709SOL    HW215027   4.102   5.896   5.488
 4710SOL     OW15028   3.877   1.052   5.790
 4710SOL    HW115029   3.783   1.054   5.754
 4710SOL    HW215030   3.900   0.960   5.820
 4711SOL     OW15031   5.550   0.560   2.017
 4711SOL    HW115032   5.644   0.541   1.991
 4711SOL    HW215033   5.494   0.568   1.935
 4712SOL     OW15034   3.271   4.259   0.267
 4712SOL    HW115035   3.243   4.229   0.176
 4712SOL    HW215036   3.202   4.321   0.305
 4713SOL     OW15037   3.098   3.829   1.224
 4713SOL    HW115038   3.165   3.853   1.294
 4713SOL    HW215039   3.083   3.730   1.226
 4714SOL     OW15040   1.676   2.355   6.795
 4714SOL    HW115041   1.681   2.430   6.861
 4714SOL    HW215042   1.768   2.333   6.763
 4715SOL     OW15043   6.956   2.845   1.738
 4715SOL    HW115044   7.012   2.923   1.767
 4715SOL    HW215045   6.994   2.761   1.775
 4716SOL     OW15046   4.405   6.436   6.279
 4716SOL    HW115047   4.420   6.528   6.315
 4716SOL    HW215048   4.479   6.412   6.215
 4717SOL     OW15049   0.194   6.692   3.546
 4717SOL    HW115050   0.138   6.678   3.464
 4717SOL    HW215051   0.228   6.786   3.547
 4718SOL     OW15052   5.257   2.106   0.255
 4718SOL    HW115053   5.170   2.134   0.295
 4718SOL    HW215054   5.313   2.187   0.235
 4719SOL     OW15055   5.203   3.091   2.371
 4719SOL    HW115056   5.221   2.996   2.396
 4719SOL    HW215057   5.221   3.103   2.273
 4720SOL     OW15058   1.808   5.915   5.455
 4720SOL    HW115059   1.902   5.896   5.429
 4720SOL    HW215060   1.796   5.898   5.553
 4721SOL     OW15061   6.570   2.875   1.288
 4721SOL    HW115062   6.488   2.884   1.232
 4721SOL    HW215063   6.651   2.890   1.231
 4722SOL     OW15064   1.263   5.928   6.572
 4722SOL    HW115065   1.332   5.917   6.501
 4722SOL    HW215066   1.230   5.837   6.601
 4723SOL     OW15067   1.993   4.493   6.077
 4723SOL    HW115068   2.003   4.577   6.131
 4723SOL    HW215069   1.914   4.441   6.111
 4724SOL     OW15070   5.176   6.104   2.944
 4724SOL    HW115071   5.198   6.181   3.005
 4724SOL    HW215072   5.153   6.024   2.998
 4725SOL     OW15073   6.572   6.741   2.515
 4725SOL    HW115074   6.517   6.740   2.431
 4725SOL    HW215075   6.532   6.805   2.580
 4726SOL     OW15076   2.054   3.084   6.344
 4726SOL    HW115077   2.129   3.072   6.409
 4726SOL    HW215078   1.988   3.150   6.380
 4727SOL     OW15079   0.613   6.316   6.811
 4727SOL    HW115080   0.681   6.271   6.868
 4727SOL    HW215081   0.607   6.412   6.837
 4728SOL     OW15082   5.404   0.572   0.274
 4728SOL    HW115083   5.347   0.655   0.279
 4728SOL    HW215084   5.467   0.572   0.352
 4729SOL     OW15085   2.629   1.661   1.946
 4729SOL    HW115086   2.602   1.660   1.850
 4729SOL    HW215087   2.548   1.655   2.004
 4730SOL     OW15088   2.908   5.897   4.888
 4730SOL    HW115089   2.930   5.853   4.801
 4730SOL    HW215090   2.991   5.903   4.944
 4731SOL     OW15091   4.398   0.516   6.045
 4731SOL    HW115092   4.332   0.542   5.975
 4731SOL    HW215093   4.482   0.569   6.032
 4732SOL     OW15094   0.275   3.862   5.549
 4732SOL    HW115095   0.192   3.894   5.595
 4732SOL    HW215096   0.355   3.899   5.595
 4733SOL     OW15097   1.508   4.196   3.693
 4733SOL    HW115098   1.602   4.163   3.690
 4733SOL    HW215099   1.502   4.274   3.755
 4734SOL     OW15100   5.197   2.625   6.679
 4734SOL    HW115101   5.251   2.708   6.664
 4734SOL    HW215102   5.195   2.571   6.595
 4735SOL     OW15103   0.959   6.392   4.076
 4735SOL    HW115104   0.873   6.381   4.126
 4735SOL    HW215105   0.984   6.305   4.034
 4736SOL     OW15106   0.065   1.751   6.509
 4736SOL    HW115107   0.127   1.682   6.547
 4736SOL    HW215108   0.058   1.828   6.572
 4737SOL     OW15109   1.404   4.981   2.376
 4737SOL    HW115110   1.431   4.884   2.375
 4737SOL    HW215111   1.484   5.037   2.397
 4738SOL     OW15112   6.782   5.999   2.621
 4738SOL    HW115113   6.827   6.071   2.568
 4738SOL    HW215114   6.815   6.001   2.716
 4739SOL     OW15115   5.060   6.610   3.375
 4739SOL    HW115116   5.026   6.520   3.348
 4739SOL    HW215117   5.118   6.601   3.456
 4740SOL     OW15118   0.821   1.466   0.670
 4740SOL    HW115119   0.736   1.433   0.630
 4740SOL    HW215120   0.884   1.494   0.598
 4741SOL     OW15121   3.644   2.857   1.161
 4741SOL    HW115122   3.556   2.820   1.190
 4741SOL    HW215123   3.713   2.784   1.165
 4742SOL     OW15124   2.528   6.532   5.196
 4742SOL    HW115125   2.433   6.533   5.166
 4742SOL    HW215126   2.533   6.567   5.290
 4743SOL     OW15127   2.228   4.511   3.209
 4743SOL    HW115128   2.162   4.459   3.263
 4743SOL    HW215129   2.261   4.588   3.264
 4744SOL     OW15130   2.273   4.807   0.776
 4744SOL    HW115131   2.226   4.730   0.819
 4744SOL    HW215132   2.290   4.786   0.680
 4745SOL     OW15133   3.096   4.320   6.510
 4745SOL    HW115134   3.126   4.243   6.455
 4745SOL    HW215135   3.167   4.342   6.578
 4746SOL     OW15136   4.559   6.229   3.569
 4746SOL    HW115137   4.468   6.190   3.557
 4746SOL    HW215138   4.601   6.192   3.651
 4747SOL     OW15139   1.163   3.398   0.061
 4747SOL    HW115140   1.140   3.429   6.997
 4747SOL    HW215141   1.203   3.474   0.113
 4748SOL     OW15142   1.771   5.962   1.085
 4748SOL    HW115143   1.849   5.908   1.055
 4748SOL    HW215144   1.765   6.046   1.030
 4749SOL     OW15145   2.203   6.286   6.313
 4749SOL    HW115146   2.271   6.342   6.361
 4749SOL    HW215147   2.245   6.201   6.281
 4750SOL     OW15148   6.980   3.467   5.067
 4750SOL    HW115149   6.959   3.560   5.036
 4750SOL    HW215150   6.900   3.409   5.054
 4751SOL     OW15151   4.377   2.377   2.608
 4751SOL    HW115152   4.359   2.279   2.611
 4751SOL    HW215153   4.303   2.423   2.559
 4752SOL     OW15154   4.466   1.262   6.968
 4752SOL    HW115155   4.380   1.214   6.951
 4752SOL    HW215156   4.501   1.298   6.882
 4753SOL     OW15157   0.880   0.611   4.067
 4753SOL    HW115158   0.974   0.579   4.056
 4753SOL    HW215159   0.827   0.585   3.986
 4754SOL     OW15160   5.656   3.914   4.554
 4754SOL    HW115161   5.570   3.959   4.578
 4754SOL    HW215162   5.682   3.939   4.461
 4755SOL     OW15163   2.510   1.354   0.458
 4755SOL    HW115164   2.577   1.428   0.468
 4755SOL    HW215165   2.429   1.376   0.514
 4756SOL     OW15166   5.660   3.616   5.895
 4756SOL    HW115167   5.687   3.520   5.888
 4756SOL    HW215168   5.732   3.667   5.942
 4757SOL     OW15169   2.199   2.405   1.329
 4757SOL    HW115170   2.155   2.419   1.240
 4757SOL    HW215171   2.177   2.313   1.362
 4758SOL     OW15172   1.365   6.390   3.014
 4758SOL    HW115173   1.354   6.386   3.113
 4758SOL    HW215174   1.401   6.303   2.981
 4759SOL     OW15175   0.643   4.789   6.337
 4759SOL    HW115176   0.597   4.815   6.252
 4759SOL    HW215177   0.589   4.822   6.415
 4760SOL     OW15178   2.380   2.158   0.412
 4760SOL    HW115179   2.339   2.093   0.346
 4760SOL    HW215180   2.475   2.176   0.387
 4761SOL     OW15181   1.301   0.013   0.459
 4761SOL    HW115182   1.328   0.062   0.542
 4761SOL    HW215183   1.203   7.021   0.463
 4762SOL     OW15184   1.255   5.458   2.457
 4762SOL    HW115185   1.233   5.517   2.535
 4762SOL    HW215186   1.205   5.491   2.376
 4763SOL     OW15187   5.187   0.416   2.568
 4763SOL    HW115188   5.262   0.411   2.501
 4763SOL    HW215189   5.108   0.365   2.533
 4764SOL     OW15190   4.370   3.692   5.411
 4764SOL    HW115191   4.311   3.676   5.333
 4764SOL    HW215192   4.317   3.688   5.495
 4765SOL     OW15193   3.316   1.005   5.241
 4765SOL    HW115194   3.364   0.925   5.205
 4765SOL    HW215195   3.312   1.076   5.171
 4766SOL     OW15196   5.970   5.835   4.147
 4766SOL    HW115197   6.026   5.753   4.155
 4766SOL    HW215198   5.955   5.856   4.050
 4767SOL     OW15199   3.213   4.987   5.132
 4767SOL    HW115200   3.133   4.965   5.188
 4767SOL    HW215201   3.193   5.068   5.076
 4768SOL     OW15202   3.675   2.670   6.405
 4768SOL    HW115203   3.576   2.675   6.409
 4768SOL    HW215204   3.703   2.606   6.333
 4769SOL     OW15205   4.779   5.626   0.728
 4769SOL    HW115206   4.690   5.671   0.722
 4769SOL    HW215207   4.800   5.606   0.823
 4770SOL     OW15208   0.435   2.242   4.370
 4770SOL    HW115209   0.483   2.180   4.308
 4770SOL    HW215210   0.498   2.312   4.404
 4771SOL     OW15211   3.056   6.552   6.344
 4771SOL    HW115212   3.074   6.493   6.423
 4771SOL    HW215213   2.966   6.531   6.306
 4772SOL     OW15214   3.701   4.683   0.352
 4772SOL    HW115215   3.678   4.594   0.391
 4772SOL    HW215216   3.800   4.695   0.354
 4773SOL     OW15217   0.585   5.293   5.733
 4773SOL    HW115218   0.626   5.384   5.725
 4773SOL    HW215219   0.652   5.224   5.705
 4774SOL     OW15220   1.537   3.774   1.224
 4774SOL    HW115221   1.502   3.734   1.139
 4774SOL    HW215222   1.462   3.817   1.274
 4775SOL     OW15223   4.964   5.886   3.416
 4775SOL    HW115224   4.914   5.827   3.480
 4775SOL    HW215225   5.059   5.894   3.447
 4776SOL     OW15226   0.732   0.905   4.955
 4776SOL    HW115227   0.812   0.949   4.996
 4776SOL    HW215228   0.676   0.864   5.027
 4777SOL     OW15229   1.795   5.030   0.365
 4777SOL    HW115230   1.706   5.013   0.408
 4777SOL    HW215231   1.798   5.124   0.331
 4778SOL     OW15232   6.789   2.508   4.592
 4778SOL    HW115233   6.698   2.550   4.592
 4778SOL    HW215234   6.842   2.546   4.516
 4779SOL     OW15235   5.307   0.260   3.748
 4779SOL    HW115236   5.235   0.329   3.739
 4779SOL    HW215237   5.286   0.183   3.688
 4780SOL     OW15238   6.061   2.601   6.584
 4780SOL    HW115239   6.044   2.514   6.630
 4780SOL    HW215240   6.114   2.661   6.644
 4781SOL     OW15241   2.914   5.250   1.704
 4781SOL    HW115242   2.872   5.215   1.788
 4781SOL    HW215243   2.888   5.192   1.627
 4782SOL     OW15244   6.243   5.201   6.659
 4782SOL    HW115245   6.331   5.244   6.637
 4782SOL    HW215246   6.205   5.244   6.740
 4783SOL     OW15247   5.398   3.565   6.525
 4783SOL    HW115248   5.314   3.540   6.573
 4783SOL    HW215249   5.393   3.533   6.430
 4784SOL     OW15250   6.348   2.052   6.269
 4784SOL    HW115251   6.281   2.126   6.269
 4784SOL    HW215252   6.359   2.016   6.361
 4785SOL     OW15253   0.017   6.228   2.849
 4785SOL    HW115254   0.110   6.260   2.862
 4785SOL    HW215255   6.982   6.284   2.903
 4786SOL     OW15256   2.522   6.819   6.992
 4786SOL    HW115257   2.479   6.743   6.944
 4786SOL    HW215258   2.600   6.853   6.939
 4787SOL     OW15259   3.455   1.826   3.030
 4787SOL    HW115260   3.425   1.830   2.935
 4787SOL    HW215261   3.484   1.917   3.059
 4788SOL     OW15262   0.113   6.595   0.764
 4788SOL    HW115263   0.175   6.519   0.783
 4788SOL    HW215264   0.145   6.678   0.810
 4789SOL     OW15265   4.953   1.378   1.673
 4789SOL    HW115266   5.017   1.453   1.691
 4789SOL    HW215267   5.005   1.295   1.653
 4790SOL     OW15268   5.993   1.703   5.563
 4790SOL    HW115269   5.923   1.634   5.549
 4790SOL    HW215270   6.075   1.661   5.602
 4791SOL     OW15271   0.197   2.789   1.965
 4791SOL    HW115272   0.275   2.815   2.021
 4791SOL    HW215273   0.159   2.871   1.920
 4792SOL     OW15274   2.374   4.355   4.689
 4792SOL    HW115275   2.345   4.374   4.783
 4792SOL    HW215276   2.377   4.256   4.674
 4793SOL     OW15277   1.437   3.553   5.370
 4793SOL    HW115278   1.434   3.531   5.273
 4793SOL    HW215279   1.476   3.476   5.421
 4794SOL     OW15280   4.404   0.272   4.347
 4794SOL    HW115281   4.350   0.349   4.312
 4794SOL    HW215282   4.460   0.234   4.273
 4795SOL     OW15283   6.716   1.263   4.197
 4795SOL    HW115284   6.790   1.314   4.153
 4795SOL    HW215285   6.723   1.166   4.171
 4796SOL     OW15286   4.141   0.651   6.074
 4796SOL    HW115287   4.079   0.572   6.082
 4796SOL    HW215288   4.180   0.672   6.163
 4797SOL     OW15289   0.457   6.569   4.252
 4797SOL    HW115290   0.491   6.650   4.298
 4797SOL    HW215291   0.529   6.530   4.194
 4798SOL     OW15292   6.948   4.984   5.873
 4798SOL    HW115293   6.883   4.917   5.838
 4798SOL    HW215294   6.973   5.048   5.801
 4799SOL     OW15295   4.490   1.275   0.762
 4799SOL    HW115296   4.573   1.324   0.734
 4799SOL    HW215297   4.480   1.193   0.706
 4800SOL     OW15298   2.034   3.548   6.592
 4800SOL    HW115299   1.974   3.624   6.569
 4800SOL    HW215300   2.047   3.489   6.512
 4801SOL     OW15301   3.091   2.468   0.068
 4801SOL    HW115302   3.173   2.422   0.102
 4801SOL    HW215303   3.082   2.557   0.112
 4802SOL     OW15304   0.420   6.744   1.776
 4802SOL    HW115305   0.440   6.657   1.822
 4802SOL    HW215306   0.334   6.735   1.726
 4803SOL     OW15307   0.367   3.949   0.741
 4803SOL    HW115308   0.394   3.907   0.654
 4803SOL    HW215309   0.293   3.895   0.782
 4804SOL     OW15310   6.687   6.622   1.801
 4804SOL    HW115311   6.778   6.594   1.770
 4804SOL    HW215312   6.684   6.722   1.807
 4805SOL     OW15313   6.242   1.473   2.421
 4805SOL    HW115314   6.169   1.541   2.414
 4805SOL    HW215315   6.313   1.506   2.483
 4806SOL     OW15316   0.916   4.073   3.051
 4806SOL    HW115317   0.875   4.000   2.996
 4806SOL    HW215318   0.942   4.036   3.141
 4807SOL     OW15319   0.664   4.651   5.996
 4807SOL    HW115320   0.640   4.563   6.034
 4807SOL    HW215321   0.658   4.648   5.896
 4808SOL     OW15322   4.433   5.505   0.795
 4808SOL    HW115323   4.482   5.524   0.709
 4808SOL    HW215324   4.494   5.521   0.872
 4809SOL     OW15325   3.717   4.602   1.212
 4809SOL    HW115326   3.730   4.503   1.210
 4809SOL    HW215327   3.804   4.647   1.234
 4810SOL     OW15328   1.533   4.127   3.436
 4810SOL    HW115329   1.465   4.112   3.508
 4810SOL    HW215330   1.621   4.151   3.477
 4811SOL     OW15331   4.066   3.416   2.725
 4811SOL    HW115332   4.085   3.377   2.635
 4811SOL    HW215333   4.049   3.514   2.717
 4812SOL     OW15334   0.812   0.415   2.362
 4812SOL    HW115335   0.898   0.464   2.373
 4812SOL    HW215336   0.816   0.328   2.412
 4813SOL     OW15337   5.875   1.524   6.476
 4813SOL    HW115338   5.961   1.480   6.502
 4813SOL    HW215339   5.892   1.589   6.402
 4814SOL     OW15340   6.893   3.183   1.566
 4814SOL    HW115341   6.811   3.185   1.622
 4814SOL    HW215342   6.931   3.275   1.558
 4815SOL     OW15343   5.513   4.317   3.153
 4815SOL    HW115344   5.568   4.233   3.150
 4815SOL    HW215345   5.574   4.396   3.155
 4816SOL     OW15346   2.192   5.588   1.252
 4816SOL    HW115347   2.098   5.556   1.249
 4816SOL    HW215348   2.245   5.542   1.181
 4817SOL     OW15349   2.505   0.931   1.408
 4817SOL    HW115350   2.436   0.919   1.480
 4817SOL    HW215351   2.541   1.024   1.411
 4818SOL     OW15352   0.653   1.334   3.844
 4818SOL    HW115353   0.679   1.370   3.934
 4818SOL    HW215354   0.560   1.298   3.848
 4819SOL     OW15355   2.716   2.494   1.518
 4819SOL    HW115356   2.698   2.519   1.613
 4819SOL    HW215357   2.629   2.483   1.470
 4820SOL     OW15358   6.790   2.002   0.653
 4820SOL    HW115359   6.884   2.008   0.621
 4820SOL    HW215360   6.772   1.909   0.687
 4821SOL     OW15361   0.013   0.598   1.020
 4821SOL    HW115362   0.053   0.515   0.980
 4821SOL    HW215363   0.085   0.653   1.062
 4822SOL     OW15364   1.937   3.170   3.910
 4822SOL    HW115365   1.909   3.173   4.006
 4822SOL    HW215366   1.921   3.078   3.874
 4823SOL     OW15367   0.389   1.924   4.107
 4823SOL    HW115368   0.433   2.007   4.073
 4823SOL    HW215369   0.457   1.869   4.155
 4824SOL     OW15370   5.648   1.972   4.240
 4824SOL    HW115371   5.598   2.004   4.159
 4824SOL    HW215372   5.651   1.872   4.240
 4825SOL     OW15373   2.002   2.788   4.456
 4825SOL    HW115374   2.092   2.830   4.469
 4825SOL    HW215375   1.996   2.749   4.364
 4826SOL     OW15376   0.044   0.501   5.997
 4826SOL    HW115377   0.072   0.597   5.989
 4826SOL    HW215378   0.023   0.466   5.906
 4827SOL     OW15379   6.074   1.634   1.214
 4827SOL    HW115380   6.027   1.644   1.302
 4827SOL    HW215381   6.032   1.695   1.147
 4828SOL     OW15382   5.751   2.966   1.041
 4828SOL    HW115383   5.729   3.052   1.087
 4828SOL    HW215384   5.669   2.909   1.036
 4829SOL     OW15385   4.156   6.472   6.841
 4829SOL    HW115386   4.098   6.411   6.895
 4829SOL    HW215387   4.228   6.510   6.898
 4830SOL     OW15388   4.921   6.244   3.830
 4830SOL    HW115389   4.962   6.304   3.899
 4830SOL    HW215390   4.958   6.152   3.841
 4831SOL     OW15391   6.891   5.056   6.143
 4831SOL    HW115392   6.934   5.132   6.190
 4831SOL    HW215393   6.924   5.051   6.049
 4832SOL     OW15394   2.643   2.738   5.472
 4832SOL    HW115395   2.670   2.811   5.409
 4832SOL    HW215396   2.550   2.755   5.504
 4833SOL     OW15397   4.882   0.976   2.887
 4833SOL    HW115398   4.884   0.923   2.802
 4833SOL    HW215399   4.975   0.995   2.916
 4834SOL     OW15400   3.571   0.706   0.778
 4834SOL    HW115401   3.508   0.636   0.743
 4834SOL    HW215402   3.528   0.796   0.774
 4835SOL     OW15403   0.899   1.392   6.179
 4835SOL    HW115404   0.825   1.332   6.148
 4835SOL    HW215405   0.958   1.414   6.102
 4836SOL     OW15406   5.192   3.179   3.717
 4836SOL    HW115407   5.182   3.079   3.717
 4836SOL    HW215408   5.169   3.214   3.808
 4837SOL     OW15409   4.815   3.396   1.707
 4837SOL    HW115410   4.770   3.479   1.673
 4837SOL    HW215411   4.748   3.321   1.710
 4838SOL     OW15412   1.404   4.803   1.858
 4838SOL    HW115413   1.386   4.704   1.861
 4838SOL    HW215414   1.426   4.835   1.950
 4839SOL     OW15415   1.030   3.634   5.668
 4839SOL    HW115416   1.071   3.560   5.720
 4839SOL    HW215417   0.931   3.622   5.665
 4840SOL     OW15418   0.932   6.055   5.322
 4840SOL    HW115419   0.977   6.092   5.404
 4840SOL    HW215420   0.875   6.126   5.280
 4841SOL     OW15421   2.532   6.156   1.529
 4841SOL    HW115422   2.598   6.082   1.541
 4841SOL    HW215423   2.460   6.147   1.598
 4842SOL     OW15424   3.221   4.806   1.960
 4842SOL    HW115425   3.148   4.852   2.012
 4842SOL    HW215426   3.297   4.785   2.022
 4843SOL     OW15427   5.816   3.413   0.497
 4843SOL    HW115428   5.913   3.389   0.498
 4843SOL    HW215429   5.786   3.426   0.403
 4844SOL     OW15430   6.734   3.630   5.743
 4844SOL    HW115431   6.818   3.683   5.735
 4844SOL    HW215432   6.687   3.629   5.655
 4845SOL     OW15433   6.394   5.825   4.697
 4845SOL    HW115434   6.389   5.924   4.701
 4845SOL    HW215435   6.482   5.797   4.658
 4846SOL     OW15436   6.576   3.358   3.175
 4846SOL    HW115437   6.502   3.336   3.238
 4846SOL    HW215438   6.561   3.448   3.135
 4847SOL     OW15439   3.340   1.157   5.501
 4847SOL    HW115440   3.328   1.114   5.412
 4847SOL    HW215441   3.292   1.105   5.570
 4848SOL     OW15442   1.356   1.262   3.980
 4848SOL    HW115443   1.313   1.212   3.904
 4848SOL    HW215444   1.361   1.201   4.060
 4849SOL     OW15445   1.192   6.524   6.104
 4849SOL    HW115446   1.168   6.427   6.110
 4849SOL    HW215447   1.275   6.541   6.157
 4850SOL     OW15448   3.968   1.394   2.694
 4850SOL    HW115449   4.005   1.392   2.786
 4850SOL    HW215450   3.924   1.483   2.677
 4851SOL     OW15451   3.826   6.006   5.338
 4851SOL    HW115452   3.742   5.951   5.346
 4851SOL    HW215453   3.895   5.971   5.402
 4852SOL     OW15454   0.867   0.205   5.439
 4852SOL    HW115455   0.862   0.105   5.433
 4852SOL    HW215456   0.898   0.232   5.530
 4853SOL     OW15457   2.940   1.254   2.945
 4853SOL    HW115458   2.872   1.192   2.984
 4853SOL    HW215459   3.017   1.201   2.911
 4854SOL     OW15460   5.417   6.860   2.133
 4854SOL    HW115461   5.391   6.830   2.224
 4854SOL    HW215462   5.481   6.937   2.140
 4855SOL     OW15463   6.243   3.060   2.392
 4855SOL    HW115464   6.328   3.017   2.422
 4855SOL    HW215465   6.259   3.158   2.377
 4856SOL     OW15466   1.637   4.000   2.553
 4856SOL    HW115467   1.633   4.003   2.653
 4856SOL    HW215468   1.546   4.015   2.515
 4857SOL     OW15469   1.576   2.578   5.792
 4857SOL    HW115470   1.522   2.601   5.872
 4857SOL    HW215471   1.527   2.604   5.709
 4858SOL     OW15472   0.999   1.356   4.603
 4858SOL    HW115473   0.956   1.413   4.534
 4858SOL    HW215474   1.035   1.273   4.561
 4859SOL     OW15475   1.272   0.972   4.480
 4859SOL    HW115476   1.263   0.873   4.491
 4859SOL    HW215477   1.183   1.015   4.494
 4860SOL     OW15478   3.988   4.496   1.679
 4860SOL    HW115479   3.946   4.438   1.609
 4860SOL    HW215480   3.927   4.572   1.700
 4861SOL     OW15481   5.165   4.650   0.324
 4861SOL    HW115482   5.122   4.732   0.361
 4861SOL    HW215483   5.097   4.578   0.315
 4862SOL     OW15484   2.932   4.874   4.905
 4862SOL    HW115485   2.908   4.799   4.966
 4862SOL    HW215486   3.003   4.844   4.841
 4863SOL     OW15487   6.011   3.958   2.430
 4863SOL    HW115488   5.980   4.034   2.372
 4863SOL    HW215489   6.074   3.900   2.377
 4864SOL     OW15490   3.884   1.213   3.542
 4864SOL    HW115491   3.833   1.298   3.552
 4864SOL    HW215492   3.841   1.156   3.472
 4865SOL     OW15493   2.159   0.887   5.388
 4865SOL    HW115494   2.254   0.913   5.370
 4865SOL    HW215495   2.098   0.934   5.324
 4866SOL     OW15496   6.832   1.984   1.049
 4866SOL    HW115497   6.825   1.994   1.149
 4866SOL    HW215498   6.743   2.000   1.008
 4867SOL     OW15499   3.675   4.959   2.677
 4867SOL    HW115500   3.762   4.910   2.688
 4867SOL    HW215501   3.655   5.011   2.760
 4868SOL     OW15502   6.482   4.839   2.531
 4868SOL    HW115503   6.486   4.810   2.435
 4868SOL    HW215504   6.479   4.759   2.590
 4869SOL     OW15505   1.320   1.731   2.190
 4869SOL    HW115506   1.309   1.658   2.123
 4869SOL    HW215507   1.230   1.766   2.216
 4870SOL     OW15508   0.603   6.259   1.587
 4870SOL    HW115509   0.572   6.164   1.587
 4870SOL    HW215510   0.562   6.307   1.510
 4871SOL     OW15511   1.741   0.964   3.786
 4871SOL    HW115512   1.705   0.917   3.706
 4871SOL    HW215513   1.747   1.062   3.766
 4872SOL     OW15514   6.246   0.124   3.603
 4872SOL    HW115515   6.231   0.027   3.583
 4872SOL    HW215516   6.226   0.142   3.699
 4873SOL     OW15517   6.374   5.513   4.087
 4873SOL    HW115518   6.403   5.502   4.182
 4873SOL    HW215519   6.352   5.423   4.049
 4874SOL     OW15520   6.241   3.607   2.377
 4874SOL    HW115521   6.277   3.561   2.458
 4874SOL    HW215522   6.141   3.605   2.379
 4875SOL     OW15523   5.943   1.777   0.747
 4875SOL    HW115524   5.958   1.876   0.743
 4875SOL    HW215525   5.892   1.748   0.665
 4876SOL     OW15526   6.085   2.287   3.129
 4876SOL    HW115527   6.148   2.288   3.051
 4876SOL    HW215528   6.002   2.339   3.105
 4877SOL     OW15529   1.693   2.143   6.071
 4877SOL    HW115530   1.664   2.067   6.013
 4877SOL    HW215531   1.778   2.182   6.036
 4878SOL     OW15532   6.249   0.841   2.231
 4878SOL    HW115533   6.205   0.869   2.146
 4878SOL    HW215534   6.266   0.742   2.229
 4879SOL     OW15535   4.364   1.129   2.862
 4879SOL    HW115536   4.448   1.135   2.917
 4879SOL    HW215537   4.294   1.189   2.901
 4880SOL     OW15538   5.276   3.153   7.001
 4880SOL    HW115539   5.311   3.238   0.014
 4880SOL    HW215540   5.320   3.075   0.018
 4881SOL     OW15541   1.192   1.136   6.960
 4881SOL    HW115542   1.272   1.191   6.983
 4881SOL    HW215543   1.114   1.196   6.944
 4882SOL     OW15544   4.736   0.430   4.847
 4882SOL    HW115545   4.689   0.343   4.829
 4882SOL    HW215546   4.707   0.466   4.936
 4883SOL     OW15547   5.127   4.888   1.668
 4883SOL    HW115548   5.188   4.858   1.595
 4883SOL    HW215549   5.067   4.960   1.633
 4884SOL     OW15550   2.703   6.325   1.685
 4884SOL    HW115551   2.648   6.251   1.645
 4884SOL    HW215552   2.797   6.317   1.653
 4885SOL     OW15553   2.284   5.310   1.409
 4885SOL    HW115554   2.301   5.349   1.499
 4885SOL    HW215555   2.187   5.318   1.387
 4886SOL     OW15556   1.395   6.132   1.397
 4886SOL    HW115557   1.364   6.092   1.484
 4886SOL    HW215558   1.362   6.077   1.321
 4887SOL     OW15559   0.069   0.160   1.584
 4887SOL    HW115560   0.154   0.194   1.625
 4887SOL    HW215561   0.032   0.087   1.641
 4888SOL     OW15562   2.854   0.340   4.423
 4888SOL    HW115563   2.858   0.281   4.504
 4888SOL    HW215564   2.843   0.284   4.341
 4889SOL     OW15565   6.950   1.776   5.166
 4889SOL    HW115566   6.877   1.831   5.206
 4889SOL    HW215567   6.914   1.689   5.134
 4890SOL     OW15568   6.823   0.929   6.210
 4890SOL    HW115569   6.893   0.924   6.280
 4890SOL    HW215570   6.861   0.969   6.127
 4891SOL     OW15571   2.109   4.820   0.107
 4891SOL    HW115572   2.036   4.872   0.063
 4891SOL    HW215573   2.136   4.744   0.047
 4892SOL     OW15574   3.035   5.854   2.353
 4892SOL    HW115575   3.078   5.764   2.361
 4892SOL    HW215576   3.003   5.866   2.259
 4893SOL     OW15577   6.618   3.098   1.466
 4893SOL    HW115578   6.602   3.008   1.427
 4893SOL    HW215579   6.650   3.089   1.560
 4894SOL     OW15580   3.255   0.509   3.234
 4894SOL    HW115581   3.252   0.415   3.266
 4894SOL    HW215582   3.163   0.548   3.236
 4895SOL     OW15583   0.889   4.957   4.375
 4895SOL    HW115584   0.804   4.906   4.362
 4895SOL    HW215585   0.910   5.008   4.291
 4896SOL     OW15586   1.840   4.408   1.835
 4896SOL    HW115587   1.798   4.497   1.822
 4896SOL    HW215588   1.937   4.420   1.856
 4897SOL     OW15589   1.821   4.259   5.785
 4897SOL    HW115590   1.857   4.216   5.868
 4897SOL    HW215591   1.843   4.202   5.706
 4898SOL     OW15592   4.636   0.871   4.776
 4898SOL    HW115593   4.689   0.788   4.791
 4898SOL    HW215594   4.552   0.850   4.726
 4899SOL     OW15595   5.672   5.676   3.073
 4899SOL    HW115596   5.594   5.662   3.134
 4899SOL    HW215597   5.664   5.765   3.028
 4900SOL     OW15598   3.029   6.440   5.236
 4900SOL    HW115599   3.051   6.444   5.139
 4900SOL    HW215600   3.049   6.349   5.271
 4901SOL     OW15601   3.220   1.482   5.080
 4901SOL    HW115602   3.314   1.516   5.088
 4901SOL    HW215603   3.215   1.389   5.117
 4902SOL     OW15604   1.881   1.989   5.048
 4902SOL    HW115605   1.853   2.080   5.076
 4902SOL    HW215606   1.810   1.949   4.989
 4903SOL     OW15607   3.892   5.800   0.197
 4903SOL    HW115608   3.974   5.742   0.189
 4903SOL    HW215609   3.810   5.745   0.181
 4904SOL     OW15610   2.147   0.396   5.298
 4904SOL    HW115611   2.073   0.446   5.343
 4904SOL    HW215612   2.224   0.457   5.284
 4905SOL     OW15613   3.352   0.696   3.002
 4905SOL    HW115614   3.275   0.755   2.979
 4905SOL    HW215615   3.378   0.644   2.920
 4906SOL     OW15616   5.254   1.829   6.686
 4906SOL    HW115617   5.300   1.880   6.613
 4906SOL    HW215618   5.284   1.864   6.775
 4907SOL     OW15619   4.113   6.473   2.154
 4907SOL    HW115620   4.052   6.394   2.150
 4907SOL    HW215621   4.170   6.467   2.237
 4908SOL     OW15622   5.696   6.542   0.331
 4908SOL    HW115623   5.740   6.543   0.241
 4908SOL    HW215624   5.699   6.633   0.371
 4909SOL     OW15625   0.553   6.748   4.000
 4909SOL    HW115626   0.614   6.687   4.050
 4909SOL    HW215627   0.543   6.716   3.906
 4910SOL     OW15628   5.190   1.253   4.998
 4910SOL    HW115629   5.131   1.192   5.051
 4910SOL    HW215630   5.133   1.310   4.938
 4911SOL     OW15631   1.338   3.975   3.707
 4911SOL    HW115632   1.347   3.920   3.623
 4911SOL    HW215633   1.396   4.056   3.699
 4912SOL     OW15634   5.654   1.196   6.079
 4912SOL    HW115635   5.737   1.215   6.025
 4912SOL    HW215636   5.598   1.129   6.031
 4913SOL     OW15637   4.113   3.216   5.208
 4913SOL    HW115638   4.014   3.219   5.218
 4913SOL    HW215639   4.151   3.142   5.264
 4914SOL     OW15640   3.648   0.186   4.881
 4914SOL    HW115641   3.648   0.099   4.930
 4914SOL    HW215642   3.635   0.169   4.783
 4915SOL     OW15643   3.100   6.224   5.907
 4915SOL    HW115644   3.157   6.166   5.964
 4915SOL    HW215645   3.016   6.247   5.956
 4916SOL     OW15646   1.434   0.692   4.058
 4916SOL    HW115647   1.346   0.738   4.048
 4916SOL    HW215648   1.464   0.657   3.969
 4917SOL     OW15649   2.404   5.515   1.586
 4917SOL    HW115650   2.412   5.548   1.680
 4917SOL    HW215651   2.369   5.588   1.528
 4918SOL     OW15652   4.941   6.217   2.807
 4918SOL    HW115653   5.014   6.177   2.864
 4918SOL    HW215654   4.971   6.218   2.712
 4919SOL     OW15655   3.409   2.614   0.812
 4919SOL    HW115656   3.355   2.692   0.842
 4919SOL    HW215657   3.505   2.627   0.838
 4920SOL     OW15658   5.281   0.389   4.408
 4920SOL    HW115659   5.251   0.416   4.499
 4920SOL    HW215660   5.316   0.296   4.410
 4921SOL     OW15661   1.042   5.299   0.399
 4921SOL    HW115662   0.957   5.250   0.379
 4921SOL    HW215663   1.115   5.263   0.340
 4922SOL     OW15664   2.903   2.195   5.191
 4922SOL    HW115665   2.980   2.228   5.137
 4922SOL    HW215666   2.819   2.200   5.136
 4923SOL     OW15667   3.992   1.707   2.427
 4923SOL    HW115668   4.026   1.788   2.378
 4923SOL    HW215669   3.893   1.703   2.418
 4924SOL     OW15670   3.794   1.358   4.640
 4924SOL    HW115671   3.780   1.411   4.556
 4924SOL    HW215672   3.803   1.420   4.718
 4925SOL     OW15673   6.458   6.969   2.665
 4925SOL    HW115674   6.383   0.007   2.658
 4925SOL    HW215675   6.428   6.891   2.720
 4926SOL     OW15676   4.901   0.848   0.372
 4926SOL    HW115677   4.854   0.791   0.440
 4926SOL    HW215678   4.834   0.904   0.323
 4927SOL     OW15679   3.355   3.902   4.582
 4927SOL    HW115680   3.376   3.835   4.653
 4927SOL    HW215681   3.302   3.859   4.509
 4928SOL     OW15682   2.252   6.979   6.593
 4928SOL    HW115683   2.242   7.008   6.688
 4928SOL    HW215684   2.186   6.907   6.573
 4929SOL     OW15685   6.789   6.866   4.573
 4929SOL    HW115686   6.797   6.822   4.663
 4929SOL    HW215687   6.694   6.861   4.542
 4930SOL     OW15688   5.403   1.052   2.935
 4930SOL    HW115689   5.405   1.125   3.004
 4930SOL    HW215690   5.490   1.004   2.935
 4931SOL     OW15691   7.007   6.795   0.977
 4931SOL    HW115692   6.934   6.816   0.913
 4931SOL    HW215693   0.028   6.713   0.946
 4932SOL     OW15694   3.684   2.922   2.013
 4932SOL    HW115695   3.603   2.980   2.026
 4932SOL    HW215696   3.680   2.876   1.925
 4933SOL     OW15697   2.114   6.637   2.350
 4933SOL    HW115698   2.169   6.664   2.272
 4933SOL    HW215699   2.063   6.717   2.384
 4934SOL     OW15700   3.339   5.513   2.699
 4934SOL    HW115701   3.359   5.558   2.787
 4934SOL    HW215702   3.291   5.427   2.715
 4935SOL     OW15703   1.689   1.957   6.400
 4935SOL    HW115704   1.753   1.944   6.475
 4935SOL    HW215705   1.734   1.936   6.313
 4936SOL     OW15706   2.787   4.848   1.426
 4936SOL    HW115707   2.832   4.935   1.407
 4936SOL    HW215708   2.855   4.774   1.426
 4937SOL     OW15709   5.682   3.354   5.825
 4937SOL    HW115710   5.719   3.333   5.735
 4937SOL    HW215711   5.605   3.294   5.845
 4938SOL     OW15712   1.956   5.069   5.778
 4938SOL    HW115713   1.982   5.000   5.711
 4938SOL    HW215714   1.975   5.034   5.870
 4939SOL     OW15715   5.687   2.187   4.694
 4939SOL    HW115716   5.774   2.230   4.672
 4939SOL    HW215717   5.636   2.171   4.609
 4940SOL     OW15718   0.543   1.205   4.678
 4940SOL    HW115719   0.485   1.221   4.598
 4940SOL    HW215720   0.575   1.110   4.678
 4941SOL     OW15721   4.814   2.015   6.113
 4941SOL    HW115722   4.847   1.934   6.160
 4941SOL    HW215723   4.891   2.062   6.068
 4942SOL     OW15724   4.814   2.321   5.947
 4942SOL    HW115725   4.882   2.387   5.912
 4942SOL    HW215726   4.848   2.228   5.931
 4943SOL     OW15727   4.694   3.427   6.827
 4943SOL    HW115728   4.616   3.364   6.820
 4943SOL    HW215729   4.751   3.400   6.904
 4944SOL     OW15730   2.089   4.499   1.946
 4944SOL    HW115731   2.138   4.426   1.993
 4944SOL    HW215732   2.138   4.585   1.958
 4945SOL     OW15733   1.102   0.966   3.988
 4945SOL    HW115734   1.063   0.935   4.075
 4945SOL    HW215735   1.073   1.060   3.970
 4946SOL     OW15736   0.565   3.268   0.310
 4946SOL    HW115737   0.467   3.274   0.292
 4946SOL    HW215738   0.600   3.360   0.331
 4947SOL     OW15739   2.167   1.009   1.335
 4947SOL    HW115740   2.075   1.023   1.298
 4947SOL    HW215741   2.234   1.032   1.265
 4948SOL     OW15742   1.961   1.751   2.518
 4948SOL    HW115743   1.867   1.747   2.484
 4948SOL    HW215744   2.006   1.833   2.481
 4949SOL     OW15745   4.296   6.799   6.546
 4949SOL    HW115746   4.258   6.707   6.547
 4949SOL    HW215747   4.380   6.802   6.600
 4950SOL     OW15748   3.063   5.701   4.229
 4950SOL    HW115749   2.970   5.688   4.194
 4950SOL    HW215750   3.129   5.668   4.162
 4951SOL     OW15751   5.120   1.586   4.620
 4951SOL    HW115752   5.127   1.685   4.636
 4951SOL    HW215753   5.201   1.540   4.656
 4952SOL     OW15754   7.021   0.963   5.191
 4952SOL    HW115755   6.926   0.987   5.172
 4952SOL    HW215756   7.026   0.865   5.212
 4953SOL     OW15757   2.033   6.374   2.035
 4953SOL    HW115758   1.947   6.422   2.019
 4953SOL    HW215759   2.054   6.373   2.133
 4954SOL     OW15760   4.216   3.861   6.862
 4954SOL    HW115761   4.205   3.786   6.797
 4954SOL    HW215762   4.127   3.885   6.901
 4955SOL     OW15763   2.481   5.950   6.850
 4955SOL    HW115764   2.455   6.046   6.842
 4955SOL    HW215765   2.490   5.910   6.759
 4956SOL     OW15766   2.441   6.909   5.162
 4956SOL    HW115767   2.360   6.916   5.105
 4956SOL    HW215768   2.497   6.991   5.151
 4957SOL     OW15769   6.561   1.707   2.485
 4957SOL    HW115770   6.512   1.705   2.572
 4957SOL    HW215771   6.650   1.664   2.496
 4958SOL     OW15772   6.587   5.687   4.936
 4958SOL    HW115773   6.551   5.744   4.861
 4958SOL    HW215774   6.677   5.721   4.963
 4959SOL     OW15775   6.660   1.714   6.682
 4959SOL    HW115776   6.566   1.713   6.649
 4959SOL    HW215777   6.678   1.801   6.729
 4960SOL     OW15778   3.476   5.750   3.186
 4960SOL    HW115779   3.505   5.830   3.134
 4960SOL    HW215780   3.538   5.735   3.263
 4961SOL     OW15781   4.851   1.689   5.993
 4961SOL    HW115782   4.786   1.764   5.984
 4961SOL    HW215783   4.818   1.624   6.061
 4962SOL     OW15784   6.329   2.766   0.651
 4962SOL    HW115785   6.338   2.691   0.586
 4962SOL    HW215786   6.299   2.731   0.739
 4963SOL     OW15787   6.791   5.891   6.931
 4963SOL    HW115788   6.740   5.885   7.017
 4963SOL    HW215789   6.847   5.808   6.920
 4964SOL     OW15790   3.457   0.475   3.975
 4964SOL    HW115791   3.430   0.476   4.071
 4964SOL    HW215792   3.534   0.413   3.963
 4965SOL     OW15793   0.278   0.609   3.672
 4965SOL    HW115794   0.216   0.687   3.663
 4965SOL    HW215795   0.370   0.641   3.693
 4966SOL     OW15796   1.703   0.304   5.039
 4966SOL    HW115797   1.640   0.353   5.099
 4966SOL    HW215798   1.797   0.319   5.069
 4967SOL     OW15799   3.962   3.342   5.653
 4967SOL    HW115800   3.975   3.425   5.598
 4967SOL    HW215801   3.944   3.368   5.748
 4968SOL     OW15802   5.741   2.304   3.455
 4968SOL    HW115803   5.678   2.299   3.378
 4968SOL    HW215804   5.689   2.305   3.540
 4969SOL     OW15805   2.434   0.612   2.265
 4969SOL    HW115806   2.405   0.707   2.257
 4969SOL    HW215807   2.509   0.595   2.201
 4970SOL     OW15808   1.517   1.983   4.261
 4970SOL    HW115809   1.453   2.052   4.229
 4970SOL    HW215810   1.467   1.900   4.286
 4971SOL     OW15811   6.022   6.487   3.459
 4971SOL    HW115812   5.960   6.480   3.381
 4971SOL    HW215813   6.065   6.399   3.476
 4972SOL     OW15814   1.830   3.157   0.093
 4972SOL    HW115815   1.751   3.207   0.129
 4972SOL    HW215816   1.800   3.096   0.020
 4973SOL     OW15817   0.482   0.462   2.398
 4973SOL    HW115818   0.553   0.471   2.328
 4973SOL    HW215819   0.421   0.541   2.392
 4974SOL     OW15820   5.611   4.968   1.303
 4974SOL    HW115821   5.612   4.886   1.360
 4974SOL    HW215822   5.704   4.995   1.282
 4975SOL     OW15823   5.668   5.554   6.205
 4975SOL    HW115824   5.664   5.593   6.113
 4975SOL    HW215825   5.763   5.548   6.235
 4976SOL     OW15826   2.995   0.046   4.505
 4976SOL    HW115827   2.997   0.044   4.605
 4976SOL    HW215828   2.913   7.027   4.472
 4977SOL     OW15829   4.650   4.071   0.631
 4977SOL    HW115830   4.672   4.165   0.606
 4977SOL    HW215831   4.667   4.058   0.729
 4978SOL     OW15832   6.674   4.100   5.474
 4978SOL    HW115833   6.675   4.193   5.436
 4978SOL    HW215834   6.675   4.106   5.574
 4979SOL     OW15835   0.772   0.839   5.319
 4979SOL    HW115836   0.800   0.777   5.246
 4979SOL    HW215837   0.759   0.787   5.404
 4980SOL     OW15838   4.742   6.587   3.225
 4980SOL    HW115839   4.670   6.587   3.294
 4980SOL    HW215840   4.813   6.522   3.252
 4981SOL     OW15841   4.865   5.463   6.363
 4981SOL    HW115842   4.799   5.426   6.298
 4981SOL    HW215843   4.942   5.400   6.372
 4982SOL     OW15844   2.054   2.221   6.642
 4982SOL    HW115845   2.037   2.200   6.546
 4982SOL    HW215846   2.013   2.309   6.665
 4983SOL     OW15847   5.307   2.416   4.518
 4983SOL    HW115848   5.281   2.327   4.556
 4983SOL    HW215849   5.225   2.462   4.483
 4984SOL     OW15850   6.081   4.006   4.415
 4984SOL    HW115851   6.085   4.105   4.429
 4984SOL    HW215852   6.047   3.986   4.323
 4985SOL     OW15853   6.027   6.535   2.971
 4985SOL    HW115854   6.111   6.481   2.967
 4985SOL    HW215855   6.036   6.614   2.910
 4986SOL     OW15856   6.144   4.420   2.779
 4986SOL    HW115857   6.085   4.386   2.706
 4986SOL    HW215858   6.117   4.378   2.866
 4987SOL     OW15859   0.949   1.535   0.878
 4987SOL    HW115860   0.894   1.502   0.802
 4987SOL    HW215861   1.045   1.540   0.850
 4988SOL     OW15862   5.954   1.319   3.361
 4988SOL    HW115863   5.903   1.255   3.304
 4988SOL    HW215864   5.980   1.274   3.447
 4989SOL     OW15865   5.306   0.488   1.116
 4989SOL    HW115866   5.248   0.411   1.141
 4989SOL    HW215867   5.390   0.455   1.074
 4990SOL     OW15868   1.445   1.725   5.712
 4990SOL    HW115869   1.529   1.777   5.728
 4990SOL    HW215870   1.395   1.766   5.636
 4991SOL     OW15871   0.328   3.326   4.235
 4991SOL    HW115872   0.364   3.416   4.261
 4991SOL    HW215873   0.397   3.256   4.251
 4992SOL     OW15874   4.795   0.676   4.843
 4992SOL    HW115875   4.877   0.675   4.901
 4992SOL    HW215876   4.755   0.584   4.841
 4993SOL     OW15877   3.738   5.411   3.928
 4993SOL    HW115878   3.762   5.506   3.908
 4993SOL    HW215879   3.714   5.403   4.025
 4994SOL     OW15880   1.109   0.510   2.685
 4994SOL    HW115881   1.177   0.470   2.747
 4994SOL    HW215882   1.087   0.444   2.614
 4995SOL     OW15883   6.693   2.629   5.933
 4995SOL    HW115884   6.660   2.632   6.027
 4995SOL    HW215885   6.741   2.542   5.917
 4996SOL     OW15886   1.553   0.861   2.838
 4996SOL    HW115887   1.482   0.792   2.853
 4996SOL    HW215888   1.511   0.950   2.825
 4997SOL     OW15889   6.340   1.519   3.239
 4997SOL    HW115890   6.240   1.516   3.237
 4997SOL    HW215891   6.376   1.426   3.229
 4998SOL     OW15892   2.228   3.806   5.239
 4998SOL    HW115893   2.270   3.854   5.162
 4998SOL    HW215894   2.285   3.727   5.264
 4999SOL     OW15895   5.510   5.177   1.487
 4999SOL    HW115896   5.525   5.130   1.574
 4999SOL    HW215897   5.510   5.111   1.413
 5000SOL     OW15898   2.160   6.927   4.265
 5000SOL    HW115899   2.246   6.879   4.246
 5000SOL    HW215900   2.165   7.020   4.229
 5001SOL     OW15901   1.629   4.485   6.631
 5001SOL    HW115902   1.570   4.427   6.687
 5001SOL    HW215903   1.719   4.443   6.622
 5002SOL     OW15904   1.668   3.453   2.947
 5002SOL    HW115905   1.724   3.372   2.963
 5002SOL    HW215906   1.598   3.433   2.879
 5003SOL     OW15907   2.430   6.647   2.825
 5003SOL    HW115908   2.435   6.746   2.841
 5003SOL    HW215909   2.429   6.630   2.726
 5004SOL     OW15910   3.174   5.190   6.177
 5004SOL    HW115911   3.146   5.280   6.211
 5004SOL    HW215912   3.127   5.171   6.091
 5005SOL     OW15913   3.580   2.335   0.989
 5005SOL    HW115914   3.555   2.384   1.073
 5005SOL    HW215915   3.626   2.398   0.926
 5006SOL     OW15916   5.106   6.251   6.830
 5006SOL    HW115917   5.192   6.299   6.848
 5006SOL    HW215918   5.042   6.313   6.784
 5007SOL     OW15919   1.980   0.449   6.690
 5007SOL    HW115920   1.921   0.452   6.609
 5007SOL    HW215921   2.030   0.535   6.699
 5008SOL     OW15922   6.550   0.516   3.218
 5008SOL    HW115923   6.562   0.612   3.242
 5008SOL    HW215924   6.485   0.474   3.282
 5009SOL     OW15925   1.688   6.231   1.562
 5009SOL    HW115926   1.786   6.252   1.564
 5009SOL    HW215927   1.667   6.180   1.478
 5010SOL     OW15928   3.386   2.943   3.066
 5010SOL    HW115929   3.392   2.916   3.162
 5010SOL    HW215930   3.476   2.932   3.023
 5011SOL     OW15931   2.006   3.610   2.310
 5011SOL    HW115932   2.016   3.511   2.309
 5011SOL    HW215933   2.061   3.650   2.236
 5012SOL     OW15934   4.869   3.700   5.869
 5012SOL    HW115935   4.816   3.735   5.792
 5012SOL    HW215936   4.825   3.618   5.905
 5013SOL     OW15937   5.288   1.747   0.481
 5013SOL    HW115938   5.340   1.769   0.399
 5013SOL    HW215939   5.275   1.649   0.488
 5014SOL     OW15940   5.439   4.299   0.566
 5014SOL    HW115941   5.506   4.267   0.633
 5014SOL    HW215942   5.416   4.394   0.585
 5015SOL     OW15943   4.623   2.101   4.383
 5015SOL    HW115944   4.635   2.201   4.384
 5015SOL    HW215945   4.527   2.080   4.367
 5016SOL     OW15946   2.867   1.682   1.306
 5016SOL    HW115947   2.888   1.733   1.389
 5016SOL    HW215948   2.801   1.733   1.251
 5017SOL     OW15949   1.820   2.728   6.843
 5017SOL    HW115950   1.774   2.774   6.768
 5017SOL    HW215951   1.914   2.707   6.816
 5018SOL     OW15952   0.755   4.304   1.392
 5018SOL    HW115953   0.689   4.378   1.407
 5018SOL    HW215954   0.818   4.300   1.470
 5019SOL     OW15955   1.897   4.519   0.030
 5019SOL    HW115956   1.859   4.446   7.001
 5019SOL    HW215957   1.947   4.584   7.000
 5020SOL     OW15958   4.518   6.714   5.943
 5020SOL    HW115959   4.612   6.716   5.909
 5020SOL    HW215960   4.485   6.807   5.955
 5021SOL     OW15961   1.607   2.017   5.686
 5021SOL    HW115962   1.705   2.010   5.669
 5021SOL    HW215963   1.588   2.000   5.783
 5022SOL     OW15964   2.170   0.325   0.320
 5022SOL    HW115965   2.083   0.364   0.290
 5022SOL    HW215966   2.203   0.375   0.400
 5023SOL     OW15967   6.499   2.450   1.349
 5023SOL    HW115968   6.527   2.368   1.299
 5023SOL    HW215969   6.580   2.503   1.373
 5024SOL     OW15970   6.639   4.521   3.368
 5024SOL    HW115971   6.653   4.561   3.277
 5024SOL    HW215972   6.547   4.542   3.399
 5025SOL     OW15973   4.234   1.910   2.024
 5025SOL    HW115974   4.308   1.843   2.018
 5025SOL    HW215975   4.225   1.958   1.937
 5026SOL     OW15976   5.736   5.925   6.425
 5026SOL    HW115977   5.670   5.884   6.488
 5026SOL    HW215978   5.769   5.855   6.361
 5027SOL     OW15979   0.237   0.308   2.405
 5027SOL    HW115980   0.328   0.346   2.390
 5027SOL    HW215981   0.229   0.220   2.359
 5028SOL     OW15982   0.327   6.685   3.162
 5028SOL    HW115983   0.387   6.612   3.130
 5028SOL    HW215984   0.238   6.676   3.118
 5029SOL     OW15985   6.522   3.610   4.004
 5029SOL    HW115986   6.426   3.627   4.027
 5029SOL    HW215987   6.580   3.635   4.081
 5030SOL     OW15988   7.025   0.270   6.788
 5030SOL    HW115989   0.028   0.272   6.883
 5030SOL    HW215990   0.071   0.302   6.728
 5031SOL     OW15991   5.501   1.038   4.919
 5031SOL    HW115992   5.473   0.976   4.846
 5031SOL    HW215993   5.590   1.009   4.955
 5032SOL     OW15994   1.266   3.898   1.596
 5032SOL    HW115995   1.268   3.875   1.499
 5032SOL    HW215996   1.275   3.997   1.607
 5033SOL     OW15997   1.588   4.763   6.737
 5033SOL    HW115998   1.595   4.677   6.685
 5033SOL    HW215999   1.607   4.744   6.834
 5034SOL     OW16000   6.746   2.695   2.985
 5034SOL    HW116001   6.789   2.749   2.913
 5034SOL    HW216002   6.810   2.624   3.015
 5035SOL     OW16003   6.167   4.145   1.162
 5035SOL    HW116004   6.197   4.053   1.185
 5035SOL    HW216005   6.246   4.202   1.140
 5036SOL     OW16006   6.961   4.800   0.161
 5036SOL    HW116007   0.027   4.795   0.196
 5036SOL    HW216008   6.923   4.708   0.158
 5037SOL     OW16009   4.840   2.423   2.532
 5037SOL    HW116010   4.746   2.457   2.541
 5037SOL    HW216011   4.841   2.345   2.470
 5038SOL     OW16012   1.790   5.168   5.564
 5038SOL    HW116013   1.840   5.157   5.650
 5038SOL    HW216014   1.818   5.097   5.500
 5039SOL     OW16015   2.360   3.957   5.615
 5039SOL    HW116016   2.308   3.970   5.531
 5039SOL    HW216017   2.341   3.866   5.653
 5040SOL     OW16018   2.144   4.258   6.277
 5040SOL    HW116019   2.207   4.324   6.318
 5040SOL    HW216020   2.196   4.190   6.225
 5041SOL     OW16021   1.288   3.390   1.252
 5041SOL    HW116022   1.370   3.353   1.208
 5041SOL    HW216023   1.314   3.447   1.330
 5042SOL     OW16024   6.720   2.897   6.620
 5042SOL    HW116025   6.787   2.969   6.602
 5042SOL    HW216026   6.731   2.865   6.714
 5043SOL     OW16027   2.908   1.238   5.707
 5043SOL    HW116028   2.872   1.281   5.624
 5043SOL    HW216029   2.952   1.307   5.764
 5044SOL     OW16030   5.614   0.239   2.879
 5044SOL    HW116031   5.627   0.155   2.932
 5044SOL    HW216032   5.699   0.293   2.881
 5045SOL     OW16033   5.335   2.746   0.239
 5045SOL    HW116034   5.337   2.699   0.151
 5045SOL    HW216035   5.349   2.680   0.313
 5046SOL     OW16036   3.707   4.150   5.128
 5046SOL    HW116037   3.628   4.181   5.180
 5046SOL    HW216038   3.679   4.127   5.035
 5047SOL     OW16039   6.968   2.459   2.256
 5047SOL    HW116040   6.886   2.402   2.249
 5047SOL    HW216041   0.012   2.423   2.197
 5048SOL     OW16042   7.022   2.042   0.848
 5048SOL    HW116043   0.085   2.023   0.885
 5048SOL    HW216044   6.952   2.017   0.915
 5049SOL     OW16045   6.897   1.406   4.044
 5049SOL    HW116046   6.968   1.435   4.108
 5049SOL    HW216047   6.854   1.487   4.003
 5050SOL     OW16048   1.270   1.197   2.090
 5050SOL    HW116049   1.363   1.234   2.098
 5050SOL    HW216050   1.273   1.097   2.100
 5051SOL     OW16051   4.531   3.527   0.539
 5051SOL    HW116052   4.436   3.554   0.523
 5051SOL    HW216053   4.546   3.515   0.637
 5052SOL     OW16054   2.735   5.171   5.774
 5052SOL    HW116055   2.722   5.080   5.734
 5052SOL    HW216056   2.763   5.162   5.869
 5053SOL     OW16057   1.907   3.836   3.577
 5053SOL    HW116058   2.001   3.865   3.556
 5053SOL    HW216059   1.873   3.779   3.502
 5054SOL     OW16060   3.475   5.617   5.304
 5054SOL    HW116061   3.514   5.554   5.371
 5054SOL    HW216062   3.499   5.586   5.212
 5055SOL     OW16063   0.464   1.129   5.127
 5055SOL    HW116064   0.549   1.148   5.078
 5055SOL    HW216065   0.464   1.179   5.214
 5056SOL     OW16066   6.198   4.050   0.678
 5056SOL    HW116067   6.252   3.974   0.714
 5056SOL    HW216068   6.159   4.025   0.589
 5057SOL     OW16069   0.842   5.555   3.827
 5057SOL    HW116070   0.916   5.585   3.887
 5057SOL    HW216071   0.806   5.633   3.776
 5058SOL     OW16072   2.563   4.174   6.403
 5058SOL    HW116073   2.660   4.190   6.386
 5058SOL    HW216074   2.509   4.220   6.333
 5059SOL     OW16075   5.445   3.503   4.218
 5059SOL    HW116076   5.369   3.568   4.214
 5059SOL    HW216077   5.519   3.536   4.159
 5060SOL     OW16078   6.987   2.489   5.172
 5060SOL    HW116079   6.995   2.418   5.102
 5060SOL    HW216080   6.944   2.570   5.132
 5061SOL     OW16081   3.185   2.982   3.967
 5061SOL    HW116082   3.123   3.028   4.031
 5061SOL    HW216083   3.154   2.998   3.873
 5062SOL     OW16084   5.363   1.187   2.694
 5062SOL    HW116085   5.377   1.130   2.774
 5062SOL    HW216086   5.270   1.224   2.695
 5063SOL     OW16087   0.927   6.094   1.868
 5063SOL    HW116088   0.977   6.008   1.866
 5063SOL    HW216089   0.958   6.152   1.792
 5064SOL     OW16090   5.154   5.043   1.305
 5064SOL    HW116091   5.060   5.028   1.335
 5064SOL    HW216092   5.191   5.124   1.350
 5065SOL     OW16093   1.608   1.731   3.162
 5065SOL    HW116094   1.536   1.791   3.129
 5065SOL    HW216095   1.601   1.642   3.116
 5066SOL     OW16096   3.273   4.102   1.733
 5066SOL    HW116097   3.177   4.128   1.716
 5066SOL    HW216098   3.276   4.013   1.777
 5067SOL     OW16099   3.997   1.171   3.058
 5067SOL    HW116100   3.926   1.163   3.128
 5067SOL    HW216101   3.957   1.154   2.968
 5068SOL     OW16102   3.543   5.103   0.219
 5068SOL    HW116103   3.553   5.039   0.143
 5068SOL    HW216104   3.549   5.052   0.305
 5069SOL     OW16105   1.903   2.850   5.959
 5069SOL    HW116106   1.995   2.858   6.000
 5069SOL    HW216107   1.910   2.862   5.860
 5070SOL     OW16108   5.570   4.727   5.209
 5070SOL    HW116109   5.595   4.822   5.230
 5070SOL    HW216110   5.613   4.699   5.123
 5071SOL     OW16111   4.187   2.271   3.543
 5071SOL    HW116112   4.240   2.204   3.596
 5071SOL    HW216113   4.089   2.254   3.556
 5072SOL     OW16114   1.572   1.318   1.464
 5072SOL    HW116115   1.509   1.371   1.521
 5072SOL    HW216116   1.651   1.289   1.518
 5073SOL     OW16117   1.847   4.920   1.132
 5073SOL    HW116118   1.922   4.861   1.162
 5073SOL    HW216119   1.804   4.962   1.211
 5074SOL     OW16120   3.866   2.092   2.112
 5074SOL    HW116121   3.939   2.132   2.057
 5074SOL    HW216122   3.777   2.115   2.071
 5075SOL     OW16123   1.096   1.985   0.142
 5075SOL    HW116124   1.014   1.942   0.104
 5075SOL    HW216125   1.177   1.949   0.096
 5076SOL     OW16126   5.706   7.010   0.648
 5076SOL    HW116127   5.758   0.063   0.676
 5076SOL    HW216128   5.658   0.002   0.562
 5077SOL     OW16129   0.608   3.820   6.200
 5077SOL    HW116130   0.546   3.751   6.239
 5077SOL    HW216131   0.592   3.907   6.245
 5078SOL     OW16132   0.474   1.433   4.221
 5078SOL    HW116133   0.417   1.468   4.295
 5078SOL    HW216134   0.417   1.384   4.155
 5079SOL     OW16135   2.502   2.719   5.198
 5079SOL    HW116136   2.533   2.811   5.222
 5079SOL    HW216137   2.420   2.725   5.141
 5080SOL     OW16138   5.718   5.836   5.697
 5080SOL    HW116139   5.684   5.930   5.685
 5080SOL    HW216140   5.645   5.771   5.679
 5081SOL     OW16141   3.242   4.757   6.286
 5081SOL    HW116142   3.317   4.767   6.352
 5081SOL    HW216143   3.257   4.673   6.233
 5082SOL     OW16144   5.175   0.368   0.477
 5082SOL    HW116145   5.234   0.447   0.457
 5082SOL    HW216146   5.182   0.346   0.574
 5083SOL     OW16147   3.007   0.258   1.839
 5083SOL    HW116148   2.922   0.305   1.814
 5083SOL    HW216149   3.001   0.226   1.933
 5084SOL     OW16150   1.087   4.789   3.988
 5084SOL    HW116151   1.065   4.754   4.079
 5084SOL    HW216152   1.177   4.832   3.989
 5085SOL     OW16153   7.000   2.497   5.467
 5085SOL    HW116154   6.919   2.548   5.497
 5085SOL    HW216155   6.981   2.454   5.378
 5086SOL     OW16156   1.371   4.095   2.912
 5086SOL    HW116157   1.292   4.052   2.869
 5086SOL    HW216158   1.340   4.152   2.989
 5087SOL     OW16159   0.296   5.028   1.536
 5087SOL    HW116160   0.320   4.998   1.444
 5087SOL    HW216161   0.229   5.101   1.532
 5088SOL     OW16162   5.257   6.929   3.340
 5088SOL    HW116163   5.266   7.004   3.275
 5088SOL    HW216164   5.296   6.846   3.301
 5089SOL     OW16165   6.129   4.589   4.229
 5089SOL    HW116166   6.127   4.629   4.137
 5089SOL    HW216167   6.209   4.623   4.278
 5090SOL     OW16168   1.775   1.572   2.208
 5090SOL    HW116169   1.802   1.669   2.200
 5090SOL    HW216170   1.853   1.514   2.182
 5091SOL     OW16171   6.636   0.831   1.872
 5091SOL    HW116172   6.666   0.800   1.782
 5091SOL    HW216173   6.548   0.788   1.895
 5092SOL     OW16174   3.628   3.424   3.661
 5092SOL    HW116175   3.668   3.481   3.589
 5092SOL    HW216176   3.681   3.340   3.671
 5093SOL     OW16177   3.502   1.413   1.089
 5093SOL    HW116178   3.439   1.475   1.042
 5093SOL    HW216179   3.593   1.454   1.092
 5094SOL     OW16180   2.408   5.948   6.520
 5094SOL    HW116181   2.486   5.927   6.578
 5094SOL    HW216182   2.379   5.865   6.471
 5095SOL     OW16183   0.007   2.493   3.233
 5095SOL    HW116184   0.032   2.588   3.214
 5095SOL    HW216185   0.058   2.460   3.312
 5096SOL     OW16186   4.416   5.081   6.662
 5096SOL    HW116187   4.511   5.097   6.636
 5096SOL    HW216188   4.404   4.984   6.686
 5097SOL     OW16189   0.343   6.782   0.028
 5097SOL    HW116190   0.387   6.828   6.979
 5097SOL    HW216191   0.411   6.765   0.100
 5098SOL     OW16192   2.822   1.359   1.841
 5098SOL    HW116193   2.903   1.305   1.818
 5098SOL    HW216194   2.849   1.437   1.897
 5099SOL     OW16195   0.622   6.625   1.636
 5099SOL    HW116196   0.628   6.556   1.708
 5099SOL    HW216197   0.560   6.699   1.665
 5100SOL     OW16198   3.539   5.320   4.632
 5100SOL    HW116199   3.588   5.281   4.554
 5100SOL    HW216200   3.551   5.419   4.633
 5101SOL     OW16201   4.228   0.217   5.665
 5101SOL    HW116202   4.142   0.245   5.622
 5101SOL    HW216203   4.212   0.192   5.760
 5102SOL     OW16204   5.419   6.310   4.238
 5102SOL    HW116205   5.379   6.354   4.318
 5102SOL    HW216206   5.478   6.234   4.268
 5103SOL     OW16207   0.208   1.297   4.144
 5103SOL    HW116208   0.150   1.225   4.106
 5103SOL    HW216209   0.154   1.381   4.155
 5104SOL     OW16210   2.306   6.824   1.881
 5104SOL    HW116211   2.236   6.752   1.888
 5104SOL    HW216212   2.267   6.903   1.834
 5105SOL     OW16213   3.407   2.940   0.137
 5105SOL    HW116214   3.407   2.874   0.212
 5105SOL    HW216215   3.476   2.913   0.069
 5106SOL     OW16216   4.564   1.316   1.177
 5106SOL    HW116217   4.540   1.413   1.181
 5106SOL    HW216218   4.654   1.303   1.219
 5107SOL     OW16219   4.579   2.770   1.446
 5107SOL    HW116220   4.575   2.670   1.447
 5107SOL    HW216221   4.667   2.800   1.410
 5108SOL     OW16222   4.040   3.818   5.109
 5108SOL    HW116223   4.026   3.909   5.146
 5108SOL    HW216224   3.976   3.802   5.034
 5109SOL     OW16225   0.994   2.226   0.249
 5109SOL    HW116226   0.999   2.131   0.220
 5109SOL    HW216227   1.046   2.238   0.334
 5110SOL     OW16228   0.522   0.349   6.171
 5110SOL    HW116229   0.572   0.266   6.146
 5110SOL    HW216230   0.444   0.360   6.109
 5111SOL     OW16231   1.709   1.045   4.263
 5111SOL    HW116232   1.655   1.125   4.285
 5111SOL    HW216233   1.664   0.993   4.190
 5112SOL     OW16234   0.871   0.162   2.948
 5112SOL    HW116235   0.854   0.140   3.044
 5112SOL    HW216236   0.970   0.158   2.930
 5113SOL     OW16237   1.725   5.493   1.380
 5113SOL    HW116238   1.728   5.590   1.404
 5113SOL    HW216239   1.634   5.456   1.400
 5114SOL     OW16240   3.841   0.173   6.755
 5114SOL    HW116241   3.940   0.182   6.751
 5114SOL    HW216242   3.807   0.211   6.842
 5115SOL     OW16243   1.322   5.201   3.396
 5115SOL    HW116244   1.388   5.207   3.470
 5115SOL    HW216245   1.229   5.208   3.432
 5116SOL     OW16246   1.106   5.763   0.245
 5116SOL    HW116247   1.093   5.845   0.300
 5116SOL    HW216248   1.112   5.683   0.305
 5117SOL     OW16249   0.975   3.919   4.400
 5117SOL    HW116250   0.982   3.888   4.495
 5117SOL    HW216251   0.917   4.000   4.395
 5118SOL     OW16252   5.452   0.865   6.906
 5118SOL    HW116253   5.383   0.854   6.834
 5118SOL    HW216254   5.411   0.909   6.985
 5119SOL     OW16255   4.334   1.047   2.615
 5119SOL    HW116256   4.329   1.058   2.714
 5119SOL    HW216257   4.405   1.107   2.578
 5120SOL     OW16258   4.197   0.041   5.074
 5120SOL    HW116259   4.213   0.026   4.977
 5120SOL    HW216260   4.139   6.995   5.110
 5121SOL     OW16261   3.674   3.083   0.067
 5121SOL    HW116262   3.602   3.152   0.066
 5121SOL    HW216263   3.755   3.119   0.020
 5122SOL     OW16264   3.441   6.363   3.506
 5122SOL    HW116265   3.428   6.435   3.438
 5122SOL    HW216266   3.390   6.386   3.589
 5123SOL     OW16267   5.077   1.790   4.343
 5123SOL    HW116268   5.011   1.850   4.296
 5123SOL    HW216269   5.169   1.807   4.307
 5124SOL     OW16270   1.755   5.924   4.932
 5124SOL    HW116271   1.799   5.971   5.009
 5124SOL    HW216272   1.825   5.875   4.880
 5125SOL     OW16273   6.390   2.983   3.473
 5125SOL    HW116274   6.439   2.915   3.528
 5125SOL    HW216275   6.314   3.021   3.527
 5126SOL     OW16276   6.826   6.030   6.689
 5126SOL    HW116277   6.905   5.990   6.642
 5126SOL    HW216278   6.808   5.979   6.773
 5127SOL     OW16279   6.946   3.902   0.260
 5127SOL    HW116280   6.991   3.909   0.171
 5127SOL    HW216281   6.851   3.932   0.252
 5128SOL     OW16282   0.445   0.469   6.843
 5128SOL    HW116283   0.467   0.526   6.922
 5128SOL    HW216284   0.383   0.519   6.783
 5129SOL     OW16285   6.728   6.719   2.977
 5129SOL    HW116286   6.730   6.738   2.879
 5129SOL    HW216287   6.633   6.702   3.005
 5130SOL     OW16288   7.021   5.317   3.300
 5130SOL    HW116289   0.088   5.339   3.322
 5130SOL    HW216290   6.981   5.390   3.246
 5131SOL     OW16291   2.250   4.194   4.045
 5131SOL    HW116292   2.212   4.269   3.990
 5131SOL    HW216293   2.247   4.219   4.142
 5132SOL     OW16294   3.795   2.902   6.566
 5132SOL    HW116295   3.712   2.884   6.513
 5132SOL    HW216296   3.874   2.869   6.515
 5133SOL     OW16297   1.741   5.174   7.024
 5133SOL    HW116298   1.749   5.271   0.018
 5133SOL    HW216299   1.656   5.158   6.973
 5134SOL     OW16300   0.164   3.217   2.095
 5134SOL    HW116301   0.250   3.244   2.139
 5134SOL    HW216302   0.099   3.187   2.165
 5135SOL     OW16303   5.956   2.560   5.226
 5135SOL    HW116304   5.914   2.565   5.135
 5135SOL    HW216305   5.931   2.641   5.278
 5136SOL     OW16306   4.593   0.736   5.988
 5136SOL    HW116307   4.594   0.819   6.044
 5136SOL    HW216308   4.587   0.761   5.892
 5137SOL     OW16309   5.475   3.805   6.066
 5137SOL    HW116310   5.510   3.751   5.990
 5137SOL    HW216311   5.520   3.777   6.151
 5138SOL     OW16312   2.861   2.781   5.733
 5138SOL    HW116313   2.808   2.823   5.807
 5138SOL    HW216314   2.799   2.757   5.658
 5139SOL     OW16315   2.185   0.058   3.238
 5139SOL    HW116316   2.267   0.077   3.184
 5139SOL    HW216317   2.105   0.056   3.178
 5140SOL     OW16318   3.839   2.262   0.290
 5140SOL    HW116319   3.784   2.262   0.207
 5140SOL    HW216320   3.785   2.298   0.366
 5141SOL     OW16321   6.678   3.589   0.435
 5141SOL    HW116322   6.752   3.554   0.379
 5141SOL    HW216323   6.658   3.525   0.509
 5142SOL     OW16324   6.300   0.281   4.249
 5142SOL    HW116325   6.375   0.255   4.310
 5142SOL    HW216326   6.264   0.199   4.204
 5143SOL     OW16327   0.065   4.493   4.289
 5143SOL    HW116328   0.144   4.477   4.231
 5143SOL    HW216329   0.085   4.461   4.382
 5144SOL     OW16330   1.340   4.885   5.972
 5144SOL    HW116331   1.425   4.849   6.008
 5144SOL    HW216332   1.274   4.896   6.047
 5145SOL     OW16333   2.373   4.989   5.560
 5145SOL    HW116334   2.286   4.983   5.610
 5145SOL    HW216335   2.449   4.992   5.624
 5146SOL     OW16336   3.986   4.074   5.176
 5146SOL    HW116337   3.904   4.075   5.119
 5146SOL    HW216338   3.960   4.065   5.272
 5147SOL     OW16339   6.469   4.712   3.131
 5147SOL    HW116340   6.427   4.741   3.045
 5147SOL    HW216341   6.422   4.629   3.164
 5148SOL     OW16342   0.784   6.071   1.089
 5148SOL    HW116343   0.880   6.050   1.110
 5148SOL    HW216344   0.725   6.028   1.157
 5149SOL     OW16345   6.495   5.947   3.140
 5149SOL    HW116346   6.398   5.967   3.151
 5149SOL    HW216347   6.508   5.880   3.068
 5150SOL     OW16348   2.213   4.785   2.491
 5150SOL    HW116349   2.273   4.743   2.560
 5150SOL    HW216350   2.123   4.801   2.531
 5151SOL     OW16351   5.587   2.368   0.800
 5151SOL    HW116352   5.673   2.400   0.760
 5151SOL    HW216353   5.532   2.323   0.730
 5152SOL     OW16354   2.062   5.130   0.023
 5152SOL    HW116355   1.976   5.146   7.001
 5152SOL    HW216356   2.059   5.179   0.110
 5153SOL     OW16357   2.255   0.278   0.057
 5153SOL    HW116358   2.195   0.348   0.018
 5153SOL    HW216359   2.231   0.264   0.153
 5154SOL     OW16360   1.076   3.325   6.185
 5154SOL    HW116361   1.065   3.408   6.240
 5154SOL    HW216362   1.018   3.252   6.222
 5155SOL     OW16363   4.315   6.779   2.279
 5155SOL    HW116364   4.353   6.822   2.197
 5155SOL    HW216365   4.330   6.840   2.357
 5156SOL     OW16366   6.580   3.065   5.979
 5156SOL    HW116367   6.525   2.981   5.979
 5156SOL    HW216368   6.520   3.144   5.979
 5157SOL     OW16369   4.307   2.081   3.704
 5157SOL    HW116370   4.321   2.103   3.801
 5157SOL    HW216371   4.300   1.982   3.693
 5158SOL     OW16372   3.525   0.997   1.804
 5158SOL    HW116373   3.538   0.942   1.886
 5158SOL    HW216374   3.603   0.986   1.744
 5159SOL     OW16375   6.650   3.373   3.884
 5159SOL    HW116376   6.573   3.325   3.843
 5159SOL    HW216377   6.616   3.438   3.952
 5160SOL     OW16378   7.027   4.379   3.507
 5160SOL    HW116379   0.016   4.284   3.537
 5160SOL    HW216380   6.946   4.382   3.449
 5161SOL     OW16381   1.489   3.811   5.029
 5161SOL    HW116382   1.482   3.791   5.126
 5161SOL    HW216383   1.508   3.908   5.016
 5162SOL     OW16384   1.271   5.608   3.461
 5162SOL    HW116385   1.296   5.657   3.377
 5162SOL    HW216386   1.341   5.539   3.480
 5163SOL     OW16387   3.598   5.776   0.656
 5163SOL    HW116388   3.556   5.727   0.580
 5163SOL    HW216389   3.536   5.849   0.687
 5164SOL     OW16390   4.148   2.587   6.706
 5164SOL    HW116391   4.120   2.655   6.638
 5164SOL    HW216392   4.116   2.497   6.677
 5165SOL     OW16393   5.997   4.670   5.656
 5165SOL    HW116394   5.975   4.572   5.663
 5165SOL    HW216395   5.913   4.722   5.641
 5166SOL     OW16396   6.926   5.456   3.033
 5166SOL    HW116397   7.023   5.460   3.009
 5166SOL    HW216398   6.887   5.548   3.032
 5167SOL     OW16399   6.703   5.790   5.879
 5167SOL    HW116400   6.644   5.736   5.940
 5167SOL    HW216401   6.783   5.821   5.930
 5168SOL     OW16402   4.817   3.812   2.947
 5168SOL    HW116403   4.892   3.876   2.928
 5168SOL    HW216404   4.840   3.722   2.912
 5169SOL     OW16405   4.400   1.640   5.122
 5169SOL    HW116406   4.361   1.689   5.200
 5169SOL    HW216407   4.467   1.573   5.154
 5170SOL     OW16408   0.136   4.287   5.254
 5170SOL    HW116409   0.091   4.288   5.343
 5170SOL    HW216410   0.166   4.194   5.233
 5171SOL     OW16411   1.540   5.673   3.885
 5171SOL    HW116412   1.545   5.761   3.839
 5171SOL    HW216413   1.612   5.613   3.849
 5172SOL     OW16414   0.032   2.383   2.659
 5172SOL    HW116415   7.015   2.452   2.602
 5172SOL    HW216416   0.131   2.388   2.647
 5173SOL     OW16417   5.907   5.030   6.124
 5173SOL    HW116418   5.821   5.026   6.175
 5173SOL    HW216419   5.981   4.994   6.181
 5174SOL     OW16420   2.739   4.651   3.017
 5174SOL    HW116421   2.794   4.603   3.085
 5174SOL    HW216422   2.653   4.603   3.002
 5175SOL     OW16423   2.319   3.707   6.569
 5175SOL    HW116424   2.419   3.710   6.564
 5175SOL    HW216425   2.290   3.716   6.665
 5176SOL     OW16426   4.483   3.089   6.534
 5176SOL    HW116427   4.550   3.018   6.557
 5176SOL    HW216428   4.460   3.140   6.617
 5177SOL     OW16429   4.934   0.308   6.771
 5177SOL    HW116430   4.966   0.400   6.790
 5177SOL    HW216431   4.915   0.261   6.857
 5178SOL     OW16432   1.088   3.608   1.474
 5178SOL    HW116433   1.063   3.644   1.384
 5178SOL    HW216434   1.187   3.597   1.478
 5179SOL     OW16435   3.960   6.173   4.791
 5179SOL    HW116436   4.051   6.133   4.781
 5179SOL    HW216437   3.927   6.203   4.701
 5180SOL     OW16438   3.339   2.747   0.316
 5180SOL    HW116439   3.353   2.661   0.366
 5180SOL    HW216440   3.254   2.742   0.263
 5181SOL     OW16441   5.101   2.167   2.422
 5181SOL    HW116442   5.020   2.190   2.369
 5181SOL    HW216443   5.182   2.202   2.375
 5182SOL     OW16444   3.751   4.641   1.688
 5182SOL    HW116445   3.690   4.684   1.754
 5182SOL    HW216446   3.758   4.698   1.606
 5183SOL     OW16447   4.158   1.514   2.333
 5183SOL    HW116448   4.090   1.580   2.363
 5183SOL    HW216449   4.188   1.536   2.240
 5184SOL     OW16450   0.669   2.496   4.229
 5184SOL    HW116451   0.743   2.537   4.282
 5184SOL    HW216452   0.583   2.545   4.247
 5185SOL     OW16453   5.250   0.866   2.409
 5185SOL    HW116454   5.196   0.792   2.369
 5185SOL    HW216455   5.219   0.883   2.503
 5186SOL     OW16456   6.075   3.052   1.030
 5186SOL    HW116457   6.165   3.010   1.042
 5186SOL    HW216458   6.051   3.103   1.113
 5187SOL     OW16459   0.511   0.459   3.984
 5187SOL    HW116460   0.482   0.385   4.046
 5187SOL    HW216461   0.492   0.547   4.026
 5188SOL     OW16462   0.377   5.416   0.482
 5188SOL    HW116463   0.456   5.473   0.503
 5188SOL    HW216464   0.384   5.330   0.532
 5189SOL     OW16465   5.151   4.948   1.047
 5189SOL    HW116466   5.165   5.001   1.131
 5189SOL    HW216467   5.212   4.869   1.047
 5190SOL     OW16468   0.118   3.227   4.120
 5190SOL    HW116469   0.188   3.284   4.163
 5190SOL    HW216470   0.049   3.285   4.077
 5191SOL     OW16471   3.948   0.414   1.778
 5191SOL    HW116472   4.006   0.349   1.827
 5191SOL    HW216473   3.855   0.410   1.814
 5192SOL     OW16474   2.920   5.572   3.101
 5192SOL    HW116475   2.836   5.536   3.061
 5192SOL    HW216476   2.963   5.636   3.038
 5193SOL     OW16477   5.510   4.316   4.857
 5193SOL    HW116478   5.446   4.376   4.809
 5193SOL    HW216479   5.508   4.336   4.954
 5194SOL     OW16480   3.808   0.809   0.317
 5194SOL    HW116481   3.877   0.869   0.278
 5194SOL    HW216482   3.781   0.741   0.248
 5195SOL     OW16483   6.786   6.024   3.896
 5195SOL    HW116484   6.767   6.119   3.920
 5195SOL    HW216485   6.846   6.022   3.816
 5196SOL     OW16486   1.432   3.919   0.812
 5196SOL    HW116487   1.380   3.919   0.726
 5196SOL    HW216488   1.526   3.948   0.794
 5197SOL     OW16489   1.924   5.755   4.802
 5197SOL    HW116490   2.015   5.754   4.843
 5197SOL    HW216491   1.871   5.678   4.837
 5198SOL     OW16492   4.246   6.719   3.540
 5198SOL    HW116493   4.252   6.677   3.631
 5198SOL    HW216494   4.216   6.651   3.474
 5199SOL     OW16495   1.329   6.318   6.913
 5199SOL    HW116496   1.365   6.251   6.848
 5199SOL    HW216497   1.295   6.398   6.864
 5200SOL     OW16498   1.358   2.057   5.305
 5200SOL    HW116499   1.365   2.153   5.332
 5200SOL    HW216500   1.262   2.032   5.292
 5201SOL     OW16501   6.343   6.204   4.003
 5201SOL    HW116502   6.426   6.177   3.954
 5201SOL    HW216503   6.267   6.212   3.938
 5202SOL     OW16504   5.739   4.548   5.944
 5202SOL    HW116505   5.771   4.639   5.970
 5202SOL    HW216506   5.658   4.555   5.886
 5203SOL     OW16507   2.051   0.452   6.973
 5203SOL    HW116508   2.028   0.439   6.877
 5203SOL    HW216509   2.008   0.537   7.006
 5204SOL     OW16510   4.023   6.291   7.010
 5204SOL    HW116511   3.990   6.334   0.066
 5204SOL    HW216512   4.069   6.205   0.005
 5205SOL     OW16513   6.864   6.048   0.259
 5205SOL    HW116514   6.955   6.087   0.245
 5205SOL    HW216515   6.804   6.077   0.184
 5206SOL     OW16516   0.115   5.032   6.330
 5206SOL    HW116517   0.053   5.050   6.253
 5206SOL    HW216518   0.159   5.118   6.357
 5207SOL     OW16519   1.243   6.926   3.834
 5207SOL    HW116520   1.249   6.826   3.824
 5207SOL    HW216521   1.326   6.959   3.879
 5208SOL     OW16522   4.119   2.306   6.702
 5208SOL    HW116523   4.023   2.283   6.717
 5208SOL    HW216524   4.175   2.264   6.774
 5209SOL     OW16525   5.780   0.561   1.336
 5209SOL    HW116526   5.702   0.621   1.355
 5209SOL    HW216527   5.823   0.534   1.422
 5210SOL     OW16528   4.616   3.221   0.695
 5210SOL    HW116529   4.703   3.205   0.742
 5210SOL    HW216530   4.578   3.308   0.725
 5211SOL     OW16531   4.351   2.105   5.096
 5211SOL    HW116532   4.343   2.006   5.100
 5211SOL    HW216533   4.281   2.142   5.034
 5212SOL     OW16534   1.477   3.263   1.138
 5212SOL    HW116535   1.574   3.272   1.161
 5212SOL    HW216536   1.465   3.188   1.073
 5213SOL     OW16537   4.332   3.592   0.920
 5213SOL    HW116538   4.259   3.591   0.988
 5213SOL    HW216539   4.361   3.687   0.904
 5214SOL     OW16540   5.539   2.788   6.035
 5214SOL    HW116541   5.544   2.884   6.060
 5214SOL    HW216542   5.478   2.777   5.957
 5215SOL     OW16543   0.827   4.821   4.140
 5215SOL    HW116544   0.756   4.878   4.100
 5215SOL    HW216545   0.848   4.745   4.078
 5216SOL     OW16546   4.749   5.234   1.311
 5216SOL    HW116547   4.737   5.159   1.246
 5216SOL    HW216548   4.741   5.198   1.404
 5217SOL     OW16549   3.544   5.909   4.391
 5217SOL    HW116550   3.563   5.985   4.329
 5217SOL    HW216551   3.481   5.939   4.463
 5218SOL     OW16552   0.692   1.366   1.223
 5218SOL    HW116553   0.678   1.284   1.167
 5218SOL    HW216554   0.780   1.406   1.201
 5219SOL     OW16555   3.532   1.801   4.760
 5219SOL    HW116556   3.444   1.849   4.767
 5219SOL    HW216557   3.548   1.775   4.665
 5220SOL     OW16558   1.479   5.500   3.308
 5220SOL    HW116559   1.571   5.526   3.281
 5220SOL    HW216560   1.426   5.474   3.227
 5221SOL     OW16561   6.320   1.052   2.985
 5221SOL    HW116562   6.266   1.039   3.068
 5221SOL    HW216563   6.410   1.010   2.996
 5222SOL     OW16564   3.888   6.791   1.945
 5222SOL    HW116565   3.874   6.703   1.991
 5222SOL    HW216566   3.917   6.859   2.013
 5223SOL     OW16567   6.961   2.577   7.014
 5223SOL    HW116568   7.007   2.593   0.073
 5223SOL    HW216569   6.862   2.568   0.002
 5224SOL     OW16570   6.399   2.908   4.494
 5224SOL    HW116571   6.415   2.981   4.560
 5224SOL    HW216572   6.437   2.936   4.405
 5225SOL     OW16573   6.653   1.355   3.757
 5225SOL    HW116574   6.700   1.353   3.669
 5225SOL    HW216575   6.680   1.275   3.811
 5226SOL     OW16576   0.304   6.832   4.235
 5226SOL    HW116577   0.330   6.902   4.301
 5226SOL    HW216578   0.366   6.753   4.243
 5227SOL     OW16579   0.378   4.215   6.128
 5227SOL    HW116580   0.474   4.192   6.113
 5227SOL    HW216581   0.350   4.286   6.063
 5228SOL     OW16582   0.812   2.011   0.094
 5228SOL    HW116583   0.717   1.987   0.115
 5228SOL    HW216584   0.816   2.052   0.003
 5229SOL     OW16585   3.302   6.514   0.257
 5229SOL    HW116586   3.233   6.523   0.329
 5229SOL    HW216587   3.258   6.486   0.172
 5230SOL     OW16588   6.555   5.979   1.994
 5230SOL    HW116589   6.459   6.009   1.991
 5230SOL    HW216590   6.562   5.887   1.955
 5231SOL     OW16591   4.524   2.575   3.643
 5231SOL    HW116592   4.548   2.672   3.631
 5231SOL    HW216593   4.576   2.520   3.578
 5232SOL     OW16594   1.066   3.789   5.900
 5232SOL    HW116595   1.053   3.729   5.979
 5232SOL    HW216596   1.070   3.735   5.817
 5233SOL     OW16597   3.430   1.052   2.555
 5233SOL    HW116598   3.457   1.135   2.605
 5233SOL    HW216599   3.510   1.010   2.514
 5234SOL     OW16600   2.559   2.355   6.163
 5234SOL    HW116601   2.642   2.411   6.165
 5234SOL    HW216602   2.500   2.386   6.089
 5235SOL     OW16603   1.661   2.059   0.874
 5235SOL    HW116604   1.663   2.051   0.774
 5235SOL    HW216605   1.571   2.092   0.903
 5236SOL     OW16606   3.663   5.753   1.972
 5236SOL    HW116607   3.656   5.825   1.904
 5236SOL    HW216608   3.700   5.670   1.929
 5237SOL     OW16609   1.234   0.600   4.847
 5237SOL    HW116610   1.139   0.623   4.829
 5237SOL    HW216611   1.291   0.682   4.834
 5238SOL     OW16612   0.459   5.156   0.098
 5238SOL    HW116613   0.501   5.236   0.056
 5238SOL    HW216614   0.381   5.185   0.154
 5239SOL     OW16615   3.716   2.571   6.722
 5239SOL    HW116616   3.666   2.621   6.650
 5239SOL    HW216617   3.663   2.573   6.807
 5240SOL     OW16618   3.401   2.207   5.275
 5240SOL    HW116619   3.365   2.139   5.338
 5240SOL    HW216620   3.327   2.269   5.247
 5241SOL     OW16621   0.328   6.045   3.724
 5241SOL    HW116622   0.312   6.134   3.766
 5241SOL    HW216623   0.298   5.973   3.785
 5242SOL     OW16624   6.029   6.630   1.282
 5242SOL    HW116625   5.984   6.626   1.193
 5242SOL    HW216626   6.089   6.710   1.285
 5243SOL     OW16627   1.921   5.480   1.916
 5243SOL    HW116628   1.912   5.575   1.884
 5243SOL    HW216629   1.841   5.428   1.888
 5244SOL     OW16630   3.619   4.138   6.805
 5244SOL    HW116631   3.591   4.157   6.899
 5244SOL    HW216632   3.552   4.079   6.761
 5245SOL     OW16633   3.934   4.263   0.468
 5245SOL    HW116634   3.903   4.192   0.532
 5245SOL    HW216635   4.030   4.285   0.486
 5246SOL     OW16636   6.465   2.825   1.763
 5246SOL    HW116637   6.385   2.784   1.720
 5246SOL    HW216638   6.544   2.813   1.703
 5247SOL     OW16639   2.819   0.505   6.489
 5247SOL    HW116640   2.731   0.466   6.519
 5247SOL    HW216641   2.887   0.432   6.483
 5248SOL     OW16642   6.431   1.940   3.054
 5248SOL    HW116643   6.449   1.902   3.145
 5248SOL    HW216644   6.485   2.023   3.041
 5249SOL     OW16645   0.872   5.533   6.411
 5249SOL    HW116646   0.951   5.480   6.380
 5249SOL    HW216647   0.791   5.505   6.361
 5250SOL     OW16648   1.393   5.930   0.207
 5250SOL    HW116649   1.416   5.974   0.121
 5250SOL    HW216650   1.299   5.896   0.203
 5251SOL     OW16651   0.894   3.075   7.006
 5251SOL    HW116652   0.893   3.160   0.030
 5251SOL    HW216653   0.822   3.014   0.012
 5252SOL     OW16654   2.979   6.651   0.829
 5252SOL    HW116655   2.953   6.747   0.845
 5252SOL    HW216656   2.947   6.623   0.739
 5253SOL     OW16657   0.074   3.955   4.959
 5253SOL    HW116658   0.017   3.873   4.967
 5253SOL    HW216659   0.026   4.023   4.904
 5254SOL     OW16660   4.846   0.695   3.068
 5254SOL    HW116661   4.803   0.785   3.068
 5254SOL    HW216662   4.908   0.687   3.146
 5255SOL     OW16663   5.354   2.265   5.146
 5255SOL    HW116664   5.300   2.188   5.112
 5255SOL    HW216665   5.340   2.274   5.245
 5256SOL     OW16666   5.479   1.685   4.003
 5256SOL    HW116667   5.467   1.637   3.916
 5256SOL    HW216668   5.559   1.745   3.997
 5257SOL     OW16669   5.295   0.232   1.345
 5257SOL    HW116670   5.213   0.257   1.293
 5257SOL    HW216671   5.352   0.171   1.290
 5258SOL     OW16672   5.879   3.344   2.102
 5258SOL    HW116673   5.925   3.261   2.070
 5258SOL    HW216674   5.944   3.404   2.147
 5259SOL     OW16675   4.707   5.889   2.533
 5259SOL    HW116676   4.655   5.965   2.571
 5259SOL    HW216677   4.710   5.897   2.433
 5260SOL     OW16678   4.840   3.279   0.820
 5260SOL    HW116679   4.940   3.285   0.819
 5260SOL    HW216680   4.808   3.284   0.915
 5261SOL     OW16681   6.724   4.146   5.770
 5261SOL    HW116682   6.704   4.158   5.867
 5261SOL    HW216683   6.816   4.109   5.759
 5262SOL     OW16684   2.377   1.575   3.562
 5262SOL    HW116685   2.400   1.505   3.628
 5262SOL    HW216686   2.360   1.662   3.609
 5263SOL     OW16687   1.771   1.250   3.039
 5263SOL    HW116688   1.819   1.171   3.075
 5263SOL    HW216689   1.771   1.323   3.108
 5264SOL     OW16690   6.587   1.948   2.339
 5264SOL    HW116691   6.671   2.002   2.338
 5264SOL    HW216692   6.595   1.873   2.405
 5265SOL     OW16693   6.298   3.897   3.897
 5265SOL    HW116694   6.364   3.972   3.896
 5265SOL    HW216695   6.318   3.834   3.821
 5266SOL     OW16696   3.599   5.073   6.772
 5266SOL    HW116697   3.560   4.990   6.730
 5266SOL    HW216698   3.670   5.048   6.837
 5267SOL     OW16699   5.192   2.028   5.076
 5267SOL    HW116700   5.096   2.048   5.096
 5267SOL    HW216701   5.222   1.950   5.131
 5268SOL     OW16702   5.654   1.004   0.201
 5268SOL    HW116703   5.686   0.933   0.138
 5268SOL    HW216704   5.733   1.042   0.250
 5269SOL     OW16705   1.008   6.464   2.506
 5269SOL    HW116706   1.008   6.535   2.436
 5269SOL    HW216707   0.945   6.391   2.479
 5270SOL     OW16708   5.498   0.876   1.836
 5270SOL    HW116709   5.432   0.896   1.908
 5270SOL    HW216710   5.450   0.840   1.756
 5271SOL     OW16711   6.196   5.257   5.562
 5271SOL    HW116712   6.169   5.353   5.565
 5271SOL    HW216713   6.121   5.201   5.528
 5272SOL     OW16714   3.411   6.499   1.488
 5272SOL    HW116715   3.418   6.446   1.572
 5272SOL    HW216716   3.322   6.545   1.484
 5273SOL     OW16717   0.659   3.052   3.502
 5273SOL    HW116718   0.736   3.057   3.438
 5273SOL    HW216719   0.600   2.975   3.477
 5274SOL     OW16720   6.017   0.383   2.992
 5274SOL    HW116721   6.058   0.382   2.901
 5274SOL    HW216722   5.929   0.429   2.988
 5275SOL     OW16723   3.676   2.078   0.776
 5275SOL    HW116724   3.620   2.091   0.693
 5275SOL    HW216725   3.621   2.099   0.856
 5276SOL     OW16726   1.841   0.253   0.468
 5276SOL    HW116727   1.800   0.267   0.558
 5276SOL    HW216728   1.851   0.342   0.422
 5277SOL     OW16729   2.220   1.177   1.962
 5277SOL    HW116730   2.270   1.120   1.897
 5277SOL    HW216731   2.243   1.273   1.946
 5278SOL     OW16732   5.750   6.340   3.323
 5278SOL    HW116733   5.786   6.429   3.293
 5278SOL    HW216734   5.650   6.341   3.315
 5279SOL     OW16735   2.430   5.246   6.823
 5279SOL    HW116736   2.417   5.322   6.759
 5279SOL    HW216737   2.511   5.194   6.798
 5280SOL     OW16738   3.288   5.688   4.969
 5280SOL    HW116739   3.255   5.613   5.026
 5280SOL    HW216740   3.377   5.665   4.931
 5281SOL     OW16741   6.921   1.751   2.337
 5281SOL    HW116742   6.900   1.672   2.394
 5281SOL    HW216743   6.915   1.834   2.393
 5282SOL     OW16744   3.554   1.764   3.457
 5282SOL    HW116745   3.619   1.813   3.399
 5282SOL    HW216746   3.472   1.820   3.471
 5283SOL     OW16747   4.251   6.262   1.815
 5283SOL    HW116748   4.173   6.243   1.756
 5283SOL    HW216749   4.249   6.200   1.893
 5284SOL     OW16750   4.730   4.378   3.145
 5284SOL    HW116751   4.758   4.329   3.062
 5284SOL    HW216752   4.729   4.476   3.127
 5285SOL     OW16753   2.416   4.395   4.400
 5285SOL    HW116754   2.391   4.411   4.496
 5285SOL    HW216755   2.355   4.325   4.362
 5286SOL     OW16756   2.006   4.384   0.526
 5286SOL    HW116757   1.997   4.432   0.439
 5286SOL    HW216758   1.968   4.292   0.518
 5287SOL     OW16759   3.221   0.588   6.970
 5287SOL    HW116760   3.204   0.675   6.922
 5287SOL    HW216761   3.166   0.516   6.928
 5288SOL     OW16762   2.800   0.131   1.442
 5288SOL    HW116763   2.740   0.111   1.519
 5288SOL    HW216764   2.861   0.207   1.466
 5289SOL     OW16765   2.205   5.244   6.412
 5289SOL    HW116766   2.298   5.239   6.375
 5289SOL    HW216767   2.165   5.152   6.415
 5290SOL     OW16768   2.759   5.508   5.081
 5290SOL    HW116769   2.766   5.446   5.003
 5290SOL    HW216770   2.683   5.480   5.140
 5291SOL     OW16771   2.439   6.104   5.790
 5291SOL    HW116772   2.491   6.019   5.782
 5291SOL    HW216773   2.501   6.182   5.789
 5292SOL     OW16774   5.901   2.761   6.925
 5292SOL    HW116775   5.928   2.666   6.941
 5292SOL    HW216776   5.979   2.822   6.943
 5293SOL     OW16777   0.565   0.800   5.138
 5293SOL    HW116778   0.501   0.872   5.114
 5293SOL    HW216779   0.617   0.826   5.220
 5294SOL     OW16780   4.852   3.942   5.980
 5294SOL    HW116781   4.863   3.853   5.935
 5294SOL    HW216782   4.814   3.928   6.071
 5295SOL     OW16783   6.632   1.400   2.753
 5295SOL    HW116784   6.725   1.365   2.741
 5295SOL    HW216785   6.568   1.324   2.766
 5296SOL     OW16786   2.044   5.494   6.419
 5296SOL    HW116787   2.060   5.404   6.379
 5296SOL    HW216788   1.953   5.496   6.461
 5297SOL     OW16789   1.824   2.005   1.296
 5297SOL    HW116790   1.815   2.036   1.390
 5297SOL    HW216791   1.789   2.075   1.234
 5298SOL     OW16792   6.924   6.184   2.064
 5298SOL    HW116793   6.834   6.206   2.101
 5298SOL    HW216794   6.962   6.105   2.113
 5299SOL     OW16795   2.760   1.954   0.384
 5299SOL    HW116796   2.725   1.915   0.469
 5299SOL    HW216797   2.715   2.042   0.366
 5300SOL     OW16798   7.025   5.383   2.684
 5300SOL    HW116799   7.011   5.284   2.698
 5300SOL    HW216800   0.035   5.423   2.768
 5301SOL     OW16801   4.347   1.434   0.343
 5301SOL    HW116802   4.413   1.476   0.405
 5301SOL    HW216803   4.379   1.444   0.249
 5302SOL     OW16804   5.909   5.515   3.437
 5302SOL    HW116805   5.932   5.455   3.513
 5302SOL    HW216806   5.853   5.465   3.371
 5303SOL     OW16807   6.826   6.963   3.806
 5303SOL    HW116808   6.908   6.908   3.788
 5303SOL    HW216809   6.809   6.966   3.904
 5304SOL     OW16810   6.378   2.559   6.133
 5304SOL    HW116811   6.471   2.575   6.165
 5304SOL    HW216812   6.313   2.599   6.198
 5305SOL     OW16813   1.581   0.601   3.851
 5305SOL    HW116814   1.642   0.650   3.913
 5305SOL    HW216815   1.633   0.527   3.806
 5306SOL     OW16816   2.037   6.828   5.306
 5306SOL    HW116817   2.127   6.790   5.328
 5306SOL    HW216818   2.014   6.806   5.211
 5307SOL     OW16819   4.222   6.240   6.660
 5307SOL    HW116820   4.227   6.244   6.560
 5307SOL    HW216821   4.185   6.327   6.695
 5308SOL     OW16822   0.579   0.145   4.271
 5308SOL    HW116823   0.591   0.059   4.220
 5308SOL    HW216824   0.668   0.190   4.281
 5309SOL     OW16825   3.892   3.932   3.153
 5309SOL    HW116826   3.911   3.947   3.249
 5309SOL    HW216827   3.793   3.936   3.137
 5310SOL     OW16828   5.106   2.614   2.127
 5310SOL    HW116829   5.204   2.609   2.147
 5310SOL    HW216830   5.073   2.707   2.146
 5311SOL     OW16831   0.469   6.026   0.294
 5311SOL    HW116832   0.384   6.058   0.337
 5311SOL    HW216833   0.493   6.087   0.219
 5312SOL     OW16834   6.984   4.836   2.312
 5312SOL    HW116835   0.045   4.878   2.291
 5312SOL    HW216836   6.973   4.754   2.256
 5313SOL     OW16837   0.792   5.132   0.021
 5313SOL    HW116838   0.799   5.133   0.121
 5313SOL    HW216839   0.882   5.151   7.009
 5314SOL     OW16840   4.915   5.071   0.893
 5314SOL    HW116841   4.946   5.113   0.808
 5314SOL    HW216842   4.994   5.035   0.942
 5315SOL     OW16843   4.554   4.472   1.752
 5315SOL    HW116844   4.533   4.417   1.671
 5315SOL    HW216845   4.524   4.422   1.834
 5316SOL     OW16846   0.051   5.289   4.326
 5316SOL    HW116847   0.026   5.204   4.280
 5316SOL    HW216848   0.114   5.341   4.267
 5317SOL     OW16849   5.929   1.162   4.445
 5317SOL    HW116850   5.935   1.092   4.373
 5317SOL    HW216851   5.856   1.138   4.508
 5318SOL     OW16852   6.761   1.982   4.935
 5318SOL    HW116853   6.708   2.058   4.899
 5318SOL    HW216854   6.700   1.906   4.958
 5319SOL     OW16855   4.658   6.539   6.757
 5319SOL    HW116856   4.642   6.624   6.705
 5319SOL    HW216857   4.718   6.558   6.834
 5320SOL     OW16858   5.861   5.165   7.003
 5320SOL    HW116859   5.957   5.143   6.985
 5320SOL    HW216860   5.803   5.107   6.946
 5321SOL     OW16861   0.702   4.819   3.143
 5321SOL    HW116862   0.732   4.775   3.059
 5321SOL    HW216863   0.634   4.889   3.123
 5322SOL     OW16864   3.811   6.726   6.424
 5322SOL    HW116865   3.824   6.725   6.523
 5322SOL    HW216866   3.900   6.731   6.379
 5323SOL     OW16867   4.634   2.886   0.858
 5323SOL    HW116868   4.560   2.953   0.847
 5323SOL    HW216869   4.717   2.922   0.817
 5324SOL     OW16870   3.770   2.484   1.750
 5324SOL    HW116871   3.863   2.475   1.714
 5324SOL    HW216872   3.741   2.396   1.789
 5325SOL     OW16873   5.651   0.275   3.311
 5325SOL    HW116874   5.609   0.313   3.393
 5325SOL    HW216875   5.609   0.187   3.288
 5326SOL     OW16876   5.935   5.019   2.496
 5326SOL    HW116877   6.009   4.962   2.460
 5326SOL    HW216878   5.960   5.050   2.588
 5327SOL     OW16879   0.434   6.253   5.672
 5327SOL    HW116880   0.344   6.276   5.635
 5327SOL    HW216881   0.423   6.192   5.751
 5328SOL     OW16882   3.631   2.221   5.675
 5328SOL    HW116883   3.701   2.252   5.739
 5328SOL    HW216884   3.544   2.210   5.725
 5329SOL     OW16885   0.025   3.794   0.483
 5329SOL    HW116886   6.974   3.778   0.542
 5329SOL    HW216887   7.022   3.826   0.394
 5330SOL     OW16888   3.377   4.067   6.662
 5330SOL    HW116889   3.375   4.164   6.684
 5330SOL    HW216890   3.309   4.019   6.716
 5331SOL     OW16891   4.870   2.037   1.133
 5331SOL    HW116892   4.933   2.085   1.194
 5331SOL    HW216893   4.921   1.970   1.079
 5332SOL     OW16894   6.429   4.377   0.271
 5332SOL    HW116895   6.337   4.338   0.276
 5332SOL    HW216896   6.437   4.431   0.187
 5333SOL     OW16897   1.727   0.984   3.496
 5333SOL    HW116898   1.822   0.996   3.467
 5333SOL    HW216899   1.704   0.886   3.493
 5334SOL     OW16900   4.711   5.161   4.761
 5334SOL    HW116901   4.763   5.150   4.846
 5334SOL    HW216902   4.739   5.246   4.715
 5335SOL     OW16903   6.958   4.199   2.052
 5335SOL    HW116904   0.007   4.260   2.033
 5335SOL    HW216905   6.872   4.246   2.033
 5336SOL     OW16906   2.034   1.965   3.641
 5336SOL    HW116907   1.989   2.023   3.573
 5336SOL    HW216908   2.080   1.889   3.595
 5337SOL     OW16909   5.698   4.754   1.942
 5337SOL    HW116910   5.653   4.815   1.876
 5337SOL    HW216911   5.714   4.803   2.027
 5338SOL     OW16912   5.758   2.498   0.137
 5338SOL    HW116913   5.792   2.589   0.158
 5338SOL    HW216914   5.804   2.431   0.195
 5339SOL     OW16915   5.590   1.977   1.717
 5339SOL    HW116916   5.631   1.919   1.787
 5339SOL    HW216917   5.520   2.036   1.758
 5340SOL     OW16918   5.459   3.762   1.580
 5340SOL    HW116919   5.544   3.808   1.602
 5340SOL    HW216920   5.398   3.763   1.659
 5341SOL     OW16921   4.322   4.773   4.514
 5341SOL    HW116922   4.352   4.771   4.610
 5341SOL    HW216923   4.315   4.868   4.484
 5342SOL     OW16924   4.809   6.567   5.089
 5342SOL    HW116925   4.825   6.588   4.992
 5342SOL    HW216926   4.796   6.652   5.140
 5343SOL     OW16927   3.620   3.433   4.801
 5343SOL    HW116928   3.646   3.381   4.720
 5343SOL    HW216929   3.699   3.446   4.860
 5344SOL     OW16930   0.288   1.591   6.582
 5344SOL    HW116931   0.245   1.507   6.550
 5344SOL    HW216932   0.383   1.571   6.606
 5345SOL     OW16933   4.920   1.031   0.006
 5345SOL    HW116934   4.850   1.018   0.076
 5345SOL    HW216935   4.894   1.106   6.973
 5346SOL     OW16936   2.937   5.092   4.037
 5346SOL    HW116937   2.909   5.012   4.090
 5346SOL    HW216938   2.856   5.137   3.998
 5347SOL     OW16939   6.923   3.153   3.577
 5347SOL    HW116940   6.964   3.239   3.606
 5347SOL    HW216941   6.971   3.119   3.496
 5348SOL     OW16942   0.192   1.119   5.095
 5348SOL    HW116943   0.136   1.038   5.115
 5348SOL    HW216944   0.289   1.097   5.105
 5349SOL     OW16945   2.267   2.921   1.812
 5349SOL    HW116946   2.282   2.906   1.715
 5349SOL    HW216947   2.238   3.015   1.827
 5350SOL     OW16948   2.084   6.657   5.746
 5350SOL    HW116949   2.028   6.722   5.695
 5350SOL    HW216950   2.058   6.659   5.842
 5351SOL     OW16951   0.346   4.421   1.901
 5351SOL    HW116952   0.418   4.490   1.894
 5351SOL    HW216953   0.301   4.410   1.813
 5352SOL     OW16954   2.462   4.472   2.973
 5352SOL    HW116955   2.397   4.396   2.975
 5352SOL    HW216956   2.476   4.505   3.066
 5353SOL     OW16957   3.926   5.421   3.270
 5353SOL    HW116958   3.879   5.348   3.222
 5353SOL    HW216959   3.886   5.432   3.361
 5354SOL     OW16960   2.881   4.422   6.976
 5354SOL    HW116961   2.859   4.520   6.981
 5354SOL    HW216962   2.878   4.392   6.880
 5355SOL     OW16963   4.932   5.245   5.445
 5355SOL    HW116964   4.870   5.305   5.496
 5355SOL    HW216965   4.986   5.299   5.381
 5356SOL     OW16966   6.995   3.458   1.901
 5356SOL    HW116967   0.044   3.473   1.840
 5356SOL    HW216968   7.026   3.408   1.982
 5357SOL     OW16969   4.122   4.728   1.946
 5357SOL    HW116970   4.151   4.821   1.970
 5357SOL    HW216971   4.202   4.672   1.926
 5358SOL     OW16972   4.656   2.002   0.674
 5358SOL    HW116973   4.607   1.922   0.710
 5358SOL    HW216974   4.733   2.023   0.734
 5359SOL     OW16975   2.236   1.887   6.617
 5359SOL    HW116976   2.139   1.865   6.621
 5359SOL    HW216977   2.286   1.811   6.574
 5360SOL     OW16978   5.708   5.926   2.875
 5360SOL    HW116979   5.752   6.015   2.885
 5360SOL    HW216980   5.617   5.938   2.836
 5361SOL     OW16981   2.993   6.241   3.121
 5361SOL    HW116982   2.910   6.296   3.130
 5361SOL    HW216983   3.066   6.281   3.177
 5362SOL     OW16984   6.385   6.756   2.792
 5362SOL    HW116985   6.444   6.687   2.834
 5362SOL    HW216986   6.289   6.730   2.806
 5363SOL     OW16987   5.439   6.464   4.693
 5363SOL    HW116988   5.519   6.473   4.632
 5363SOL    HW216989   5.467   6.420   4.778
 5364SOL     OW16990   5.564   0.811   2.146
 5364SOL    HW116991   5.549   0.725   2.097
 5364SOL    HW216992   5.483   0.870   2.136
 5365SOL     OW16993   3.026   3.398   2.331
 5365SOL    HW116994   2.965   3.469   2.368
 5365SOL    HW216995   3.120   3.431   2.332
 5366SOL     OW16996   6.654   0.140   2.046
 5366SOL    HW116997   6.586   0.077   2.082
 5366SOL    HW216998   6.637   0.232   2.082
 5367SOL     OW16999   5.858   0.197   0.731
 5367SOL    HW117000   5.950   0.230   0.707
 5367SOL    HW217001   5.791   0.268   0.710
 5368SOL     OW17002   7.020   5.955   2.200
 5368SOL    HW117003   0.081   5.946   2.156
 5368SOL    HW217004   6.963   5.875   2.178
 5369SOL     OW17005   2.687   5.920   1.546
 5369SOL    HW117006   2.650   5.833   1.578
 5369SOL    HW217007   2.783   5.928   1.575
 5370SOL     OW17008   4.107   3.208   1.922
 5370SOL    HW117009   4.142   3.190   1.830
 5370SOL    HW217010   4.080   3.121   1.965
 5371SOL     OW17011   0.469   5.200   5.349
 5371SOL    HW117012   0.521   5.285   5.345
 5371SOL    HW217013   0.400   5.200   5.277
 5372SOL     OW17014   0.753   0.140   2.423
 5372SOL    HW117015   0.746   0.151   2.523
 5372SOL    HW217016   0.661   0.134   2.384
 5373SOL     OW17017   3.773   6.973   5.932
 5373SOL    HW117018   3.797   6.880   5.905
 5373SOL    HW217019   3.814   6.993   6.021
 5374SOL     OW17020   2.233   4.259   1.154
 5374SOL    HW117021   2.274   4.348   1.136
 5374SOL    HW217022   2.295   4.205   1.212
 5375SOL     OW17023   0.839   5.816   5.425
 5375SOL    HW117024   0.917   5.808   5.488
 5375SOL    HW217025   0.850   5.898   5.369
 5376SOL     OW17026   1.154   2.560   2.163
 5376SOL    HW117027   1.115   2.474   2.127
 5376SOL    HW217028   1.253   2.552   2.169
 5377SOL     OW17029   2.150   1.326   3.040
 5377SOL    HW117030   2.237   1.368   3.065
 5377SOL    HW217031   2.164   1.259   2.968
 5378SOL     OW17032   6.224   0.721   1.094
 5378SOL    HW117033   6.183   0.764   1.014
 5378SOL    HW217034   6.199   0.774   1.176
 5379SOL     OW17035   1.149   3.345   5.599
 5379SOL    HW117036   1.057   3.363   5.635
 5379SOL    HW217037   1.217   3.368   5.669
 5380SOL     OW17038   3.414   0.109   1.409
 5380SOL    HW117039   3.492   0.078   1.354
 5380SOL    HW217040   3.436   0.196   1.452
 5381SOL     OW17041   6.208   6.302   2.570
 5381SOL    HW117042   6.296   6.309   2.523
 5381SOL    HW217043   6.151   6.235   2.522
 5382SOL     OW17044   3.785   1.959   2.687
 5382SOL    HW117045   3.745   2.035   2.739
 5382SOL    HW217046   3.752   1.963   2.592
 5383SOL     OW17047   1.167   3.178   4.772
 5383SOL    HW117048   1.150   3.159   4.869
 5383SOL    HW217049   1.081   3.175   4.722
 5384SOL     OW17050   4.572   5.705   4.934
 5384SOL    HW117051   4.598   5.748   5.021
 5384SOL    HW217052   4.480   5.667   4.942
 5385SOL     OW17053   6.456   2.472   5.637
 5385SOL    HW117054   6.414   2.516   5.717
 5385SOL    HW217055   6.452   2.534   5.559
 5386SOL     OW17056   5.710   2.249   4.003
 5386SOL    HW117057   5.638   2.180   3.990
 5386SOL    HW217058   5.747   2.242   4.095
 5387SOL     OW17059   2.830   6.505   3.226
 5387SOL    HW117060   2.755   6.505   3.161
 5387SOL    HW217061   2.852   6.599   3.252
 5388SOL     OW17062   1.407   6.591   2.756
 5388SOL    HW117063   1.421   6.529   2.834
 5388SOL    HW217064   1.396   6.537   2.673
 5389SOL     OW17065   4.369   2.253   4.251
 5389SOL    HW117066   4.300   2.261   4.179
 5389SOL    HW217067   4.459   2.274   4.213
 5390SOL     OW17068   5.254   3.949   4.371
 5390SOL    HW117069   5.312   3.939   4.290
 5390SOL    HW217070   5.282   3.884   4.441
 5391SOL     OW17071   2.856   2.297   0.113
 5391SOL    HW117072   2.814   2.388   0.113
 5391SOL    HW217073   2.953   2.306   0.137
 5392SOL     OW17074   4.867   3.002   2.531
 5392SOL    HW117075   4.822   2.913   2.535
 5392SOL    HW217076   4.850   3.044   2.442
 5393SOL     OW17077   4.676   0.327   5.275
 5393SOL    HW117078   4.662   0.403   5.211
 5393SOL    HW217079   4.588   0.304   5.318
 5394SOL     OW17080   0.482   6.195   1.137
 5394SOL    HW117081   0.497   6.104   1.177
 5394SOL    HW217082   0.519   6.265   1.198
 5395SOL     OW17083   5.074   0.903   1.432
 5395SOL    HW117084   5.139   0.842   1.388
 5395SOL    HW217085   5.000   0.849   1.472
 5396SOL     OW17086   5.367   6.040   2.176
 5396SOL    HW117087   5.339   6.046   2.080
 5396SOL    HW217088   5.394   5.947   2.198
 5397SOL     OW17089   6.960   1.886   1.994
 5397SOL    HW117090   0.031   1.878   1.978
 5397SOL    HW217091   6.938   1.982   2.014
 5398SOL     OW17092   3.705   2.052   3.331
 5398SOL    HW117093   3.758   2.119   3.279
 5398SOL    HW217094   3.767   1.986   3.372
 5399SOL     OW17095   2.148   6.502   6.099
 5399SOL    HW117096   2.156   6.440   6.177
 5399SOL    HW217097   2.211   6.473   6.027
 5400SOL     OW17098   3.694   3.301   1.314
 5400SOL    HW117099   3.790   3.324   1.323
 5400SOL    HW217100   3.680   3.205   1.341
 5401SOL     OW17101   4.935   4.340   3.362
 5401SOL    HW117102   5.011   4.297   3.313
 5401SOL    HW217103   4.855   4.342   3.303
 5402SOL     OW17104   3.295   6.135   0.886
 5402SOL    HW117105   3.307   6.045   0.842
 5402SOL    HW217106   3.307   6.126   0.985
 5403SOL     OW17107   4.948   2.821   6.319
 5403SOL    HW117108   4.942   2.728   6.284
 5403SOL    HW217109   5.043   2.853   6.314
 5404SOL     OW17110   0.846   0.771   0.717
 5404SOL    HW117111   0.795   0.729   0.642
 5404SOL    HW217112   0.853   0.869   0.701
 5405SOL     OW17113   5.872   4.918   0.210
 5405SOL    HW117114   5.797   4.950   0.154
 5405SOL    HW217115   5.882   4.819   0.199
 5406SOL     OW17116   1.822   1.170   4.872
 5406SOL    HW117117   1.730   1.139   4.848
 5406SOL    HW217118   1.888   1.131   4.808
 5407SOL     OW17119   2.741   1.295   1.592
 5407SOL    HW117120   2.741   1.310   1.690
 5407SOL    HW217121   2.805   1.359   1.548
 5408SOL     OW17122   3.810   2.039   4.741
 5408SOL    HW117123   3.902   2.026   4.704
 5408SOL    HW217124   3.744   2.049   4.667
 5409SOL     OW17125   6.368   2.061   2.146
 5409SOL    HW117126   6.439   2.127   2.122
 5409SOL    HW217127   6.392   1.971   2.107
 5410SOL     OW17128   0.251   2.889   0.814
 5410SOL    HW117129   0.179   2.917   0.751
 5410SOL    HW217130   0.227   2.801   0.855
 5411SOL     OW17131   5.322   4.328   0.105
 5411SOL    HW117132   5.389   4.397   0.133
 5411SOL    HW217133   5.280   4.288   0.187
 5412SOL     OW17134   1.877   1.294   6.265
 5412SOL    HW117135   1.834   1.329   6.348
 5412SOL    HW217136   1.956   1.238   6.290
 5413SOL     OW17137   6.974   0.034   5.707
 5413SOL    HW117138   6.878   0.044   5.680
 5413SOL    HW217139   7.028   0.001   5.629
 5414SOL     OW17140   6.942   4.435   5.908
 5414SOL    HW117141   7.011   4.507   5.898
 5414SOL    HW217142   6.952   4.368   5.834
 5415SOL     OW17143   3.115   5.707   0.220
 5415SOL    HW117144   3.018   5.686   0.235
 5415SOL    HW217145   3.169   5.665   0.292
 5416SOL     OW17146   3.372   5.025   4.609
 5416SOL    HW117147   3.368   5.123   4.625
 5416SOL    HW217148   3.280   4.988   4.602
 5417SOL     OW17149   3.842   0.086   4.100
 5417SOL    HW117150   3.941   0.093   4.116
 5417SOL    HW217151   3.799   0.039   4.177
 5418SOL     OW17152   5.503   4.916   4.822
 5418SOL    HW117153   5.456   4.829   4.826
 5418SOL    HW217154   5.592   4.904   4.778
 5419SOL     OW17155   3.947   6.699   0.080
 5419SOL    HW117156   3.882   6.762   0.121
 5419SOL    HW217157   3.906   6.656   7.027
 5420SOL     OW17158   1.648   1.644   1.576
 5420SOL    HW117159   1.554   1.610   1.576
 5420SOL    HW217160   1.694   1.613   1.493
 5421SOL     OW17161   3.001   5.486   2.171
 5421SOL    HW117162   3.047   5.508   2.085
 5421SOL    HW217163   3.069   5.481   2.244
 5422SOL     OW17164   2.229   5.745   4.307
 5422SOL    HW117165   2.318   5.719   4.268
 5422SOL    HW217166   2.183   5.663   4.341
 5423SOL     OW17167   6.286   5.553   1.751
 5423SOL    HW117168   6.194   5.574   1.721
 5423SOL    HW217169   6.311   5.460   1.725
 5424SOL     OW17170   4.813   4.027   4.633
 5424SOL    HW117171   4.838   4.051   4.727
 5424SOL    HW217172   4.818   3.928   4.622
 5425SOL     OW17173   6.197   2.936   4.861
 5425SOL    HW117174   6.206   2.879   4.779
 5425SOL    HW217175   6.286   2.977   4.883
 5426SOL     OW17176   4.959   5.329   2.311
 5426SOL    HW117177   4.911   5.402   2.264
 5426SOL    HW217178   4.901   5.248   2.316
 5427SOL     OW17179   4.679   3.058   0.307
 5427SOL    HW117180   4.659   3.151   0.340
 5427SOL    HW217181   4.611   2.995   0.345
 5428SOL     OW17182   5.047   6.189   2.563
 5428SOL    HW117183   5.021   6.255   2.493
 5428SOL    HW217184   5.099   6.114   2.521
 5429SOL     OW17185   2.689   6.869   4.850
 5429SOL    HW117186   2.781   6.854   4.815
 5429SOL    HW217187   2.687   6.953   4.905
 5430SOL     OW17188   1.763   3.093   5.823
 5430SOL    HW117189   1.805   3.010   5.859
 5430SOL    HW217190   1.667   3.097   5.852
 5431SOL     OW17191   3.388   5.120   6.474
 5431SOL    HW117192   3.297   5.079   6.469
 5431SOL    HW217193   3.453   5.062   6.424
 5432SOL     OW17194   5.635   5.892   0.543
 5432SOL    HW117195   5.668   5.986   0.554
 5432SOL    HW217196   5.535   5.891   0.543
 5433SOL     OW17197   1.376   6.851   1.040
 5433SOL    HW117198   1.288   6.825   1.079
 5433SOL    HW217199   1.411   6.778   0.982
 5434SOL     OW17200   4.902   1.163   5.100
 5434SOL    HW117201   4.831   1.139   5.166
 5434SOL    HW217202   4.872   1.242   5.046
 5435SOL     OW17203   6.283   3.725   0.962
 5435SOL    HW117204   6.212   3.662   0.931
 5435SOL    HW217205   6.242   3.793   1.023
 5436SOL     OW17206   0.535   5.564   4.027
 5436SOL    HW117207   0.565   5.655   3.998
 5436SOL    HW217208   0.488   5.518   3.952
 5437SOL     OW17209   3.617   4.677   6.327
 5437SOL    HW117210   3.559   4.656   6.405
 5437SOL    HW217211   3.708   4.703   6.359
 5438SOL     OW17212   5.487   4.983   2.081
 5438SOL    HW117213   5.539   5.065   2.107
 5438SOL    HW217214   5.474   4.925   2.161
 5439SOL     OW17215   0.966   3.682   0.206
 5439SOL    HW117216   1.049   3.732   0.183
 5439SOL    HW217217   0.887   3.729   0.168
 5440SOL     OW17218   5.939   0.177   3.178
 5440SOL    HW117219   5.955   0.258   3.121
 5440SOL    HW217220   5.896   0.204   3.264
 5441SOL     OW17221   5.740   3.199   3.523
 5441SOL    HW117222   5.668   3.164   3.463
 5441SOL    HW217223   5.734   3.154   3.612
 5442SOL     OW17224   4.395   0.665   3.592
 5442SOL    HW117225   4.420   0.568   3.584
 5442SOL    HW217226   4.477   0.721   3.577
 5443SOL     OW17227   4.259   6.553   3.756
 5443SOL    HW117228   4.235   6.457   3.747
 5443SOL    HW217229   4.207   6.593   3.831
 5444SOL     OW17230   0.050   2.191   4.074
 5444SOL    HW117231   0.023   2.096   4.091
 5444SOL    HW217232   0.075   2.202   3.978
 5445SOL     OW17233   5.176   4.546   4.596
 5445SOL    HW117234   5.166   4.467   4.656
 5445SOL    HW217235   5.126   4.530   4.511
 5446SOL     OW17236   6.372   4.548   4.434
 5446SOL    HW117237   6.453   4.497   4.403
 5446SOL    HW217238   6.382   4.645   4.410
 5447SOL     OW17239   2.614   1.400   1.244
 5447SOL    HW117240   2.707   1.397   1.282
 5447SOL    HW217241   2.599   1.488   1.199
 5448SOL     OW17242   4.669   5.386   4.081
 5448SOL    HW117243   4.604   5.403   4.007
 5448SOL    HW217244   4.633   5.315   4.142
 5449SOL     OW17245   2.999   1.468   1.591
 5449SOL    HW117246   3.068   1.537   1.568
 5449SOL    HW217247   2.923   1.513   1.638
 5450SOL     OW17248   3.122   6.112   1.715
 5450SOL    HW117249   3.197   6.114   1.649
 5450SOL    HW217250   3.159   6.094   1.806
 5451SOL     OW17251   1.568   6.532   3.145
 5451SOL    HW117252   1.561   6.495   3.238
 5451SOL    HW217253   1.501   6.486   3.086
 5452SOL     OW17254   1.764   4.278   1.042
 5452SOL    HW117255   1.842   4.215   1.041
 5452SOL    HW217256   1.684   4.231   1.080
 5453SOL     OW17257   5.163   4.102   2.048
 5453SOL    HW117258   5.168   4.200   2.027
 5453SOL    HW217259   5.068   4.075   2.059
 5454SOL     OW17260   6.217   6.025   2.244
 5454SOL    HW117261   6.212   6.076   2.329
 5454SOL    HW217262   6.238   5.929   2.263
 5455SOL     OW17263   0.954   1.486   2.865
 5455SOL    HW117264   1.014   1.555   2.825
 5455SOL    HW217265   0.961   1.401   2.813
 5456SOL     OW17266   4.770   0.649   6.733
 5456SOL    HW117267   4.743   0.624   6.640
 5456SOL    HW217268   4.849   0.593   6.760
 5457SOL     OW17269   6.363   1.818   0.220
 5457SOL    HW117270   6.382   1.754   0.293
 5457SOL    HW217271   6.268   1.807   0.189
 5458SOL     OW17272   6.236   5.074   1.172
 5458SOL    HW117273   6.236   5.173   1.160
 5458SOL    HW217274   6.325   5.045   1.208
 5459SOL     OW17275   2.098   4.622   5.583
 5459SOL    HW117276   2.151   4.572   5.514
 5459SOL    HW217277   2.116   4.583   5.673
 5460SOL     OW17278   2.366   1.604   1.365
 5460SOL    HW117279   2.456   1.624   1.327
 5460SOL    HW217280   2.302   1.678   1.341
 5461SOL     OW17281   1.213   1.364   5.998
 5461SOL    HW117282   1.125   1.347   5.952
 5461SOL    HW217283   1.260   1.439   5.952
 5462SOL     OW17284   5.412   5.924   0.013
 5462SOL    HW117285   5.335   5.972   7.001
 5462SOL    HW217286   5.484   5.990   0.037
 5463SOL     OW17287   6.461   1.764   6.486
 5463SOL    HW117288   6.382   1.703   6.498
 5463SOL    HW217289   6.433   1.858   6.507
 5464SOL     OW17290   6.330   5.379   5.288
 5464SOL    HW117291   6.327   5.341   5.380
 5464SOL    HW217292   6.424   5.377   5.254
 5465SOL     OW17293   6.637   6.978   3.153
 5465SOL    HW117294   6.667   6.913   3.083
 5465SOL    HW217295   6.682   0.038   3.138
 5466SOL     OW17296   5.219   2.910   5.461
 5466SOL    HW117297   5.182   2.925   5.553
 5466SOL    HW217298   5.275   2.988   5.435
 5467SOL     OW17299   5.607   3.715   3.581
 5467SOL    HW117300   5.686   3.659   3.556
 5467SOL    HW217301   5.611   3.739   3.678
 5468SOL     OW17302   6.830   2.805   3.478
 5468SOL    HW117303   6.915   2.848   3.509
 5468SOL    HW217304   6.830   2.798   3.378
 5469SOL     OW17305   2.255   6.750   6.082
 5469SOL    HW117306   2.214   6.659   6.079
 5469SOL    HW217307   2.273   6.776   6.177
 5470SOL     OW17308   4.176   5.274   3.961
 5470SOL    HW117309   4.181   5.283   3.862
 5470SOL    HW217310   4.252   5.219   3.994
 5471SOL     OW17311   5.713   0.523   2.609
 5471SOL    HW117312   5.696   0.427   2.587
 5471SOL    HW217313   5.661   0.549   2.690
 5472SOL     OW17314   3.117   2.819   5.978
 5472SOL    HW117315   3.173   2.874   6.040
 5472SOL    HW217316   3.173   2.785   5.903
 5473SOL     OW17317   2.027   4.629   0.386
 5473SOL    HW117318   2.081   4.697   0.337
 5473SOL    HW217319   2.021   4.653   0.482
 5474SOL     OW17320   0.783   5.747   3.634
 5474SOL    HW117321   0.860   5.810   3.623
 5474SOL    HW217322   0.733   5.739   3.548
 5475SOL     OW17323   1.710   1.741   0.946
 5475SOL    HW117324   1.699   1.838   0.926
 5475SOL    HW217325   1.710   1.726   1.045
 5476SOL     OW17326   2.965   5.178   5.256
 5476SOL    HW117327   3.022   5.232   5.195
 5476SOL    HW217328   3.021   5.137   5.327
 5477SOL     OW17329   1.966   4.061   3.349
 5477SOL    HW117330   1.915   3.998   3.408
 5477SOL    HW217331   2.045   4.013   3.310
 5478SOL     OW17332   5.354   6.046   5.979
 5478SOL    HW117333   5.338   5.949   5.961
 5478SOL    HW217334   5.299   6.101   5.916
 5479SOL     OW17335   4.389   1.118   4.518
 5479SOL    HW117336   4.402   1.171   4.601
 5479SOL    HW217337   4.477   1.079   4.490
 5480SOL     OW17338   6.137   5.173   4.866
 5480SOL    HW117339   6.079   5.252   4.886
 5480SOL    HW217340   6.174   5.135   4.951
 5481SOL     OW17341   4.801   1.069   4.767
 5481SOL    HW117342   4.738   0.995   4.791
 5481SOL    HW217343   4.800   1.139   4.839
 5482SOL     OW17344   3.102   3.906   2.380
 5482SOL    HW117345   3.118   3.979   2.446
 5482SOL    HW217346   3.011   3.868   2.393
 5483SOL     OW17347   6.111   2.497   5.423
 5483SOL    HW117348   6.040   2.496   5.352
 5483SOL    HW217349   6.200   2.513   5.380
 5484SOL     OW17350   6.240   0.464   3.678
 5484SOL    HW117351   6.154   0.431   3.640
 5484SOL    HW217352   6.283   0.391   3.731
 5485SOL     OW17353   3.202   6.798   4.618
 5485SOL    HW117354   3.232   6.841   4.532
 5485SOL    HW217355   3.227   6.856   4.695
 5486SOL     OW17356   2.323   6.607   3.787
 5486SOL    HW117357   2.305   6.512   3.811
 5486SOL    HW217358   2.302   6.622   3.691
 5487SOL     OW17359   5.501   3.802   6.604
 5487SOL    HW117360   5.430   3.846   6.659
 5487SOL    HW217361   5.472   3.711   6.577
 5488SOL     OW17362   5.096   1.319   0.769
 5488SOL    HW117363   5.044   1.359   0.693
 5488SOL    HW217364   5.108   1.388   0.841
 5489SOL     OW17365   1.322   3.926   1.908
 5489SOL    HW117366   1.232   3.884   1.911
 5489SOL    HW217367   1.360   3.931   2.000
 5490SOL     OW17368   3.534   0.224   0.725
 5490SOL    HW117369   3.566   0.158   0.793
 5490SOL    HW217370   3.610   0.249   0.665
 5491SOL     OW17371   1.091   4.071   5.877
 5491SOL    HW117372   1.064   3.975   5.866
 5491SOL    HW217373   1.139   4.101   5.795
 5492SOL     OW17374   1.295   1.868   6.094
 5492SOL    HW117375   1.197   1.863   6.073
 5492SOL    HW217376   1.307   1.880   6.192
 5493SOL     OW17377   3.372   3.563   4.400
 5493SOL    HW117378   3.304   3.637   4.391
 5493SOL    HW217379   3.441   3.590   4.468
 5494SOL     OW17380   6.496   2.426   0.173
 5494SOL    HW117381   6.435   2.369   0.118
 5494SOL    HW217382   6.491   2.397   0.268
 5495SOL     OW17383   3.166   2.769   1.758
 5495SOL    HW117384   3.261   2.742   1.744
 5495SOL    HW217385   3.105   2.692   1.739
 5496SOL     OW17386   2.754   6.739   2.879
 5496SOL    HW117387   2.686   6.806   2.851
 5496SOL    HW217388   2.708   6.656   2.911
 5497SOL     OW17389   0.275   2.282   3.559
 5497SOL    HW117390   0.357   2.226   3.566
 5497SOL    HW217391   0.194   2.224   3.566
 5498SOL     OW17392   5.214   0.225   0.738
 5498SOL    HW117393   5.314   0.225   0.732
 5498SOL    HW217394   5.185   0.170   0.817
 5499SOL     OW17395   1.201   1.149   3.775
 5499SOL    HW117396   1.172   1.216   3.708
 5499SOL    HW217397   1.185   1.057   3.741
 5500SOL     OW17398   1.719   5.865   0.109
 5500SOL    HW117399   1.670   5.951   0.127
 5500SOL    HW217400   1.812   5.886   0.079
 5501SOL     OW17401   3.519   0.257   1.141
 5501SOL    HW117402   3.560   0.312   1.069
 5501SOL    HW217403   3.549   0.162   1.132
 5502SOL     OW17404   5.769   4.391   6.310
 5502SOL    HW117405   5.794   4.415   6.404
 5502SOL    HW217406   5.851   4.395   6.252
 5503SOL     OW17407   0.191   4.353   3.186
 5503SOL    HW117408   0.238   4.333   3.100
 5503SOL    HW217409   0.251   4.408   3.245
 5504SOL     OW17410   3.483   1.392   5.471
 5504SOL    HW117411   3.430   1.476   5.458
 5504SOL    HW217412   3.421   1.313   5.471
 5505SOL     OW17413   2.848   5.535   4.673
 5505SOL    HW117414   2.825   5.462   4.737
 5505SOL    HW217415   2.886   5.494   4.589
 5506SOL     OW17416   6.755   0.782   5.931
 5506SOL    HW117417   6.755   0.689   5.968
 5506SOL    HW217418   6.683   0.790   5.862
 5507SOL     OW17419   2.085   0.164   2.838
 5507SOL    HW117420   2.099   0.202   2.930
 5507SOL    HW217421   1.988   0.144   2.824
 5508SOL     OW17422   2.120   1.367   0.062
 5508SOL    HW117423   2.193   1.393   0.125
 5508SOL    HW217424   2.105   1.439   7.022
 5509SOL     OW17425   0.820   6.570   0.159
 5509SOL    HW117426   0.801   6.487   0.107
 5509SOL    HW217427   0.849   6.643   0.096
 5510SOL     OW17428   5.254   6.039   0.842
 5510SOL    HW117429   5.331   6.102   0.857
 5510SOL    HW217430   5.250   5.973   0.917
 5511SOL     OW17431   2.784   6.855   3.918
 5511SOL    HW117432   2.833   6.885   4.001
 5511SOL    HW217433   2.691   6.829   3.943
 5512SOL     OW17434   5.869   2.268   1.301
 5512SOL    HW117435   5.932   2.312   1.365
 5512SOL    HW217436   5.828   2.338   1.242
 5513SOL     OW17437   3.911   4.262   5.825
 5513SOL    HW117438   3.886   4.205   5.904
 5513SOL    HW217439   3.916   4.205   5.743
 5514SOL     OW17440   4.573   5.685   2.659
 5514SOL    HW117441   4.486   5.734   2.668
 5514SOL    HW217442   4.646   5.750   2.637
 5515SOL     OW17443   0.465   4.123   1.666
 5515SOL    HW117444   0.396   4.062   1.627
 5515SOL    HW217445   0.551   4.072   1.677
 5516SOL     OW17446   1.150   2.978   0.071
 5516SOL    HW117447   1.063   3.021   0.049
 5516SOL    HW217448   1.137   2.912   0.146
 5517SOL     OW17449   2.126   2.195   2.148
 5517SOL    HW117450   2.188   2.217   2.073
 5517SOL    HW217451   2.177   2.189   2.234
 5518SOL     OW17452   6.605   6.649   6.433
 5518SOL    HW117453   6.595   6.558   6.474
 5518SOL    HW217454   6.582   6.719   6.500
 5519SOL     OW17455   5.232   3.336   3.321
 5519SOL    HW117456   5.304   3.350   3.389
 5519SOL    HW217457   5.228   3.239   3.296
 5520SOL     OW17458   6.776   4.966   2.870
 5520SOL    HW117459   6.843   4.978   2.943
 5520SOL    HW217460   6.762   4.869   2.853
 5521SOL     OW17461   3.892   6.373   2.443
 5521SOL    HW117462   3.893   6.342   2.348
 5521SOL    HW217463   3.915   6.470   2.447
 5522SOL     OW17464   1.249   4.523   0.899
 5522SOL    HW117465   1.321   4.577   0.941
 5522SOL    HW217466   1.264   4.518   0.800
 5523SOL     OW17467   2.873   6.806   3.114
 5523SOL    HW117468   2.866   6.780   3.018
 5523SOL    HW217469   2.969   6.810   3.141
 5524SOL     OW17470   6.745   5.432   4.599
 5524SOL    HW117471   6.751   5.402   4.504
 5524SOL    HW217472   6.649   5.436   4.626
 5525SOL     OW17473   0.263   3.629   0.431
 5525SOL    HW117474   0.168   3.659   0.442
 5525SOL    HW217475   0.302   3.610   0.521
 5526SOL     OW17476   5.487   4.167   5.160
 5526SOL    HW117477   5.570   4.116   5.181
 5526SOL    HW217478   5.510   4.263   5.143
 5527SOL     OW17479   0.825   3.840   3.872
 5527SOL    HW117480   0.844   3.786   3.954
 5527SOL    HW217481   0.904   3.899   3.852
 5528SOL     OW17482   0.991   1.623   6.624
 5528SOL    HW117483   1.075   1.674   6.642
 5528SOL    HW217484   0.930   1.678   6.568
 5529SOL     OW17485   2.246   0.094   4.496
 5529SOL    HW117486   2.227   0.066   4.402
 5529SOL    HW217487   2.175   0.056   4.556
 5530SOL     OW17488   0.327   2.956   2.560
 5530SOL    HW117489   0.352   3.049   2.531
 5530SOL    HW217490   0.231   2.954   2.587
 5531SOL     OW17491   3.749   3.573   3.018
 5531SOL    HW117492   3.756   3.564   3.118
 5531SOL    HW217493   3.823   3.632   2.985
 5532SOL     OW17494   1.121   1.462   1.346
 5532SOL    HW117495   1.136   1.364   1.360
 5532SOL    HW217496   1.068   1.477   1.263
 5533SOL     OW17497   3.170   1.142   2.865
 5533SOL    HW117498   3.248   1.187   2.910
 5533SOL    HW217499   3.171   1.165   2.767
 5534SOL     OW17500   0.703   2.991   5.795
 5534SOL    HW117501   0.625   3.002   5.733
 5534SOL    HW217502   0.760   2.915   5.764
 5535SOL     OW17503   0.666   2.986   3.769
 5535SOL    HW117504   0.760   2.951   3.763
 5535SOL    HW217505   0.637   3.017   3.678
 5536SOL     OW17506   3.652   1.445   3.995
 5536SOL    HW117507   3.674   1.360   3.948
 5536SOL    HW217508   3.698   1.521   3.949
 5537SOL     OW17509   2.859   1.078   4.415
 5537SOL    HW117510   2.928   1.008   4.433
 5537SOL    HW217511   2.799   1.088   4.494
 5538SOL     OW17512   3.359   0.225   4.902
 5538SOL    HW117513   3.288   0.181   4.847
 5538SOL    HW217514   3.449   0.191   4.874
 5539SOL     OW17515   1.189   2.668   0.457
 5539SOL    HW117516   1.211   2.649   0.553
 5539SOL    HW217517   1.096   2.703   0.450
 5540SOL     OW17518   6.031   3.748   2.653
 5540SOL    HW117519   5.969   3.815   2.612
 5540SOL    HW217520   6.125   3.782   2.647
 5541SOL     OW17521   5.629   2.058   6.646
 5541SOL    HW117522   5.601   2.152   6.627
 5541SOL    HW217523   5.663   2.016   6.562
 5542SOL     OW17524   5.636   6.168   6.293
 5542SOL    HW117525   5.689   6.095   6.337
 5542SOL    HW217526   5.654   6.255   6.338
 5543SOL     OW17527   2.472   5.233   6.327
 5543SOL    HW117528   2.538   5.281   6.270
 5543SOL    HW217529   2.517   5.200   6.410
 5544SOL     OW17530   5.011   5.845   6.165
 5544SOL    HW117531   4.933   5.855   6.102
 5544SOL    HW217532   5.045   5.935   6.190
 5545SOL     OW17533   4.597   1.468   3.362
 5545SOL    HW117534   4.648   1.402   3.307
 5545SOL    HW217535   4.499   1.447   3.358
 5546SOL     OW17536   1.511   6.968   3.973
 5546SOL    HW117537   1.545   6.876   3.953
 5546SOL    HW217538   1.524   6.989   4.070
 5547SOL     OW17539   4.026   0.252   4.782
 5547SOL    HW117540   4.098   0.320   4.796
 5547SOL    HW217541   3.986   0.227   4.870
 5548SOL     OW17542   5.883   3.254   5.059
 5548SOL    HW117543   5.794   3.244   5.015
 5548SOL    HW217544   5.916   3.348   5.047
 5549SOL     OW17545   4.253   4.823   0.932
 5549SOL    HW117546   4.160   4.848   0.906
 5549SOL    HW217547   4.263   4.724   0.931
 5550SOL     OW17548   2.300   4.386   2.341
 5550SOL    HW117549   2.242   4.461   2.310
 5550SOL    HW217550   2.392   4.420   2.358
 5551SOL     OW17551   1.494   6.175   2.860
 5551SOL    HW117552   1.554   6.188   2.780
 5551SOL    HW217553   1.432   6.099   2.843
 5552SOL     OW17554   6.921   6.844   6.557
 5552SOL    HW117555   7.006   6.796   6.580
 5552SOL    HW217556   6.931   6.942   6.576
 5553SOL     OW17557   4.738   6.254   0.093
 5553SOL    HW117558   4.771   6.343   0.125
 5553SOL    HW217559   4.801   6.218   0.024
 5554SOL     OW17560   4.052   1.896   6.641
 5554SOL    HW117561   4.079   1.969   6.578
 5554SOL    HW217562   3.953   1.883   6.637
 5555SOL     OW17563   1.414   3.773   3.100
 5555SOL    HW117564   1.336   3.829   3.072
 5555SOL    HW217565   1.441   3.798   3.193
 5556SOL     OW17566   6.437   1.895   3.473
 5556SOL    HW117567   6.476   1.825   3.413
 5556SOL    HW217568   6.503   1.921   3.543
 5557SOL     OW17569   3.639   6.866   2.799
 5557SOL    HW117570   3.554   6.901   2.840
 5557SOL    HW217571   3.717   6.911   2.841
 5558SOL     OW17572   3.600   3.636   6.032
 5558SOL    HW117573   3.678   3.688   6.066
 5558SOL    HW217574   3.619   3.604   5.939
 5559SOL     OW17575   1.408   0.505   1.220
 5559SOL    HW117576   1.443   0.448   1.295
 5559SOL    HW217577   1.340   0.570   1.255
 5560SOL     OW17578   0.742   4.854   2.207
 5560SOL    HW117579   0.739   4.916   2.129
 5560SOL    HW217580   0.706   4.900   2.288
 5561SOL     OW17581   1.739   1.581   4.051
 5561SOL    HW117582   1.688   1.662   4.025
 5561SOL    HW217583   1.837   1.601   4.049
 5562SOL     OW17584   3.895   2.483   6.561
 5562SOL    HW117585   3.944   2.560   6.520
 5562SOL    HW217586   3.831   2.516   6.630
 5563SOL     OW17587   3.854   5.130   2.484
 5563SOL    HW117588   3.783   5.118   2.553
 5563SOL    HW217589   3.937   5.165   2.528
 5564SOL     OW17590   4.636   0.033   1.096
 5564SOL    HW117591   4.668   0.041   1.002
 5564SOL    HW217592   4.536   0.039   1.098
 5565SOL     OW17593   4.344   1.966   6.028
 5565SOL    HW117594   4.377   1.900   5.961
 5565SOL    HW217595   4.288   2.035   5.983
 5566SOL     OW17596   1.624   3.928   6.550
 5566SOL    HW117597   1.607   3.977   6.636
 5566SOL    HW217598   1.658   3.992   6.481
 5567SOL     OW17599   6.965   2.637   1.072
 5567SOL    HW117600   6.869   2.625   1.098
 5567SOL    HW217601   6.993   2.731   1.093
 5568SOL     OW17602   4.699   2.081   3.901
 5568SOL    HW117603   4.720   1.990   3.865
 5568SOL    HW217604   4.623   2.074   3.966
 5569SOL     OW17605   1.824   2.274   2.532
 5569SOL    HW117606   1.872   2.242   2.451
 5569SOL    HW217607   1.842   2.211   2.608
 5570SOL     OW17608   6.790   3.937   5.095
 5570SOL    HW117609   6.789   3.864   5.026
 5570SOL    HW217610   6.833   4.019   5.057
 5571SOL     OW17611   6.856   5.925   0.759
 5571SOL    HW117612   6.911   6.000   0.794
 5571SOL    HW217613   6.834   5.862   0.833
 5572SOL     OW17614   1.244   2.422   5.021
 5572SOL    HW117615   1.184   2.495   5.053
 5572SOL    HW217616   1.339   2.452   5.027
 5573SOL     OW17617   2.258   4.987   5.059
 5573SOL    HW117618   2.251   4.946   5.150
 5573SOL    HW217619   2.295   4.919   4.995
 5574SOL     OW17620   0.170   2.073   2.484
 5574SOL    HW117621   0.252   2.031   2.523
 5574SOL    HW217622   0.105   2.002   2.458
 5575SOL     OW17623   6.435   1.291   0.859
 5575SOL    HW117624   6.469   1.207   0.818
 5575SOL    HW217625   6.508   1.334   0.912
 5576SOL     OW17626   0.956   4.757   1.641
 5576SOL    HW117627   0.919   4.743   1.732
 5576SOL    HW217628   0.883   4.745   1.573
 5577SOL     OW17629   3.010   3.529   5.662
 5577SOL    HW117630   2.973   3.617   5.634
 5577SOL    HW217631   3.109   3.536   5.673
 5578SOL     OW17632   3.478   3.734   0.782
 5578SOL    HW117633   3.379   3.719   0.784
 5578SOL    HW217634   3.518   3.684   0.705
 5579SOL     OW17635   0.723   2.864   0.355
 5579SOL    HW117636   0.785   2.939   0.332
 5579SOL    HW217637   0.713   2.804   0.276
 5580SOL     OW17638   5.339   2.630   5.530
 5580SOL    HW117639   5.267   2.688   5.491
 5580SOL    HW217640   5.407   2.610   5.460
 5581SOL     OW17641   1.287   6.390   1.624
 5581SOL    HW117642   1.378   6.420   1.593
 5581SOL    HW217643   1.239   6.466   1.665
 5582SOL     OW17644   2.828   3.587   5.288
 5582SOL    HW117645   2.747   3.533   5.311
 5582SOL    HW217646   2.846   3.653   5.361
 5583SOL     OW17647   4.583   0.308   2.664
 5583SOL    HW117648   4.524   0.305   2.584
 5583SOL    HW217649   4.596   0.403   2.693
 5584SOL     OW17650   5.880   4.774   4.109
 5584SOL    HW117651   5.832   4.855   4.075
 5584SOL    HW217652   5.857   4.695   4.051
 5585SOL     OW17653   5.455   6.082   3.927
 5585SOL    HW117654   5.383   6.150   3.924
 5585SOL    HW217655   5.414   5.990   3.924
 5586SOL     OW17656   0.593   2.013   6.703
 5586SOL    HW117657   0.671   1.990   6.645
 5586SOL    HW217658   0.608   2.101   6.748
 5587SOL     OW17659   4.050   6.489   1.875
 5587SOL    HW117660   4.076   6.468   1.969
 5587SOL    HW217661   4.124   6.540   1.831
 5588SOL     OW17662   1.765   5.865   2.948
 5588SOL    HW117663   1.767   5.768   2.923
 5588SOL    HW217664   1.809   5.878   3.037
 5589SOL     OW17665   6.303   3.870   5.574
 5589SOL    HW117666   6.385   3.923   5.593
 5589SOL    HW217667   6.300   3.790   5.633
 5590SOL     OW17668   0.078   6.068   4.194
 5590SOL    HW117669   0.076   6.155   4.146
 5590SOL    HW217670   7.023   6.016   4.174
 5591SOL     OW17671   5.363   1.552   0.135
 5591SOL    HW117672   5.346   1.635   0.189
 5591SOL    HW217673   5.460   1.548   0.110
 5592SOL     OW17674   6.979   5.137   2.474
 5592SOL    HW117675   6.912   5.100   2.538
 5592SOL    HW217676   0.040   5.093   2.489
 5593SOL     OW17677   0.496   3.200   6.929
 5593SOL    HW117678   0.439   3.229   6.852
 5593SOL    HW217679   0.580   3.254   6.931
 5594SOL     OW17680   4.124   1.254   6.355
 5594SOL    HW117681   4.149   1.236   6.260
 5594SOL    HW217682   4.191   1.317   6.395
 5595SOL     OW17683   6.700   0.529   4.756
 5595SOL    HW117684   6.633   0.458   4.775
 5595SOL    HW217685   6.696   0.554   4.659
 5596SOL     OW17686   4.766   0.365   3.412
 5596SOL    HW117687   4.825   0.428   3.360
 5596SOL    HW217688   4.822   0.309   3.472
 5597SOL     OW17689   5.301   2.757   4.859
 5597SOL    HW117690   5.348   2.700   4.792
 5597SOL    HW217691   5.206   2.770   4.829
 5598SOL     OW17692   5.921   3.742   3.822
 5598SOL    HW117693   5.971   3.827   3.809
 5598SOL    HW217694   5.965   3.669   3.770
 5599SOL     OW17695   0.648   2.539   1.635
 5599SOL    HW117696   0.687   2.458   1.679
 5599SOL    HW217697   0.572   2.574   1.690
 5600SOL     OW17698   2.019   0.781   1.441
 5600SOL    HW117699   1.957   0.756   1.367
 5600SOL    HW217700   2.069   0.864   1.417
 5601SOL     OW17701   2.419   0.813   6.389
 5601SOL    HW117702   2.513   0.845   6.376
 5601SOL    HW217703   2.417   0.714   6.395
 5602SOL     OW17704   6.915   1.576   1.241
 5602SOL    HW117705   6.942   1.584   1.145
 5602SOL    HW217706   6.997   1.578   1.298
 5603SOL     OW17707   6.010   2.290   0.186
 5603SOL    HW117708   6.109   2.301   0.186
 5603SOL    HW217709   5.977   2.287   0.280
 5604SOL     OW17710   5.919   1.853   4.696
 5604SOL    HW117711   5.982   1.924   4.728
 5604SOL    HW217712   5.825   1.885   4.706
 5605SOL     OW17713   6.640   1.374   5.266
 5605SOL    HW117714   6.608   1.337   5.353
 5605SOL    HW217715   6.699   1.453   5.284
 5606SOL     OW17716   4.736   6.360   0.499
 5606SOL    HW117717   4.664   6.378   0.431
 5606SOL    HW217718   4.751   6.442   0.554
 5607SOL     OW17719   6.114   1.338   3.069
 5607SOL    HW117720   6.081   1.431   3.082
 5607SOL    HW217721   6.136   1.324   2.972
 5608SOL     OW17722   5.668   0.449   3.799
 5608SOL    HW117723   5.630   0.538   3.777
 5608SOL    HW217724   5.650   0.428   3.896
 5609SOL     OW17725   3.380   5.721   1.258
 5609SOL    HW117726   3.393   5.695   1.354
 5609SOL    HW217727   3.298   5.779   1.251
 5610SOL     OW17728   5.038   5.325   1.283
 5610SOL    HW117729   4.939   5.332   1.290
 5610SOL    HW217730   5.063   5.280   1.197
 5611SOL     OW17731   0.619   5.949   2.977
 5611SOL    HW117732   0.566   5.866   2.963
 5611SOL    HW217733   0.572   6.007   3.043
 5612SOL     OW17734   3.964   2.370   5.711
 5612SOL    HW117735   4.057   2.404   5.721
 5612SOL    HW217736   3.963   2.293   5.647
 5613SOL     OW17737   6.701   5.528   4.101
 5613SOL    HW117738   6.684   5.577   4.186
 5613SOL    HW217739   6.645   5.567   4.028
 5614SOL     OW17740   4.385   2.468   4.502
 5614SOL    HW117741   4.409   2.444   4.596
 5614SOL    HW217742   4.285   2.463   4.490
 5615SOL     OW17743   6.785   1.614   3.931
 5615SOL    HW117744   6.690   1.582   3.932
 5615SOL    HW217745   6.794   1.691   3.995
 5616SOL     OW17746   2.779   2.339   4.777
 5616SOL    HW117747   2.736   2.353   4.867
 5616SOL    HW217748   2.766   2.421   4.721
 5617SOL     OW17749   2.699   6.022   5.514
 5617SOL    HW117750   2.669   6.077   5.437
 5617SOL    HW217751   2.666   5.928   5.504
 5618SOL     OW17752   0.314   4.197   4.030
 5618SOL    HW117753   0.231   4.142   4.018
 5618SOL    HW217754   0.362   4.204   3.942
 5619SOL     OW17755   3.666   3.858   4.726
 5619SOL    HW117756   3.627   3.865   4.818
 5619SOL    HW217757   3.706   3.946   4.699
 5620SOL     OW17758   4.334   3.607   1.407
 5620SOL    HW117759   4.361   3.681   1.345
 5620SOL    HW217760   4.249   3.632   1.453
 5621SOL     OW17761   2.373   2.889   0.272
 5621SOL    HW117762   2.353   2.987   0.264
 5621SOL    HW217763   2.405   2.854   0.184
 5622SOL     OW17764   5.075   0.363   5.678
 5622SOL    HW117765   5.149   0.297   5.688
 5622SOL    HW217766   5.114   0.454   5.662
 5623SOL     OW17767   3.965   5.972   5.124
 5623SOL    HW117768   3.915   5.920   5.056
 5623SOL    HW217769   3.907   5.988   5.204
 5624SOL     OW17770   1.040   4.519   3.621
 5624SOL    HW117771   1.077   4.434   3.657
 5624SOL    HW217772   1.005   4.575   3.696
 5625SOL     OW17773   6.016   6.812   5.354
 5625SOL    HW117774   5.949   6.778   5.419
 5625SOL    HW217775   6.057   6.897   5.388
 5626SOL     OW17776   2.328   6.133   4.787
 5626SOL    HW117777   2.321   6.091   4.697
 5626SOL    HW217778   2.242   6.120   4.837
 5627SOL     OW17779   0.505   5.122   6.855
 5627SOL    HW117780   0.482   5.102   6.950
 5627SOL    HW217781   0.491   5.040   6.800
 5628SOL     OW17782   1.832   2.546   2.596
 5628SOL    HW117783   1.913   2.585   2.640
 5628SOL    HW217784   1.844   2.448   2.586
 5629SOL     OW17785   3.759   3.738   1.882
 5629SOL    HW117786   3.708   3.697   1.806
 5629SOL    HW217787   3.779   3.833   1.861
 5630SOL     OW17788   1.879   3.760   6.194
 5630SOL    HW117789   1.959   3.699   6.184
 5630SOL    HW217790   1.876   3.824   6.118
 5631SOL     OW17791   4.661   1.970   1.882
 5631SOL    HW117792   4.645   1.978   1.784
 5631SOL    HW217793   4.670   2.061   1.922
 5632SOL     OW17794   2.818   2.204   5.762
 5632SOL    HW117795   2.763   2.125   5.789
 5632SOL    HW217796   2.869   2.182   5.678
 5633SOL     OW17797   6.092   4.829   4.675
 5633SOL    HW117798   6.167   4.764   4.677
 5633SOL    HW217799   6.054   4.833   4.583
 5634SOL     OW17800   2.405   5.028   4.281
 5634SOL    HW117801   2.423   4.938   4.322
 5634SOL    HW217802   2.448   5.099   4.336
 5635SOL     OW17803   1.844   4.936   6.042
 5635SOL    HW117804   1.927   4.987   6.062
 5635SOL    HW217805   1.805   4.901   6.127
 5636SOL     OW17806   4.808   6.981   4.755
 5636SOL    HW117807   4.717   6.990   4.716
 5636SOL    HW217808   4.869   6.936   4.689
 5637SOL     OW17809   5.502   0.443   3.154
 5637SOL    HW117810   5.557   0.376   3.204
 5637SOL    HW217811   5.425   0.396   3.112
 5638SOL     OW17812   6.373   3.820   0.735
 5638SOL    HW117813   6.319   3.776   0.663
 5638SOL    HW217814   6.353   3.777   0.823
 5639SOL     OW17815   1.139   0.778   2.740
 5639SOL    HW117816   1.144   0.681   2.717
 5639SOL    HW217817   1.043   0.806   2.744
 5640SOL     OW17818   3.899   0.576   3.811
 5640SOL    HW117819   3.886   0.487   3.768
 5640SOL    HW217820   3.896   0.648   3.741
 5641SOL     OW17821   0.811   5.131   4.998
 5641SOL    HW117822   0.736   5.197   4.992
 5641SOL    HW217823   0.820   5.083   4.911
 5642SOL     OW17824   2.025   6.598   4.543
 5642SOL    HW117825   1.966   6.665   4.588
 5642SOL    HW217826   2.121   6.624   4.556
 5643SOL     OW17827   4.021   1.085   4.677
 5643SOL    HW117828   4.048   1.180   4.664
 5643SOL    HW217829   3.947   1.062   4.613
 5644SOL     OW17830   3.179   0.064   4.794
 5644SOL    HW117831   3.127   0.067   4.880
 5644SOL    HW217832   3.232   7.007   4.791
 5645SOL     OW17833   6.015   4.895   3.550
 5645SOL    HW117834   6.023   4.918   3.453
 5645SOL    HW217835   5.958   4.964   3.596
 5646SOL     OW17836   1.904   5.602   4.015
 5646SOL    HW117837   1.811   5.574   3.994
 5646SOL    HW217838   1.936   5.554   4.097
 5647SOL     OW17839   5.073   5.296   1.006
 5647SOL    HW117840   4.987   5.343   0.987
 5647SOL    HW217841   5.104   5.248   0.924
 5648SOL     OW17842   1.737   0.159   3.033
 5648SOL    HW117843   1.764   0.152   2.936
 5648SOL    HW217844   1.641   0.185   3.039
 5649SOL     OW17845   0.669   0.741   4.177
 5649SOL    HW117846   0.677   0.831   4.219
 5649SOL    HW217847   0.760   0.700   4.168
 5650SOL     OW17848   0.236   5.348   0.909
 5650SOL    HW117849   0.317   5.400   0.880
 5650SOL    HW217850   0.168   5.350   0.836
 5651SOL     OW17851   1.682   0.682   1.680
 5651SOL    HW117852   1.646   0.753   1.619
 5651SOL    HW217853   1.667   0.592   1.639
 5652SOL     OW17854   6.345   0.209   1.972
 5652SOL    HW117855   6.419   0.262   1.930
 5652SOL    HW217856   6.268   0.204   1.909
 5653SOL     OW17857   6.548   6.131   6.641
 5653SOL    HW117858   6.628   6.115   6.699
 5653SOL    HW217859   6.466   6.099   6.688
 5654SOL     OW17860   0.432   6.224   5.252
 5654SOL    HW117861   0.439   6.317   5.287
 5654SOL    HW217862   0.397   6.164   5.324
 5655SOL     OW17863   1.023   3.773   4.170
 5655SOL    HW117864   1.064   3.684   4.190
 5655SOL    HW217865   1.021   3.829   4.253
 5656SOL     OW17866   0.243   3.885   6.474
 5656SOL    HW117867   0.241   3.785   6.464
 5656SOL    HW217868   0.223   3.928   6.386
 5657SOL     OW17869   6.260   2.236   0.073
 5657SOL    HW117870   6.257   2.295   7.020
 5657SOL    HW217871   6.251   2.141   0.046
 5658SOL     OW17872   3.430   3.931   6.389
 5658SOL    HW117873   3.446   3.835   6.363
 5658SOL    HW217874   3.419   3.937   6.488
 5659SOL     OW17875   3.653   3.274   5.094
 5659SOL    HW117876   3.622   3.194   5.042
 5659SOL    HW217877   3.610   3.274   5.184
 5660SOL     OW17878   4.397   0.233   0.015
 5660SOL    HW117879   4.477   0.250   6.986
 5660SOL    HW217880   4.383   0.134   0.024
 5661SOL     OW17881   1.492   5.982   4.938
 5661SOL    HW117882   1.446   6.044   4.875
 5661SOL    HW217883   1.588   5.974   4.912
 5662SOL     OW17884   2.652   5.729   3.681
 5662SOL    HW117885   2.614   5.644   3.643
 5662SOL    HW217886   2.683   5.788   3.606
 5663SOL     OW17887   1.722   2.531   7.000
 5663SOL    HW117888   1.759   2.616   6.963
 5663SOL    HW217889   1.797   2.468   7.020
 5664SOL     OW17890   6.911   3.749   4.947
 5664SOL    HW117891   6.961   3.717   4.867
 5664SOL    HW217892   6.817   3.713   4.945
 5665SOL     OW17893   1.834   0.968   0.567
 5665SOL    HW117894   1.778   0.966   0.650
 5665SOL    HW217895   1.920   1.015   0.585
 5666SOL     OW17896   6.216   0.339   3.170
 5666SOL    HW117897   6.124   0.330   3.131
 5666SOL    HW217898   6.279   0.371   3.100
 5667SOL     OW17899   1.373   5.317   4.447
 5667SOL    HW117900   1.462   5.338   4.487
 5667SOL    HW217901   1.308   5.389   4.472
 5668SOL     OW17902   5.373   2.780   3.803
 5668SOL    HW117903   5.402   2.702   3.747
 5668SOL    HW217904   5.328   2.848   3.745
 5669SOL     OW17905   0.157   3.358   0.865
 5669SOL    HW117906   0.218   3.285   0.896
 5669SOL    HW217907   0.124   3.410   0.944
 5670SOL     OW17908   0.646   3.527   3.822
 5670SOL    HW117909   0.652   3.547   3.725
 5670SOL    HW217910   0.735   3.543   3.865
 5671SOL     OW17911   6.429   6.293   6.427
 5671SOL    HW117912   6.469   6.241   6.503
 5671SOL    HW217913   6.421   6.234   6.347
 5672SOL     OW17914   4.354   3.621   0.271
 5672SOL    HW117915   4.413   3.701   0.281
 5672SOL    HW217916   4.261   3.650   0.254
 5673SOL     OW17917   1.333   6.688   1.414
 5673SOL    HW117918   1.414   6.645   1.373
 5673SOL    HW217919   1.276   6.727   1.341
 5674SOL     OW17920   0.423   4.633   5.240
 5674SOL    HW117921   0.383   4.567   5.177
 5674SOL    HW217922   0.381   4.624   5.330
 5675SOL     OW17923   4.050   3.120   5.924
 5675SOL    HW117924   3.959   3.143   5.891
 5675SOL    HW217925   4.057   3.144   6.021
 5676SOL     OW17926   3.001   2.083   2.828
 5676SOL    HW117927   3.091   2.091   2.784
 5676SOL    HW217928   2.940   2.153   2.792
 5677SOL     OW17929   0.858   1.202   0.459
 5677SOL    HW117930   0.931   1.199   0.390
 5677SOL    HW217931   0.897   1.228   0.547
 5678SOL     OW17932   4.297   6.540   2.634
 5678SOL    HW117933   4.279   6.629   2.675
 5678SOL    HW217934   4.344   6.481   2.699
 5679SOL     OW17935   6.887   1.137   3.995
 5679SOL    HW117936   6.802   1.089   3.975
 5679SOL    HW217937   6.873   1.236   3.988
 5680SOL     OW17938   1.724   5.330   6.270
 5680SOL    HW117939   1.716   5.428   6.289
 5680SOL    HW217940   1.789   5.316   6.195
 5681SOL     OW17941   0.567   3.821   1.006
 5681SOL    HW117942   0.517   3.794   1.088
 5681SOL    HW217943   0.545   3.758   0.932
 5682SOL     OW17944   2.147   5.513   4.835
 5682SOL    HW117945   2.146   5.584   4.905
 5682SOL    HW217946   2.075   5.447   4.854
 5683SOL     OW17947   4.106   1.003   5.598
 5683SOL    HW117948   4.040   1.034   5.666
 5683SOL    HW217949   4.198   1.001   5.638
 5684SOL     OW17950   2.751   3.746   5.734
 5684SOL    HW117951   2.800   3.777   5.816
 5684SOL    HW217952   2.679   3.682   5.761
 5685SOL     OW17953   1.882   1.809   3.161
 5685SOL    HW117954   1.785   1.793   3.180
 5685SOL    HW217955   1.923   1.724   3.126
 5686SOL     OW17956   2.763   1.791   6.310
 5686SOL    HW117957   2.755   1.703   6.356
 5686SOL    HW217958   2.859   1.812   6.293
 5687SOL     OW17959   0.795   4.972   6.805
 5687SOL    HW117960   0.790   4.987   6.904
 5687SOL    HW217961   0.858   4.897   6.786
 5688SOL     OW17962   0.790   2.643   1.836
 5688SOL    HW117963   0.824   2.635   1.929
 5688SOL    HW217964   0.692   2.622   1.833
 5689SOL     OW17965   3.280   1.516   1.238
 5689SOL    HW117966   3.358   1.470   1.196
 5689SOL    HW217967   3.202   1.514   1.175
 5690SOL     OW17968   2.273   5.877   7.019
 5690SOL    HW117969   2.261   5.786   6.977
 5690SOL    HW217970   2.364   5.911   6.996
 5691SOL     OW17971   3.411   0.534   2.279
 5691SOL    HW117972   3.504   0.506   2.252
 5691SOL    HW217973   3.417   0.594   2.359
 5692SOL     OW17974   5.860   4.059   0.421
 5692SOL    HW117975   5.830   4.135   0.479
 5692SOL    HW217976   5.814   4.065   0.332
 5693SOL     OW17977   4.829   1.595   3.468
 5693SOL    HW117978   4.824   1.686   3.429
 5693SOL    HW217979   4.771   1.532   3.416
 5694SOL     OW17980   1.299   1.427   2.885
 5694SOL    HW117981   1.266   1.334   2.900
 5694SOL    HW217982   1.360   1.428   2.806
 5695SOL     OW17983   1.771   1.935   3.853
 5695SOL    HW117984   1.769   1.952   3.755
 5695SOL    HW217985   1.692   1.881   3.879
 5696SOL     OW17986   0.913   1.257   3.462
 5696SOL    HW117987   0.984   1.219   3.403
 5696SOL    HW217988   0.844   1.303   3.406
 5697SOL     OW17989   6.251   2.770   1.603
 5697SOL    HW117990   6.190   2.692   1.617
 5697SOL    HW217991   6.240   2.805   1.510
 5698SOL     OW17992   1.247   4.989   4.174
 5698SOL    HW117993   1.170   5.052   4.183
 5698SOL    HW217994   1.216   4.895   4.190
 5699SOL     OW17995   0.906   2.369   3.076
 5699SOL    HW117996   0.816   2.327   3.066
 5699SOL    HW217997   0.950   2.333   3.158
 5700SOL     OW17998   6.532   0.195   3.527
 5700SOL    HW117999   6.611   0.201   3.587
 5700SOL    HW218000   6.449   0.188   3.583
 5701SOL     OW18001   0.848   0.049   1.445
 5701SOL    HW118002   0.780   0.105   1.399
 5701SOL    HW218003   0.804   7.021   1.515
 5702SOL     OW18004   2.579   5.419   4.078
 5702SOL    HW118005   2.627   5.506   4.072
 5702SOL    HW218006   2.637   5.351   4.121
 5703SOL     OW18007   6.459   4.746   1.096
 5703SOL    HW118008   6.501   4.673   1.042
 5703SOL    HW218009   6.467   4.832   1.047
 5704SOL     OW18010   4.787   4.074   3.031
 5704SOL    HW118011   4.737   3.992   3.005
 5704SOL    HW218012   4.798   4.078   3.130
 5705SOL     OW18013   4.812   6.572   0.056
 5705SOL    HW118014   4.820   6.622   0.142
 5705SOL    HW218015   4.899   6.528   0.035
 5706SOL     OW18016   0.326   3.601   2.077
 5706SOL    HW118017   0.251   3.637   2.021
 5706SOL    HW218018   0.398   3.565   2.017
 5707SOL     OW18019   0.341   6.622   0.264
 5707SOL    HW118020   0.430   6.665   0.279
 5707SOL    HW218021   0.269   6.687   0.286
 5708SOL     OW18022   5.272   5.684   2.024
 5708SOL    HW118023   5.308   5.707   1.933
 5708SOL    HW218024   5.347   5.685   2.090
 5709SOL     OW18025   0.864   0.694   2.491
 5709SOL    HW118026   0.828   0.617   2.544
 5709SOL    HW218027   0.909   0.759   2.553
 5710SOL     OW18028   3.043   3.051   1.207
 5710SOL    HW118029   3.142   3.039   1.204
 5710SOL    HW218030   3.007   3.012   1.292
 5711SOL     OW18031   5.168   0.954   2.894
 5711SOL    HW118032   5.259   0.991   2.911
 5711SOL    HW218033   5.169   0.855   2.910
 5712SOL     OW18034   6.521   0.065   0.004
 5712SOL    HW118035   6.616   0.046   7.007
 5712SOL    HW218036   6.460   0.011   6.973
 5713SOL     OW18037   3.347   3.358   1.719
 5713SOL    HW118038   3.423   3.370   1.655
 5713SOL    HW218039   3.290   3.281   1.690
 5714SOL     OW18040   0.406   5.189   0.614
 5714SOL    HW118041   0.400   5.182   0.714
 5714SOL    HW218042   0.492   5.148   0.583
 5715SOL     OW18043   0.682   0.819   2.313
 5715SOL    HW118044   0.769   0.797   2.357
 5715SOL    HW218045   0.689   0.908   2.268
 5716SOL     OW18046   1.626   4.939   6.381
 5716SOL    HW118047   1.596   4.952   6.476
 5716SOL    HW218048   1.697   4.869   6.377
 5717SOL     OW18049   1.880   4.887   0.769
 5717SOL    HW118050   1.845   4.950   0.839
 5717SOL    HW218051   1.812   4.816   0.751
 5718SOL     OW18052   0.217   3.039   6.810
 5718SOL    HW118053   0.236   3.130   6.774
 5718SOL    HW218054   0.295   3.007   6.863
 5719SOL     OW18055   2.333   2.625   6.526
 5719SOL    HW118056   2.408   2.683   6.558
 5719SOL    HW218057   2.369   2.538   6.494
 5720SOL     OW18058   2.357   5.926   5.112
 5720SOL    HW118059   2.373   6.003   5.174
 5720SOL    HW218060   2.439   5.909   5.058
 5721SOL     OW18061   6.538   3.606   1.044
 5721SOL    HW118062   6.603   3.609   0.968
 5721SOL    HW218063   6.468   3.675   1.031
 5722SOL     OW18064   0.077   2.099   5.068
 5722SOL    HW118065   0.021   2.019   5.049
 5722SOL    HW218066   0.169   2.086   5.031
 5723SOL     OW18067   4.590   3.330   0.305
 5723SOL    HW118068   4.603   3.400   0.376
 5723SOL    HW218069   4.503   3.344   0.259
 5724SOL     OW18070   5.509   3.232   4.230
 5724SOL    HW118071   5.495   3.330   4.220
 5724SOL    HW218072   5.471   3.185   4.150
 5725SOL     OW18073   5.927   5.231   4.171
 5725SOL    HW118074   5.997   5.265   4.234
 5725SOL    HW218075   5.844   5.209   4.222
 5726SOL     OW18076   7.003   5.072   4.191
 5726SOL    HW118077   6.945   5.136   4.141
 5726SOL    HW218078   6.950   4.990   4.215
 5727SOL     OW18079   6.842   2.032   4.324
 5727SOL    HW118080   6.908   2.106   4.336
 5727SOL    HW218081   6.772   2.038   4.395
 5728SOL     OW18082   4.124   0.278   6.077
 5728SOL    HW118083   4.188   0.216   6.032
 5728SOL    HW218084   4.172   0.331   6.146
 5729SOL     OW18085   1.966   0.678   0.508
 5729SOL    HW118086   1.979   0.601   0.445
 5729SOL    HW218087   2.055   0.720   0.527
 5730SOL     OW18088   5.204   4.968   6.348
 5730SOL    HW118089   5.120   4.934   6.305
 5730SOL    HW218090   5.200   5.068   6.354
 5731SOL     OW18091   0.602   6.974   3.312
 5731SOL    HW118092   0.558   6.885   3.318
 5731SOL    HW218093   0.595   7.021   3.400
 5732SOL     OW18094   7.016   5.582   3.834
 5732SOL    HW118095   0.045   5.547   3.908
 5732SOL    HW218096   6.965   5.507   3.791
 5733SOL     OW18097   3.993   6.670   5.507
 5733SOL    HW118098   4.083   6.654   5.549
 5733SOL    HW218099   3.985   6.766   5.480
 5734SOL     OW18100   0.942   0.192   5.051
 5734SOL    HW118101   0.902   0.251   5.122
 5734SOL    HW218102   1.003   0.245   4.994
 5735SOL     OW18103   4.222   1.765   1.434
 5735SOL    HW118104   4.253   1.770   1.339
 5735SOL    HW218105   4.147   1.700   1.441
 5736SOL     OW18106   6.111   3.706   0.282
 5736SOL    HW118107   6.157   3.617   0.282
 5736SOL    HW218108   6.012   3.692   0.268
 5737SOL     OW18109   5.714   6.556   0.828
 5737SOL    HW118110   5.724   6.521   0.921
 5737SOL    HW218111   5.695   6.654   0.832
 5738SOL     OW18112   2.090   2.613   5.554
 5738SOL    HW118113   2.120   2.680   5.485
 5738SOL    HW218114   2.130   2.524   5.534
 5739SOL     OW18115   1.227   0.365   5.827
 5739SOL    HW118116   1.263   0.278   5.792
 5739SOL    HW218117   1.175   0.347   5.910
 5740SOL     OW18118   4.519   4.101   0.891
 5740SOL    HW118119   4.479   4.176   0.840
 5740SOL    HW218120   4.574   4.137   0.966
 5741SOL     OW18121   1.080   4.781   4.752
 5741SOL    HW118122   0.996   4.782   4.697
 5741SOL    HW218123   1.159   4.771   4.691
 5742SOL     OW18124   5.195   6.944   2.038
 5742SOL    HW118125   5.274   6.890   2.065
 5742SOL    HW218126   5.226   0.005   2.003
 5743SOL     OW18127   2.720   5.904   5.094
 5743SOL    HW118128   2.770   5.891   5.008
 5743SOL    HW218129   2.754   5.841   5.163
 5744SOL     OW18130   4.761   0.362   2.111
 5744SOL    HW118131   4.756   0.390   2.207
 5744SOL    HW218132   4.687   0.404   2.060
 5745SOL     OW18133   3.431   1.025   3.825
 5745SOL    HW118134   3.361   0.992   3.888
 5745SOL    HW218135   3.449   0.956   3.755
 5746SOL     OW18136   5.584   6.664   1.528
 5746SOL    HW118137   5.626   6.702   1.445
 5746SOL    HW218138   5.485   6.671   1.521
 5747SOL     OW18139   6.734   4.714   2.766
 5747SOL    HW118140   6.641   4.684   2.742
 5747SOL    HW218141   6.790   4.717   2.684
 5748SOL     OW18142   1.934   5.841   0.768
 5748SOL    HW118143   1.958   5.817   0.862
 5748SOL    HW218144   2.017   5.861   0.716
 5749SOL     OW18145   1.808   0.383   4.527
 5749SOL    HW118146   1.796   0.351   4.433
 5749SOL    HW218147   1.903   0.412   4.540
 5750SOL     OW18148   5.493   5.759   4.549
 5750SOL    HW118149   5.533   5.849   4.569
 5750SOL    HW218150   5.545   5.688   4.598
 5751SOL     OW18151   2.113   3.164   4.723
 5751SOL    HW118152   2.162   3.105   4.787
 5751SOL    HW218153   2.017   3.171   4.752
 5752SOL     OW18154   6.535   0.122   6.679
 5752SOL    HW118155   6.560   0.138   6.584
 5752SOL    HW218156   6.611   0.148   6.738
 5753SOL     OW18157   3.310   3.802   5.490
 5753SOL    HW118158   3.245   3.851   5.548
 5753SOL    HW218159   3.317   3.847   5.401
 5754SOL     OW18160   5.928   4.561   1.725
 5754SOL    HW118161   5.966   4.561   1.818
 5754SOL    HW218162   5.971   4.632   1.671
 5755SOL     OW18163   3.119   3.880   5.653
 5755SOL    HW118164   3.083   3.790   5.677
 5755SOL    HW218165   3.055   3.927   5.592
 5756SOL     OW18166   6.159   6.261   3.209
 5756SOL    HW118167   6.167   6.360   3.213
 5756SOL    HW218168   6.127   6.234   3.118
 5757SOL     OW18169   6.784   6.835   2.720
 5757SOL    HW118170   6.788   6.750   2.667
 5757SOL    HW218171   6.779   6.913   2.657
 5758SOL     OW18172   3.159   1.344   4.238
 5758SOL    HW118173   3.193   1.331   4.331
 5758SOL    HW218174   3.118   1.258   4.206
 5759SOL     OW18175   4.649   1.718   6.848
 5759SOL    HW118176   4.589   1.787   6.889
 5759SOL    HW218177   4.628   1.711   6.750
 5760SOL     OW18178   1.093   4.940   1.292
 5760SOL    HW118179   1.184   4.970   1.321
 5760SOL    HW218180   1.101   4.854   1.241
 5761SOL     OW18181   5.620   0.008   6.252
 5761SOL    HW118182   5.715   7.022   6.281
 5761SOL    HW218183   5.590   6.958   6.196
 5762SOL     OW18184   4.737   6.577   0.694
 5762SOL    HW118185   4.674   6.504   0.719
 5762SOL    HW218186   4.829   6.555   0.727
 5763SOL     OW18187   0.100   0.142   0.330
 5763SOL    HW118188   0.021   0.202   0.345
 5763SOL    HW218189   0.101   0.072   0.401
 5764SOL     OW18190   5.106   4.447   6.705
 5764SOL    HW118191   5.092   4.433   6.803
 5764SOL    HW218192   5.018   4.451   6.659
 5765SOL     OW18193   6.770   4.063   6.632
 5765SOL    HW118194   6.756   4.015   6.719
 5765SOL    HW218195   6.726   4.153   6.635
 5766SOL     OW18196   2.101   2.370   0.792
 5766SOL    HW118197   2.102   2.319   0.878
 5766SOL    HW218198   2.024   2.433   0.792
 5767SOL     OW18199   2.221   6.787   0.296
 5767SOL    HW118200   2.284   6.781   0.373
 5767SOL    HW218201   2.161   6.866   0.307
 5768SOL     OW18202   6.998   6.704   3.047
 5768SOL    HW118203   0.012   6.787   3.009
 5768SOL    HW218204   6.900   6.706   3.031
 5769SOL     OW18205   3.025   6.641   3.727
 5769SOL    HW118206   2.942   6.693   3.706
 5769SOL    HW218207   3.102   6.704   3.734
 5770SOL     OW18208   6.920   0.172   0.595
 5770SOL    HW118209   6.839   0.158   0.651
 5770SOL    HW218210   6.965   0.084   0.578
 5771SOL     OW18211   0.488   5.849   2.192
 5771SOL    HW118212   0.394   5.872   2.165
 5771SOL    HW218213   0.498   5.863   2.291
 5772SOL     OW18214   5.972   2.639   0.755
 5772SOL    HW118215   6.021   2.709   0.808
 5772SOL    HW218216   5.990   2.549   0.794
 5773SOL     OW18217   5.057   0.757   3.956
 5773SOL    HW118218   5.113   0.792   3.881
 5773SOL    HW218219   5.011   0.833   4.002
 5774SOL     OW18220   2.859   5.048   3.679
 5774SOL    HW118221   2.941   5.008   3.720
 5774SOL    HW218222   2.793   5.068   3.751
 5775SOL     OW18223   1.490   6.703   1.733
 5775SOL    HW118224   1.391   6.692   1.730
 5775SOL    HW218225   1.526   6.668   1.820
 5776SOL     OW18226   6.507   1.017   5.964
 5776SOL    HW118227   6.540   1.054   6.051
 5776SOL    HW218228   6.518   0.918   5.963
 5777SOL     OW18229   5.978   0.197   4.335
 5777SOL    HW118230   6.004   0.121   4.276
 5777SOL    HW218231   5.978   0.167   4.430
 5778SOL     OW18232   1.775   6.892   1.140
 5778SOL    HW118233   1.836   6.908   1.062
 5778SOL    HW218234   1.695   6.952   1.132
 5779SOL     OW18235   4.205   0.979   1.014
 5779SOL    HW118236   4.244   0.896   1.052
 5779SOL    HW218237   4.259   1.058   1.043
 5780SOL     OW18238   5.728   5.770   2.595
 5780SOL    HW118239   5.802   5.731   2.651
 5780SOL    HW218240   5.648   5.711   2.600
 5781SOL     OW18241   1.375   4.287   4.633
 5781SOL    HW118242   1.421   4.199   4.619
 5781SOL    HW218243   1.325   4.311   4.550
 5782SOL     OW18244   1.592   0.920   1.037
 5782SOL    HW118245   1.590   0.822   1.055
 5782SOL    HW218246   1.666   0.941   0.972
 5783SOL     OW18247   2.024   1.667   1.198
 5783SOL    HW118248   2.033   1.705   1.106
 5783SOL    HW218249   2.056   1.734   1.266
 5784SOL     OW18250   0.658   6.396   0.449
 5784SOL    HW118251   0.718   6.346   0.387
 5784SOL    HW218252   0.583   6.436   0.396
 5785SOL     OW18253   1.795   2.284   1.223
 5785SOL    HW118254   1.701   2.295   1.254
 5785SOL    HW218255   1.844   2.371   1.233
 5786SOL     OW18256   1.139   4.136   0.699
 5786SOL    HW118257   1.120   4.211   0.636
 5786SOL    HW218258   1.198   4.068   0.654
 5787SOL     OW18259   4.925   2.153   4.490
 5787SOL    HW118260   4.901   2.247   4.468
 5787SOL    HW218261   4.891   2.131   4.582
 5788SOL     OW18262   2.670   0.433   1.580
 5788SOL    HW118263   2.615   0.514   1.559
 5788SOL    HW218264   2.762   0.444   1.541
 5789SOL     OW18265   2.963   2.715   6.593
 5789SOL    HW118266   2.885   2.773   6.616
 5789SOL    HW218267   2.942   2.620   6.617
 5790SOL     OW18268   6.749   5.770   5.302
 5790SOL    HW118269   6.826   5.787   5.241
 5790SOL    HW218270   6.710   5.680   5.283
 5791SOL     OW18271   2.931   1.858   2.630
 5791SOL    HW118272   2.839   1.897   2.620
 5791SOL    HW218273   2.948   1.837   2.726
 5792SOL     OW18274   4.801   4.085   3.320
 5792SOL    HW118275   4.773   4.137   3.401
 5792SOL    HW218276   4.798   3.987   3.341
 5793SOL     OW18277   5.734   1.224   5.382
 5793SOL    HW118278   5.809   1.213   5.448
 5793SOL    HW218279   5.648   1.197   5.425
 5794SOL     OW18280   3.451   0.450   6.908
 5794SOL    HW118281   3.360   0.486   6.931
 5794SOL    HW218282   3.489   0.502   6.831
 5795SOL     OW18283   0.223   6.363   1.216
 5795SOL    HW118284   0.287   6.410   1.156
 5795SOL    HW218285   0.137   6.414   1.220
 5796SOL     OW18286   4.628   0.577   6.501
 5796SOL    HW118287   4.666   0.500   6.449
 5796SOL    HW218288   4.616   0.655   6.439
 5797SOL     OW18289   5.444   1.083   0.055
 5797SOL    HW118290   5.530   1.075   0.105
 5797SOL    HW218291   5.377   1.134   0.110
 5798SOL     OW18292   0.711   3.733   4.379
 5798SOL    HW118293   0.653   3.792   4.324
 5798SOL    HW218294   0.802   3.773   4.388
 5799SOL     OW18295   0.445   0.062   3.057
 5799SOL    HW118296   0.397   0.133   3.109
 5799SOL    HW218297   0.482   7.022   3.120
 5800SOL     OW18298   0.387   0.247   1.743
 5800SOL    HW118299   0.376   0.159   1.696
 5800SOL    HW218300   0.456   0.238   1.814
 5801SOL     OW18301   2.291   2.581   3.674
 5801SOL    HW118302   2.193   2.597   3.687
 5801SOL    HW218303   2.311   2.485   3.696
 5802SOL     OW18304   6.220   3.321   2.553
 5802SOL    HW118305   6.155   3.309   2.478
 5802SOL    HW218306   6.170   3.338   2.637
 5803SOL     OW18307   1.379   4.780   3.745
 5803SOL    HW118308   1.322   4.859   3.721
 5803SOL    HW218309   1.387   4.774   3.845
 5804SOL     OW18310   6.796   6.189   3.493
 5804SOL    HW118311   6.816   6.269   3.550
 5804SOL    HW218312   6.716   6.142   3.529
 5805SOL     OW18313   1.517   2.984   0.476
 5805SOL    HW118314   1.541   2.996   0.572
 5805SOL    HW218315   1.537   2.890   0.448
 5806SOL     OW18316   0.108   4.612   5.088
 5806SOL    HW118317   0.115   4.703   5.128
 5806SOL    HW218318   0.197   4.584   5.051
 5807SOL     OW18319   1.484   5.792   1.033
 5807SOL    HW118320   1.570   5.839   1.053
 5807SOL    HW218321   1.426   5.851   0.975
 5808SOL     OW18322   6.466   6.691   5.145
 5808SOL    HW118323   6.459   6.635   5.227
 5808SOL    HW218324   6.458   6.633   5.064
 5809SOL     OW18325   6.753   2.542   5.544
 5809SOL    HW118326   6.680   2.565   5.479
 5809SOL    HW218327   6.749   2.445   5.567
 5810SOL     OW18328   3.945   0.642   5.074
 5810SOL    HW118329   3.981   0.678   5.160
 5810SOL    HW218330   3.957   0.710   5.001
 5811SOL     OW18331   2.736   2.209   5.416
 5811SOL    HW118332   2.795   2.202   5.335
 5811SOL    HW218333   2.694   2.299   5.419
 5812SOL     OW18334   5.315   4.034   6.038
 5812SOL    HW118335   5.376   3.963   6.005
 5812SOL    HW218336   5.364   4.121   6.043
 5813SOL     OW18337   3.090   6.180   1.326
 5813SOL    HW118338   3.023   6.108   1.308
 5813SOL    HW218339   3.097   6.240   1.246
 5814SOL     OW18340   0.108   2.382   2.074
 5814SOL    HW118341   0.161   2.297   2.079
 5814SOL    HW218342   0.156   2.447   2.015
 5815SOL     OW18343   5.235   1.502   4.343
 5815SOL    HW118344   5.152   1.460   4.305
 5815SOL    HW218345   5.222   1.520   4.440
 5816SOL     OW18346   6.299   4.794   1.734
 5816SOL    HW118347   6.355   4.792   1.651
 5816SOL    HW218348   6.345   4.742   1.806
 5817SOL     OW18349   6.025   5.047   5.780
 5817SOL    HW118350   5.986   4.961   5.814
 5817SOL    HW218351   5.996   5.122   5.838
 5818SOL     OW18352   0.373   5.709   4.696
 5818SOL    HW118353   0.339   5.783   4.753
 5818SOL    HW218354   0.468   5.689   4.719
 5819SOL     OW18355   2.814   4.936   6.471
 5819SOL    HW118356   2.869   5.009   6.511
 5819SOL    HW218357   2.853   4.908   6.384
 5820SOL     OW18358   4.525   4.881   2.067
 5820SOL    HW118359   4.527   4.903   2.164
 5820SOL    HW218360   4.607   4.830   2.043
 5821SOL     OW18361   6.343   1.122   1.818
 5821SOL    HW118362   6.245   1.133   1.837
 5821SOL    HW218363   6.394   1.126   1.904
 5822SOL     OW18364   1.362   2.596   2.496
 5822SOL    HW118365   1.316   2.518   2.453
 5822SOL    HW218366   1.445   2.564   2.541
 5823SOL     OW18367   2.629   6.466   4.774
 5823SOL    HW118368   2.577   6.387   4.741
 5823SOL    HW218369   2.565   6.537   4.806
 5824SOL     OW18370   1.058   6.906   3.253
 5824SOL    HW118371   1.142   6.930   3.301
 5824SOL    HW218372   0.995   6.863   3.317
 5825SOL     OW18373   0.258   5.474   4.801
 5825SOL    HW118374   0.308   5.559   4.785
 5825SOL    HW218375   0.213   5.445   4.716
 5826SOL     OW18376   0.316   6.841   6.124
 5826SOL    HW118377   0.259   6.805   6.050
 5826SOL    HW218378   0.329   6.939   6.110
 5827SOL     OW18379   0.970   3.454   4.676
 5827SOL    HW118380   1.041   3.460   4.747
 5827SOL    HW218381   1.014   3.452   4.586
 5828SOL     OW18382   4.606   1.034   3.430
 5828SOL    HW118383   4.694   1.071   3.401
 5828SOL    HW218384   4.619   0.940   3.464
 5829SOL     OW18385   1.634   0.775   4.490
 5829SOL    HW118386   1.591   0.728   4.413
 5829SOL    HW218387   1.597   0.867   4.498
 5830SOL     OW18388   4.361   6.302   5.550
 5830SOL    HW118389   4.279   6.351   5.521
 5830SOL    HW218390   4.413   6.358   5.615
 5831SOL     OW18391   1.294   2.040   5.665
 5831SOL    HW118392   1.283   2.085   5.753
 5831SOL    HW218393   1.391   2.023   5.648
 5832SOL     OW18394   3.635   4.341   0.839
 5832SOL    HW118395   3.600   4.279   0.768
 5832SOL    HW218396   3.564   4.406   0.865
 5833SOL     OW18397   4.127   3.120   5.638
 5833SOL    HW118398   4.176   3.105   5.723
 5833SOL    HW218399   4.054   3.186   5.652
 5834SOL     OW18400   6.434   3.864   6.691
 5834SOL    HW118401   6.469   3.923   6.619
 5834SOL    HW218402   6.491   3.782   6.698
 5835SOL     OW18403   6.220   2.086   2.363
 5835SOL    HW118404   6.278   2.094   2.282
 5835SOL    HW218405   6.232   1.994   2.403
 5836SOL     OW18406   2.411   6.678   1.675
 5836SOL    HW118407   2.369   6.733   1.748
 5836SOL    HW218408   2.408   6.729   1.589
 5837SOL     OW18409   4.119   3.634   6.707
 5837SOL    HW118410   4.038   3.585   6.673
 5837SOL    HW218411   4.199   3.575   6.699
 5838SOL     OW18412   2.886   1.292   1.251
 5838SOL    HW118413   2.943   1.374   1.246
 5838SOL    HW218414   2.921   1.223   1.188
 5839SOL     OW18415   0.428   2.464   0.952
 5839SOL    HW118416   0.520   2.487   0.920
 5839SOL    HW218417   0.433   2.419   1.041
 5840SOL     OW18418   0.221   3.795   0.914
 5840SOL    HW118419   0.261   3.796   1.006
 5840SOL    HW218420   0.122   3.795   0.921
 5841SOL     OW18421   5.044   0.422   1.663
 5841SOL    HW118422   4.995   0.335   1.663
 5841SOL    HW218423   5.063   0.449   1.569
 5842SOL     OW18424   4.156   2.043   1.459
 5842SOL    HW118425   4.125   1.953   1.490
 5842SOL    HW218426   4.143   2.109   1.533
 5843SOL     OW18427   1.755   3.353   1.189
 5843SOL    HW118428   1.805   3.320   1.269
 5843SOL    HW218429   1.742   3.452   1.195
 5844SOL     OW18430   0.957   6.402   5.433
 5844SOL    HW118431   0.900   6.447   5.502
 5844SOL    HW218432   0.910   6.404   5.345
 5845SOL     OW18433   1.122   0.415   2.332
 5845SOL    HW118434   1.133   0.514   2.346
 5845SOL    HW218435   1.198   0.368   2.378
 5846SOL     OW18436   5.979   3.769   5.806
 5846SOL    HW118437   5.897   3.817   5.773
 5846SOL    HW218438   6.019   3.717   5.731
 5847SOL     OW18439   2.682   2.499   1.809
 5847SOL    HW118440   2.641   2.408   1.802
 5847SOL    HW218441   2.777   2.491   1.840
 5848SOL     OW18442   1.813   5.924   3.990
 5848SOL    HW118443   1.864   5.880   4.064
 5848SOL    HW218444   1.869   5.925   3.907
 5849SOL     OW18445   2.308   6.888   5.424
 5849SOL    HW118446   2.367   6.899   5.344
 5849SOL    HW218447   2.252   6.971   5.436
 5850SOL     OW18448   0.568   3.109   1.395
 5850SOL    HW118449   0.637   3.141   1.330
 5850SOL    HW218450   0.480   3.103   1.349
 5851SOL     OW18451   5.410   3.736   3.893
 5851SOL    HW118452   5.395   3.726   3.991
 5851SOL    HW218453   5.352   3.671   3.843
 5852SOL     OW18454   4.540   6.420   2.401
 5852SOL    HW118455   4.454   6.443   2.354
 5852SOL    HW218456   4.525   6.341   2.460
 5853SOL     OW18457   4.630   5.750   5.505
 5853SOL    HW118458   4.607   5.733   5.409
 5853SOL    HW218459   4.548   5.774   5.555
 5854SOL     OW18460   4.558   4.853   5.824
 5854SOL    HW118461   4.517   4.773   5.866
 5854SOL    HW218462   4.605   4.826   5.740
 5855SOL     OW18463   1.672   2.558   4.429
 5855SOL    HW118464   1.698   2.528   4.521
 5855SOL    HW218465   1.573   2.567   4.424
 5856SOL     OW18466   1.086   6.871   2.603
 5856SOL    HW118467   1.107   6.902   2.510
 5856SOL    HW218468   1.168   6.829   2.643
 5857SOL     OW18469   6.351   3.216   5.098
 5857SOL    HW118470   6.302   3.263   5.025
 5857SOL    HW218471   6.299   3.222   5.183
 5858SOL     OW18472   2.494   2.434   2.811
 5858SOL    HW118473   2.399   2.444   2.842
 5858SOL    HW218474   2.494   2.394   2.719
 5859SOL     OW18475   6.229   6.076   1.561
 5859SOL    HW118476   6.321   6.082   1.521
 5859SOL    HW218477   6.223   6.139   1.638
 5860SOL     OW18478   0.437   4.714   3.370
 5860SOL    HW118479   0.429   4.813   3.385
 5860SOL    HW218480   0.533   4.692   3.353
 5861SOL     OW18481   4.851   0.776   4.538
 5861SOL    HW118482   4.841   0.775   4.637
 5861SOL    HW218483   4.896   0.861   4.510
 5862SOL     OW18484   6.621   5.615   1.585
 5862SOL    HW118485   6.529   5.645   1.558
 5862SOL    HW218486   6.663   5.565   1.509
 5863SOL     OW18487   3.004   1.492   4.635
 5863SOL    HW118488   2.991   1.544   4.719
 5863SOL    HW218489   3.048   1.549   4.566
 5864SOL     OW18490   3.510   3.835   2.710
 5864SOL    HW118491   3.565   3.918   2.701
 5864SOL    HW218492   3.568   3.760   2.740
 5865SOL     OW18493   5.260   0.162   5.706
 5865SOL    HW118494   5.265   0.128   5.800
 5865SOL    HW218495   5.250   0.085   5.644
 5866SOL     OW18496   3.263   2.835   0.895
 5866SOL    HW118497   3.358   2.861   0.912
 5866SOL    HW218498   3.202   2.911   0.918
 5867SOL     OW18499   1.848   2.544   1.788
 5867SOL    HW118500   1.844   2.572   1.884
 5867SOL    HW218501   1.831   2.624   1.730
 5868SOL     OW18502   1.012   2.165   5.789
 5868SOL    HW118503   1.082   2.220   5.745
 5868SOL    HW218504   1.036   2.150   5.885
 5869SOL     OW18505   2.040   4.301   3.552
 5869SOL    HW118506   2.028   4.219   3.496
 5869SOL    HW218507   2.137   4.311   3.576
 5870SOL     OW18508   4.085   6.092   5.728
 5870SOL    HW118509   4.086   6.040   5.643
 5870SOL    HW218510   3.991   6.111   5.755
 5871SOL     OW18511   4.100   3.779   2.200
 5871SOL    HW118512   4.108   3.829   2.286
 5871SOL    HW218513   4.108   3.842   2.123
 5872SOL     OW18514   3.816   6.491   1.042
 5872SOL    HW118515   3.763   6.408   1.054
 5872SOL    HW218516   3.901   6.485   1.093
 5873SOL     OW18517   2.956   6.634   2.475
 5873SOL    HW118518   2.889   6.567   2.441
 5873SOL    HW218519   3.005   6.673   2.397
 5874SOL     OW18520   2.175   4.549   5.185
 5874SOL    HW118521   2.175   4.542   5.285
 5874SOL    HW218522   2.263   4.520   5.149
 5875SOL     OW18523   3.507   1.798   0.449
 5875SOL    HW118524   3.599   1.808   0.487
 5875SOL    HW218525   3.460   1.723   0.495
 5876SOL     OW18526   3.838   3.526   2.191
 5876SOL    HW118527   3.758   3.475   2.159
 5876SOL    HW218528   3.915   3.464   2.202
 5877SOL     OW18529   6.085   6.313   0.527
 5877SOL    HW118530   6.053   6.243   0.463
 5877SOL    HW218531   6.010   6.375   0.549
 5878SOL     OW18532   0.635   6.212   3.730
 5878SOL    HW118533   0.553   6.235   3.783
 5878SOL    HW218534   0.690   6.294   3.717
 5879SOL     OW18535   0.925   3.294   0.119
 5879SOL    HW118536   1.009   3.329   0.079
 5879SOL    HW218537   0.907   3.342   0.205
 5880SOL     OW18538   3.044   4.296   0.501
 5880SOL    HW118539   3.078   4.203   0.487
 5880SOL    HW218540   2.970   4.314   0.437
 5881SOL     OW18541   6.867   5.090   3.359
 5881SOL    HW118542   6.942   5.157   3.360
 5881SOL    HW218543   6.781   5.137   3.340
 5882SOL     OW18544   6.472   6.209   1.483
 5882SOL    HW118545   6.560   6.178   1.520
 5882SOL    HW218546   6.455   6.303   1.512
 5883SOL     OW18547   0.960   1.802   6.954
 5883SOL    HW118548   0.863   1.824   6.946
 5883SOL    HW218549   0.970   1.707   6.985
 5884SOL     OW18550   2.820   1.337   4.021
 5884SOL    HW118551   2.917   1.323   4.001
 5884SOL    HW218552   2.795   1.431   3.998
 5885SOL     OW18553   0.126   0.395   2.677
 5885SOL    HW118554   0.147   0.348   2.591
 5885SOL    HW218555   0.112   0.492   2.659
 5886SOL     OW18556   0.449   1.770   5.128
 5886SOL    HW118557   0.361   1.743   5.167
 5886SOL    HW218558   0.493   1.691   5.086
 5887SOL     OW18559   3.447   1.165   3.493
 5887SOL    HW118560   3.472   1.178   3.589
 5887SOL    HW218561   3.447   1.253   3.446
 5888SOL     OW18562   2.703   0.804   2.332
 5888SOL    HW118563   2.754   0.890   2.327
 5888SOL    HW218564   2.621   0.818   2.387
 5889SOL     OW18565   1.326   5.996   1.179
 5889SOL    HW118566   1.376   5.911   1.198
 5889SOL    HW218567   1.319   6.009   1.080
 5890SOL     OW18568   1.502   6.920   4.825
 5890SOL    HW118569   1.409   6.957   4.823
 5890SOL    HW218570   1.520   6.872   4.740
 5891SOL     OW18571   2.945   3.056   6.030
 5891SOL    HW118572   2.969   2.961   6.008
 5891SOL    HW218573   2.848   3.070   6.013
 5892SOL     OW18574   0.553   5.374   1.196
 5892SOL    HW118575   0.634   5.334   1.152
 5892SOL    HW218576   0.472   5.321   1.169
 5893SOL     OW18577   1.539   3.831   4.143
 5893SOL    HW118578   1.463   3.890   4.114
 5893SOL    HW218579   1.625   3.867   4.107
 5894SOL     OW18580   0.572   5.789   3.849
 5894SOL    HW118581   0.631   5.768   3.771
 5894SOL    HW218582   0.593   5.881   3.883
 5895SOL     OW18583   5.273   3.200   4.434
 5895SOL    HW118584   5.310   3.147   4.511
 5895SOL    HW218585   5.346   3.219   4.369
 5896SOL     OW18586   4.239   1.393   0.858
 5896SOL    HW118587   4.161   1.388   0.796
 5896SOL    HW218588   4.317   1.346   0.817
 5897SOL     OW18589   3.735   0.565   1.387
 5897SOL    HW118590   3.658   0.567   1.451
 5897SOL    HW218591   3.715   0.624   1.309
 5898SOL     OW18592   2.298   6.410   3.214
 5898SOL    HW118593   2.200   6.423   3.229
 5898SOL    HW218594   2.338   6.494   3.179
 5899SOL     OW18595   4.843   6.649   5.924
 5899SOL    HW118596   4.921   6.709   5.941
 5899SOL    HW218597   4.875   6.554   5.920
 5900SOL     OW18598   4.723   5.497   3.403
 5900SOL    HW118599   4.634   5.453   3.417
 5900SOL    HW218600   4.742   5.503   3.305
 5901SOL     OW18601   2.843   0.452   0.212
 5901SOL    HW118602   2.843   0.363   0.257
 5901SOL    HW218603   2.936   0.488   0.208
 5902SOL     OW18604   6.740   2.112   6.548
 5902SOL    HW118605   6.749   2.211   6.538
 5902SOL    HW218606   6.817   2.076   6.601
 5903SOL     OW18607   4.454   3.828   0.821
 5903SOL    HW118608   4.449   3.909   0.879
 5903SOL    HW218609   4.550   3.811   0.797
 5904SOL     OW18610   1.063   3.334   1.635
 5904SOL    HW118611   1.037   3.418   1.588
 5904SOL    HW218612   1.054   3.257   1.573
 5905SOL     OW18613   6.242   6.369   2.834
 5905SOL    HW118614   6.255   6.352   2.736
 5905SOL    HW218615   6.265   6.286   2.885
 5906SOL     OW18616   4.484   1.851   4.236
 5906SOL    HW118617   4.424   1.854   4.316
 5906SOL    HW218618   4.536   1.765   4.236
 5907SOL     OW18619   1.508   5.372   1.466
 5907SOL    HW118620   1.579   5.315   1.506
 5907SOL    HW218621   1.456   5.319   1.398
 5908SOL     OW18622   0.626   2.399   6.596
 5908SOL    HW118623   0.603   2.445   6.683
 5908SOL    HW218624   0.543   2.388   6.542
 5909SOL     OW18625   0.008   5.077   1.247
 5909SOL    HW118626   0.051   5.037   1.166
 5909SOL    HW218627   0.054   5.163   1.270
 5910SOL     OW18628   0.868   3.041   3.313
 5910SOL    HW118629   0.857   3.008   3.220
 5910SOL    HW218630   0.943   3.107   3.317
 5911SOL     OW18631   6.592   5.972   6.426
 5911SOL    HW118632   6.563   6.019   6.509
 5911SOL    HW218633   6.690   5.988   6.411
 5912SOL     OW18634   6.761   0.238   5.238
 5912SOL    HW118635   6.704   0.210   5.160
 5912SOL    HW218636   6.775   0.337   5.235
 5913SOL     OW18637   4.983   2.872   6.603
 5913SOL    HW118638   4.961   2.802   6.672
 5913SOL    HW218639   4.932   2.853   6.519
 5914SOL     OW18640   1.354   5.611   6.906
 5914SOL    HW118641   1.418   5.673   6.952
 5914SOL    HW218642   1.375   5.607   6.809
 5915SOL     OW18643   4.791   6.315   1.432
 5915SOL    HW118644   4.801   6.414   1.442
 5915SOL    HW218645   4.864   6.269   1.483
 5916SOL     OW18646   6.506   6.167   2.720
 5916SOL    HW118647   6.586   6.227   2.713
 5916SOL    HW218648   6.459   6.185   2.807
 5917SOL     OW18649   3.021   3.695   4.657
 5917SOL    HW118650   3.010   3.754   4.736
 5917SOL    HW218651   3.060   3.607   4.686
 5918SOL     OW18652   2.101   4.895   5.610
 5918SOL    HW118653   2.088   4.936   5.519
 5918SOL    HW218654   2.087   4.797   5.605
 5919SOL     OW18655   3.170   3.073   2.942
 5919SOL    HW118656   3.090   3.061   3.001
 5919SOL    HW218657   3.249   3.030   2.985
 5920SOL     OW18658   5.244   0.725   6.083
 5920SOL    HW118659   5.146   0.710   6.093
 5920SOL    HW218660   5.273   0.799   6.144
 5921SOL     OW18661   4.096   5.493   6.430
 5921SOL    HW118662   4.128   5.415   6.376
 5921SOL    HW218663   4.141   5.577   6.399
 5922SOL     OW18664   6.311   4.156   4.750
 5922SOL    HW118665   6.296   4.179   4.653
 5922SOL    HW218666   6.235   4.192   4.804
 5923SOL     OW18667   6.610   1.499   2.032
 5923SOL    HW118668   6.525   1.542   2.002
 5923SOL    HW218669   6.686   1.563   2.017
 5924SOL     OW18670   5.893   0.172   2.612
 5924SOL    HW118671   5.929   0.126   2.531
 5924SOL    HW218672   5.803   0.211   2.591
 5925SOL     OW18673   3.279   6.689   1.843
 5925SOL    HW118674   3.262   6.642   1.931
 5925SOL    HW218675   3.226   6.644   1.771
 5926SOL     OW18676   4.042   4.841   2.369
 5926SOL    HW118677   3.974   4.914   2.375
 5926SOL    HW218678   3.998   4.753   2.384
 5927SOL     OW18679   0.960   5.106   2.293
 5927SOL    HW118680   0.999   5.090   2.202
 5927SOL    HW218681   1.009   5.049   2.360
 5928SOL     OW18682   3.678   6.967   0.799
 5928SOL    HW118683   3.764   6.964   0.851
 5928SOL    HW218684   3.603   6.991   0.861
 5929SOL     OW18685   6.172   0.267   5.894
 5929SOL    HW118686   6.231   0.347   5.894
 5929SOL    HW218687   6.076   0.297   5.894
 5930SOL     OW18688   0.726   3.458   3.349
 5930SOL    HW118689   0.691   3.409   3.269
 5930SOL    HW218690   0.791   3.528   3.319
 5931SOL     OW18691   6.686   6.384   2.820
 5931SOL    HW118692   6.739   6.361   2.901
 5931SOL    HW218693   6.747   6.424   2.751
 5932SOL     OW18694   3.738   0.363   0.589
 5932SOL    HW118695   3.727   0.311   0.505
 5932SOL    HW218696   3.768   0.456   0.568
 5933SOL     OW18697   6.647   5.103   4.244
 5933SOL    HW118698   6.677   5.049   4.322
 5933SOL    HW218699   6.665   5.200   4.262
 5934SOL     OW18700   3.757   2.756   5.220
 5934SOL    HW118701   3.776   2.659   5.228
 5934SOL    HW218702   3.812   2.806   5.287
 5935SOL     OW18703   0.294   5.194   6.525
 5935SOL    HW118704   0.338   5.126   6.466
 5935SOL    HW218705   0.258   5.149   6.607
 5936SOL     OW18706   3.092   3.280   1.522
 5936SOL    HW118707   3.005   3.264   1.476
 5936SOL    HW218708   3.077   3.279   1.621
 5937SOL     OW18709   6.309   3.234   1.828
 5937SOL    HW118710   6.322   3.227   1.729
 5937SOL    HW218711   6.340   3.150   1.872
 5938SOL     OW18712   5.871   5.891   3.885
 5938SOL    HW118713   5.839   5.977   3.845
 5938SOL    HW218714   5.795   5.829   3.897
 5939SOL     OW18715   2.698   5.884   3.894
 5939SOL    HW118716   2.688   5.976   3.856
 5939SOL    HW218717   2.677   5.817   3.824
 5940SOL     OW18718   4.399   4.997   3.129
 5940SOL    HW118719   4.482   4.954   3.092
 5940SOL    HW218720   4.350   5.044   3.056
 5941SOL     OW18721   5.590   3.270   2.480
 5941SOL    HW118722   5.608   3.266   2.382
 5941SOL    HW218723   5.569   3.178   2.514
 5942SOL     OW18724   5.080   3.582   6.936
 5942SOL    HW118725   5.129   3.511   6.885
 5942SOL    HW218726   5.053   3.655   6.873
 5943SOL     OW18727   3.435   3.694   6.229
 5943SOL    HW118728   3.362   3.747   6.186
 5943SOL    HW218729   3.503   3.669   6.159
 5944SOL     OW18730   0.130   2.121   0.053
 5944SOL    HW118731   0.092   2.030   0.064
 5944SOL    HW218732   0.201   2.136   0.122
 5945SOL     OW18733   6.967   5.002   5.258
 5945SOL    HW118734   6.951   5.077   5.194
 5945SOL    HW218735   6.881   4.953   5.273
 5946SOL     OW18736   3.366   3.580   6.477
 5946SOL    HW118737   3.425   3.501   6.496
 5946SOL    HW218738   3.380   3.610   6.383
 5947SOL     OW18739   3.143   3.471   3.146
 5947SOL    HW118740   3.054   3.507   3.173
 5947SOL    HW218741   3.190   3.537   3.087
 5948SOL     OW18742   4.133   4.948   2.641
 5948SOL    HW118743   4.154   4.882   2.568
 5948SOL    HW218744   4.155   5.040   2.609
 5949SOL     OW18745   5.314   4.803   1.494
 5949SOL    HW118746   5.364   4.719   1.515
 5949SOL    HW218747   5.280   4.799   1.400
 5950SOL     OW18748   5.608   1.717   4.810
 5950SOL    HW118749   5.624   1.810   4.843
 5950SOL    HW218750   5.515   1.710   4.773
 5951SOL     OW18751   0.930   5.669   4.786
 5951SOL    HW118752   0.934   5.761   4.824
 5951SOL    HW218753   0.979   5.605   4.846
 5952SOL     OW18754   4.868   6.105   3.552
 5952SOL    HW118755   4.870   6.078   3.648
 5952SOL    HW218756   4.907   6.032   3.495
 5953SOL     OW18757   6.694   4.405   5.095
 5953SOL    HW118758   6.602   4.436   5.071
 5953SOL    HW218759   6.761   4.454   5.039
 5954SOL     OW18760   6.592   5.234   5.312
 5954SOL    HW118761   6.616   5.151   5.262
 5954SOL    HW218762   6.606   5.219   5.410
 5955SOL     OW18763   4.833   5.516   2.127
 5955SOL    HW118764   4.761   5.564   2.176
 5955SOL    HW218765   4.795   5.469   2.048
 5956SOL     OW18766   5.527   2.053   4.002
 5956SOL    HW118767   5.557   1.992   3.929
 5956SOL    HW218768   5.452   2.110   3.969
 5957SOL     OW18769   3.264   1.692   4.597
 5957SOL    HW118770   3.235   1.752   4.672
 5957SOL    HW218771   3.212   1.714   4.514
 5958SOL     OW18772   4.342   7.021   2.686
 5958SOL    HW118773   4.267   0.050   2.722
 5958SOL    HW218774   4.369   0.028   2.596
 5959SOL     OW18775   4.601   2.943   5.836
 5959SOL    HW118776   4.512   2.899   5.847
 5959SOL    HW218777   4.673   2.873   5.841
 5960SOL     OW18778   3.447   5.972   5.076
 5960SOL    HW118779   3.373   5.935   5.019
 5960SOL    HW218780   3.528   5.988   5.019
 5961SOL     OW18781   4.897   1.390   2.794
 5961SOL    HW118782   4.843   1.379   2.710
 5961SOL    HW218783   4.877   1.479   2.834
 5962SOL     OW18784   5.670   6.162   6.634
 5962SOL    HW118785   5.688   6.246   6.582
 5962SOL    HW218786   5.736   6.156   6.709
 5963SOL     OW18787   3.107   3.804   6.338
 5963SOL    HW118788   3.123   3.829   6.243
 5963SOL    HW218789   3.049   3.723   6.342
 5964SOL     OW18790   1.570   6.469   4.642
 5964SOL    HW118791   1.532   6.501   4.729
 5964SOL    HW218792   1.669   6.460   4.650
 5965SOL     OW18793   2.134   1.637   0.003
 5965SOL    HW118794   2.196   1.677   6.963
 5965SOL    HW218795   2.093   1.709   0.058
 5966SOL     OW18796   2.397   6.474   6.364
 5966SOL    HW118797   2.320   6.538   6.363
 5966SOL    HW218798   2.466   6.505   6.299
 5967SOL     OW18799   2.514   0.422   5.817
 5967SOL    HW118800   2.416   0.441   5.827
 5967SOL    HW218801   2.537   0.414   5.721
 5968SOL     OW18802   5.164   2.492   0.284
 5968SOL    HW118803   5.147   2.589   0.268
 5968SOL    HW218804   5.223   2.481   0.364
 5969SOL     OW18805   6.490   0.493   6.743
 5969SOL    HW118806   6.552   0.570   6.757
 5969SOL    HW218807   6.534   0.425   6.684
 5970SOL     OW18808   6.915   5.057   1.621
 5970SOL    HW118809   6.962   4.984   1.571
 5970SOL    HW218810   6.858   5.016   1.692
 5971SOL     OW18811   6.819   0.742   1.422
 5971SOL    HW118812   6.859   0.828   1.390
 5971SOL    HW218813   6.890   0.688   1.467
 5972SOL     OW18814   4.584   5.847   6.112
 5972SOL    HW118815   4.595   5.929   6.168
 5972SOL    HW218816   4.667   5.832   6.058
 5973SOL     OW18817   1.576   2.604   2.648
 5973SOL    HW118818   1.669   2.568   2.652
 5973SOL    HW218819   1.580   2.704   2.648
 5974SOL     OW18820   5.313   6.234   0.315
 5974SOL    HW118821   5.260   6.186   0.245
 5974SOL    HW218822   5.253   6.257   0.392
 5975SOL     OW18823   3.900   0.227   0.833
 5975SOL    HW118824   3.834   0.289   0.790
 5975SOL    HW218825   3.959   0.188   0.763
 5976SOL     OW18826   3.886   2.965   5.358
 5976SOL    HW118827   3.962   3.025   5.330
 5976SOL    HW218828   3.833   3.010   5.430
 5977SOL     OW18829   1.448   5.635   0.794
 5977SOL    HW118830   1.502   5.651   0.877
 5977SOL    HW218831   1.481   5.694   0.721
 5978SOL     OW18832   3.600   5.509   1.606
 5978SOL    HW118833   3.691   5.525   1.644
 5978SOL    HW218834   3.549   5.449   1.667
 5979SOL     OW18835   6.723   0.542   2.540
 5979SOL    HW118836   6.661   0.560   2.617
 5979SOL    HW218837   6.793   0.476   2.568
 5980SOL     OW18838   4.075   3.844   1.218
 5980SOL    HW118839   4.151   3.875   1.160
 5980SOL    HW218840   4.029   3.924   1.257
 5981SOL     OW18841   5.013   1.696   0.576
 5981SOL    HW118842   5.061   1.720   0.660
 5981SOL    HW218843   5.001   1.597   0.572
 5982SOL     OW18844   6.145   2.106   2.741
 5982SOL    HW118845   6.059   2.056   2.750
 5982SOL    HW218846   6.133   2.184   2.680
 5983SOL     OW18847   1.117   1.370   4.218
 5983SOL    HW118848   1.071   1.429   4.285
 5983SOL    HW218849   1.195   1.325   4.260
 5984SOL     OW18850   5.315   6.613   3.251
 5984SOL    HW118851   5.310   6.612   3.151
 5984SOL    HW218852   5.228   6.644   3.289
 5985SOL     OW18853   6.990   3.086   3.287
 5985SOL    HW118854   7.025   3.120   3.199
 5985SOL    HW218855   6.891   3.095   3.289
 5986SOL     OW18856   3.291   4.081   5.034
 5986SOL    HW118857   3.254   4.071   4.942
 5986SOL    HW218858   3.366   4.147   5.033
 5987SOL     OW18859   4.894   0.465   4.064
 5987SOL    HW118860   4.800   0.469   4.099
 5987SOL    HW218861   4.926   0.558   4.045
 5988SOL     OW18862   4.532   0.574   5.357
 5988SOL    HW118863   4.534   0.589   5.258
 5988SOL    HW218864   4.440   0.592   5.391
 5989SOL     OW18865   2.292   5.243   5.867
 5989SOL    HW118866   2.221   5.312   5.851
 5989SOL    HW218867   2.358   5.246   5.793
 5990SOL     OW18868   3.651   3.582   0.547
 5990SOL    HW118869   3.642   3.610   0.451
 5990SOL    HW218870   3.610   3.492   0.559
 5991SOL     OW18871   4.125   5.759   6.629
 5991SOL    HW118872   4.065   5.707   6.690
 5991SOL    HW218873   4.138   5.851   6.664
 5992SOL     OW18874   3.550   0.190   1.803
 5992SOL    HW118875   3.591   0.188   1.712
 5992SOL    HW218876   3.451   0.187   1.795
 5993SOL     OW18877   4.198   4.112   5.709
 5993SOL    HW118878   4.132   4.147   5.643
 5993SOL    HW218879   4.244   4.188   5.755
 5994SOL     OW18880   0.097   1.855   0.063
 5994SOL    HW118881   0.057   1.849   0.154
 5994SOL    HW218882   0.144   1.770   0.041
 5995SOL     OW18883   4.855   3.091   2.230
 5995SOL    HW118884   4.853   3.190   2.246
 5995SOL    HW218885   4.818   3.071   2.139
 5996SOL     OW18886   0.225   6.117   1.050
 5996SOL    HW118887   0.197   6.199   1.099
 5996SOL    HW218888   0.323   6.101   1.065
 5997SOL     OW18889   0.619   5.283   2.628
 5997SOL    HW118890   0.716   5.268   2.611
 5997SOL    HW218891   0.602   5.381   2.640
 5998SOL     OW18892   6.181   1.710   2.269
 5998SOL    HW118893   6.155   1.788   2.212
 5998SOL    HW218894   6.255   1.660   2.225
 5999SOL     OW18895   2.560   3.274   1.326
 5999SOL    HW118896   2.510   3.287   1.241
 5999SOL    HW218897   2.500   3.235   1.395
 6000SOL     OW18898   1.819   6.043   6.811
 6000SOL    HW118899   1.838   5.966   6.750
 6000SOL    HW218900   1.879   6.037   6.891
 6001SOL     OW18901   0.200   5.050   6.733
 6001SOL    HW118902   0.195   4.952   6.714
 6001SOL    HW218903   0.178   5.067   6.829
 6002SOL     OW18904   6.026   6.757   6.700
 6002SOL    HW118905   6.068   6.845   6.679
 6002SOL    HW218906   6.073   6.715   6.778
 6003SOL     OW18907   5.822   1.777   5.172
 6003SOL    HW118908   5.723   1.785   5.182
 6003SOL    HW218909   5.866   1.856   5.215
 6004SOL     OW18910   6.454   3.917   3.464
 6004SOL    HW118911   6.551   3.892   3.461
 6004SOL    HW218912   6.405   3.872   3.389
 6005SOL     OW18913   5.471   5.160   4.694
 6005SOL    HW118914   5.475   5.076   4.749
 6005SOL    HW218915   5.385   5.207   4.712
 6006SOL     OW18916   2.176   0.912   4.951
 6006SOL    HW118917   2.246   0.955   5.008
 6006SOL    HW218918   2.143   0.828   4.995
 6007SOL     OW18919   6.392   3.290   5.936
 6007SOL    HW118920   6.368   3.351   6.011
 6007SOL    HW218921   6.442   3.341   5.866
 6008SOL     OW18922   2.791   5.121   6.067
 6008SOL    HW118923   2.884   5.145   6.039
 6008SOL    HW218924   2.785   5.022   6.080
 6009SOL     OW18925   3.549   0.744   4.054
 6009SOL    HW118926   3.548   0.687   3.972
 6009SOL    HW218927   3.597   0.695   4.127
 6010SOL     OW18928   0.809   4.569   4.029
 6010SOL    HW118929   0.849   4.601   3.944
 6010SOL    HW218930   0.856   4.486   4.060
 6011SOL     OW18931   6.033   3.326   3.585
 6011SOL    HW118932   6.013   3.295   3.492
 6011SOL    HW218933   6.082   3.255   3.635
 6012SOL     OW18934   5.838   0.663   0.719
 6012SOL    HW118935   5.785   0.692   0.639
 6012SOL    HW218936   5.816   0.722   0.797
 6013SOL     OW18937   4.575   0.868   2.778
 6013SOL    HW118938   4.558   0.959   2.742
 6013SOL    HW218939   4.673   0.854   2.789
 6014SOL     OW18940   3.856   4.025   3.484
 6014SOL    HW118941   3.939   3.972   3.463
 6014SOL    HW218942   3.850   4.038   3.583
 6015SOL     OW18943   6.080   4.284   4.814
 6015SOL    HW118944   5.985   4.258   4.798
 6015SOL    HW218945   6.083   4.371   4.863
 6016SOL     OW18946   6.733   1.465   6.269
 6016SOL    HW118947   6.782   1.552   6.272
 6016SOL    HW218948   6.635   1.482   6.261
 6017SOL     OW18949   6.409   4.723   4.087
 6017SOL    HW118950   6.473   4.777   4.033
 6017SOL    HW218951   6.331   4.697   4.030
 6018SOL     OW18952   3.581   1.147   5.995
 6018SOL    HW118953   3.484   1.169   5.982
 6018SOL    HW218954   3.633   1.231   6.009
 6019SOL     OW18955   0.743   2.988   5.157
 6019SOL    HW118956   0.659   3.031   5.125
 6019SOL    HW218957   0.795   3.053   5.212
 6020SOL     OW18958   0.845   4.802   0.270
 6020SOL    HW118959   0.799   4.859   0.201
 6020SOL    HW218960   0.812   4.826   0.361
 6021SOL     OW18961   4.386   0.576   3.121
 6021SOL    HW118962   4.361   0.664   3.081
 6021SOL    HW218963   4.470   0.543   3.079
 6022SOL     OW18964   6.844   1.644   3.685
 6022SOL    HW118965   6.763   1.619   3.632
 6022SOL    HW218966   6.828   1.622   3.781
 6023SOL     OW18967   5.169   0.925   1.895
 6023SOL    HW118968   5.188   0.846   1.837
 6023SOL    HW218969   5.134   0.893   1.983
 6024SOL     OW18970   1.197   4.672   1.493
 6024SOL    HW118971   1.134   4.686   1.416
 6024SOL    HW218972   1.146   4.678   1.578
 6025SOL     OW18973   2.995   1.905   3.554
 6025SOL    HW118974   3.049   1.845   3.613
 6025SOL    HW218975   2.898   1.897   3.580
 6026SOL     OW18976   0.210   5.704   5.031
 6026SOL    HW118977   0.250   5.687   5.121
 6026SOL    HW218978   0.182   5.617   4.990
 6027SOL     OW18979   6.911   3.697   6.158
 6027SOL    HW118980   7.005   3.677   6.130
 6027SOL    HW218981   6.882   3.783   6.117
 6028SOL     OW18982   5.687   4.470   1.235
 6028SOL    HW118983   5.721   4.449   1.326
 6028SOL    HW218984   5.602   4.419   1.218
 6029SOL     OW18985   2.889   6.387   3.771
 6029SOL    HW118986   2.887   6.358   3.676
 6029SOL    HW218987   2.929   6.479   3.777
 6030SOL     OW18988   4.522   4.905   3.559
 6030SOL    HW118989   4.569   4.986   3.594
 6030SOL    HW218990   4.516   4.835   3.631
 6031SOL     OW18991   3.451   5.555   3.981
 6031SOL    HW118992   3.497   5.506   4.054
 6031SOL    HW218993   3.482   5.521   3.892
 6032SOL     OW18994   2.361   5.079   2.668
 6032SOL    HW118995   2.419   5.159   2.684
 6032SOL    HW218996   2.383   5.040   2.578
 6033SOL     OW18997   2.236   2.896   2.977
 6033SOL    HW118998   2.259   2.803   2.947
 6033SOL    HW218999   2.143   2.918   2.946
 6034SOL     OW19000   1.197   0.791   5.389
 6034SOL    HW119001   1.272   0.849   5.421
 6034SOL    HW219002   1.233   0.721   5.328
 6035SOL     OW19003   1.254   1.166   1.633
 6035SOL    HW119004   1.210   1.156   1.722
 6035SOL    HW219005   1.333   1.105   1.628
 6036SOL     OW19006   5.228   5.520   2.336
 6036SOL    HW119007   5.166   5.562   2.403
 6036SOL    HW219008   5.207   5.423   2.327
 6037SOL     OW19009   4.107   0.548   0.620
 6037SOL    HW119010   4.198   0.517   0.645
 6037SOL    HW219011   4.062   0.588   0.699
 6038SOL     OW19012   1.648   2.516   6.344
 6038SOL    HW119013   1.697   2.585   6.291
 6038SOL    HW219014   1.557   2.502   6.304
 6039SOL     OW19015   3.701   3.254   2.937
 6039SOL    HW119016   3.769   3.181   2.943
 6039SOL    HW219017   3.743   3.341   2.966
 6040SOL     OW19018   1.469   1.738   1.195
 6040SOL    HW119019   1.452   1.648   1.155
 6040SOL    HW219020   1.568   1.752   1.203
 6041SOL     OW19021   2.978   1.575   5.135
 6041SOL    HW119022   2.996   1.612   5.227
 6041SOL    HW219023   3.057   1.521   5.106
 6042SOL     OW19024   4.183   6.788   2.746
 6042SOL    HW119025   4.249   6.861   2.731
 6042SOL    HW219026   4.170   6.774   2.844
 6043SOL     OW19027   0.925   6.790   5.191
 6043SOL    HW119028   0.959   6.835   5.273
 6043SOL    HW219029   0.916   6.857   5.117
 6044SOL     OW19030   2.029   2.713   1.417
 6044SOL    HW119031   2.057   2.717   1.321
 6044SOL    HW219032   2.040   2.620   1.452
 6045SOL     OW19033   5.546   3.876   3.011
 6045SOL    HW119034   5.541   3.919   2.921
 6045SOL    HW219035   5.496   3.790   3.010
 6046SOL     OW19036   3.325   2.554   1.451
 6046SOL    HW119037   3.374   2.625   1.399
 6046SOL    HW219038   3.363   2.464   1.429
 6047SOL     OW19039   5.106   1.990   1.694
 6047SOL    HW119040   5.078   1.932   1.771
 6047SOL    HW219041   5.157   1.936   1.628
 6048SOL     OW19042   4.617   5.210   5.033
 6048SOL    HW119043   4.677   5.290   5.038
 6048SOL    HW219044   4.646   5.142   5.101
 6049SOL     OW19045   4.460   3.739   6.991
 6049SOL    HW119046   4.386   3.751   6.926
 6049SOL    HW219047   4.511   3.825   6.999
 6050SOL     OW19048   2.613   5.146   6.546
 6050SOL    HW119049   2.558   5.100   6.615
 6050SOL    HW219050   2.672   5.079   6.500
 6051SOL     OW19051   1.947   0.353   3.345
 6051SOL    HW119052   1.879   0.288   3.379
 6051SOL    HW219053   2.038   0.320   3.369
 6052SOL     OW19054   4.920   1.004   1.029
 6052SOL    HW119055   4.842   1.066   1.016
 6052SOL    HW219056   4.959   0.981   0.940
 6053SOL     OW19057   4.222   1.343   5.961
 6053SOL    HW119058   4.136   1.293   5.969
 6053SOL    HW219059   4.203   1.442   5.965
 6054SOL     OW19060   2.634   3.797   6.941
 6054SOL    HW119061   2.600   3.769   6.850
 6054SOL    HW219062   2.559   3.838   6.992
 6055SOL     OW19063   5.400   6.578   5.616
 6055SOL    HW119064   5.367   6.570   5.523
 6055SOL    HW219065   5.440   6.668   5.630
 6056SOL     OW19066   4.859   3.409   5.337
 6056SOL    HW119067   4.912   3.479   5.385
 6056SOL    HW219068   4.793   3.452   5.276
 6057SOL     OW19069   6.989   1.203   2.256
 6057SOL    HW119070   6.932   1.263   2.200
 6057SOL    HW219071   0.035   1.256   2.297
 6058SOL     OW19072   5.695   3.702   0.820
 6058SOL    HW119073   5.629   3.777   0.821
 6058SOL    HW219074   5.743   3.698   0.908
 6059SOL     OW19075   4.665   5.303   6.278
 6059SOL    HW119076   4.658   5.204   6.292
 6059SOL    HW219077   4.593   5.349   6.329
 6060SOL     OW19078   2.626   3.144   5.792
 6060SOL    HW119079   2.665   3.184   5.875
 6060SOL    HW219080   2.696   3.091   5.744
 6061SOL     OW19081   5.148   3.292   0.324
 6061SOL    HW119082   5.133   3.212   0.266
 6061SOL    HW219083   5.063   3.315   0.371
 6062SOL     OW19084   2.185   1.463   5.514
 6062SOL    HW119085   2.244   1.507   5.445
 6062SOL    HW219086   2.131   1.392   5.470
 6063SOL     OW19087   4.551   2.736   6.156
 6063SOL    HW119088   4.569   2.652   6.104
 6063SOL    HW219089   4.580   2.724   6.251
 6064SOL     OW19090   1.569   0.653   1.039
 6064SOL    HW119091   1.502   0.616   1.103
 6064SOL    HW219092   1.646   0.589   1.030
 6065SOL     OW19093   0.940   5.892   2.450
 6065SOL    HW119094   0.964   5.876   2.354
 6065SOL    HW219095   1.022   5.887   2.506
 6066SOL     OW19096   5.394   1.565   5.140
 6066SOL    HW119097   5.487   1.558   5.105
 6066SOL    HW219098   5.371   1.483   5.191
 6067SOL     OW19099   4.928   0.797   5.862
 6067SOL    HW119100   4.985   0.876   5.839
 6067SOL    HW219101   4.852   0.791   5.796
 6068SOL     OW19102   4.593   2.627   4.646
 6068SOL    HW119103   4.510   2.596   4.599
 6068SOL    HW219104   4.575   2.635   4.744
 6069SOL     OW19105   5.762   3.020   5.262
 6069SOL    HW119106   5.700   3.033   5.339
 6069SOL    HW219107   5.769   3.105   5.210
 6070SOL     OW19108   2.961   2.535   1.432
 6070SOL    HW119109   2.865   2.542   1.461
 6070SOL    HW219110   3.019   2.522   1.512
 6071SOL     OW19111   6.804   5.856   4.994
 6071SOL    HW119112   6.728   5.894   5.047
 6071SOL    HW219113   6.822   5.914   4.915
 6072SOL     OW19114   0.178   0.446   1.765
 6072SOL    HW119115   0.110   0.398   1.821
 6072SOL    HW219116   0.256   0.386   1.750
 6073SOL     OW19117   5.538   2.731   0.653
 6073SOL    HW119118   5.465   2.795   0.630
 6073SOL    HW219119   5.524   2.696   0.746
 6074SOL     OW19120   0.836   5.567   2.352
 6074SOL    HW119121   0.917   5.554   2.295
 6074SOL    HW219122   0.855   5.537   2.445
 6075SOL     OW19123   4.384   6.991   5.792
 6075SOL    HW119124   4.389   6.907   5.738
 6075SOL    HW219125   4.476   7.017   5.822
 6076SOL     OW19126   3.389   5.350   3.021
 6076SOL    HW119127   3.360   5.313   2.933
 6076SOL    HW219128   3.411   5.447   3.010
 6077SOL     OW19129   6.326   5.303   1.586
 6077SOL    HW119130   6.252   5.235   1.585
 6077SOL    HW219131   6.414   5.256   1.594
 6078SOL     OW19132   5.123   5.296   0.093
 6078SOL    HW119133   5.215   5.307   0.129
 6078SOL    HW219134   5.115   5.207   0.048
 6079SOL     OW19135   5.011   3.594   5.439
 6079SOL    HW119136   4.968   3.631   5.521
 6079SOL    HW219137   5.107   3.623   5.436
 6080SOL     OW19138   0.085   5.857   1.093
 6080SOL    HW119139   0.122   5.950   1.099
 6080SOL    HW219140   0.146   5.801   1.036
 6081SOL     OW19141   6.885   2.847   5.448
 6081SOL    HW119142   6.962   2.834   5.510
 6081SOL    HW219143   6.799   2.830   5.497
 6082SOL     OW19144   2.763   0.029   3.103
 6082SOL    HW119145   2.815   6.971   3.115
 6082SOL    HW219146   2.738   0.039   3.007
 6083SOL     OW19147   6.309   5.996   0.724
 6083SOL    HW119148   6.341   6.061   0.656
 6083SOL    HW219149   6.318   6.036   0.815
 6084SOL     OW19150   0.884   6.943   2.753
 6084SOL    HW119151   0.965   6.910   2.703
 6084SOL    HW219152   0.891   6.918   2.849
 6085SOL     OW19153   0.305   0.003   0.224
 6085SOL    HW119154   0.310   7.001   0.129
 6085SOL    HW219155   0.224   0.059   0.237
 6086SOL     OW19156   2.928   1.560   5.420
 6086SOL    HW119157   2.944   1.478   5.364
 6086SOL    HW219158   2.992   1.561   5.496
 6087SOL     OW19159   3.276   6.026   1.506
 6087SOL    HW119160   3.223   6.055   1.427
 6087SOL    HW219161   3.362   5.985   1.476
 6088SOL     OW19162   5.669   6.493   4.530
 6088SOL    HW119163   5.596   6.553   4.499
 6088SOL    HW219164   5.749   6.504   4.470
 6089SOL     OW19165   5.339   2.372   2.877
 6089SOL    HW119166   5.297   2.403   2.791
 6089SOL    HW219167   5.348   2.273   2.875
 6090SOL     OW19168   2.571   5.497   4.631
 6090SOL    HW119169   2.669   5.511   4.648
 6090SOL    HW219170   2.531   5.447   4.708
 6091SOL     OW19171   2.298   1.428   6.788
 6091SOL    HW119172   2.373   1.439   6.852
 6091SOL    HW219173   2.270   1.332   6.785
 6092SOL     OW19174   4.118   0.909   2.793
 6092SOL    HW119175   4.039   0.858   2.826
 6092SOL    HW219176   4.095   1.006   2.786
 6093SOL     OW19177   2.333   2.781   2.255
 6093SOL    HW119178   2.274   2.828   2.321
 6093SOL    HW219179   2.417   2.833   2.243
 6094SOL     OW19180   1.181   5.844   2.545
 6094SOL    HW119181   1.210   5.768   2.604
 6094SOL    HW219182   1.261   5.897   2.517
 6095SOL     OW19183   4.948   4.923   0.290
 6095SOL    HW119184   5.017   4.991   0.317
 6095SOL    HW219185   4.864   4.969   0.264
 6096SOL     OW19186   6.116   0.444   3.391
 6096SOL    HW119187   6.187   0.512   3.409
 6096SOL    HW219188   6.142   0.388   3.313
 6097SOL     OW19189   1.644   5.430   2.311
 6097SOL    HW119190   1.715   5.360   2.317
 6097SOL    HW219191   1.554   5.386   2.309
 6098SOL     OW19192   0.383   1.396   5.387
 6098SOL    HW119193   0.468   1.378   5.337
 6098SOL    HW219194   0.403   1.402   5.485
 6099SOL     OW19195   5.363   6.145   6.248
 6099SOL    HW119196   5.449   6.140   6.299
 6099SOL    HW219197   5.383   6.134   6.150
 6100SOL     OW19198   5.461   5.984   1.471
 6100SOL    HW119199   5.365   6.014   1.463
 6100SOL    HW219200   5.494   6.002   1.564
 6101SOL     OW19201   0.224   2.953   3.320
 6101SOL    HW119202   0.259   2.930   3.228
 6101SOL    HW219203   0.169   3.036   3.315
 6102SOL     OW19204   3.524   5.951   3.013
 6102SOL    HW119205   3.617   5.979   2.988
 6102SOL    HW219206   3.471   6.032   3.038
 6103SOL     OW19207   5.567   1.555   2.125
 6103SOL    HW119208   5.609   1.466   2.144
 6103SOL    HW219209   5.472   1.542   2.096
 6104SOL     OW19210   5.218   6.838   5.338
 6104SOL    HW119211   5.188   6.880   5.424
 6104SOL    HW219212   5.313   6.865   5.320
 6105SOL     OW19213   2.619   5.805   6.643
 6105SOL    HW119214   2.717   5.793   6.657
 6105SOL    HW219215   2.570   5.727   6.683
 6106SOL     OW19216   1.558   4.769   6.061
 6106SOL    HW119217   1.591   4.732   6.148
 6106SOL    HW219218   1.616   4.735   5.987
 6107SOL     OW19219   4.733   6.011   5.043
 6107SOL    HW119220   4.750   6.110   5.042
 6107SOL    HW219221   4.635   5.994   5.051
 6108SOL     OW19222   2.290   2.607   2.505
 6108SOL    HW119223   2.214   2.552   2.471
 6108SOL    HW219224   2.333   2.656   2.429
 6109SOL     OW19225   5.628   1.504   4.973
 6109SOL    HW119226   5.558   1.444   4.936
 6109SOL    HW219227   5.647   1.578   4.909
 6110SOL     OW19228   2.945   3.799   0.619
 6110SOL    HW119229   2.868   3.765   0.565
 6110SOL    HW219230   2.933   3.897   0.635
 6111SOL     OW19231   1.455   3.013   2.358
 6111SOL    HW119232   1.543   3.060   2.363
 6111SOL    HW219233   1.470   2.918   2.328
 6112SOL     OW19234   3.071   0.299   2.813
 6112SOL    HW119235   3.030   0.250   2.735
 6112SOL    HW219236   3.155   0.345   2.783
 6113SOL     OW19237   2.671   2.122   6.236
 6113SOL    HW119238   2.600   2.054   6.220
 6113SOL    HW219239   2.642   2.211   6.200
 6114SOL     OW19240   5.149   4.718   2.387
 6114SOL    HW119241   5.168   4.625   2.356
 6114SOL    HW219242   5.155   4.722   2.486
 6115SOL     OW19243   5.887   0.377   4.874
 6115SOL    HW119244   5.882   0.294   4.930
 6115SOL    HW219245   5.962   0.370   4.809
 6116SOL     OW19246   3.872   1.985   6.236
 6116SOL    HW119247   3.786   1.995   6.287
 6116SOL    HW219248   3.949   2.012   6.294
 6117SOL     OW19249   1.612   1.226   3.489
 6117SOL    HW119250   1.644   1.131   3.490
 6117SOL    HW219251   1.656   1.277   3.563
 6118SOL     OW19252   5.919   0.650   1.123
 6118SOL    HW119253   5.941   0.747   1.139
 6118SOL    HW219254   5.854   0.619   1.192
 6119SOL     OW19255   0.685   3.427   6.999
 6119SOL    HW119256   0.747   3.446   0.047
 6119SOL    HW219257   0.738   3.406   6.916
 6120SOL     OW19258   2.962   6.393   5.688
 6120SOL    HW119259   3.037   6.435   5.637
 6120SOL    HW219260   2.993   6.306   5.727
 6121SOL     OW19261   0.584   3.482   5.167
 6121SOL    HW119262   0.563   3.402   5.223
 6121SOL    HW219263   0.655   3.536   5.212
 6122SOL     OW19264   4.194   4.619   0.326
 6122SOL    HW119265   4.283   4.658   0.300
 6122SOL    HW219266   4.204   4.571   0.414
 6123SOL     OW19267   5.210   0.013   6.343
 6123SOL    HW119268   5.202   0.061   6.256
 6123SOL    HW219269   5.151   0.057   6.411
 6124SOL     OW19270   1.468   6.706   5.774
 6124SOL    HW119271   1.412   6.671   5.699
 6124SOL    HW219272   1.565   6.701   5.750
 6125SOL     OW19273   1.982   3.837   0.375
 6125SOL    HW119274   1.907   3.777   0.348
 6125SOL    HW219275   1.952   3.932   0.367
 6126SOL     OW19276   7.025   0.643   4.126
 6126SOL    HW119277   0.080   0.646   4.071
 6126SOL    HW219278   6.952   0.693   4.079
 6127SOL     OW19279   3.172   6.957   0.987
 6127SOL    HW119280   3.105   0.002   0.973
 6127SOL    HW219281   3.190   6.946   1.085
 6128SOL     OW19282   6.496   4.887   0.795
 6128SOL    HW119283   6.504   4.948   0.716
 6128SOL    HW219284   6.470   4.941   0.876
 6129SOL     OW19285   0.035   3.073   2.346
 6129SOL    HW119286   0.068   2.981   2.324
 6129SOL    HW219287   6.975   3.088   2.302
 6130SOL     OW19288   5.130   2.754   2.410
 6130SOL    HW119289   5.125   2.822   2.483
 6130SOL    HW219290   5.051   2.764   2.350
 6131SOL     OW19291   0.337   1.534   3.517
 6131SOL    HW119292   0.243   1.523   3.549
 6131SOL    HW219293   0.391   1.456   3.547
 6132SOL     OW19294   4.013   2.007   6.900
 6132SOL    HW119295   4.028   1.947   6.822
 6132SOL    HW219296   3.947   1.965   6.962
 6133SOL     OW19297   1.947   3.516   3.085
 6133SOL    HW119298   1.949   3.416   3.087
 6133SOL    HW219299   1.860   3.548   3.122
 6134SOL     OW19300   4.020   5.540   0.073
 6134SOL    HW119301   4.032   5.548   7.002
 6134SOL    HW219302   4.108   5.522   0.117
 6135SOL     OW19303   0.038   6.958   0.504
 6135SOL    HW119304   0.039   6.899   0.422
 6135SOL    HW219305   0.102   6.921   0.572
 6136SOL     OW19306   1.507   3.088   1.879
 6136SOL    HW119307   1.529   3.009   1.822
 6136SOL    HW219308   1.564   3.166   1.851
 6137SOL     OW19309   6.853   3.835   2.243
 6137SOL    HW119310   6.769   3.887   2.257
 6137SOL    HW219311   6.929   3.898   2.227
 6138SOL     OW19312   3.664   0.137   2.735
 6138SOL    HW119313   3.608   0.099   2.661
 6138SOL    HW219314   3.721   0.064   2.774
 6139SOL     OW19315   1.097   6.911   5.887
 6139SOL    HW119316   1.159   6.833   5.878
 6139SOL    HW219317   1.079   6.950   5.796
 6140SOL     OW19318   1.361   0.437   1.911
 6140SOL    HW119319   1.328   0.531   1.899
 6140SOL    HW219320   1.303   0.375   1.859
 6141SOL     OW19321   0.554   6.694   6.118
 6141SOL    HW119322   0.470   6.749   6.112
 6141SOL    HW219323   0.554   6.645   6.205
 6142SOL     OW19324   0.448   6.037   6.112
 6142SOL    HW119325   0.516   6.110   6.120
 6142SOL    HW219326   0.484   5.963   6.055
 6143SOL     OW19327   6.813   3.259   1.287
 6143SOL    HW119328   6.831   3.237   1.383
 6143SOL    HW219329   6.715   3.266   1.272
 6144SOL     OW19330   5.204   4.852   4.565
 6144SOL    HW119331   5.273   4.780   4.574
 6144SOL    HW219332   5.238   4.923   4.503
 6145SOL     OW19333   5.210   5.031   4.353
 6145SOL    HW119334   5.121   5.075   4.347
 6145SOL    HW219335   5.278   5.095   4.388
 6146SOL     OW19336   3.502   5.345   3.529
 6146SOL    HW119337   3.482   5.434   3.570
 6146SOL    HW219338   3.450   5.274   3.576
 6147SOL     OW19339   2.184   2.282   5.002
 6147SOL    HW119340   2.200   2.380   4.988
 6147SOL    HW219341   2.212   2.232   4.920
 6148SOL     OW19342   4.264   6.720   5.044
 6148SOL    HW119343   4.202   6.658   5.091
 6148SOL    HW219344   4.212   6.774   4.977
 6149SOL     OW19345   2.335   0.081   1.330
 6149SOL    HW119346   2.340   0.178   1.354
 6149SOL    HW219347   2.257   0.066   1.269
 6150SOL     OW19348   5.898   4.562   0.638
 6150SOL    HW119349   5.983   4.611   0.615
 6150SOL    HW219350   5.872   4.505   0.560
 6151SOL     OW19351   6.524   5.007   6.452
 6151SOL    HW119352   6.586   5.085   6.445
 6151SOL    HW219353   6.524   4.956   6.365
 6152SOL     OW19354   0.342   5.616   4.229
 6152SOL    HW119355   0.415   5.576   4.173
 6152SOL    HW219356   0.377   5.697   4.276
 6153SOL     OW19357   5.483   4.255   1.330
 6153SOL    HW119358   5.461   4.268   1.233
 6153SOL    HW219359   5.399   4.250   1.383
 6154SOL     OW19360   6.454   2.697   2.777
 6154SOL    HW119361   6.390   2.627   2.746
 6154SOL    HW219362   6.404   2.771   2.822
 6155SOL     OW19363   1.669   1.409   3.276
 6155SOL    HW119364   1.648   1.317   3.308
 6155SOL    HW219365   1.600   1.437   3.209
 6156SOL     OW19366   4.761   4.656   2.140
 6156SOL    HW119367   4.830   4.678   2.071
 6156SOL    HW219368   4.681   4.617   2.094
 6157SOL     OW19369   6.632   1.917   3.689
 6157SOL    HW119370   6.677   1.998   3.650
 6157SOL    HW219371   6.688   1.836   3.673
 6158SOL     OW19372   3.774   1.979   6.711
 6158SOL    HW119373   3.848   1.996   6.776
 6158SOL    HW219374   3.725   2.065   6.694
 6159SOL     OW19375   4.409   1.856   1.098
 6159SOL    HW119376   4.496   1.860   1.147
 6159SOL    HW219377   4.379   1.949   1.077
 6160SOL     OW19378   5.396   0.516   6.884
 6160SOL    HW119379   5.480   0.484   6.839
 6160SOL    HW219380   5.345   0.437   6.919
 6161SOL     OW19381   5.901   2.270   6.437
 6161SOL    HW119382   5.851   2.214   6.371
 6161SOL    HW219383   5.854   2.358   6.447
 6162SOL     OW19384   6.178   6.492   3.791
 6162SOL    HW119385   6.258   6.482   3.732
 6162SOL    HW219386   6.125   6.572   3.762
 6163SOL     OW19387   5.848   6.534   1.651
 6163SOL    HW119388   5.824   6.542   1.748
 6163SOL    HW219389   5.800   6.603   1.598
 6164SOL     OW19390   3.644   3.832   3.750
 6164SOL    HW119391   3.651   3.930   3.729
 6164SOL    HW219392   3.672   3.816   3.844
 6165SOL     OW19393   3.962   1.357   6.546
 6165SOL    HW119394   4.023   1.328   6.472
 6165SOL    HW219395   3.984   1.306   6.629
 6166SOL     OW19396   5.739   1.895   6.446
 6166SOL    HW119397   5.694   1.921   6.360
 6166SOL    HW219398   5.838   1.901   6.434
 6167SOL     OW19399   0.997   5.193   3.165
 6167SOL    HW119400   0.907   5.210   3.206
 6167SOL    HW219401   1.018   5.096   3.171
 6168SOL     OW19402   1.810   3.238   2.972
 6168SOL    HW119403   1.887   3.229   2.908
 6168SOL    HW219404   1.827   3.182   3.052
 6169SOL     OW19405   1.240   1.649   0.234
 6169SOL    HW119406   1.278   1.584   0.300
 6169SOL    HW219407   1.149   1.678   0.264
 6170SOL     OW19408   2.940   4.064   5.540
 6170SOL    HW119409   2.841   4.076   5.541
 6170SOL    HW219410   2.982   4.133   5.481
 6171SOL     OW19411   1.830   3.599   0.726
 6171SOL    HW119412   1.766   3.548   0.785
 6171SOL    HW219413   1.906   3.633   0.782
 6172SOL     OW19414   1.904   1.541   3.642
 6172SOL    HW119415   1.965   1.547   3.721
 6172SOL    HW219416   1.919   1.620   3.582
 6173SOL     OW19417   6.137   5.174   2.306
 6173SOL    HW119418   6.101   5.087   2.341
 6173SOL    HW219419   6.190   5.219   2.378
 6174SOL     OW19420   5.414   5.530   3.464
 6174SOL    HW119421   5.318   5.543   3.491
 6174SOL    HW219422   5.426   5.560   3.369
 6175SOL     OW19423   4.587   0.635   3.316
 6175SOL    HW119424   4.525   0.568   3.275
 6175SOL    HW219425   4.676   0.631   3.270
 6176SOL     OW19426   5.835   3.078   7.022
 6176SOL    HW119427   5.778   3.133   0.056
 6176SOL    HW219428   5.926   3.120   7.015
 6177SOL     OW19429   5.461   0.991   1.141
 6177SOL    HW119430   5.367   0.957   1.133
 6177SOL    HW219431   5.465   1.063   1.210
 6178SOL     OW19432   4.772   4.639   3.147
 6178SOL    HW119433   4.871   4.630   3.136
 6178SOL    HW219434   4.752   4.716   3.207
 6179SOL     OW19435   6.365   4.820   4.389
 6179SOL    HW119436   6.300   4.873   4.444
 6179SOL    HW219437   6.389   4.873   4.307
 6180SOL     OW19438   3.986   5.018   0.281
 6180SOL    HW119439   3.957   4.969   0.363
 6180SOL    HW219440   3.917   5.086   0.256
 6181SOL     OW19441   3.720   6.648   0.657
 6181SOL    HW119442   3.663   6.625   0.736
 6181SOL    HW219443   3.680   6.724   0.607
 6182SOL     OW19444   5.524   3.383   6.222
 6182SOL    HW119445   5.494   3.293   6.254
 6182SOL    HW219446   5.616   3.375   6.183
 6183SOL     OW19447   2.151   0.891   3.349
 6183SOL    HW119448   2.215   0.967   3.337
 6183SOL    HW219449   2.131   0.849   3.260
 6184SOL     OW19450   1.733   6.899   5.900
 6184SOL    HW119451   1.814   6.878   5.955
 6184SOL    HW219452   1.689   6.981   5.936
 6185SOL     OW19453   0.083   3.834   6.782
 6185SOL    HW119454   0.176   3.823   6.817
 6185SOL    HW219455   0.060   3.931   6.778
 6186SOL     OW19456   6.372   6.538   5.708
 6186SOL    HW119457   6.303   6.591   5.759
 6186SOL    HW219458   6.443   6.600   5.674
 6187SOL     OW19459   4.243   4.640   3.069
 6187SOL    HW119460   4.335   4.600   3.070
 6187SOL    HW219461   4.221   4.675   3.161
 6188SOL     OW19462   2.684   0.027   1.059
 6188SOL    HW119463   2.672   7.022   1.152
 6188SOL    HW219464   2.623   7.004   0.998
 6189SOL     OW19465   4.765   4.248   4.160
 6189SOL    HW119466   4.834   4.278   4.226
 6189SOL    HW219467   4.707   4.326   4.135
 6190SOL     OW19468   6.842   3.946   6.057
 6190SOL    HW119469   6.893   4.016   6.106
 6190SOL    HW219470   6.749   3.978   6.039
 6191SOL     OW19471   3.887   2.273   6.812
 6191SOL    HW119472   3.949   2.227   6.875
 6191SOL    HW219473   3.820   2.327   6.864
 6192SOL     OW19474   3.882   3.049   6.765
 6192SOL    HW119475   3.923   2.986   6.830
 6192SOL    HW219476   3.835   2.997   6.693
 6193SOL     OW19477   5.239   1.364   2.413
 6193SOL    HW119478   5.214   1.429   2.341
 6193SOL    HW219479   5.329   1.326   2.394
 6194SOL     OW19480   1.523   6.757   0.668
 6194SOL    HW119481   1.538   6.844   0.716
 6194SOL    HW219482   1.440   6.714   0.704
 6195SOL     OW19483   4.250   6.604   5.586
 6195SOL    HW119484   4.343   6.581   5.615
 6195SOL    HW219485   4.253   6.640   5.492
 6196SOL     OW19486   6.093   2.554   1.748
 6196SOL    HW119487   5.995   2.571   1.763
 6196SOL    HW219488   6.106   2.457   1.725
 6197SOL     OW19489   4.828   4.623   0.960
 6197SOL    HW119490   4.729   4.633   0.972
 6197SOL    HW219491   4.876   4.681   1.025
 6198SOL     OW19492   3.509   6.027   2.092
 6198SOL    HW119493   3.564   5.955   2.050
 6198SOL    HW219494   3.468   5.992   2.177
 6199SOL     OW19495   1.111   0.757   0.701
 6199SOL    HW119496   1.129   0.692   0.627
 6199SOL    HW219497   1.013   0.764   0.716
 6200SOL     OW19498   1.600   1.401   5.343
 6200SOL    HW119499   1.612   1.490   5.389
 6200SOL    HW219500   1.513   1.401   5.294
 6201SOL     OW19501   0.932   3.805   5.131
 6201SOL    HW119502   0.873   3.735   5.171
 6201SOL    HW219503   0.994   3.841   5.201
 6202SOL     OW19504   4.159   1.552   2.073
 6202SOL    HW119505   4.105   1.470   2.056
 6202SOL    HW219506   4.119   1.629   2.024
 6203SOL     OW19507   6.265   0.107   3.312
 6203SOL    HW119508   6.275   0.188   3.255
 6203SOL    HW219509   6.279   0.131   3.408
 6204SOL     OW19510   1.211   5.563   4.469
 6204SOL    HW119511   1.221   5.636   4.402
 6204SOL    HW219512   1.114   5.547   4.487
 6205SOL     OW19513   6.450   6.123   0.513
 6205SOL    HW119514   6.512   6.045   0.507
 6205SOL    HW219515   6.465   6.183   0.434
 6206SOL     OW19516   0.165   1.015   2.451
 6206SOL    HW119517   0.231   1.087   2.473
 6206SOL    HW219518   0.072   1.053   2.450
 6207SOL     OW19519   1.665   5.129   5.125
 6207SOL    HW119520   1.604   5.110   5.048
 6207SOL    HW219521   1.648   5.065   5.199
 6208SOL     OW19522   5.936   1.670   6.248
 6208SOL    HW119523   5.937   1.584   6.198
 6208SOL    HW219524   5.990   1.738   6.198
 6209SOL     OW19525   4.705   5.581   0.367
 6209SOL    HW119526   4.740   5.584   0.273
 6209SOL    HW219527   4.664   5.669   0.390
 6210SOL     OW19528   5.079   3.743   3.444
 6210SOL    HW119529   5.123   3.655   3.459
 6210SOL    HW219530   5.132   3.795   3.376
 6211SOL     OW19531   3.201   6.513   5.614
 6211SOL    HW119532   3.264   6.548   5.684
 6211SOL    HW219533   3.238   6.430   5.574
 6212SOL     OW19534   1.940   5.089   3.854
 6212SOL    HW119535   1.908   5.156   3.920
 6212SOL    HW219536   1.932   4.997   3.893
 6213SOL     OW19537   5.522   6.843   0.035
 6213SOL    HW119538   5.454   6.916   0.047
 6213SOL    HW219539   5.569   6.855   6.976
 6214SOL     OW19540   4.579   4.846   4.808
 6214SOL    HW119541   4.545   4.939   4.793
 6214SOL    HW219542   4.502   4.785   4.828
 6215SOL     OW19543   4.290   1.182   1.158
 6215SOL    HW119544   4.224   1.255   1.139
 6215SOL    HW219545   4.379   1.223   1.178
 6216SOL     OW19546   5.891   1.462   2.129
 6216SOL    HW119547   5.979   1.416   2.138
 6216SOL    HW219548   5.872   1.513   2.213
 6217SOL     OW19549   0.548   3.515   1.920
 6217SOL    HW119550   0.631   3.500   1.974
 6217SOL    HW219551   0.506   3.426   1.899
 6218SOL     OW19552   4.338   5.517   5.681
 6218SOL    HW119553   4.369   5.428   5.647
 6218SOL    HW219554   4.394   5.544   5.759
 6219SOL     OW19555   0.450   2.678   4.274
 6219SOL    HW119556   0.425   2.708   4.366
 6219SOL    HW219557   0.509   2.747   4.231
 6220SOL     OW19558   1.516   2.511   5.292
 6220SOL    HW119559   1.477   2.551   5.374
 6220SOL    HW219560   1.612   2.489   5.308
 6221SOL     OW19561   5.773   5.697   0.117
 6221SOL    HW119562   5.696   5.725   0.058
 6221SOL    HW219563   5.823   5.779   0.146
 6222SOL     OW19564   0.534   6.781   1.382
 6222SOL    HW119565   0.565   6.873   1.357
 6222SOL    HW219566   0.608   6.733   1.430
 6223SOL     OW19567   0.475   5.163   4.294
 6223SOL    HW119568   0.396   5.104   4.273
 6223SOL    HW219569   0.543   5.153   4.222
 6224SOL     OW19570   2.271   1.735   6.041
 6224SOL    HW119571   2.239   1.830   6.038
 6224SOL    HW219572   2.364   1.730   6.005
 6225SOL     OW19573   3.694   3.805   6.793
 6225SOL    HW119574   3.648   3.878   6.844
 6225SOL    HW219575   3.790   3.801   6.820
 6226SOL     OW19576   6.260   1.529   5.332
 6226SOL    HW119577   6.303   1.471   5.262
 6226SOL    HW219578   6.161   1.533   5.316
 6227SOL     OW19579   3.532   6.360   5.712
 6227SOL    HW119580   3.502   6.324   5.624
 6227SOL    HW219581   3.615   6.313   5.741
 6228SOL     OW19582   1.030   2.448   3.435
 6228SOL    HW119583   1.100   2.387   3.472
 6228SOL    HW219584   0.965   2.471   3.508
 6229SOL     OW19585   0.128   2.103   3.268
 6229SOL    HW119586   0.043   2.148   3.243
 6229SOL    HW219587   0.129   2.085   3.366
 6230SOL     OW19588   1.147   1.488   3.686
 6230SOL    HW119589   1.189   1.456   3.601
 6230SOL    HW219590   1.087   1.416   3.722
 6231SOL     OW19591   5.830   5.079   1.197
 6231SOL    HW119592   5.911   5.028   1.168
 6231SOL    HW219593   5.846   5.177   1.185
 6232SOL     OW19594   6.549   0.906   0.983
 6232SOL    HW119595   6.489   0.932   0.907
 6232SOL    HW219596   6.588   0.816   0.966
 6233SOL     OW19597   6.332   0.715   0.662
 6233SOL    HW119598   6.330   0.637   0.726
 6233SOL    HW219599   6.238   0.738   0.637
 6234SOL     OW19600   5.827   1.484   5.444
 6234SOL    HW119601   5.758   1.512   5.511
 6234SOL    HW219602   5.810   1.390   5.416
 6235SOL     OW19603   1.203   6.685   1.672
 6235SOL    HW119604   1.253   6.699   1.587
 6235SOL    HW219605   1.107   6.667   1.652
 6236SOL     OW19606   0.977   3.626   0.775
 6236SOL    HW119607   1.053   3.652   0.835
 6236SOL    HW219608   0.923   3.554   0.819
 6237SOL     OW19609   3.251   6.861   6.785
 6237SOL    HW119610   3.257   6.761   6.789
 6237SOL    HW219611   3.308   6.894   6.710
 6238SOL     OW19612   4.363   4.692   2.290
 6238SOL    HW119613   4.274   4.707   2.248
 6238SOL    HW219614   4.427   4.657   2.221
 6239SOL     OW19615   2.320   0.497   2.019
 6239SOL    HW119616   2.345   0.522   2.113
 6239SOL    HW219617   2.248   0.428   2.022
 6240SOL     OW19618   2.285   3.267   5.754
 6240SOL    HW119619   2.228   3.350   5.759
 6240SOL    HW219620   2.356   3.280   5.686
 6241SOL     OW19621   3.953   0.087   1.654
 6241SOL    HW119622   3.886   0.069   1.726
 6241SOL    HW219623   3.932   0.032   1.574
 6242SOL     OW19624   5.014   0.625   3.261
 6242SOL    HW119625   5.005   0.707   3.317
 6242SOL    HW219626   5.087   0.568   3.299
 6243SOL     OW19627   6.333   6.840   4.142
 6243SOL    HW119628   6.267   6.796   4.203
 6243SOL    HW219629   6.419   6.856   4.190
 6244SOL     OW19630   0.442   2.906   2.142
 6244SOL    HW119631   0.466   2.992   2.188
 6244SOL    HW219632   0.501   2.833   2.176
 6245SOL     OW19633   1.454   3.909   0.306
 6245SOL    HW119634   1.449   3.911   0.206
 6245SOL    HW219635   1.542   3.871   0.334
 6246SOL     OW19636   2.244   1.937   5.825
 6246SOL    HW119637   2.228   1.839   5.809
 6246SOL    HW219638   2.165   1.989   5.796
 6247SOL     OW19639   1.302   6.340   4.599
 6247SOL    HW119640   1.231   6.395   4.644
 6247SOL    HW219641   1.361   6.399   4.545
 6248SOL     OW19642   3.734   3.194   0.596
 6248SOL    HW119643   3.718   3.103   0.636
 6248SOL    HW219644   3.650   3.247   0.598
 6249SOL     OW19645   0.872   4.096   0.529
 6249SOL    HW119646   0.783   4.140   0.546
 6249SOL    HW219647   0.885   4.020   0.593
 6250SOL     OW19648   6.931   6.549   0.065
 6250SOL    HW119649   6.957   6.500   0.148
 6250SOL    HW219650   6.987   6.516   7.016
 6251SOL     OW19651   4.182   5.383   6.818
 6251SOL    HW119652   4.093   5.339   6.827
 6251SOL    HW219653   4.178   5.455   6.749
 6252SOL     OW19654   1.549   6.643   5.241
 6252SOL    HW119655   1.473   6.678   5.185
 6252SOL    HW219656   1.626   6.707   5.235
 6253SOL     OW19657   2.228   4.316   3.023
 6253SOL    HW119658   2.131   4.342   3.017
 6253SOL    HW219659   2.270   4.363   3.101
 6254SOL     OW19660   5.430   1.657   1.156
 6254SOL    HW119661   5.337   1.620   1.154
 6254SOL    HW219662   5.426   1.757   1.156
 6255SOL     OW19663   3.277   0.377   1.112
 6255SOL    HW119664   3.367   0.335   1.099
 6255SOL    HW219665   3.262   0.395   1.209
 6256SOL     OW19666   3.424   5.394   1.776
 6256SOL    HW119667   3.329   5.405   1.745
 6256SOL    HW219668   3.431   5.311   1.831
 6257SOL     OW19669   5.101   2.260   0.055
 6257SOL    HW119670   5.119   2.339   0.113
 6257SOL    HW219671   5.172   2.253   7.013
 6258SOL     OW19672   3.888   0.007   3.809
 6258SOL    HW119673   3.895   0.009   3.908
 6258SOL    HW219674   3.905   6.942   3.776
 6259SOL     OW19675   2.296   2.467   0.243
 6259SOL    HW119676   2.342   2.458   0.155
 6259SOL    HW219677   2.357   2.437   0.316
 6260SOL     OW19678   3.306   5.574   0.348
 6260SOL    HW119679   3.383   5.576   0.412
 6260SOL    HW219680   3.337   5.538   0.260
 6261SOL     OW19681   3.984   0.931   6.570
 6261SOL    HW119682   3.933   0.846   6.586
 6261SOL    HW219683   3.965   0.963   6.477
 6262SOL     OW19684   2.215   6.357   0.849
 6262SOL    HW119685   2.257   6.277   0.806
 6262SOL    HW219686   2.207   6.342   0.947
 6263SOL     OW19687   6.841   0.517   5.167
 6263SOL    HW119688   6.742   0.519   5.183
 6263SOL    HW219689   6.885   0.591   5.218
 6264SOL     OW19690   1.330   6.587   2.266
 6264SOL    HW119691   1.247   6.532   2.260
 6264SOL    HW219692   1.314   6.677   2.225
 6265SOL     OW19693   3.582   3.922   7.016
 6265SOL    HW119694   3.547   4.014   0.010
 6265SOL    HW219695   3.666   3.906   0.039
 6266SOL     OW19696   3.828   0.669   4.538
 6266SOL    HW119697   3.851   0.623   4.624
 6266SOL    HW219698   3.784   0.756   4.558
 6267SOL     OW19699   2.229   0.381   6.560
 6267SOL    HW119700   2.250   0.287   6.534
 6267SOL    HW219701   2.129   0.392   6.564
 6268SOL     OW19702   3.034   0.275   3.449
 6268SOL    HW119703   3.055   0.344   3.518
 6268SOL    HW219704   2.948   0.299   3.403
 6269SOL     OW19705   6.996   6.504   1.868
 6269SOL    HW119706   6.996   6.436   1.795
 6269SOL    HW219707   0.060   6.509   1.909
 6270SOL     OW19708   1.848   0.234   5.507
 6270SOL    HW119709   1.848   0.176   5.426
 6270SOL    HW219710   1.899   0.191   5.580
 6271SOL     OW19711   6.661   2.318   6.918
 6271SOL    HW119712   6.674   2.404   6.969
 6271SOL    HW219713   6.749   2.276   6.900
 6272SOL     OW19714   0.527   2.055   0.018
 6272SOL    HW119715   0.460   2.004   6.993
 6272SOL    HW219716   0.561   2.132   6.992
 6273SOL     OW19717   1.470   6.493   2.508
 6273SOL    HW119718   1.422   6.550   2.442
 6273SOL    HW219719   1.457   6.396   2.485
 6274SOL     OW19720   3.015   5.755   6.069
 6274SOL    HW119721   2.977   5.677   6.020
 6274SOL    HW219722   3.022   5.733   6.167
 6275SOL     OW19723   2.317   6.787   5.692
 6275SOL    HW119724   2.320   6.846   5.612
 6275SOL    HW219725   2.237   6.728   5.687
 6276SOL     OW19726   2.299   4.191   3.322
 6276SOL    HW119727   2.243   4.110   3.305
 6276SOL    HW219728   2.319   4.236   3.235
 6277SOL     OW19729   5.650   3.197   2.224
 6277SOL    HW119730   5.688   3.267   2.165
 6277SOL    HW219731   5.621   3.118   2.169
 6278SOL     OW19732   5.168   6.292   4.653
 6278SOL    HW119733   5.254   6.318   4.697
 6278SOL    HW219734   5.092   6.332   4.704
 6279SOL     OW19735   3.679   0.296   6.940
 6279SOL    HW119736   3.655   0.215   6.994
 6279SOL    HW219737   3.595   0.347   6.918
 6280SOL     OW19738   0.846   2.135   5.344
 6280SOL    HW119739   0.846   2.076   5.425
 6280SOL    HW219740   0.823   2.228   5.370
 6281SOL     OW19741   1.146   5.141   3.730
 6281SOL    HW119742   1.158   5.070   3.661
 6281SOL    HW219743   1.114   5.225   3.686
 6282SOL     OW19744   1.149   6.330   5.023
 6282SOL    HW119745   1.179   6.273   5.100
 6282SOL    HW219746   1.146   6.426   5.052
 6283SOL     OW19747   6.544   3.297   5.486
 6283SOL    HW119748   6.506   3.373   5.433
 6283SOL    HW219749   6.632   3.270   5.447
 6284SOL     OW19750   1.354   5.514   4.679
 6284SOL    HW119751   1.316   5.545   4.592
 6284SOL    HW219752   1.454   5.524   4.677
 6285SOL     OW19753   0.099   3.816   4.597
 6285SOL    HW119754   0.129   3.740   4.539
 6285SOL    HW219755   0.102   3.787   4.693
 6286SOL     OW19756   5.817   1.766   4.044
 6286SOL    HW119757   5.764   1.738   4.124
 6286SOL    HW219758   5.901   1.712   4.039
 6287SOL     OW19759   3.657   4.877   3.931
 6287SOL    HW119760   3.750   4.845   3.910
 6287SOL    HW219761   3.596   4.854   3.855
 6288SOL     OW19762   4.774   4.290   2.879
 6288SOL    HW119763   4.715   4.299   2.799
 6288SOL    HW219764   4.769   4.197   2.914
 6289SOL     OW19765   1.669   4.518   0.985
 6289SOL    HW119766   1.695   4.422   0.983
 6289SOL    HW219767   1.620   4.538   1.070
 6290SOL     OW19768   0.141   4.551   5.392
 6290SOL    HW119769   0.049   4.570   5.428
 6290SOL    HW219770   0.135   4.485   5.318
 6291SOL     OW19771   4.019   3.331   4.748
 6291SOL    HW119772   3.971   3.362   4.666
 6291SOL    HW219773   3.971   3.252   4.788
 6292SOL     OW19774   1.324   2.218   4.464
 6292SOL    HW119775   1.418   2.240   4.490
 6292SOL    HW219776   1.281   2.165   4.537
 6293SOL     OW19777   3.529   1.130   0.071
 6293SOL    HW119778   3.622   1.096   0.058
 6293SOL    HW219779   3.464   1.064   0.031
 6294SOL     OW19780   4.141   5.204   4.434
 6294SOL    HW119781   4.093   5.291   4.422
 6294SOL    HW219782   4.145   5.181   4.531
 6295SOL     OW19783   5.455   4.856   6.339
 6295SOL    HW119784   5.455   4.759   6.363
 6295SOL    HW219785   5.361   4.890   6.342
 6296SOL     OW19786   0.337   0.050   6.020
 6296SOL    HW119787   0.406   0.029   5.951
 6296SOL    HW219788   0.267   0.108   5.979
 6297SOL     OW19789   4.373   6.873   3.920
 6297SOL    HW119790   4.421   6.786   3.928
 6297SOL    HW219791   4.276   6.856   3.900
 6298SOL     OW19792   1.118   2.885   6.679
 6298SOL    HW119793   1.183   2.849   6.746
 6298SOL    HW219794   1.089   2.977   6.707
 6299SOL     OW19795   5.488   1.996   6.886
 6299SOL    HW119796   5.437   2.079   6.908
 6299SOL    HW219797   5.549   2.014   6.808
 6300SOL     OW19798   6.265   0.499   0.826
 6300SOL    HW119799   6.338   0.471   0.888
 6300SOL    HW219800   6.178   0.503   0.877
 6301SOL     OW19801   3.373   0.083   0.143
 6301SOL    HW119802   3.470   0.092   0.119
 6301SOL    HW219803   3.319   0.071   0.059
 6302SOL     OW19804   2.455   0.878   2.920
 6302SOL    HW119805   2.480   0.955   2.862
 6302SOL    HW219806   2.359   0.854   2.905
 6303SOL     OW19807   1.575   1.576   4.308
 6303SOL    HW119808   1.627   1.600   4.226
 6303SOL    HW219809   1.549   1.480   4.303
 6304SOL     OW19810   2.169   0.584   1.551
 6304SOL    HW119811   2.158   0.557   1.647
 6304SOL    HW219812   2.103   0.656   1.530
 6305SOL     OW19813   6.166   6.848   1.255
 6305SOL    HW119814   6.178   6.855   1.354
 6305SOL    HW219815   6.151   6.939   1.216
 6306SOL     OW19816   0.550   4.614   4.124
 6306SOL    HW119817   0.471   4.555   4.138
 6306SOL    HW219818   0.634   4.562   4.139
 6307SOL     OW19819   4.391   4.230   5.397
 6307SOL    HW119820   4.300   4.231   5.357
 6307SOL    HW219821   4.426   4.137   5.399
 6308SOL     OW19822   2.038   2.520   4.534
 6308SOL    HW119823   1.995   2.608   4.517
 6308SOL    HW219824   2.082   2.487   4.451
 6309SOL     OW19825   5.319   4.807   5.701
 6309SOL    HW119826   5.343   4.794   5.605
 6309SOL    HW219827   5.223   4.783   5.715
 6310SOL     OW19828   1.835   6.027   2.739
 6310SOL    HW119829   1.796   5.968   2.810
 6310SOL    HW219830   1.913   5.980   2.696
 6311SOL     OW19831   4.316   0.946   5.822
 6311SOL    HW119832   4.278   1.020   5.878
 6311SOL    HW219833   4.393   0.981   5.769
 6312SOL     OW19834   6.424   5.677   5.727
 6312SOL    HW119835   6.477   5.681   5.811
 6312SOL    HW219836   6.361   5.755   5.724
 6313SOL     OW19837   1.485   6.415   4.378
 6313SOL    HW119838   1.524   6.440   4.467
 6313SOL    HW219839   1.557   6.421   4.308
 6314SOL     OW19840   3.626   6.606   1.342
 6314SOL    HW119841   3.580   6.692   1.326
 6314SOL    HW219842   3.562   6.540   1.382
 6315SOL     OW19843   1.704   2.909   5.557
 6315SOL    HW119844   1.635   2.897   5.485
 6315SOL    HW219845   1.732   3.005   5.561
 6316SOL     OW19846   4.577   1.339   6.742
 6316SOL    HW119847   4.554   1.426   6.699
 6316SOL    HW219848   4.672   1.316   6.722
 6317SOL     OW19849   4.662   5.947   2.258
 6317SOL    HW119850   4.662   6.032   2.206
 6317SOL    HW219851   4.587   5.888   2.228
 6318SOL     OW19852   3.709   1.107   5.082
 6318SOL    HW119853   3.716   1.043   5.159
 6318SOL    HW219854   3.682   1.057   5.000
 6319SOL     OW19855   6.691   0.996   4.438
 6319SOL    HW119856   6.691   0.990   4.339
 6319SOL    HW219857   6.736   1.080   4.467
 6320SOL     OW19858   5.571   5.674   5.507
 6320SOL    HW119859   5.491   5.731   5.488
 6320SOL    HW219860   5.637   5.684   5.433
 6321SOL     OW19861   3.277   3.439   0.800
 6321SOL    HW119862   3.211   3.416   0.872
 6321SOL    HW219863   3.242   3.515   0.745
 6322SOL     OW19864   1.545   2.267   0.123
 6322SOL    HW119865   1.551   2.304   0.215
 6322SOL    HW219866   1.631   2.223   0.098
 6323SOL     OW19867   3.461   2.801   2.231
 6323SOL    HW119868   3.479   2.705   2.212
 6323SOL    HW219869   3.442   2.814   2.328
 6324SOL     OW19870   5.249   6.824   6.794
 6324SOL    HW119871   5.334   6.832   6.741
 6324SOL    HW219872   5.215   6.915   6.815
 6325SOL     OW19873   2.151   1.639   2.250
 6325SOL    HW119874   2.194   1.671   2.334
 6325SOL    HW219875   2.183   1.695   2.173
 6326SOL     OW19876   4.876   5.150   1.855
 6326SOL    HW119877   4.901   5.116   1.764
 6326SOL    HW219878   4.929   5.103   1.925
 6327SOL     OW19879   0.197   0.208   4.805
 6327SOL    HW119880   0.110   0.248   4.833
 6327SOL    HW219881   0.256   0.280   4.767
 6328SOL     OW19882   3.283   3.139   0.794
 6328SOL    HW119883   3.363   3.135   0.853
 6328SOL    HW219884   3.203   3.106   0.843
 6329SOL     OW19885   1.804   2.403   4.001
 6329SOL    HW119886   1.807   2.305   4.021
 6329SOL    HW219887   1.835   2.454   4.081
 6330SOL     OW19888   4.772   0.755   0.896
 6330SOL    HW119889   4.686   0.790   0.935
 6330SOL    HW219890   4.800   0.674   0.948
 6331SOL     OW19891   6.440   2.822   5.946
 6331SOL    HW119892   6.401   2.740   5.905
 6331SOL    HW219893   6.476   2.800   6.036
 6332SOL     OW19894   6.670   3.527   1.589
 6332SOL    HW119895   6.747   3.590   1.598
 6332SOL    HW219896   6.626   3.541   1.500
 6333SOL     OW19897   4.892   6.041   5.324
 6333SOL    HW119898   4.882   6.039   5.424
 6333SOL    HW219899   4.802   6.039   5.282
 6334SOL     OW19900   3.394   0.386   1.587
 6334SOL    HW119901   3.490   0.372   1.607
 6334SOL    HW219902   3.342   0.387   1.672
 6335SOL     OW19903   3.908   1.163   0.366
 6335SOL    HW119904   3.927   1.102   0.443
 6335SOL    HW219905   3.931   1.116   0.280
 6336SOL     OW19906   0.622   2.193   5.592
 6336SOL    HW119907   0.570   2.216   5.674
 6336SOL    HW219908   0.572   2.223   5.511
 6337SOL     OW19909   5.108   4.674   6.075
 6337SOL    HW119910   5.188   4.733   6.071
 6337SOL    HW219911   5.100   4.623   5.989
 6338SOL     OW19912   3.540   1.827   4.444
 6338SOL    HW119913   3.590   1.754   4.397
 6338SOL    HW219914   3.466   1.860   4.386
 6339SOL     OW19915   1.525   3.852   3.341
 6339SOL    HW119916   1.591   3.789   3.301
 6339SOL    HW219917   1.566   3.943   3.350
 6340SOL     OW19918   1.385   4.951   2.737
 6340SOL    HW119919   1.452   4.916   2.672
 6340SOL    HW219920   1.343   4.874   2.786
 6341SOL     OW19921   0.901   4.325   4.477
 6341SOL    HW119922   0.954   4.404   4.507
 6341SOL    HW219923   0.889   4.261   4.553
 6342SOL     OW19924   1.646   1.366   1.794
 6342SOL    HW119925   1.607   1.427   1.725
 6342SOL    HW219926   1.733   1.402   1.826
 6343SOL     OW19927   4.810   1.972   6.895
 6343SOL    HW119928   4.738   1.904   6.907
 6343SOL    HW219929   4.838   2.007   6.985
 6344SOL     OW19930   5.661   3.110   4.701
 6344SOL    HW119931   5.663   3.147   4.609
 6344SOL    HW219932   5.752   3.076   4.725
 6345SOL     OW19933   5.903   2.893   2.563
 6345SOL    HW119934   5.939   2.824   2.625
 6345SOL    HW219935   5.942   2.878   2.471
 6346SOL     OW19936   6.903   5.169   3.791
 6346SOL    HW119937   6.839   5.108   3.745
 6346SOL    HW219938   6.857   5.213   3.868
 6347SOL     OW19939   2.193   0.034   0.302
 6347SOL    HW119940   2.217   0.129   0.319
 6347SOL    HW219941   2.240   0.002   0.219
 6348SOL     OW19942   0.539   3.985   5.546
 6348SOL    HW119943   0.503   4.013   5.457
 6348SOL    HW219944   0.573   4.065   5.596
 6349SOL     OW19945   2.130   0.596   1.845
 6349SOL    HW119946   2.207   0.581   1.906
 6349SOL    HW219947   2.090   0.686   1.864
 6350SOL     OW19948   1.649   5.150   4.085
 6350SOL    HW119949   1.559   5.186   4.110
 6350SOL    HW219950   1.676   5.080   4.150
 6351SOL     OW19951   6.341   3.734   3.684
 6351SOL    HW119952   6.338   3.802   3.610
 6351SOL    HW219953   6.422   3.677   3.673
 6352SOL     OW19954   3.703   5.975   4.981
 6352SOL    HW119955   3.728   5.883   5.011
 6352SOL    HW219956   3.738   5.990   4.888
 6353SOL     OW19957   0.527   0.037   5.811
 6353SOL    HW119958   0.545   0.047   5.713
 6353SOL    HW219959   0.609   0.005   5.857
 6354SOL     OW19960   2.090   5.777   2.861
 6354SOL    HW119961   2.111   5.731   2.775
 6354SOL    HW219962   2.030   5.855   2.843
 6355SOL     OW19963   0.683   5.168   6.332
 6355SOL    HW119964   0.749   5.093   6.343
 6355SOL    HW219965   0.658   5.203   6.422
 6356SOL     OW19966   4.178   5.455   2.174
 6356SOL    HW119967   4.236   5.420   2.248
 6356SOL    HW219968   4.234   5.505   2.108
 6357SOL     OW19969   5.888   3.261   2.521
 6357SOL    HW119970   5.904   3.311   2.606
 6357SOL    HW219971   5.790   3.253   2.505
 6358SOL     OW19972   0.619   2.131   6.148
 6358SOL    HW119973   0.653   2.076   6.072
 6358SOL    HW219974   0.526   2.161   6.129
 6359SOL     OW19975   5.743   6.784   6.513
 6359SOL    HW119976   5.803   6.726   6.568
 6359SOL    HW219977   5.788   6.872   6.495
 6360SOL     OW19978   1.045   4.002   3.852
 6360SOL    HW119979   1.126   3.989   3.794
 6360SOL    HW219980   1.062   4.079   3.914
 6361SOL     OW19981   6.820   0.082   1.186
 6361SOL    HW119982   6.813   0.175   1.149
 6361SOL    HW219983   6.885   0.030   1.131
 6362SOL     OW19984   0.283   6.404   0.452
 6362SOL    HW119985   0.318   6.469   0.385
 6362SOL    HW219986   0.220   6.451   0.514
 6363SOL     OW19987   2.381   4.750   3.612
 6363SOL    HW119988   2.426   4.663   3.636
 6363SOL    HW219989   2.339   4.790   3.694
 6364SOL     OW19990   3.112   1.211   6.195
 6364SOL    HW119991   3.178   1.154   6.147
 6364SOL    HW219992   3.029   1.158   6.212
 6365SOL     OW19993   5.584   6.893   3.896
 6365SOL    HW119994   5.672   6.846   3.888
 6365SOL    HW219995   5.583   6.973   3.835
 6366SOL     OW19996   0.765   6.498   5.648
 6366SOL    HW119997   0.826   6.573   5.673
 6366SOL    HW219998   0.759   6.433   5.724
 6367SOL     OW19999   4.169   1.075   5.279
 6367SOL    HW120000   4.131   1.140   5.345
 6367SOL    HW220001   4.096   1.020   5.240
 6368SOL     OW20002   3.663   5.000   3.527
 6368SOL    HW120003   3.668   4.971   3.431
 6368SOL    HW220004   3.571   5.035   3.546
 6369SOL     OW20005   2.090   5.571   3.782
 6369SOL    HW120006   2.140   5.497   3.825
 6369SOL    HW220007   2.006   5.590   3.833
 6370SOL     OW20008   0.512   3.777   3.346
 6370SOL    HW120009   0.427   3.816   3.380
 6370SOL    HW220010   0.491   3.696   3.290
 6371SOL     OW20011   5.487   4.131   4.321
 6371SOL    HW120012   5.570   4.081   4.295
 6371SOL    HW220013   5.485   4.144   4.420
 6372SOL     OW20014   1.790   0.260   2.539
 6372SOL    HW120015   1.887   0.275   2.523
 6372SOL    HW220016   1.749   0.219   2.458
 6373SOL     OW20017   5.007   3.971   2.866
 6373SOL    HW120018   5.090   3.993   2.814
 6373SOL    HW220019   4.979   4.052   2.919
 6374SOL     OW20020   3.169   4.072   3.708
 6374SOL    HW120021   3.176   4.172   3.714
 6374SOL    HW220022   3.149   4.035   3.799
 6375SOL     OW20023   0.030   1.978   3.883
 6375SOL    HW120024   6.983   2.044   3.896
 6375SOL    HW220025   7.020   1.890   3.855
 6376SOL     OW20026   6.118   2.680   5.016
 6376SOL    HW120027   6.060   2.757   4.988
 6376SOL    HW220028   6.082   2.640   5.100
 6377SOL     OW20029   6.577   1.870   5.713
 6377SOL    HW120030   6.593   1.931   5.636
 6377SOL    HW220031   6.563   1.777   5.680
 6378SOL     OW20032   4.550   5.226   4.265
 6378SOL    HW120033   4.540   5.314   4.312
 6378SOL    HW220034   4.627   5.176   4.305
 6379SOL     OW20035   1.703   3.586   4.098
 6379SOL    HW120036   1.617   3.613   4.056
 6379SOL    HW220037   1.709   3.625   4.190
 6380SOL     OW20038   0.195   1.672   5.630
 6380SOL    HW120039   0.217   1.583   5.669
 6380SOL    HW220040   0.257   1.692   5.554
 6381SOL     OW20041   3.599   3.269   1.979
 6381SOL    HW120042   3.524   3.207   2.002
 6381SOL    HW220043   3.577   3.361   2.010
 6382SOL     OW20044   1.419   1.488   1.093
 6382SOL    HW120045   1.487   1.460   1.026
 6382SOL    HW220046   1.389   1.408   1.145
 6383SOL     OW20047   1.579   1.813   2.766
 6383SOL    HW120048   1.608   1.719   2.784
 6383SOL    HW220049   1.642   1.855   2.700
 6384SOL     OW20050   5.995   3.737   1.662
 6384SOL    HW120051   6.068   3.799   1.692
 6384SOL    HW220052   5.945   3.778   1.585
 6385SOL     OW20053   0.007   4.773   4.211
 6385SOL    HW120054   7.009   4.759   4.115
 6385SOL    HW220055   0.036   4.686   4.251
 6386SOL     OW20056   2.291   4.045   6.184
 6386SOL    HW120057   2.291   3.968   6.248
 6386SOL    HW220058   2.331   4.016   6.097
 6387SOL     OW20059   0.694   1.469   6.347
 6387SOL    HW120060   0.772   1.451   6.288
 6387SOL    HW220061   0.622   1.513   6.293
 6388SOL     OW20062   3.606   4.946   1.299
 6388SOL    HW120063   3.576   4.872   1.239
 6388SOL    HW220064   3.644   5.020   1.243
 6389SOL     OW20065   0.285   5.641   2.537
 6389SOL    HW120066   0.214   5.703   2.504
 6389SOL    HW220067   0.283   5.557   2.483
 6390SOL     OW20068   0.656   1.749   5.423
 6390SOL    HW120069   0.708   1.663   5.429
 6390SOL    HW220070   0.682   1.808   5.499
 6391SOL     OW20071   2.353   0.414   6.192
 6391SOL    HW120072   2.412   0.434   6.114
 6391SOL    HW220073   2.374   0.324   6.228
 6392SOL     OW20074   2.899   6.006   3.064
 6392SOL    HW120075   2.942   6.096   3.064
 6392SOL    HW220076   2.966   5.937   3.094
 6393SOL     OW20077   6.928   0.067   2.095
 6393SOL    HW120078   6.838   0.097   2.063
 6393SOL    HW220079   6.948   7.003   2.061
 6394SOL     OW20080   2.122   5.074   0.753
 6394SOL    HW120081   2.036   5.023   0.764
 6394SOL    HW220082   2.199   5.012   0.765
 6395SOL     OW20083   6.569   2.409   0.941
 6395SOL    HW120084   6.632   2.362   0.880
 6395SOL    HW220085   6.545   2.348   1.017
 6396SOL     OW20086   4.780   3.453   5.936
 6396SOL    HW120087   4.818   3.392   6.006
 6396SOL    HW220088   4.685   3.427   5.917
 6397SOL     OW20089   5.462   2.760   6.794
 6397SOL    HW120090   5.543   2.761   6.853
 6397SOL    HW220091   5.399   2.833   6.821
 6398SOL     OW20092   2.914   6.923   0.618
 6398SOL    HW120093   2.980   6.999   0.619
 6398SOL    HW220094   2.875   6.912   0.710
 6399SOL     OW20095   1.398   6.226   6.488
 6399SOL    HW120096   1.445   6.281   6.418
 6399SOL    HW220097   1.443   6.137   6.496
 6400SOL     OW20098   2.322   6.137   1.703
 6400SOL    HW120099   2.260   6.078   1.651
 6400SOL    HW220100   2.275   6.221   1.729
 6401SOL     OW20101   6.652   5.115   3.959
 6401SOL    HW120102   6.651   5.107   4.059
 6401SOL    HW220103   6.559   5.110   3.924
 6402SOL     OW20104   4.149   1.797   2.864
 6402SOL    HW120105   4.092   1.855   2.922
 6402SOL    HW220106   4.094   1.757   2.791
 6403SOL     OW20107   6.846   6.056   6.337
 6403SOL    HW120108   6.933   6.014   6.308
 6403SOL    HW220109   6.861   6.153   6.357
 6404SOL     OW20110   4.486   1.766   1.949
 6404SOL    HW120111   4.437   1.743   1.865
 6404SOL    HW220112   4.545   1.846   1.933
 6405SOL     OW20113   3.190   0.626   3.899
 6405SOL    HW120114   3.097   0.599   3.923
 6405SOL    HW220115   3.254   0.556   3.932
 6406SOL     OW20116   1.177   2.337   2.958
 6406SOL    HW120117   1.209   2.426   2.926
 6406SOL    HW220118   1.122   2.349   3.040
 6407SOL     OW20119   2.804   5.944   4.252
 6407SOL    HW120120   2.857   5.923   4.170
 6407SOL    HW220121   2.854   5.914   4.333
 6408SOL     OW20122   5.856   2.275   0.469
 6408SOL    HW120123   5.844   2.356   0.526
 6408SOL    HW220124   5.868   2.195   0.528
 6409SOL     OW20125   0.079   4.809   3.552
 6409SOL    HW120126   7.021   4.789   3.599
 6409SOL    HW220127   0.156   4.776   3.607
 6410SOL     OW20128   1.612   1.428   0.674
 6410SOL    HW120129   1.551   1.492   0.627
 6410SOL    HW220130   1.558   1.354   0.714
 6411SOL     OW20131   0.902   2.659   3.134
 6411SOL    HW120132   0.862   2.568   3.121
 6411SOL    HW220133   0.979   2.653   3.197
 6412SOL     OW20134   0.372   2.360   5.047
 6412SOL    HW120135   0.451   2.299   5.055
 6412SOL    HW220136   0.323   2.341   4.962
 6413SOL     OW20137   4.249   4.796   3.723
 6413SOL    HW120138   4.234   4.722   3.658
 6413SOL    HW220139   4.346   4.798   3.750
 6414SOL     OW20140   5.827   1.088   0.593
 6414SOL    HW120141   5.812   1.185   0.575
 6414SOL    HW220142   5.826   1.071   0.692
 6415SOL     OW20143   1.743   2.807   2.925
 6415SOL    HW120144   1.673   2.783   2.859
 6415SOL    HW220145   1.722   2.764   3.013
 6416SOL     OW20146   1.314   1.559   6.484
 6416SOL    HW120147   1.261   1.557   6.399
 6416SOL    HW220148   1.396   1.614   6.471
 6417SOL     OW20149   6.411   5.048   1.965
 6417SOL    HW120150   6.334   5.011   1.913
 6417SOL    HW220151   6.497   5.018   1.925
 6418SOL     OW20152   4.741   4.657   1.717
 6418SOL    HW120153   4.666   4.592   1.725
 6418SOL    HW220154   4.787   4.644   1.629
 6419SOL     OW20155   2.480   4.939   3.169
 6419SOL    HW120156   2.577   4.960   3.174
 6419SOL    HW220157   2.439   4.983   3.090
 6420SOL     OW20158   3.476   4.895   5.015
 6420SOL    HW120159   3.386   4.859   5.042
 6420SOL    HW220160   3.468   4.944   4.929
 6421SOL     OW20161   5.206   0.657   2.909
 6421SOL    HW120162   5.279   0.677   2.974
 6421SOL    HW220163   5.169   0.565   2.927
 6422SOL     OW20164   0.392   0.694   4.102
 6422SOL    HW120165   0.359   0.787   4.084
 6422SOL    HW220166   0.488   0.698   4.130
 6423SOL     OW20167   4.807   5.531   2.596
 6423SOL    HW120168   4.786   5.482   2.681
 6423SOL    HW220169   4.737   5.600   2.578
 6424SOL     OW20170   0.080   5.923   6.221
 6424SOL    HW120171   0.099   5.881   6.132
 6424SOL    HW220172   0.145   5.998   6.236
 6425SOL     OW20173   6.745   5.799   2.439
 6425SOL    HW120174   6.802   5.864   2.491
 6425SOL    HW220175   6.662   5.846   2.407
 6426SOL     OW20176   0.908   5.064   2.884
 6426SOL    HW120177   0.973   4.990   2.903
 6426SOL    HW220178   0.952   5.152   2.896
 6427SOL     OW20179   3.282   3.217   4.997
 6427SOL    HW120180   3.275   3.307   5.038
 6427SOL    HW220181   3.236   3.150   5.055
 6428SOL     OW20182   5.769   3.073   6.757
 6428SOL    HW120183   5.759   3.059   6.856
 6428SOL    HW220184   5.823   2.999   6.718
 6429SOL     OW20185   2.010   1.931   6.078
 6429SOL    HW120186   2.046   2.024   6.068
 6429SOL    HW220187   1.982   1.896   5.988
 6430SOL     OW20188   5.945   0.849   2.110
 6430SOL    HW120189   5.967   0.806   2.197
 6430SOL    HW220190   5.877   0.921   2.124
 6431SOL     OW20191   5.156   6.723   3.946
 6431SOL    HW120192   5.178   6.796   4.011
 6431SOL    HW220193   5.088   6.662   3.988
 6432SOL     OW20194   3.784   4.386   6.471
 6432SOL    HW120195   3.694   4.376   6.428
 6432SOL    HW220196   3.847   4.430   6.406
 6433SOL     OW20197   2.595   4.198   6.865
 6433SOL    HW120198   2.513   4.249   6.892
 6433SOL    HW220199   2.631   4.234   6.779
 6434SOL     OW20200   2.211   3.892   0.147
 6434SOL    HW120201   2.198   3.983   0.186
 6434SOL    HW220202   2.134   3.871   0.085
 6435SOL     OW20203   4.290   6.608   0.044
 6435SOL    HW120204   4.373   6.553   0.053
 6435SOL    HW220205   4.236   6.600   0.128
 6436SOL     OW20206   2.016   3.473   3.473
 6436SOL    HW120207   2.044   3.387   3.430
 6436SOL    HW220208   2.040   3.470   3.570
 6437SOL     OW20209   2.364   1.666   0.818
 6437SOL    HW120210   2.449   1.678   0.868
 6437SOL    HW220211   2.351   1.570   0.795
 6438SOL     OW20212   0.052   4.090   6.798
 6438SOL    HW120213   7.021   4.167   6.775
 6438SOL    HW220214   0.136   4.123   6.841
 6439SOL     OW20215   5.335   0.835   1.622
 6439SOL    HW120216   5.322   0.924   1.579
 6439SOL    HW220217   5.298   0.764   1.561
 6440SOL     OW20218   2.100   1.583   6.648
 6440SOL    HW120219   2.170   1.525   6.689
 6440SOL    HW220220   2.015   1.573   6.699
 6441SOL     OW20221   0.530   6.487   1.905
 6441SOL    HW120222   0.500   6.499   2.000
 6441SOL    HW220223   0.501   6.398   1.872
 6442SOL     OW20224   2.285   0.801   4.665
 6442SOL    HW120225   2.364   0.830   4.610
 6442SOL    HW220226   2.313   0.787   4.759
 6443SOL     OW20227   3.811   2.481   5.309
 6443SOL    HW120228   3.904   2.461   5.339
 6443SOL    HW220229   3.770   2.399   5.270
 6444SOL     OW20230   6.615   2.753   4.076
 6444SOL    HW120231   6.653   2.678   4.130
 6444SOL    HW220232   6.686   2.793   4.018
 6445SOL     OW20233   4.218   3.459   5.623
 6445SOL    HW120234   4.243   3.441   5.528
 6445SOL    HW220235   4.144   3.397   5.651
 6446SOL     OW20236   1.688   1.416   5.940
 6446SOL    HW120237   1.741   1.335   5.963
 6446SOL    HW220238   1.621   1.435   6.012
 6447SOL     OW20239   5.992   4.740   2.867
 6447SOL    HW120240   5.994   4.759   2.965
 6447SOL    HW220241   6.078   4.695   2.840
 6448SOL     OW20242   4.557   5.657   2.177
 6448SOL    HW120243   4.507   5.743   2.177
 6448SOL    HW220244   4.500   5.585   2.216
 6449SOL     OW20245   2.592   4.684   0.704
 6449SOL    HW120246   2.597   4.761   0.641
 6449SOL    HW220247   2.531   4.614   0.666
 6450SOL     OW20248   0.827   3.884   0.690
 6450SOL    HW120249   0.911   3.834   0.713
 6450SOL    HW220250   0.754   3.818   0.671
 6451SOL     OW20251   2.215   0.405   4.688
 6451SOL    HW120252   2.287   0.347   4.727
 6451SOL    HW220253   2.212   0.492   4.736
 6452SOL     OW20254   3.860   6.665   4.503
 6452SOL    HW120255   3.832   6.688   4.596
 6452SOL    HW220256   3.787   6.614   4.458
 6453SOL     OW20257   2.398   6.111   1.148
 6453SOL    HW120258   2.474   6.170   1.175
 6453SOL    HW220259   2.316   6.165   1.136
 6454SOL     OW20260   2.321   2.357   3.317
 6454SOL    HW120261   2.391   2.421   3.286
 6454SOL    HW220262   2.230   2.395   3.296
 6455SOL     OW20263   0.161   2.632   3.647
 6455SOL    HW120264   0.182   2.568   3.573
 6455SOL    HW220265   0.115   2.583   3.722
 6456SOL     OW20266   2.179   0.687   3.556
 6456SOL    HW120267   2.182   0.775   3.508
 6456SOL    HW220268   2.166   0.613   3.489
 6457SOL     OW20269   5.194   1.612   0.886
 6457SOL    HW120270   5.162   1.597   0.979
 6457SOL    HW220271   5.266   1.546   0.864
 6458SOL     OW20272   0.884   7.002   3.527
 6458SOL    HW120273   0.970   7.019   3.575
 6458SOL    HW220274   0.827   0.056   3.532
 6459SOL     OW20275   6.159   4.326   0.208
 6459SOL    HW120276   6.189   4.253   0.146
 6459SOL    HW220277   6.061   4.342   0.197
 6460SOL     OW20278   4.972   6.001   5.767
 6460SOL    HW120279   4.934   6.060   5.696
 6460SOL    HW220280   5.039   6.052   5.821
 6461SOL     OW20281   2.552   4.916   5.781
 6461SOL    HW120282   2.620   4.844   5.796
 6461SOL    HW220283   2.534   4.963   5.867
 6462SOL     OW20284   2.492   2.514   4.876
 6462SOL    HW120285   2.412   2.536   4.931
 6462SOL    HW220286   2.554   2.457   4.929
 6463SOL     OW20287   6.941   3.547   0.111
 6463SOL    HW120288   6.857   3.523   0.063
 6463SOL    HW220289   6.934   3.520   0.207
 6464SOL     OW20290   1.437   5.054   4.358
 6464SOL    HW120291   1.386   5.008   4.285
 6464SOL    HW220292   1.390   5.139   4.382
 6465SOL     OW20293   6.508   2.616   3.044
 6465SOL    HW120294   6.604   2.640   3.032
 6465SOL    HW220295   6.459   2.631   2.957
 6466SOL     OW20296   1.446   1.338   6.149
 6466SOL    HW120297   1.359   1.334   6.100
 6466SOL    HW220298   1.446   1.273   6.225
 6467SOL     OW20299   3.131   1.055   6.785
 6467SOL    HW120300   3.175   1.031   6.872
 6467SOL    HW220301   3.081   0.976   6.750
 6468SOL     OW20302   3.800   6.086   0.803
 6468SOL    HW120303   3.711   6.131   0.814
 6468SOL    HW220304   3.789   5.988   0.818
 6469SOL     OW20305   5.006   0.682   5.040
 6469SOL    HW120306   4.965   0.609   5.094
 6469SOL    HW220307   5.105   0.680   5.051
 6470SOL     OW20308   6.194   4.480   0.467
 6470SOL    HW120309   6.153   4.569   0.446
 6470SOL    HW220310   6.141   4.408   0.423
 6471SOL     OW20311   6.513   6.142   5.776
 6471SOL    HW120312   6.544   6.237   5.778
 6471SOL    HW220313   6.500   6.113   5.681
 6472SOL     OW20314   0.806   5.461   0.871
 6472SOL    HW120315   0.811   5.526   0.947
 6472SOL    HW220316   0.788   5.370   0.907
 6473SOL     OW20317   3.431   1.525   4.437
 6473SOL    HW120318   3.384   1.593   4.494
 6473SOL    HW220319   3.377   1.509   4.354
 6474SOL     OW20320   2.416   4.219   5.611
 6474SOL    HW120321   2.414   4.120   5.624
 6474SOL    HW220322   2.419   4.239   5.514
 6475SOL     OW20323   6.393   5.352   4.304
 6475SOL    HW120324   6.457   5.327   4.377
 6475SOL    HW220325   6.302   5.316   4.325
 6476SOL     OW20326   4.526   3.413   1.255
 6476SOL    HW120327   4.476   3.499   1.264
 6476SOL    HW220328   4.482   3.342   1.310
 6477SOL     OW20329   6.085   4.865   1.322
 6477SOL    HW120330   6.061   4.805   1.246
 6477SOL    HW220331   6.150   4.935   1.292
 6478SOL     OW20332   3.519   6.571   1.817
 6478SOL    HW120333   3.606   6.576   1.868
 6478SOL    HW220334   3.450   6.626   1.864
 6479SOL     OW20335   4.245   5.660   3.974
 6479SOL    HW120336   4.253   5.564   4.002
 6479SOL    HW220337   4.156   5.696   4.003
 6480SOL     OW20338   3.351   2.474   5.844
 6480SOL    HW120339   3.313   2.488   5.753
 6480SOL    HW220340   3.416   2.547   5.865
 6481SOL     OW20341   3.696   2.001   1.845
 6481SOL    HW120342   3.685   2.082   1.904
 6481SOL    HW220343   3.636   2.010   1.766
 6482SOL     OW20344   6.942   0.939   5.588
 6482SOL    HW120345   6.885   1.021   5.581
 6482SOL    HW220346   6.890   0.861   5.553
 6483SOL     OW20347   1.046   6.055   1.253
 6483SOL    HW120348   1.146   6.056   1.258
 6483SOL    HW220349   1.009   6.116   1.323
 6484SOL     OW20350   3.652   0.199   1.563
 6484SOL    HW120351   3.690   0.252   1.487
 6484SOL    HW220352   3.672   0.102   1.549
 6485SOL     OW20353   1.756   5.087   3.453
 6485SOL    HW120354   1.799   5.169   3.414
 6485SOL    HW220355   1.676   5.115   3.507
 6486SOL     OW20356   2.377   4.663   4.244
 6486SOL    HW120357   2.315   4.598   4.287
 6486SOL    HW220358   2.453   4.684   4.306
 6487SOL     OW20359   7.022   6.567   5.104
 6487SOL    HW120360   0.008   6.471   5.129
 6487SOL    HW220361   0.059   6.625   5.154
 6488SOL     OW20362   3.599   6.381   4.777
 6488SOL    HW120363   3.633   6.365   4.869
 6488SOL    HW220364   3.675   6.382   4.712
 6489SOL     OW20365   2.863   2.552   6.833
 6489SOL    HW120366   2.896   2.461   6.855
 6489SOL    HW220367   2.782   2.545   6.775
 6490SOL     OW20368   4.191   1.648   6.347
 6490SOL    HW120369   4.259   1.689   6.285
 6490SOL    HW220370   4.099   1.668   6.313
 6491SOL     OW20371   3.743   1.377   0.431
 6491SOL    HW120372   3.644   1.379   0.421
 6491SOL    HW220373   3.782   1.306   0.372
 6492SOL     OW20374   5.419   5.055   0.274
 6492SOL    HW120375   5.431   4.965   0.230
 6492SOL    HW220376   5.418   5.043   0.373
 6493SOL     OW20377   1.264   5.252   4.736
 6493SOL    HW120378   1.238   5.194   4.658
 6493SOL    HW220379   1.307   5.335   4.702
 6494SOL     OW20380   0.120   1.210   3.448
 6494SOL    HW120381   0.141   1.273   3.373
 6494SOL    HW220382   0.062   1.136   3.414
 6495SOL     OW20383   5.246   6.429   4.423
 6495SOL    HW120384   5.309   6.503   4.447
 6495SOL    HW220385   5.225   6.375   4.504
 6496SOL     OW20386   0.058   0.668   2.678
 6496SOL    HW120387   0.048   0.722   2.761
 6496SOL    HW220388   7.027   0.705   2.606
 6497SOL     OW20389   2.495   2.902   1.165
 6497SOL    HW120390   2.557   2.945   1.231
 6497SOL    HW220391   2.406   2.948   1.168
 6498SOL     OW20392   2.250   4.106   4.555
 6498SOL    HW120393   2.197   4.138   4.633
 6498SOL    HW220394   2.285   4.014   4.574
 6499SOL     OW20395   5.241   2.447   4.932
 6499SOL    HW120396   5.303   2.469   5.007
 6499SOL    HW220397   5.147   2.469   4.960
 6500SOL     OW20398   0.006   4.250   3.858
 6500SOL    HW120399   6.948   4.224   3.902
 6500SOL    HW220400   7.026   4.342   3.820
 6501SOL     OW20401   6.454   2.320   6.720
 6501SOL    HW120402   6.537   2.319   6.777
 6501SOL    HW220403   6.480   2.309   6.624
 6502SOL     OW20404   6.684   3.099   1.733
 6502SOL    HW120405   6.599   3.067   1.773
 6502SOL    HW220406   6.711   3.185   1.777
 6503SOL     OW20407   4.724   1.250   3.257
 6503SOL    HW120408   4.778   1.282   3.180
 6503SOL    HW220409   4.638   1.210   3.224
 6504SOL     OW20410   4.592   6.291   5.767
 6504SOL    HW120411   4.547   6.208   5.799
 6504SOL    HW220412   4.686   6.293   5.799
 6505SOL     OW20413   5.379   5.799   1.789
 6505SOL    HW120414   5.464   5.809   1.736
 6505SOL    HW220415   5.301   5.792   1.727
 6506SOL     OW20416   6.429   3.014   1.965
 6506SOL    HW120417   6.443   2.942   1.897
 6506SOL    HW220418   6.399   2.973   2.051
 6507SOL     OW20419   2.442   5.266   5.652
 6507SOL    HW120420   2.397   5.237   5.567
 6507SOL    HW220421   2.534   5.230   5.655
 6508SOL     OW20422   2.252   0.528   2.787
 6508SOL    HW120423   2.286   0.544   2.694
 6508SOL    HW220424   2.152   0.520   2.784
 6509SOL     OW20425   2.998   1.658   4.856
 6509SOL    HW120426   2.991   1.756   4.835
 6509SOL    HW220427   3.018   1.647   4.953
 6510SOL     OW20428   0.435   4.587   0.194
 6510SOL    HW120429   0.513   4.585   0.132
 6510SOL    HW220430   0.370   4.657   0.164
 6511SOL     OW20431   4.521   1.414   4.457
 6511SOL    HW120432   4.424   1.429   4.480
 6511SOL    HW220433   4.566   1.371   4.535
 6512SOL     OW20434   4.767   6.685   1.938
 6512SOL    HW120435   4.828   6.708   2.014
 6512SOL    HW220436   4.779   6.752   1.864
 6513SOL     OW20437   3.303   4.971   2.920
 6513SOL    HW120438   3.297   4.915   3.002
 6513SOL    HW220439   3.251   4.929   2.846
 6514SOL     OW20440   5.393   0.954   3.817
 6514SOL    HW120441   5.398   0.944   3.917
 6514SOL    HW220442   5.465   0.898   3.775
 6515SOL     OW20443   0.732   5.367   4.155
 6515SOL    HW120444   0.681   5.429   4.095
 6515SOL    HW220445   0.712   5.272   4.130
 6516SOL     OW20446   0.261   2.969   1.689
 6516SOL    HW120447   0.345   2.966   1.743
 6516SOL    HW220448   0.285   2.989   1.593
 6517SOL     OW20449   6.396   0.423   0.593
 6517SOL    HW120450   6.354   0.444   0.681
 6517SOL    HW220451   6.349   0.474   0.520
 6518SOL     OW20452   6.891   6.513   6.555
 6518SOL    HW120453   6.886   6.593   6.615
 6518SOL    HW220454   6.866   6.539   6.462
 6519SOL     OW20455   2.688   1.598   3.554
 6519SOL    HW120456   2.622   1.564   3.487
 6519SOL    HW220457   2.771   1.542   3.550
 6520SOL     OW20458   5.529   5.214   2.231
 6520SOL    HW120459   5.441   5.236   2.273
 6520SOL    HW220460   5.594   5.187   2.302
 6521SOL     OW20461   2.087   3.083   5.029
 6521SOL    HW120462   2.020   3.100   4.957
 6521SOL    HW220463   2.176   3.065   4.988
 6522SOL     OW20464   4.419   4.438   0.480
 6522SOL    HW120465   4.407   4.504   0.406
 6522SOL    HW220466   4.434   4.487   0.566
 6523SOL     OW20467   3.795   0.832   6.853
 6523SOL    HW120468   3.772   0.861   6.946
 6523SOL    HW220469   3.718   0.851   6.792
 6524SOL     OW20470   2.718   3.688   1.721
 6524SOL    HW120471   2.714   3.596   1.681
 6524SOL    HW220472   2.739   3.754   1.649
 6525SOL     OW20473   1.287   4.648   3.132
 6525SOL    HW120474   1.194   4.635   3.166
 6525SOL    HW220475   1.352   4.609   3.198
 6526SOL     OW20476   2.105   0.174   6.310
 6526SOL    HW120477   2.056   0.145   6.392
 6526SOL    HW220478   2.199   0.139   6.313
 6527SOL     OW20479   0.418   2.621   4.593
 6527SOL    HW120480   0.460   2.705   4.629
 6527SOL    HW220481   0.342   2.595   4.652
 6528SOL     OW20482   0.002   0.981   4.394
 6528SOL    HW120483   6.977   1.045   4.449
 6528SOL    HW220484   0.099   0.992   4.413
 6529SOL     OW20485   0.999   1.278   2.702
 6529SOL    HW120486   1.034   1.332   2.625
 6529SOL    HW220487   0.932   1.212   2.669
 6530SOL     OW20488   6.953   3.474   1.198
 6530SOL    HW120489   6.918   3.394   1.247
 6530SOL    HW220490   6.878   3.539   1.182
 6531SOL     OW20491   5.967   3.507   5.017
 6531SOL    HW120492   5.963   3.579   4.947
 6531SOL    HW220493   6.022   3.540   5.094
 6532SOL     OW20494   6.294   0.536   0.081
 6532SOL    HW120495   6.325   0.445   0.051
 6532SOL    HW220496   6.368   0.602   0.068
 6533SOL     OW20497   4.650   6.366   0.934
 6533SOL    HW120498   4.737   6.354   0.982
 6533SOL    HW220499   4.575   6.340   0.995
 6534SOL     OW20500   3.378   4.107   1.159
 6534SOL    HW120501   3.389   4.098   1.060
 6534SOL    HW220502   3.373   4.017   1.201
 6535SOL     OW20503   6.450   3.977   4.427
 6535SOL    HW120504   6.532   3.956   4.480
 6535SOL    HW220505   6.369   3.953   4.480
 6536SOL     OW20506   0.920   1.848   5.815
 6536SOL    HW120507   0.965   1.764   5.788
 6536SOL    HW220508   0.989   1.914   5.847
 6537SOL     OW20509   6.522   5.084   0.273
 6537SOL    HW120510   6.450   5.107   0.207
 6537SOL    HW220511   6.552   4.990   0.259
 6538SOL     OW20512   2.885   3.862   6.705
 6538SOL    HW120513   2.905   3.852   6.803
 6538SOL    HW220514   2.893   3.773   6.661
 6539SOL     OW20515   3.765   0.634   6.473
 6539SOL    HW120516   3.817   0.618   6.557
 6539SOL    HW220517   3.828   0.645   6.396
 6540SOL     OW20518   5.224   1.335   5.541
 6540SOL    HW120519   5.264   1.332   5.449
 6540SOL    HW220520   5.129   1.305   5.537
 6541SOL     OW20521   4.410   1.236   5.232
 6541SOL    HW120522   4.363   1.151   5.256
 6541SOL    HW220523   4.362   1.313   5.272
 6542SOL     OW20524   6.617   4.424   4.432
 6542SOL    HW120525   6.702   4.396   4.389
 6542SOL    HW220526   6.634   4.449   4.527
 6543SOL     OW20527   5.777   3.442   6.080
 6543SOL    HW120528   5.833   3.519   6.050
 6543SOL    HW220529   5.738   3.397   6.000
 6544SOL     OW20530   0.268   6.306   2.871
 6544SOL    HW120531   0.347   6.361   2.897
 6544SOL    HW220532   0.293   6.209   2.870
 6545SOL     OW20533   5.318   2.235   6.907
 6545SOL    HW120534   5.269   2.229   6.820
 6545SOL    HW220535   5.375   2.317   6.907
 6546SOL     OW20536   3.573   4.640   0.099
 6546SOL    HW120537   3.624   4.636   0.185
 6546SOL    HW220538   3.623   4.589   0.029
 6547SOL     OW20539   4.709   1.147   5.961
 6547SOL    HW120540   4.620   1.176   5.928
 6547SOL    HW220541   4.780   1.210   5.929
 6548SOL     OW20542   1.294   3.286   6.550
 6548SOL    HW120543   1.332   3.232   6.625
 6548SOL    HW220544   1.289   3.382   6.577
 6549SOL     OW20545   4.816   0.950   1.291
 6549SOL    HW120546   4.904   0.942   1.337
 6549SOL    HW220547   4.831   0.956   1.192
 6550SOL     OW20548   0.597   6.685   3.706
 6550SOL    HW120549   0.534   6.607   3.703
 6550SOL    HW220550   0.651   6.687   3.622
 6551SOL     OW20551   1.588   4.967   2.975
 6551SOL    HW120552   1.494   4.939   2.958
 6551SOL    HW220553   1.648   4.887   2.978
 6552SOL     OW20554   2.316   0.186   5.318
 6552SOL    HW120555   2.268   0.120   5.375
 6552SOL    HW220556   2.257   0.265   5.303
 6553SOL     OW20557   0.314   1.784   2.974
 6553SOL    HW120558   0.347   1.860   3.031
 6553SOL    HW220559   0.311   1.700   3.028
 6554SOL     OW20560   5.794   0.905   5.301
 6554SOL    HW120561   5.717   0.928   5.241
 6554SOL    HW220562   5.865   0.975   5.291
 6555SOL     OW20563   0.217   1.913   2.003
 6555SOL    HW120564   0.231   1.998   1.951
 6555SOL    HW220565   0.272   1.916   2.086
 6556SOL     OW20566   4.690   4.622   5.197
 6556SOL    HW120567   4.705   4.552   5.128
 6556SOL    HW220568   4.765   4.621   5.263
 6557SOL     OW20569   3.153   5.864   1.188
 6557SOL    HW120570   3.124   5.789   1.130
 6557SOL    HW220571   3.072   5.914   1.221
 6558SOL     OW20572   6.071   4.705   0.430
 6558SOL    HW120573   5.997   4.765   0.400
 6558SOL    HW220574   6.155   4.760   0.442
 6559SOL     OW20575   0.251   4.362   6.363
 6559SOL    HW120576   0.178   4.351   6.295
 6559SOL    HW220577   0.247   4.286   6.428
 6560SOL     OW20578   4.251   4.564   0.985
 6560SOL    HW120579   4.311   4.561   1.066
 6560SOL    HW220580   4.156   4.576   1.014
 6561SOL     OW20581   3.742   4.062   2.330
 6561SOL    HW120582   3.833   4.025   2.312
 6561SOL    HW220583   3.716   4.124   2.255
 6562SOL     OW20584   5.290   4.030   0.601
 6562SOL    HW120585   5.305   4.122   0.637
 6562SOL    HW220586   5.372   3.999   0.552
 6563SOL     OW20587   6.503   6.300   0.320
 6563SOL    HW120588   6.532   6.395   0.333
 6563SOL    HW220589   6.551   6.261   0.242
 6564SOL     OW20590   0.170   4.204   2.901
 6564SOL    HW120591   0.112   4.192   2.981
 6564SOL    HW220592   0.256   4.247   2.929
 6565SOL     OW20593   6.761   2.563   4.197
 6565SOL    HW120594   6.825   2.542   4.123
 6565SOL    HW220595   6.735   2.479   4.244
 6566SOL     OW20596   3.309   6.354   2.687
 6566SOL    HW120597   3.305   6.448   2.720
 6566SOL    HW220598   3.271   6.349   2.595
 6567SOL     OW20599   4.153   1.762   1.038
 6567SOL    HW120600   4.251   1.752   1.054
 6567SOL    HW220601   4.136   1.776   0.940
 6568SOL     OW20602   4.591   0.511   3.819
 6568SOL    HW120603   4.559   0.466   3.735
 6568SOL    HW220604   4.512   0.534   3.876
 6569SOL     OW20605   3.000   3.542   6.375
 6569SOL    HW120606   3.018   3.454   6.331
 6569SOL    HW220607   2.962   3.527   6.466
 6570SOL     OW20608   4.014   6.667   2.597
 6570SOL    HW120609   4.079   6.710   2.660
 6570SOL    HW220610   4.009   6.721   2.513
 6571SOL     OW20611   2.581   5.587   2.159
 6571SOL    HW120612   2.642   5.656   2.197
 6571SOL    HW220613   2.495   5.629   2.132
 6572SOL     OW20614   6.717   5.476   5.242
 6572SOL    HW120615   6.816   5.474   5.229
 6572SOL    HW220616   6.684   5.384   5.262
 6573SOL     OW20617   2.895   1.577   1.977
 6573SOL    HW120618   2.949   1.629   1.911
 6573SOL    HW220619   2.804   1.618   1.986
 6574SOL     OW20620   3.112   6.295   2.482
 6574SOL    HW120621   3.080   6.338   2.566
 6574SOL    HW220622   3.044   6.306   2.410
 6575SOL     OW20623   1.318   0.620   2.187
 6575SOL    HW120624   1.315   0.544   2.122
 6575SOL    HW220625   1.225   0.647   2.211
 6576SOL     OW20626   2.217   5.991   6.062
 6576SOL    HW120627   2.234   6.012   5.966
 6576SOL    HW220628   2.276   6.047   6.120
 6577SOL     OW20629   0.810   1.542   3.663
 6577SOL    HW120630   0.880   1.612   3.653
 6577SOL    HW220631   0.853   1.452   3.662
 6578SOL     OW20632   0.962   4.359   3.377
 6578SOL    HW120633   0.965   4.423   3.454
 6578SOL    HW220634   0.892   4.289   3.395
 6579SOL     OW20635   0.075   3.595   4.801
 6579SOL    HW120636   0.140   3.642   4.861
 6579SOL    HW220637   0.089   3.496   4.809
 6580SOL     OW20638   6.516   1.624   1.420
 6580SOL    HW120639   6.452   1.629   1.344
 6580SOL    HW220640   6.482   1.560   1.489
 6581SOL     OW20641   2.560   1.331   6.932
 6581SOL    HW120642   2.639   1.361   6.878
 6581SOL    HW220643   2.584   1.331   0.001
 6582SOL     OW20644   1.408   1.198   1.287
 6582SOL    HW120645   1.312   1.192   1.313
 6582SOL    HW220646   1.459   1.246   1.359
 6583SOL     OW20647   4.462   0.276   5.042
 6583SOL    HW120648   4.473   0.182   5.009
 6583SOL    HW220649   4.437   0.275   5.139
 6584SOL     OW20650   5.062   1.848   0.076
 6584SOL    HW120651   5.110   1.781   0.019
 6584SOL    HW220652   5.105   1.938   0.065
 6585SOL     OW20653   6.955   6.752   0.243
 6585SOL    HW120654   6.875   6.811   0.259
 6585SOL    HW220655   6.933   6.686   0.171
 6586SOL     OW20656   6.327   1.582   6.047
 6586SOL    HW120657   6.352   1.678   6.029
 6586SOL    HW220658   6.342   1.528   5.964
 6587SOL     OW20659   2.817   6.123   5.256
 6587SOL    HW120660   2.741   6.078   5.211
 6587SOL    HW220661   2.786   6.208   5.298
 6588SOL     OW20662   1.434   3.674   1.880
 6588SOL    HW120663   1.391   3.762   1.900
 6588SOL    HW220664   1.368   3.614   1.833
 6589SOL     OW20665   4.870   0.302   0.461
 6589SOL    HW120666   4.822   0.383   0.428
 6589SOL    HW220667   4.962   0.327   0.491
 6590SOL     OW20668   1.074   1.449   5.555
 6590SOL    HW120669   1.163   1.417   5.588
 6590SOL    HW220670   1.009   1.373   5.560
 6591SOL     OW20671   5.604   6.135   2.339
 6591SOL    HW120672   5.543   6.056   2.331
 6591SOL    HW220673   5.693   6.112   2.300
 6592SOL     OW20674   5.862   6.840   3.864
 6592SOL    HW120675   5.904   6.790   3.787
 6592SOL    HW220676   5.931   6.894   3.910
 6593SOL     OW20677   2.484   1.955   3.509
 6593SOL    HW120678   2.441   1.873   3.470
 6593SOL    HW220679   2.418   2.031   3.508
 6594SOL     OW20680   3.816   1.618   6.974
 6594SOL    HW120681   3.755   1.542   6.998
 6594SOL    HW220682   3.850   1.605   6.881
 6595SOL     OW20683   0.724   2.813   0.632
 6595SOL    HW120684   0.806   2.867   0.648
 6595SOL    HW220685   0.709   2.803   0.534
 6596SOL     OW20686   3.585   6.581   4.443
 6596SOL    HW120687   3.554   6.597   4.537
 6596SOL    HW220688   3.544   6.650   4.383
 6597SOL     OW20689   2.331   6.000   2.405
 6597SOL    HW120690   2.258   5.975   2.342
 6597SOL    HW220691   2.308   6.085   2.451
 6598SOL     OW20692   0.950   6.763   4.173
 6598SOL    HW120693   0.917   6.791   4.264
 6598SOL    HW220694   1.032   6.815   4.150
 6599SOL     OW20695   4.806   6.676   5.513
 6599SOL    HW120696   4.720   6.659   5.465
 6599SOL    HW220697   4.875   6.707   5.448
 6600SOL     OW20698   5.157   5.239   6.329
 6600SOL    HW120699   5.128   5.227   6.234
 6600SOL    HW220700   5.246   5.286   6.331
 6601SOL     OW20701   1.224   1.827   5.510
 6601SOL    HW120702   1.127   1.803   5.507
 6601SOL    HW220703   1.235   1.916   5.554
 6602SOL     OW20704   0.666   1.828   1.467
 6602SOL    HW120705   0.654   1.729   1.458
 6602SOL    HW220706   0.583   1.869   1.506
 6603SOL     OW20707   0.476   2.692   3.945
 6603SOL    HW120708   0.545   2.725   3.881
 6603SOL    HW220709   0.476   2.750   4.027
 6604SOL     OW20710   2.303   6.735   0.894
 6604SOL    HW120711   2.298   6.679   0.811
 6604SOL    HW220712   2.240   6.698   0.963
 6605SOL     OW20713   5.872   3.876   1.422
 6605SOL    HW120714   5.855   3.962   1.373
 6605SOL    HW220715   5.805   3.808   1.394
 6606SOL     OW20716   6.821   6.672   2.422
 6606SOL    HW120717   6.810   6.617   2.339
 6606SOL    HW220718   6.730   6.695   2.459
 6607SOL     OW20719   1.830   2.674   2.369
 6607SOL    HW120720   1.923   2.698   2.344
 6607SOL    HW220721   1.830   2.623   2.455
 6608SOL     OW20722   5.688   6.258   1.852
 6608SOL    HW120723   5.775   6.269   1.803
 6608SOL    HW220724   5.705   6.209   1.938
 6609SOL     OW20725   4.666   0.813   5.702
 6609SOL    HW120726   4.596   0.745   5.679
 6609SOL    HW220727   4.630   0.905   5.685
 6610SOL     OW20728   2.832   1.203   6.302
 6610SOL    HW120729   2.811   1.287   6.252
 6610SOL    HW220730   2.762   1.188   6.372
 6611SOL     OW20731   6.012   2.827   4.077
 6611SOL    HW120732   6.095   2.787   4.038
 6611SOL    HW220733   6.031   2.859   4.170
 6612SOL     OW20734   6.347   1.998   6.570
 6612SOL    HW120735   6.263   1.976   6.622
 6612SOL    HW220736   6.395   2.073   6.616
 6613SOL     OW20737   6.174   6.772   5.123
 6613SOL    HW120738   6.273   6.783   5.135
 6613SOL    HW220739   6.128   6.789   5.209
 6614SOL     OW20740   5.657   6.273   0.342
 6614SOL    HW120741   5.600   6.241   0.418
 6614SOL    HW220742   5.665   6.373   0.347
 6615SOL     OW20743   1.011   4.525   2.963
 6615SOL    HW120744   1.071   4.542   2.884
 6615SOL    HW220745   0.918   4.558   2.941
 6616SOL     OW20746   3.935   0.807   5.893
 6616SOL    HW120747   3.973   0.811   5.985
 6616SOL    HW220748   3.873   0.729   5.885
 6617SOL     OW20749   3.552   5.091   2.909
 6617SOL    HW120750   3.554   5.161   2.981
 6617SOL    HW220751   3.496   5.014   2.939
 6618SOL     OW20752   1.423   3.411   2.824
 6618SOL    HW120753   1.335   3.365   2.819
 6618SOL    HW220754   1.410   3.509   2.837
 6619SOL     OW20755   6.286   0.362   4.505
 6619SOL    HW120756   6.240   0.346   4.417
 6619SOL    HW220757   6.330   0.452   4.503
 6620SOL     OW20758   1.942   2.623   5.052
 6620SOL    HW120759   1.912   2.643   5.145
 6620SOL    HW220760   2.009   2.691   5.024
 6621SOL     OW20761   2.278   3.484   6.414
 6621SOL    HW120762   2.300   3.570   6.460
 6621SOL    HW220763   2.359   3.425   6.414
 6622SOL     OW20764   6.110   0.207   1.815
 6622SOL    HW120765   6.126   0.306   1.815
 6622SOL    HW220766   6.125   0.171   1.723
 6623SOL     OW20767   2.704   3.154   6.471
 6623SOL    HW120768   2.688   3.086   6.399
 6623SOL    HW220769   2.795   3.140   6.510
 6624SOL     OW20770   1.335   6.037   4.201
 6624SOL    HW120771   1.425   6.006   4.231
 6624SOL    HW220772   1.335   6.137   4.195
 6625SOL     OW20773   5.031   1.877   5.755
 6625SOL    HW120774   5.080   1.808   5.807
 6625SOL    HW220775   4.942   1.841   5.728
 6626SOL     OW20776   4.365   5.617   5.350
 6626SOL    HW120777   4.410   5.545   5.295
 6626SOL    HW220778   4.317   5.575   5.426
 6627SOL     OW20779   2.297   0.628   5.310
 6627SOL    HW120780   2.236   0.686   5.257
 6627SOL    HW220781   2.339   0.683   5.383
 6628SOL     OW20782   4.497   4.523   4.687
 6628SOL    HW120783   4.422   4.571   4.733
 6628SOL    HW220784   4.473   4.507   4.591
 6629SOL     OW20785   4.345   6.222   0.095
 6629SOL    HW120786   4.340   6.164   0.014
 6629SOL    HW220787   4.255   6.227   0.138
 6630SOL     OW20788   4.029   1.295   1.661
 6630SOL    HW120789   3.944   1.322   1.706
 6630SOL    HW220790   4.107   1.323   1.718
 6631SOL     OW20791   2.736   0.009   2.482
 6631SOL    HW120792   2.775   6.958   2.528
 6631SOL    HW220793   2.637   0.009   2.493
 6632SOL     OW20794   0.621   5.740   1.636
 6632SOL    HW120795   0.687   5.762   1.708
 6632SOL    HW220796   0.584   5.648   1.651
 6633SOL     OW20797   0.693   4.250   6.479
 6633SOL    HW120798   0.759   4.238   6.405
 6633SOL    HW220799   0.659   4.344   6.478
 6634SOL     OW20800   5.967   2.409   4.432
 6634SOL    HW120801   5.981   2.343   4.505
 6634SOL    HW220802   5.897   2.375   4.369
 6635SOL     OW20803   4.029   4.764   2.947
 6635SOL    HW120804   3.978   4.780   3.032
 6635SOL    HW220805   4.115   4.718   2.968
 6636SOL     OW20806   4.792   1.864   5.657
 6636SOL    HW120807   4.713   1.895   5.710
 6636SOL    HW220808   4.768   1.784   5.604
 6637SOL     OW20809   1.467   6.729   6.404
 6637SOL    HW120810   1.455   6.676   6.488
 6637SOL    HW220811   1.466   6.826   6.427
 6638SOL     OW20812   3.181   4.076   4.250
 6638SOL    HW120813   3.141   4.133   4.322
 6638SOL    HW220814   3.273   4.110   4.229
 6639SOL     OW20815   6.062   4.880   6.375
 6639SOL    HW120816   6.056   4.978   6.392
 6639SOL    HW220817   6.140   4.861   6.315
 6640SOL     OW20818   1.165   1.742   5.212
 6640SOL    HW120819   1.235   1.799   5.169
 6640SOL    HW220820   1.169   1.754   5.312
 6641SOL     OW20821   2.648   2.145   0.033
 6641SOL    HW120822   2.722   2.210   0.050
 6641SOL    HW220823   2.681   2.073   7.000
 6642SOL     OW20824   3.051   5.253   0.012
 6642SOL    HW120825   3.140   5.207   0.017
 6642SOL    HW220826   2.986   5.192   6.995
 6643SOL     OW20827   0.000   5.337   0.194
 6643SOL    HW120828   6.999   5.423   0.235
 6643SOL    HW220829   6.955   5.269   0.203
 6644SOL     OW20830   2.846   4.796   2.223
 6644SOL    HW120831   2.858   4.768   2.128
 6644SOL    HW220832   2.784   4.731   2.269
 6645SOL     OW20833   6.745   4.714   0.633
 6645SOL    HW120834   6.772   4.769   0.554
 6645SOL    HW220835   6.672   4.760   0.683
 6646SOL     OW20836   3.888   6.949   4.910
 6646SOL    HW120837   3.971   6.895   4.896
 6646SOL    HW220838   3.813   6.911   4.855
 6647SOL     OW20839   4.174   1.074   2.097
 6647SOL    HW120840   4.146   1.027   2.013
 6647SOL    HW220841   4.273   1.086   2.097
 6648SOL     OW20842   3.836   6.593   2.796
 6648SOL    HW120843   3.754   6.599   2.739
 6648SOL    HW220844   3.917   6.610   2.741
 6649SOL     OW20845   5.764   0.956   6.345
 6649SOL    HW120846   5.706   0.966   6.425
 6649SOL    HW220847   5.853   0.920   6.373
 6650SOL     OW20848   2.693   1.595   5.120
 6650SOL    HW120849   2.653   1.586   5.211
 6650SOL    HW220850   2.792   1.579   5.125
 6651SOL     OW20851   1.883   1.861   6.557
 6651SOL    HW120852   1.943   1.839   6.480
 6651SOL    HW220853   1.817   1.788   6.570
 6652SOL     OW20854   6.937   4.091   0.725
 6652SOL    HW120855   6.915   4.099   0.822
 6652SOL    HW220856   6.923   3.997   0.695
 6653SOL     OW20857   3.754   2.890   2.289
 6653SOL    HW120858   3.718   2.807   2.332
 6653SOL    HW220859   3.725   2.894   2.193
 6654SOL     OW20860   1.493   3.383   1.607
 6654SOL    HW120861   1.589   3.374   1.633
 6654SOL    HW220862   1.457   3.294   1.580
 6655SOL     OW20863   1.796   6.996   1.759
 6655SOL    HW120864   1.710   6.957   1.724
 6655SOL    HW220865   1.862   7.003   1.684
 6656SOL     OW20866   5.922   1.946   1.866
 6656SOL    HW120867   5.927   1.963   1.768
 6656SOL    HW220868   5.860   1.871   1.885
 6657SOL     OW20869   5.541   5.905   6.609
 6657SOL    HW120870   5.567   6.001   6.617
 6657SOL    HW220871   5.602   5.849   6.665
 6658SOL     OW20872   6.042   1.291   5.087
 6658SOL    HW120873   6.047   1.361   5.158
 6658SOL    HW220874   5.950   1.251   5.087
 6659SOL     OW20875   1.912   2.530   0.756
 6659SOL    HW120876   1.852   2.510   0.679
 6659SOL    HW220877   1.933   2.628   0.758
 6660SOL     OW20878   0.813   5.193   0.303
 6660SOL    HW120879   0.779   5.285   0.282
 6660SOL    HW220880   0.755   5.152   0.374
 6661SOL     OW20881   1.486   6.164   4.670
 6661SOL    HW120882   1.559   6.185   4.605
 6661SOL    HW220883   1.411   6.229   4.658
 6662SOL     OW20884   1.336   1.009   0.181
 6662SOL    HW120885   1.328   1.008   0.081
 6662SOL    HW220886   1.376   1.096   0.210
 6663SOL     OW20887   0.221   5.297   3.578
 6663SOL    HW120888   0.301   5.263   3.627
 6663SOL    HW220889   0.251   5.348   3.497
 6664SOL     OW20890   2.280   6.349   0.116
 6664SOL    HW120891   2.338   6.269   0.129
 6664SOL    HW220892   2.241   6.348   0.024
 6665SOL     OW20893   1.269   0.144   3.200
 6665SOL    HW120894   1.311   0.089   3.272
 6665SOL    HW220895   1.340   0.182   3.142
 6666SOL     OW20896   5.224   6.762   6.239
 6666SOL    HW120897   5.223   6.848   6.290
 6666SOL    HW220898   5.237   6.686   6.302
 6667SOL     OW20899   0.026   5.863   6.638
 6667SOL    HW120900   0.084   5.851   6.558
 6667SOL    HW220901   0.078   5.907   6.711
 6668SOL     OW20902   6.636   5.546   2.376
 6668SOL    HW120903   6.697   5.626   2.381
 6668SOL    HW220904   6.661   5.481   2.448
 6669SOL     OW20905   1.975   3.035   4.244
 6669SOL    HW120906   1.956   2.949   4.197
 6669SOL    HW220907   2.054   3.079   4.203
 6670SOL     OW20908   3.869   2.087   5.539
 6670SOL    HW120909   3.782   2.124   5.571
 6670SOL    HW220910   3.884   2.113   5.443
 6671SOL     OW20911   5.734   5.359   1.541
 6671SOL    HW120912   5.719   5.369   1.442
 6671SOL    HW220913   5.661   5.302   1.579
 6672SOL     OW20914   0.125   2.173   5.881
 6672SOL    HW120915   0.153   2.084   5.846
 6672SOL    HW220916   0.090   2.229   5.806
 6673SOL     OW20917   4.993   5.988   3.841
 6673SOL    HW120918   5.070   5.942   3.796
 6673SOL    HW220919   4.937   5.920   3.889
 6674SOL     OW20920   1.422   5.104   5.531
 6674SOL    HW120921   1.370   5.037   5.479
 6674SOL    HW220922   1.449   5.064   5.619
 6675SOL     OW20923   4.267   3.505   1.793
 6675SOL    HW120924   4.184   3.535   1.746
 6675SOL    HW220925   4.252   3.508   1.892
 6676SOL     OW20926   6.659   4.586   5.650
 6676SOL    HW120927   6.642   4.534   5.733
 6676SOL    HW220928   6.574   4.597   5.599
 6677SOL     OW20929   0.910   2.162   6.171
 6677SOL    HW120930   0.811   2.171   6.161
 6677SOL    HW220931   0.952   2.253   6.168
 6678SOL     OW20932   2.469   3.171   6.832
 6678SOL    HW120933   2.521   3.098   6.877
 6678SOL    HW220934   2.403   3.130   6.769
 6679SOL     OW20935   2.408   2.025   3.788
 6679SOL    HW120936   2.309   2.018   3.802
 6679SOL    HW220937   2.432   1.984   3.700
 6680SOL     OW20938   4.350   0.129   6.318
 6680SOL    HW120939   4.386   0.138   6.411
 6680SOL    HW220940   4.305   0.215   6.292
 6681SOL     OW20941   4.795   5.421   0.935
 6681SOL    HW120942   4.758   5.349   0.876
 6681SOL    HW220943   4.721   5.484   0.961
 6682SOL     OW20944   1.751   4.718   3.005
 6682SOL    HW120945   1.766   4.684   3.098
 6682SOL    HW220946   1.839   4.735   2.961
 6683SOL     OW20947   5.345   3.182   5.415
 6683SOL    HW120948   5.360   3.171   5.317
 6683SOL    HW220949   5.433   3.177   5.463
 6684SOL     OW20950   2.748   6.490   1.217
 6684SOL    HW120951   2.686   6.569   1.220
 6684SOL    HW220952   2.794   6.488   1.129
 6685SOL     OW20953   5.603   3.089   6.122
 6685SOL    HW120954   5.698   3.121   6.118
 6685SOL    HW220955   5.564   3.112   6.211
 6686SOL     OW20956   5.449   5.980   4.898
 6686SOL    HW120957   5.445   6.033   4.983
 6686SOL    HW220958   5.487   5.890   4.916
 6687SOL     OW20959   0.783   2.519   0.682
 6687SOL    HW120960   0.694   2.475   0.667
 6687SOL    HW220961   0.783   2.610   0.641
 6688SOL     OW20962   0.026   4.468   1.946
 6688SOL    HW120963   0.037   4.445   1.849
 6688SOL    HW220964   0.090   4.540   1.971
 6689SOL     OW20965   4.361   3.369   0.149
 6689SOL    HW120966   4.311   3.360   0.063
 6689SOL    HW220967   4.346   3.460   0.187
 6690SOL     OW20968   2.343   1.185   0.899
 6690SOL    HW120969   2.390   1.185   0.987
 6690SOL    HW220970   2.376   1.109   0.843
 6691SOL     OW20971   2.984   6.651   1.277
 6691SOL    HW120972   2.968   6.745   1.308
 6691SOL    HW220973   2.908   6.593   1.307
 6692SOL     OW20974   4.008   4.202   5.534
 6692SOL    HW120975   4.053   4.205   5.445
 6692SOL    HW220976   3.916   4.165   5.524
 6693SOL     OW20977   4.455   3.708   6.083
 6693SOL    HW120978   4.498   3.621   6.109
 6693SOL    HW220979   4.410   3.698   5.994
 6694SOL     OW20980   5.321   5.002   0.597
 6694SOL    HW120981   5.248   5.031   0.659
 6694SOL    HW220982   5.384   4.941   0.644
 6695SOL     OW20983   2.581   1.503   6.618
 6695SOL    HW120984   2.531   1.572   6.565
 6695SOL    HW220985   2.532   1.485   6.703
 6696SOL     OW20986   0.929   2.845   6.165
 6696SOL    HW120987   0.947   2.878   6.072
 6696SOL    HW220988   1.000   2.879   6.226
 6697SOL     OW20989   4.921   3.097   2.970
 6697SOL    HW120990   4.898   3.111   3.066
 6697SOL    HW220991   4.890   3.006   2.941
 6698SOL     OW20992   3.111   2.683   1.066
 6698SOL    HW120993   3.092   2.723   1.155
 6698SOL    HW220994   3.192   2.727   1.027
 6699SOL     OW20995   3.368   5.671   6.172
 6699SOL    HW120996   3.418   5.587   6.151
 6699SOL    HW220997   3.277   5.648   6.207
 6700SOL     OW20998   6.951   6.487   0.912
 6700SOL    HW120999   7.026   6.525   0.858
 6700SOL    HW221000   6.866   6.532   0.886
 6701SOL     OW21001   5.495   2.693   1.345
 6701SOL    HW121002   5.527   2.770   1.400
 6701SOL    HW221003   5.426   2.642   1.397
 6702SOL     OW21004   3.086   2.520   1.677
 6702SOL    HW121005   3.174   2.482   1.708
 6702SOL    HW221006   3.015   2.498   1.743
 6703SOL     OW21007   6.195   2.006   7.006
 6703SOL    HW121008   6.157   1.982   6.916
 6703SOL    HW221009   6.164   1.941   0.046
 6704SOL     OW21010   4.315   2.055   2.729
 6704SOL    HW121011   4.414   2.055   2.738
 6704SOL    HW221012   4.277   1.975   2.776
 6705SOL     OW21013   6.844   2.313   1.325
 6705SOL    HW121014   6.879   2.405   1.341
 6705SOL    HW221015   6.901   2.266   1.258
 6706SOL     OW21016   0.978   3.951   1.601
 6706SOL    HW121017   0.901   3.887   1.600
 6706SOL    HW221018   1.055   3.910   1.649
 6707SOL     OW21019   0.163   6.415   3.313
 6707SOL    HW121020   0.183   6.380   3.404
 6707SOL    HW221021   0.145   6.513   3.318
 6708SOL     OW21022   0.235   5.376   2.316
 6708SOL    HW121023   0.166   5.327   2.369
 6708SOL    HW221024   0.230   5.348   2.221
 6709SOL     OW21025   2.586   6.885   1.793
 6709SOL    HW121026   2.518   6.811   1.793
 6709SOL    HW221027   2.570   6.944   1.872
 6710SOL     OW21028   2.654   0.962   5.569
 6710SOL    HW121029   2.643   1.056   5.601
 6710SOL    HW221030   2.723   0.916   5.625
 6711SOL     OW21031   5.332   4.856   0.093
 6711SOL    HW121032   5.273   4.820   0.166
 6711SOL    HW221033   5.381   4.781   0.050
 6712SOL     OW21034   4.846   5.311   0.203
 6712SOL    HW121035   4.906   5.356   0.269
 6712SOL    HW221036   4.861   5.351   0.112
 6713SOL     OW21037   2.340   1.427   1.767
 6713SOL    HW121038   2.401   1.362   1.722
 6713SOL    HW221039   2.346   1.415   1.866
 6714SOL     OW21040   5.696   0.798   6.805
 6714SOL    HW121041   5.610   0.825   6.848
 6714SOL    HW221042   5.683   0.710   6.758
 6715SOL     OW21043   0.174   0.041   6.455
 6715SOL    HW121044   0.190   0.046   6.553
 6715SOL    HW221045   0.243   0.094   6.407
 6716SOL     OW21046   0.539   5.463   2.095
 6716SOL    HW121047   0.632   5.465   2.057
 6716SOL    HW221048   0.516   5.370   2.123
 6717SOL     OW21049   4.531   2.780   0.496
 6717SOL    HW121050   4.517   2.876   0.521
 6717SOL    HW221051   4.525   2.771   0.397
 6718SOL     OW21052   4.621   6.945   6.129
 6718SOL    HW121053   4.660   6.975   6.042
 6718SOL    HW221054   4.522   6.943   6.123
 6719SOL     OW21055   1.297   0.026   5.984
 6719SOL    HW121056   1.256   0.084   6.054
 6719SOL    HW221057   1.246   6.969   5.976
 6720SOL     OW21058   0.664   5.477   3.349
 6720SOL    HW121059   0.671   5.576   3.358
 6720SOL    HW221060   0.699   5.433   3.432
 6721SOL     OW21061   6.380   0.552   5.555
 6721SOL    HW121062   6.388   0.457   5.524
 6721SOL    HW221063   6.300   0.594   5.514
 6722SOL     OW21064   6.732   3.365   1.804
 6722SOL    HW121065   6.809   3.399   1.857
 6722SOL    HW221066   6.706   3.432   1.735
 6723SOL     OW21067   1.874   6.828   2.686
 6723SOL    HW121068   1.812   6.754   2.713
 6723SOL    HW221069   1.955   6.827   2.745
 6724SOL     OW21070   1.125   3.668   6.146
 6724SOL    HW121071   1.099   3.646   6.239
 6724SOL    HW221072   1.218   3.634   6.128
 6725SOL     OW21073   1.169   3.806   0.914
 6725SOL    HW121074   1.203   3.862   0.989
 6725SOL    HW221075   1.244   3.787   0.850
 6726SOL     OW21076   0.842   2.377   5.057
 6726SOL    HW121077   0.781   2.448   5.022
 6726SOL    HW221078   0.866   2.314   4.983
 6727SOL     OW21079   6.207   3.945   5.844
 6727SOL    HW121080   6.114   3.909   5.851
 6727SOL    HW221081   6.230   3.960   5.747
 6728SOL     OW21082   4.513   1.547   4.048
 6728SOL    HW121083   4.420   1.514   4.062
 6728SOL    HW221084   4.553   1.574   4.136
 6729SOL     OW21085   6.981   1.512   1.938
 6729SOL    HW121086   6.923   1.537   1.860
 6729SOL    HW221087   6.950   1.560   2.020
 6730SOL     OW21088   2.807   6.425   6.723
 6730SOL    HW121089   2.775   6.429   6.817
 6730SOL    HW221090   2.752   6.488   6.667
 6731SOL     OW21091   1.472   4.934   1.083
 6731SOL    HW121092   1.456   4.860   1.018
 6731SOL    HW221093   1.561   4.976   1.065
 6732SOL     OW21094   4.233   5.292   6.307
 6732SOL    HW121095   4.289   5.213   6.330
 6732SOL    HW221096   4.203   5.284   6.212
 6733SOL     OW21097   4.072   5.246   0.548
 6733SOL    HW121098   4.149   5.193   0.513
 6733SOL    HW221099   4.082   5.341   0.520
 6734SOL     OW21100   6.621   2.669   4.796
 6734SOL    HW121101   6.606   2.706   4.887
 6734SOL    HW221102   6.643   2.743   4.733
 6735SOL     OW21103   6.880   5.158   5.032
 6735SOL    HW121104   6.905   5.136   4.938
 6735SOL    HW221105   6.781   5.162   5.040
 6736SOL     OW21106   2.653   3.540   0.018
 6736SOL    HW121107   2.664   3.635   7.015
 6736SOL    HW221108   2.566   3.531   0.067
 6737SOL     OW21109   2.008   2.810   0.814
 6737SOL    HW121110   1.945   2.841   0.742
 6737SOL    HW221111   1.972   2.838   0.903
 6738SOL     OW21112   2.200   3.990   2.669
 6738SOL    HW121113   2.271   4.056   2.693
 6738SOL    HW221114   2.185   3.927   2.745
 6739SOL     OW21115   3.767   4.846   6.003
 6739SOL    HW121116   3.671   4.828   5.981
 6739SOL    HW221117   3.824   4.776   5.959
 6740SOL     OW21118   1.587   1.444   4.572
 6740SOL    HW121119   1.618   1.485   4.486
 6740SOL    HW221120   1.595   1.512   4.646
 6741SOL     OW21121   4.472   1.270   5.880
 6741SOL    HW121122   4.389   1.291   5.932
 6741SOL    HW221123   4.461   1.301   5.785
 6742SOL     OW21124   6.516   5.220   2.783
 6742SOL    HW121125   6.584   5.238   2.854
 6742SOL    HW221126   6.550   5.253   2.695
 6743SOL     OW21127   4.378   4.328   0.838
 6743SOL    HW121128   4.295   4.273   0.824
 6743SOL    HW221129   4.362   4.394   0.912
 6744SOL     OW21130   4.730   5.066   5.581
 6744SOL    HW121131   4.792   5.132   5.538
 6744SOL    HW221132   4.781   5.011   5.647
 6745SOL     OW21133   0.909   6.669   1.748
 6745SOL    HW121134   0.853   6.592   1.719
 6745SOL    HW221135   0.851   6.747   1.771
 6746SOL     OW21136   0.946   1.131   3.208
 6746SOL    HW121137   1.022   1.095   3.153
 6746SOL    HW221138   0.911   1.059   3.268
 6747SOL     OW21139   5.513   0.029   5.116
 6747SOL    HW121140   5.516   6.959   5.098
 6747SOL    HW221141   5.446   0.072   5.056
 6748SOL     OW21142   1.316   0.401   2.824
 6748SOL    HW121143   1.373   0.359   2.753
 6748SOL    HW221144   1.338   0.499   2.829
 6749SOL     OW21145   2.857   5.608   0.261
 6749SOL    HW121146   2.776   5.628   0.206
 6749SOL    HW221147   2.898   5.522   0.231
 6750SOL     OW21148   4.612   0.871   5.067
 6750SOL    HW121149   4.618   0.888   4.968
 6750SOL    HW221150   4.703   0.870   5.106
 6751SOL     OW21151   3.870   1.861   3.435
 6751SOL    HW121152   3.882   1.762   3.442
 6751SOL    HW221153   3.940   1.907   3.490
 6752SOL     OW21154   6.682   3.471   2.778
 6752SOL    HW121155   6.687   3.403   2.705
 6752SOL    HW221156   6.719   3.558   2.746
 6753SOL     OW21157   4.586   0.993   6.188
 6753SOL    HW121158   4.616   1.039   6.105
 6753SOL    HW221159   4.556   1.061   6.255
 6754SOL     OW21160   6.594   1.220   6.670
 6754SOL    HW121161   6.643   1.231   6.584
 6754SOL    HW221162   6.503   1.181   6.653
 6755SOL     OW21163   4.749   1.896   3.328
 6755SOL    HW121164   4.663   1.862   3.364
 6755SOL    HW221165   4.731   1.955   3.249
 6756SOL     OW21166   4.499   4.504   4.400
 6756SOL    HW121167   4.403   4.529   4.386
 6756SOL    HW221168   4.557   4.583   4.379
 6757SOL     OW21169   4.890   6.742   1.128
 6757SOL    HW121170   4.791   6.753   1.129
 6757SOL    HW221171   4.913   6.646   1.113
 6758SOL     OW21172   6.403   3.672   1.471
 6758SOL    HW121173   6.308   3.697   1.451
 6758SOL    HW221174   6.405   3.597   1.537
 6759SOL     OW21175   1.099   3.823   4.900
 6759SOL    HW121176   1.053   3.784   4.980
 6759SOL    HW221177   1.115   3.920   4.914
 6760SOL     OW21178   6.669   4.930   4.460
 6760SOL    HW121179   6.642   4.991   4.535
 6760SOL    HW221180   6.592   4.871   4.436
 6761SOL     OW21181   5.774   2.690   6.701
 6761SOL    HW121182   5.812   2.690   6.793
 6761SOL    HW221183   5.803   2.772   6.652
 6762SOL     OW21184   6.875   5.556   3.476
 6762SOL    HW121185   6.899   5.479   3.536
 6762SOL    HW221186   6.952   5.574   3.414
 6763SOL     OW21187   6.629   5.968   3.510
 6763SOL    HW121188   6.670   5.974   3.419
 6763SOL    HW221189   6.642   5.876   3.546
 6764SOL     OW21190   2.887   5.054   6.912
 6764SOL    HW121191   2.853   5.023   7.001
 6764SOL    HW221192   2.811   5.055   6.847
 6765SOL     OW21193   4.962   5.435   3.527
 6765SOL    HW121194   4.880   5.477   3.488
 6765SOL    HW221195   4.937   5.386   3.611
 6766SOL     OW21196   3.750   6.922   6.687
 6766SOL    HW121197   3.788   6.853   6.749
 6766SOL    HW221198   3.790   7.011   6.709
 6767SOL     OW21199   0.925   2.242   0.638
 6767SOL    HW121200   0.861   2.167   0.626
 6767SOL    HW221201   0.876   2.329   0.634
 6768SOL     OW21202   0.924   6.616   3.877
 6768SOL    HW121203   0.929   6.570   3.965
 6768SOL    HW221204   0.878   6.704   3.889
 6769SOL     OW21205   3.109   0.615   5.412
 6769SOL    HW121206   3.195   0.565   5.408
 6769SOL    HW221207   3.127   0.713   5.406
 6770SOL     OW21208   6.755   2.147   3.617
 6770SOL    HW121209   6.671   2.154   3.564
 6770SOL    HW221210   6.815   2.223   3.594
 6771SOL     OW21211   3.709   2.112   2.937
 6771SOL    HW121212   3.662   2.139   3.021
 6771SOL    HW221213   3.705   2.012   2.928
 6772SOL     OW21214   5.348   1.713   2.529
 6772SOL    HW121215   5.296   1.658   2.595
 6772SOL    HW221216   5.422   1.760   2.576
 6773SOL     OW21217   0.018   6.777   1.253
 6773SOL    HW121218   0.112   6.798   1.281
 6773SOL    HW221219   0.011   6.783   1.153
 6774SOL     OW21220   1.815   2.445   4.655
 6774SOL    HW121221   1.912   2.460   4.633
 6774SOL    HW221222   1.805   2.437   4.754
 6775SOL     OW21223   0.649   2.535   3.467
 6775SOL    HW121224   0.607   2.504   3.382
 6775SOL    HW221225   0.598   2.614   3.502
 6776SOL     OW21226   4.012   3.649   1.727
 6776SOL    HW121227   4.019   3.740   1.687
 6776SOL    HW221228   3.955   3.591   1.669
 6777SOL     OW21229   4.425   5.548   1.227
 6777SOL    HW121230   4.408   5.450   1.229
 6777SOL    HW221231   4.460   5.577   1.316
 6778SOL     OW21232   5.957   3.143   2.908
 6778SOL    HW121233   6.012   3.120   2.827
 6778SOL    HW221234   6.016   3.149   2.988
 6779SOL     OW21235   5.065   4.608   6.369
 6779SOL    HW121236   5.129   4.684   6.378
 6779SOL    HW221237   5.050   4.589   6.272
 6780SOL     OW21238   2.130   3.839   2.878
 6780SOL    HW121239   2.134   3.739   2.875
 6780SOL    HW221240   2.035   3.869   2.876
 6781SOL     OW21241   6.704   1.368   3.453
 6781SOL    HW121242   6.787   1.368   3.509
 6781SOL    HW221243   6.681   1.274   3.429
 6782SOL     OW21244   1.044   0.977   3.598
 6782SOL    HW121245   0.985   1.026   3.533
 6782SOL    HW221246   0.987   0.933   3.667
 6783SOL     OW21247   0.907   4.139   4.649
 6783SOL    HW121248   0.828   4.077   4.643
 6783SOL    HW221249   0.963   4.115   4.728
 6784SOL     OW21250   2.406   4.221   1.825
 6784SOL    HW121251   2.425   4.294   1.759
 6784SOL    HW221252   2.483   4.157   1.826
 6785SOL     OW21253   5.655   5.099   5.874
 6785SOL    HW121254   5.592   5.090   5.950
 6785SOL    HW221255   5.648   5.019   5.815
 6786SOL     OW21256   6.528   3.111   6.958
 6786SOL    HW121257   6.583   3.141   6.880
 6786SOL    HW221258   6.585   3.058   7.021
 6787SOL     OW21259   2.945   2.352   1.239
 6787SOL    HW121260   2.889   2.284   1.286
 6787SOL    HW221261   2.957   2.432   1.297
 6788SOL     OW21262   0.274   3.873   2.709
 6788SOL    HW121263   0.294   3.820   2.627
 6788SOL    HW221264   0.178   3.901   2.708
 6789SOL     OW21265   0.154   5.088   4.762
 6789SOL    HW121266   0.232   5.149   4.775
 6789SOL    HW221267   0.070   5.142   4.759
 6790SOL     OW21268   0.234   4.569   6.576
 6790SOL    HW121269   0.288   4.508   6.518
 6790SOL    HW221270   0.181   4.630   6.518
 6791SOL     OW21271   4.608   1.761   3.031
 6791SOL    HW121272   4.619   1.803   2.941
 6791SOL    HW221273   4.510   1.744   3.048
 6792SOL     OW21274   4.341   6.742   5.342
 6792SOL    HW121275   4.308   6.823   5.391
 6792SOL    HW221276   4.334   6.757   5.244
 6793SOL     OW21277   3.213   1.662   6.888
 6793SOL    HW121278   3.211   1.717   6.805
 6793SOL    HW221279   3.120   1.636   6.913
 6794SOL     OW21280   4.901   1.210   5.747
 6794SOL    HW121281   4.902   1.310   5.754
 6794SOL    HW221282   4.847   1.182   5.668
 6795SOL     OW21283   1.037   6.953   0.705
 6795SOL    HW121284   1.130   6.953   0.741
 6795SOL    HW221285   1.039   6.940   0.606
 6796SOL     OW21286   5.336   0.960   2.138
 6796SOL    HW121287   5.300   1.052   2.121
 6796SOL    HW221288   5.294   0.923   2.221
 6797SOL     OW21289   6.582   2.249   1.145
 6797SOL    HW121290   6.677   2.254   1.178
 6797SOL    HW221291   6.540   2.164   1.177
 6798SOL     OW21292   5.687   0.150   1.514
 6798SOL    HW121293   5.782   0.182   1.519
 6798SOL    HW221294   5.680   0.059   1.553
 6799SOL     OW21295   5.585   0.621   2.819
 6799SOL    HW121296   5.571   0.701   2.878
 6799SOL    HW221297   5.499   0.597   2.773
 6800SOL     OW21298   2.226   2.512   1.653
 6800SOL    HW121299   2.191   2.428   1.693
 6800SOL    HW221300   2.197   2.590   1.709
 6801SOL     OW21301   0.773   6.460   3.683
 6801SOL    HW121302   0.818   6.539   3.725
 6801SOL    HW221303   0.733   6.486   3.596
 6802SOL     OW21304   3.616   5.677   0.175
 6802SOL    HW121305   3.622   5.612   0.250
 6802SOL    HW221306   3.542   5.742   0.193
 6803SOL     OW21307   4.932   3.854   7.022
 6803SOL    HW121308   4.955   3.824   0.087
 6803SOL    HW221309   4.973   3.792   6.956
 6804SOL     OW21310   3.096   4.911   2.739
 6804SOL    HW121311   3.094   4.934   2.642
 6804SOL    HW221312   3.021   4.849   2.760
 6805SOL     OW21313   0.696   5.162   6.643
 6805SOL    HW121314   0.617   5.173   6.704
 6805SOL    HW221315   0.767   5.109   6.689
 6806SOL     OW21316   6.649   0.948   4.179
 6806SOL    HW121317   6.705   0.881   4.130
 6806SOL    HW221318   6.552   0.927   4.165
 6807SOL     OW21319   3.435   3.301   3.346
 6807SOL    HW121320   3.467   3.284   3.253
 6807SOL    HW221321   3.450   3.220   3.403
 6808SOL     OW21322   5.498   1.255   5.543
 6808SOL    HW121323   5.404   1.286   5.530
 6808SOL    HW221324   5.541   1.308   5.616
 6809SOL     OW21325   6.512   3.953   1.227
 6809SOL    HW121326   6.594   3.898   1.241
 6809SOL    HW221327   6.520   4.004   1.142
 6810SOL     OW21328   3.479   0.801   3.232
 6810SOL    HW121329   3.425   0.885   3.229
 6810SOL    HW221330   3.448   0.739   3.159
 6811SOL     OW21331   0.012   2.846   2.579
 6811SOL    HW121332   0.037   2.898   2.497
 6811SOL    HW221333   7.026   2.750   2.555
 6812SOL     OW21334   3.019   3.434   4.399
 6812SOL    HW121335   3.109   3.473   4.419
 6812SOL    HW221336   2.960   3.505   4.359
 6813SOL     OW21337   5.703   3.499   2.593
 6813SOL    HW121338   5.663   3.422   2.544
 6813SOL    HW221339   5.713   3.577   2.532
 6814SOL     OW21340   4.617   1.523   6.526
 6814SOL    HW121341   4.596   1.618   6.551
 6814SOL    HW221342   4.716   1.511   6.522
 6815SOL     OW21343   1.612   5.248   6.523
 6815SOL    HW121344   1.642   5.233   6.429
 6815SOL    HW221345   1.674   5.312   6.568
 6816SOL     OW21346   6.784   1.843   4.112
 6816SOL    HW121347   6.702   1.875   4.065
 6816SOL    HW221348   6.817   1.914   4.174
 6817SOL     OW21349   2.189   2.695   4.250
 6817SOL    HW121350   2.246   2.725   4.327
 6817SOL    HW221351   2.201   2.597   4.236
 6818SOL     OW21352   1.979   6.283   5.960
 6818SOL    HW121353   1.913   6.209   5.970
 6818SOL    HW221354   1.985   6.334   6.046
 6819SOL     OW21355   4.771   6.404   2.183
 6819SOL    HW121356   4.701   6.397   2.254
 6819SOL    HW221357   4.737   6.460   2.108
 6820SOL     OW21358   1.533   6.348   1.157
 6820SOL    HW121359   1.458   6.355   1.223
 6820SOL    HW221360   1.598   6.278   1.188
 6821SOL     OW21361   4.682   2.567   5.775
 6821SOL    HW121362   4.758   2.629   5.756
 6821SOL    HW221363   4.677   2.551   5.874
 6822SOL     OW21364   6.776   2.408   6.622
 6822SOL    HW121365   6.719   2.486   6.649
 6822SOL    HW221366   6.867   2.419   6.660
 6823SOL     OW21367   5.566   4.219   6.407
 6823SOL    HW121368   5.475   4.256   6.426
 6823SOL    HW221369   5.622   4.290   6.363
 6824SOL     OW21370   1.194   1.756   6.746
 6824SOL    HW121371   1.240   1.685   6.800
 6824SOL    HW221372   1.124   1.800   6.802
 6825SOL     OW21373   6.716   5.943   0.457
 6825SOL    HW121374   6.757   5.989   0.379
 6825SOL    HW221375   6.779   5.948   0.535
 6826SOL     OW21376   0.919   3.260   3.738
 6826SOL    HW121377   0.848   3.330   3.744
 6826SOL    HW221378   0.877   3.170   3.734
 6827SOL     OW21379   4.557   5.112   5.823
 6827SOL    HW121380   4.538   5.014   5.826
 6827SOL    HW221381   4.621   5.132   5.748
 6828SOL     OW21382   3.576   1.307   2.440
 6828SOL    HW121383   3.496   1.360   2.411
 6828SOL    HW221384   3.574   1.297   2.539
 6829SOL     OW21385   5.429   0.139   5.344
 6829SOL    HW121386   5.489   0.125   5.266
 6829SOL    HW221387   5.333   0.137   5.313
 6830SOL     OW21388   6.323   1.166   3.547
 6830SOL    HW121389   6.330   1.224   3.628
 6830SOL    HW221390   6.355   1.215   3.467
 6831SOL     OW21391   0.931   1.307   5.854
 6831SOL    HW121392   0.834   1.286   5.865
 6831SOL    HW221393   0.970   1.251   5.781
 6832SOL     OW21394   2.996   3.210   0.135
 6832SOL    HW121395   3.049   3.288   0.169
 6832SOL    HW221396   2.981   3.145   0.210
 6833SOL     OW21397   3.428   5.332   5.934
 6833SOL    HW121398   3.478   5.312   6.019
 6833SOL    HW221399   3.488   5.385   5.873
 6834SOL     OW21400   4.891   0.137   0.858
 6834SOL    HW121401   4.829   0.138   0.779
 6834SOL    HW221402   4.922   0.044   0.875
 6835SOL     OW21403   4.220   1.857   5.030
 6835SOL    HW121404   4.299   1.796   5.034
 6835SOL    HW221405   4.152   1.819   4.966
 6836SOL     OW21406   1.823   4.225   6.633
 6836SOL    HW121407   1.728   4.223   6.603
 6836SOL    HW221408   1.875   4.157   6.581
 6837SOL     OW21409   1.448   1.084   2.752
 6837SOL    HW121410   1.456   1.098   2.653
 6837SOL    HW221411   1.360   1.120   2.784
 6838SOL     OW21412   2.682   4.298   5.269
 6838SOL    HW121413   2.743   4.225   5.299
 6838SOL    HW221414   2.737   4.379   5.248
 6839SOL     OW21415   5.596   2.291   3.721
 6839SOL    HW121416   5.662   2.296   3.796
 6839SOL    HW221417   5.504   2.306   3.756
 6840SOL     OW21418   2.242   6.559   5.075
 6840SOL    HW121419   2.198   6.470   5.061
 6840SOL    HW221420   2.225   6.590   5.168
 6841SOL     OW21421   3.966   4.904   1.654
 6841SOL    HW121422   3.939   4.904   1.750
 6841SOL    HW221423   3.900   4.853   1.599
 6842SOL     OW21424   1.357   2.352   6.438
 6842SOL    HW121425   1.330   2.308   6.524
 6842SOL    HW221426   1.446   2.318   6.410
 6843SOL     OW21427   4.789   0.966   1.721
 6843SOL    HW121428   4.795   1.040   1.788
 6843SOL    HW221429   4.730   0.995   1.645
 6844SOL     OW21430   5.155   5.814   4.371
 6844SOL    HW121431   5.198   5.724   4.378
 6844SOL    HW221432   5.208   5.880   4.424
 6845SOL     OW21433   4.890   3.986   2.091
 6845SOL    HW121434   4.853   3.945   2.175
 6845SOL    HW221435   4.885   3.920   2.016
 6846SOL     OW21436   3.957   3.304   1.408
 6846SOL    HW121437   3.948   3.204   1.410
 6846SOL    HW221438   4.040   3.328   1.358
 6847SOL     OW21439   5.435   3.930   2.111
 6847SOL    HW121440   5.337   3.912   2.116
 6847SOL    HW221441   5.451   4.017   2.064
 6848SOL     OW21442   1.641   5.531   3.561
 6848SOL    HW121443   1.604   5.494   3.475
 6848SOL    HW221444   1.647   5.458   3.629
 6849SOL     OW21445   3.555   5.809   4.066
 6849SOL    HW121446   3.513   5.725   4.032
 6849SOL    HW221447   3.632   5.786   4.126
 6850SOL     OW21448   5.530   2.787   3.041
 6850SOL    HW121449   5.578   2.730   3.107
 6850SOL    HW221450   5.569   2.879   3.041
 6851SOL     OW21451   1.723   4.655   4.675
 6851SOL    HW121452   1.694   4.739   4.720
 6851SOL    HW221453   1.806   4.671   4.621
 6852SOL     OW21454   1.065   4.325   1.147
 6852SOL    HW121455   1.144   4.317   1.086
 6852SOL    HW221456   1.018   4.237   1.151
 6853SOL     OW21457   6.271   4.132   0.032
 6853SOL    HW121458   6.345   4.144   6.994
 6853SOL    HW221459   6.301   4.069   0.104
 6854SOL     OW21460   5.759   0.663   6.049
 6854SOL    HW121461   5.693   0.735   6.071
 6854SOL    HW221462   5.713   0.590   5.998
 6855SOL     OW21463   3.605   6.360   2.717
 6855SOL    HW121464   3.513   6.320   2.710
 6855SOL    HW221465   3.607   6.447   2.669
 6856SOL     OW21466   5.015   4.496   5.468
 6856SOL    HW121467   4.934   4.439   5.480
 6856SOL    HW221468   5.077   4.483   5.545
 6857SOL     OW21469   3.276   1.249   6.623
 6857SOL    HW121470   3.289   1.183   6.549
 6857SOL    HW221471   3.214   1.211   6.691
 6858SOL     OW21472   4.096   3.401   5.007
 6858SOL    HW121473   4.116   3.318   5.060
 6858SOL    HW221474   4.081   3.376   4.912
 6859SOL     OW21475   1.410   6.218   0.723
 6859SOL    HW121476   1.355   6.274   0.661
 6859SOL    HW221477   1.484   6.273   0.762
 6860SOL     OW21478   5.803   4.529   2.080
 6860SOL    HW121479   5.784   4.448   2.025
 6860SOL    HW221480   5.769   4.610   2.033
 6861SOL     OW21481   6.042   4.299   1.379
 6861SOL    HW121482   6.108   4.259   1.443
 6861SOL    HW221483   6.062   4.269   1.286
 6862SOL     OW21484   2.501   4.612   4.757
 6862SOL    HW121485   2.488   4.514   4.769
 6862SOL    HW221486   2.598   4.633   4.746
 6863SOL     OW21487   5.651   1.305   4.560
 6863SOL    HW121488   5.619   1.268   4.472
 6863SOL    HW221489   5.693   1.231   4.613
 6864SOL     OW21490   3.449   6.017   3.919
 6864SOL    HW121491   3.386   5.975   3.854
 6864SOL    HW221492   3.491   5.947   3.976
 6865SOL     OW21493   6.038   5.196   3.401
 6865SOL    HW121494   5.941   5.208   3.421
 6865SOL    HW221495   6.053   5.207   3.302
 6866SOL     OW21496   6.046   4.280   1.736
 6866SOL    HW121497   6.041   4.354   1.669
 6866SOL    HW221498   6.004   4.198   1.698
 6867SOL     OW21499   1.003   4.494   1.352
 6867SOL    HW121500   1.032   4.454   1.440
 6867SOL    HW221501   1.028   4.431   1.278
 6868SOL     OW21502   1.795   5.511   4.852
 6868SOL    HW121503   1.702   5.499   4.887
 6868SOL    HW221504   1.797   5.494   4.754
 6869SOL     OW21505   5.666   2.684   5.421
 6869SOL    HW121506   5.733   2.728   5.361
 6869SOL    HW221507   5.608   2.624   5.366
 6870SOL     OW21508   6.302   3.830   2.655
 6870SOL    HW121509   6.313   3.731   2.664
 6870SOL    HW221510   6.342   3.875   2.735
 6871SOL     OW21511   6.112   4.913   1.899
 6871SOL    HW121512   6.024   4.921   1.852
 6871SOL    HW221513   6.179   4.873   1.837
 6872SOL     OW21514   1.764   3.111   1.085
 6872SOL    HW121515   1.774   3.206   1.113
 6872SOL    HW221516   1.772   3.104   0.986
 6873SOL     OW21517   5.805   3.377   5.562
 6873SOL    HW121518   5.900   3.373   5.591
 6873SOL    HW221519   5.786   3.467   5.522
 6874SOL     OW21520   0.347   4.427   3.389
 6874SOL    HW121521   0.387   4.518   3.376
 6874SOL    HW221522   0.306   4.422   3.480
 6875SOL     OW21523   1.701   2.347   3.289
 6875SOL    HW121524   1.700   2.443   3.260
 6875SOL    HW221525   1.718   2.289   3.210
 6876SOL     OW21526   4.121   4.991   6.583
 6876SOL    HW121527   4.116   5.055   6.507
 6876SOL    HW221528   4.116   4.897   6.548
 6877SOL     OW21529   2.202   4.259   6.648
 6877SOL    HW121530   2.167   4.250   6.741
 6877SOL    HW221531   2.184   4.175   6.597
 6878SOL     OW21532   2.420   2.309   5.235
 6878SOL    HW121533   2.420   2.304   5.334
 6878SOL    HW221534   2.330   2.341   5.203
 6879SOL     OW21535   1.056   1.819   0.360
 6879SOL    HW121536   1.054   1.878   0.441
 6879SOL    HW221537   1.075   1.875   0.279
 6880SOL     OW21538   2.177   3.565   5.016
 6880SOL    HW121539   2.196   3.524   4.927
 6880SOL    HW221540   2.132   3.497   5.074
 6881SOL     OW21541   6.747   4.413   2.078
 6881SOL    HW121542   6.720   4.478   2.149
 6881SOL    HW221543   6.693   4.329   2.087
 6882SOL     OW21544   2.268   0.513   5.841
 6882SOL    HW121545   2.183   0.493   5.889
 6882SOL    HW221546   2.250   0.571   5.762
 6883SOL     OW21547   3.577   1.165   1.161
 6883SOL    HW121548   3.549   1.253   1.123
 6883SOL    HW221549   3.675   1.152   1.147
 6884SOL     OW21550   1.931   3.590   4.571
 6884SOL    HW121551   1.844   3.539   4.568
 6884SOL    HW221552   1.915   3.684   4.543
 6885SOL     OW21553   3.586   5.350   4.168
 6885SOL    HW121554   3.610   5.254   4.159
 6885SOL    HW221555   3.585   5.376   4.265
 6886SOL     OW21556   6.931   1.101   2.496
 6886SOL    HW121557   6.889   1.010   2.486
 6886SOL    HW221558   6.938   1.144   2.406
 6887SOL     OW21559   4.736   6.814   5.747
 6887SOL    HW121560   4.756   6.795   5.651
 6887SOL    HW221561   4.783   6.747   5.805
 6888SOL     OW21562   5.719   6.383   6.432
 6888SOL    HW121563   5.664   6.453   6.387
 6888SOL    HW221564   5.805   6.424   6.464
 6889SOL     OW21565   0.709   2.542   5.776
 6889SOL    HW121566   0.633   2.603   5.794
 6889SOL    HW221567   0.729   2.541   5.678
 6890SOL     OW21568   2.951   6.178   0.840
 6890SOL    HW121569   2.975   6.216   0.751
 6890SOL    HW221570   3.021   6.204   0.907
 6891SOL     OW21571   2.163   3.936   4.748
 6891SOL    HW121572   2.109   3.855   4.769
 6891SOL    HW221573   2.219   3.961   4.827
 6892SOL     OW21574   3.809   0.792   3.636
 6892SOL    HW121575   3.822   0.861   3.706
 6892SOL    HW221576   3.752   0.829   3.563
 6893SOL     OW21577   5.708   6.118   1.372
 6893SOL    HW121578   5.657   6.088   1.453
 6893SOL    HW221579   5.715   6.218   1.373
 6894SOL     OW21580   6.411   5.748   6.948
 6894SOL    HW121581   6.491   5.693   6.926
 6894SOL    HW221582   6.349   5.695   7.006
 6895SOL     OW21583   2.964   5.376   0.237
 6895SOL    HW121584   2.986   5.314   0.162
 6895SOL    HW221585   3.028   5.360   0.312
 6896SOL     OW21586   3.197   0.017   3.883
 6896SOL    HW121587   3.138   0.035   3.805
 6896SOL    HW221588   3.158   0.059   3.965
 6897SOL     OW21589   2.569   3.890   6.624
 6897SOL    HW121590   2.599   3.973   6.578
 6897SOL    HW221591   2.569   3.905   6.723
 6898SOL     OW21592   3.559   1.876   2.114
 6898SOL    HW121593   3.642   1.820   2.113
 6898SOL    HW221594   3.530   1.894   2.020
 6899SOL     OW21595   4.699   6.954   0.428
 6899SOL    HW121596   4.622   6.915   0.478
 6899SOL    HW221597   4.737   6.884   0.367
 6900SOL     OW21598   6.169   0.601   6.373
 6900SOL    HW121599   6.186   0.611   6.471
 6900SOL    HW221600   6.084   0.551   6.358
 6901SOL     OW21601   0.718   0.145   6.161
 6901SOL    HW121602   0.773   0.099   6.231
 6901SOL    HW221603   0.707   0.085   6.082
 6902SOL     OW21604   0.498   5.726   0.784
 6902SOL    HW121605   0.506   5.767   0.693
 6902SOL    HW221606   0.572   5.760   0.843
 6903SOL     OW21607   4.085   4.469   5.626
 6903SOL    HW121608   3.991   4.442   5.647
 6903SOL    HW221609   4.142   4.458   5.708
 6904SOL     OW21610   6.512   1.545   3.937
 6904SOL    HW121611   6.480   1.495   4.017
 6904SOL    HW221612   6.538   1.480   3.865
 6905SOL     OW21613   6.495   6.647   6.830
 6905SOL    HW121614   6.414   6.597   6.798
 6905SOL    HW221615   6.520   6.617   6.921
 6906SOL     OW21616   4.280   1.430   4.082
 6906SOL    HW121617   4.206   1.444   4.016
 6906SOL    HW221618   4.305   1.333   4.084
 6907SOL     OW21619   4.661   1.114   0.999
 6907SOL    HW121620   4.589   1.045   0.993
 6907SOL    HW221621   4.629   1.192   1.052
 6908SOL     OW21622   1.372   6.729   5.068
 6908SOL    HW121623   1.339   6.823   5.077
 6908SOL    HW221624   1.298   6.665   5.090
 6909SOL     OW21625   5.312   4.718   1.081
 6909SOL    HW121626   5.380   4.791   1.070
 6909SOL    HW221627   5.354   4.630   1.058
 6910SOL     OW21628   6.568   2.366   3.111
 6910SOL    HW121629   6.490   2.327   3.160
 6910SOL    HW221630   6.548   2.462   3.088
 6911SOL     OW21631   3.400   6.975   2.947
 6911SOL    HW121632   3.406   6.940   3.041
 6911SOL    HW221633   3.415   0.046   2.947
 6912SOL     OW21634   4.661   5.000   1.492
 6912SOL    HW121635   4.570   5.031   1.463
 6912SOL    HW221636   4.651   4.918   1.549
 6913SOL     OW21637   5.025   4.976   5.472
 6913SOL    HW121638   5.029   5.003   5.568
 6913SOL    HW221639   4.958   5.033   5.424
 6914SOL     OW21640   6.448   4.550   0.045
 6914SOL    HW121641   6.408   4.621   0.103
 6914SOL    HW221642   6.398   4.544   6.987
 6915SOL     OW21643   6.629   4.941   1.851
 6915SOL    HW121644   6.629   4.864   1.787
 6915SOL    HW221645   6.693   4.923   1.925
 6916SOL     OW21646   5.938   3.898   0.085
 6916SOL    HW121647   5.856   3.955   0.073
 6916SOL    HW221648   5.963   3.897   0.182
 6917SOL     OW21649   3.565   4.917   0.434
 6917SOL    HW121650   3.608   4.931   0.523
 6917SOL    HW221651   3.595   4.830   0.396
 6918SOL     OW21652   1.094   4.196   4.297
 6918SOL    HW121653   1.030   4.235   4.364
 6918SOL    HW221654   1.116   4.102   4.322
 6919SOL     OW21655   0.698   5.729   3.363
 6919SOL    HW121656   0.757   5.742   3.283
 6919SOL    HW221657   0.625   5.798   3.360
 6920SOL     OW21658   4.098   5.506   5.828
 6920SOL    HW121659   4.189   5.505   5.786
 6920SOL    HW221660   4.047   5.585   5.796
 6921SOL     OW21661   4.685   5.843   3.020
 6921SOL    HW121662   4.673   5.939   2.994
 6921SOL    HW221663   4.695   5.837   3.120
 6922SOL     OW21664   2.026   5.723   6.726
 6922SOL    HW121665   1.974   5.698   6.644
 6922SOL    HW221666   2.040   5.822   6.728
 6923SOL     OW21667   5.533   0.032   3.266
 6923SOL    HW121668   5.521   7.021   3.358
 6923SOL    HW221669   5.448   0.023   3.215
 6924SOL     OW21670   0.278   4.436   6.832
 6924SOL    HW121671   0.233   4.507   6.887
 6924SOL    HW221672   0.270   4.459   6.735
 6925SOL     OW21673   3.622   6.139   4.594
 6925SOL    HW121674   3.535   6.181   4.618
 6925SOL    HW221675   3.680   6.206   4.549
 6926SOL     OW21676   3.208   3.171   2.204
 6926SOL    HW121677   3.127   3.229   2.204
 6926SOL    HW221678   3.223   3.135   2.296
 6927SOL     OW21679   5.888   3.672   6.031
 6927SOL    HW121680   5.917   3.721   6.113
 6927SOL    HW221681   5.923   3.719   5.950
 6928SOL     OW21682   6.414   6.578   1.130
 6928SOL    HW121683   6.371   6.509   1.187
 6928SOL    HW221684   6.445   6.654   1.187
 6929SOL     OW21685   5.002   5.450   0.693
 6929SOL    HW121686   4.919   5.503   0.707
 6929SOL    HW221687   5.080   5.498   0.734
 6930SOL     OW21688   7.008   6.913   1.666
 6930SOL    HW121689   6.929   6.855   1.687
 6930SOL    HW221690   0.063   6.858   1.662
 6931SOL     OW21691   1.015   0.596   1.923
 6931SOL    HW121692   0.933   0.628   1.970
 6931SOL    HW221693   1.069   0.674   1.894
 6932SOL     OW21694   4.037   1.394   0.655
 6932SOL    HW121695   4.076   1.334   0.585
 6932SOL    HW221696   3.994   1.473   0.611
 6933SOL     OW21697   3.656   6.295   5.048
 6933SOL    HW121698   3.732   6.333   5.100
 6933SOL    HW221699   3.680   6.203   5.016
 6934SOL     OW21700   4.732   4.386   5.908
 6934SOL    HW121701   4.674   4.406   5.987
 6934SOL    HW221702   4.722   4.290   5.883
 6935SOL     OW21703   4.469   6.102   3.181
 6935SOL    HW121704   4.404   6.106   3.105
 6935SOL    HW221705   4.561   6.121   3.147
 6936SOL     OW21706   6.671   2.633   2.506
 6936SOL    HW121707   6.614   2.708   2.472
 6936SOL    HW221708   6.614   2.569   2.557
 6937SOL     OW21709   6.188   6.411   7.021
 6937SOL    HW121710   6.154   6.355   0.068
 6937SOL    HW221711   6.247   6.356   6.962
 6938SOL     OW21712   5.259   3.891   5.419
 6938SOL    HW121713   5.248   3.875   5.517
 6938SOL    HW221714   5.274   3.803   5.373
 6939SOL     OW21715   6.911   4.797   1.914
 6939SOL    HW121716   7.004   4.818   1.884
 6939SOL    HW221717   6.884   4.708   1.877
 6940SOL     OW21718   4.993   1.424   0.528
 6940SOL    HW121719   4.965   1.345   0.473
 6940SOL    HW221720   5.085   1.453   0.501
 6941SOL     OW21721   3.854   3.058   3.017
 6941SOL    HW121722   3.878   3.047   3.113
 6941SOL    HW221723   3.934   3.088   2.966
 6942SOL     OW21724   6.510   3.033   0.552
 6942SOL    HW121725   6.475   3.106   0.611
 6942SOL    HW221726   6.472   3.044   0.460
 6943SOL     OW21727   4.497   6.447   0.042
 6943SOL    HW121728   4.584   6.426   7.026
 6943SOL    HW221729   4.438   6.366   0.041
 6944SOL     OW21730   1.429   4.718   5.620
 6944SOL    HW121731   1.348   4.659   5.615
 6944SOL    HW221732   1.474   4.706   5.708
 6945SOL     OW21733   5.893   2.893   6.544
 6945SOL    HW121734   5.873   2.937   6.456
 6945SOL    HW221735   5.946   2.810   6.529
 6946SOL     OW21736   6.491   5.959   2.378
 6946SOL    HW121737   6.444   6.029   2.432
 6946SOL    HW221738   6.423   5.897   2.339
 6947SOL     OW21739   3.361   6.874   4.847
 6947SOL    HW121740   3.430   6.912   4.909
 6947SOL    HW221741   3.325   6.789   4.885
 6948SOL     OW21742   6.079   0.743   0.569
 6948SOL    HW121743   6.030   0.741   0.482
 6948SOL    HW221744   6.021   0.709   0.642
 6949SOL     OW21745   5.351   0.137   4.317
 6949SOL    HW121746   5.442   0.177   4.326
 6949SOL    HW221747   5.304   0.178   4.239
 6950SOL     OW21748   2.599   0.245   3.310
 6950SOL    HW121749   2.688   0.290   3.309
 6950SOL    HW221750   2.602   0.168   3.374
 6951SOL     OW21751   5.986   6.186   6.130
 6951SOL    HW121752   6.068   6.202   6.075
 6951SOL    HW221753   5.939   6.104   6.097
 6952SOL     OW21754   6.994   5.981   3.461
 6952SOL    HW121755   6.995   5.946   3.368
 6952SOL    HW221756   6.931   6.059   3.467
 6953SOL     OW21757   5.171   0.042   6.809
 6953SOL    HW121758   5.163   0.104   6.887
 6953SOL    HW221759   5.109   0.072   6.736
 6954SOL     OW21760   0.712   3.313   4.214
 6954SOL    HW121761   0.701   3.293   4.116
 6954SOL    HW221762   0.794   3.368   4.228
 6955SOL     OW21763   6.853   0.483   2.953
 6955SOL    HW121764   6.811   0.433   2.877
 6955SOL    HW221765   6.949   0.456   2.962
 6956SOL     OW21766   4.625   6.687   2.385
 6956SOL    HW121767   4.623   6.587   2.395
 6956SOL    HW221768   4.592   6.712   2.294
 6957SOL     OW21769   5.950   4.795   1.574
 6957SOL    HW121770   6.006   4.811   1.493
 6957SOL    HW221771   5.854   4.812   1.553
 6958SOL     OW21772   3.076   4.043   5.197
 6958SOL    HW121773   3.116   3.966   5.247
 6958SOL    HW221774   3.145   4.082   5.135
 6959SOL     OW21775   2.615   1.075   4.599
 6959SOL    HW121776   2.577   0.983   4.586
 6959SOL    HW221777   2.541   1.141   4.606
 6960SOL     OW21778   1.153   5.133   1.012
 6960SOL    HW121779   1.251   5.118   1.022
 6960SOL    HW221780   1.126   5.111   0.918
 6961SOL     OW21781   6.990   2.465   4.069
 6961SOL    HW121782   0.033   2.514   4.120
 6961SOL    HW221783   6.994   2.368   4.089
 6962SOL     OW21784   5.083   5.376   2.634
 6962SOL    HW121785   5.036   5.389   2.546
 6962SOL    HW221786   5.064   5.454   2.693
 6963SOL     OW21787   6.889   5.413   0.897
 6963SOL    HW121788   6.895   5.335   0.835
 6963SOL    HW221789   6.980   5.454   0.907
 6964SOL     OW21790   4.471   4.829   4.090
 6964SOL    HW121791   4.404   4.767   4.131
 6964SOL    HW221792   4.557   4.825   4.141
 6965SOL     OW21793   0.764   3.602   5.731
 6965SOL    HW121794   0.714   3.688   5.740
 6965SOL    HW221795   0.764   3.554   5.819
 6966SOL     OW21796   6.397   2.207   3.246
 6966SOL    HW121797   6.389   2.138   3.174
 6966SOL    HW221798   6.307   2.248   3.263
 6967SOL     OW21799   1.827   0.856   5.451
 6967SOL    HW121800   1.880   0.835   5.532
 6967SOL    HW221801   1.888   0.888   5.378
 6968SOL     OW21802   3.283   6.793   2.495
 6968SOL    HW121803   3.282   6.802   2.594
 6968SOL    HW221804   3.317   6.702   2.470
 6969SOL     OW21805   3.454   1.992   1.685
 6969SOL    HW121806   3.420   2.028   1.772
 6969SOL    HW221807   3.505   2.064   1.637
 6970SOL     OW21808   4.707   3.676   0.367
 6970SOL    HW121809   4.677   3.673   0.271
 6970SOL    HW221810   4.643   3.624   0.423
 6971SOL     OW21811   6.594   4.172   2.102
 6971SOL    HW121812   6.626   4.130   2.187
 6971SOL    HW221813   6.508   4.131   2.074
 6972SOL     OW21814   5.250   5.382   4.460
 6972SOL    HW121815   5.324   5.322   4.431
 6972SOL    HW221816   5.165   5.330   4.468
 6973SOL     OW21817   0.871   4.089   5.132
 6973SOL    HW121818   0.909   3.996   5.133
 6973SOL    HW221819   0.775   4.085   5.104
 6974SOL     OW21820   3.475   3.225   3.099
 6974SOL    HW121821   3.561   3.238   3.051
 6974SOL    HW221822   3.422   3.152   3.055
 6975SOL     OW21823   2.841   6.930   6.297
 6975SOL    HW121824   2.832   6.991   6.218
 6975SOL    HW221825   2.937   6.903   6.307
 6976SOL     OW21826   4.233   4.792   5.785
 6976SOL    HW121827   4.286   4.708   5.794
 6976SOL    HW221828   4.210   4.806   5.689
 6977SOL     OW21829   5.031   2.436   1.881
 6977SOL    HW121830   5.036   2.514   1.943
 6977SOL    HW221831   5.024   2.352   1.934
 6978SOL     OW21832   5.982   2.362   1.512
 6978SOL    HW121833   5.988   2.274   1.559
 6978SOL    HW221834   6.074   2.399   1.498
 6979SOL     OW21835   1.308   5.414   0.803
 6979SOL    HW121836   1.337   5.365   0.885
 6979SOL    HW221837   1.353   5.503   0.800
 6980SOL     OW21838   2.025   1.056   3.589
 6980SOL    HW121839   2.043   1.013   3.501
 6980SOL    HW221840   2.089   1.021   3.658
 6981SOL     OW21841   2.359   3.377   6.960
 6981SOL    HW121842   2.416   3.298   6.938
 6981SOL    HW221843   2.292   3.391   6.887
 6982SOL     OW21844   0.722   1.466   4.075
 6982SOL    HW121845   0.775   1.398   4.126
 6982SOL    HW221846   0.655   1.508   4.135
 6983SOL     OW21847   5.625   1.994   3.555
 6983SOL    HW121848   5.645   2.018   3.650
 6983SOL    HW221849   5.637   1.895   3.543
 6984SOL     OW21850   2.161   2.433   4.268
 6984SOL    HW121851   2.214   2.358   4.308
 6984SOL    HW221852   2.121   2.402   4.181
 6985SOL     OW21853   3.782   5.512   1.865
 6985SOL    HW121854   3.716   5.446   1.901
 6985SOL    HW221855   3.852   5.464   1.812
 6986SOL     OW21856   2.011   6.121   6.208
 6986SOL    HW121857   2.068   6.057   6.157
 6986SOL    HW221858   2.066   6.198   6.239
 6987SOL     OW21859   0.826   1.732   6.136
 6987SOL    HW121860   0.879   1.651   6.109
 6987SOL    HW221861   0.749   1.743   6.074
 6988SOL     OW21862   6.217   0.769   5.451
 6988SOL    HW121863   6.225   0.787   5.548
 6988SOL    HW221864   6.126   0.794   5.419
 6989SOL     OW21865   0.219   3.586   3.558
 6989SOL    HW121866   0.241   3.675   3.600
 6989SOL    HW221867   0.261   3.513   3.612
 6990SOL     OW21868   5.335   2.119   0.843
 6990SOL    HW121869   5.290   2.036   0.810
 6990SOL    HW221870   5.359   2.176   0.765
 6991SOL     OW21871   2.471   4.528   4.015
 6991SOL    HW121872   2.423   4.589   4.078
 6991SOL    HW221873   2.453   4.433   4.040
 6992SOL     OW21874   5.917   6.312   5.227
 6992SOL    HW121875   5.961   6.390   5.182
 6992SOL    HW221876   5.823   6.336   5.251
 6993SOL     OW21877   0.100   0.805   2.264
 6993SOL    HW121878   0.122   0.884   2.321
 6993SOL    HW221879   0.004   0.809   2.236
 6994SOL     OW21880   0.795   2.964   4.873
 6994SOL    HW121881   0.804   2.977   4.972
 6994SOL    HW221882   0.873   2.910   4.840
 6995SOL     OW21883   6.427   5.400   5.619
 6995SOL    HW121884   6.421   5.480   5.679
 6995SOL    HW221885   6.352   5.337   5.639
 6996SOL     OW21886   1.993   1.245   5.088
 6996SOL    HW121887   2.036   1.332   5.067
 6996SOL    HW221888   1.934   1.217   5.013
 6997SOL     OW21889   5.806   5.743   5.352
 6997SOL    HW121890   5.878   5.812   5.362
 6997SOL    HW221891   5.847   5.652   5.358
 6998SOL     OW21892   1.977   2.082   1.659
 6998SOL    HW121893   1.895   2.055   1.608
 6998SOL    HW221894   1.958   2.078   1.757
 6999SOL     OW21895   2.156   2.303   6.200
 6999SOL    HW121896   2.092   2.246   6.251
 6999SOL    HW221897   2.249   2.285   6.232
 7000SOL     OW21898   6.327   5.315   2.985
 7000SOL    HW121899   6.374   5.242   3.035
 7000SOL    HW221900   6.362   5.320   2.892
 7001SOL     OW21901   2.727   3.022   5.327
 7001SOL    HW121902   2.643   3.009   5.275
 7001SOL    HW221903   2.773   3.105   5.297
 7002SOL     OW21904   1.953   4.833   2.547
 7002SOL    HW121905   1.976   4.897   2.620
 7002SOL    HW221906   1.864   4.791   2.567
 7003SOL     OW21907   3.812   5.960   6.991
 7003SOL    HW121908   3.835   5.887   6.926
 7003SOL    HW221909   3.871   5.954   0.043
 7004SOL     OW21910   2.097   4.736   1.479
 7004SOL    HW121911   2.007   4.729   1.522
 7004SOL    HW221912   2.168   4.735   1.549
 7005SOL     OW21913   1.111   6.261   6.104
 7005SOL    HW121914   1.087   6.201   6.027
 7005SOL    HW221915   1.160   6.209   6.173
 7006SOL     OW21916   5.076   4.845   5.061
 7006SOL    HW121917   5.152   4.902   5.029
 7006SOL    HW221918   5.097   4.810   5.153
 7007SOL     OW21919   4.859   6.874   3.423
 7007SOL    HW121920   4.904   6.808   3.483
 7007SOL    HW221921   4.760   6.857   3.422
 7008SOL     OW21922   1.604   5.322   4.600
 7008SOL    HW121923   1.703   5.337   4.597
 7008SOL    HW221924   1.574   5.320   4.695
 7009SOL     OW21925   5.928   5.329   2.567
 7009SOL    HW121926   5.956   5.417   2.528
 7009SOL    HW221927   5.945   5.329   2.665
 7010SOL     OW21928   4.044   3.915   5.831
 7010SOL    HW121929   4.005   3.863   5.756
 7010SOL    HW221930   4.097   3.992   5.795
 7011SOL     OW21931   2.133   0.692   6.631
 7011SOL    HW121932   2.225   0.688   6.669
 7011SOL    HW221933   2.138   0.720   6.535
 7012SOL     OW21934   1.967   0.881   2.301
 7012SOL    HW121935   2.011   0.862   2.388
 7012SOL    HW221936   2.013   0.831   2.228
 7013SOL     OW21937   0.245   6.738   0.993
 7013SOL    HW121938   0.305   6.816   0.976
 7013SOL    HW221939   0.300   6.662   1.028
 7014SOL     OW21940   4.725   3.132   1.387
 7014SOL    HW121941   4.801   3.072   1.362
 7014SOL    HW221942   4.655   3.128   1.316
 7015SOL     OW21943   5.685   5.027   2.686
 7015SOL    HW121944   5.772   5.034   2.638
 7015SOL    HW221945   5.626   4.961   2.639
 7016SOL     OW21946   3.880   4.861   1.913
 7016SOL    HW121947   3.938   4.786   1.945
 7016SOL    HW221948   3.784   4.842   1.937
 7017SOL     OW21949   1.842   6.775   2.254
 7017SOL    HW121950   1.890   6.811   2.174
 7017SOL    HW221951   1.751   6.815   2.259
 7018SOL     OW21952   5.985   4.421   5.267
 7018SOL    HW121953   6.032   4.489   5.325
 7018SOL    HW221954   5.887   4.430   5.278
 7019SOL     OW21955   2.956   4.067   6.561
 7019SOL    HW121956   2.927   3.989   6.616
 7019SOL    HW221957   3.030   4.115   6.608
 7020SOL     OW21958   6.123   6.993   6.494
 7020SOL    HW121959   6.175   0.025   6.555
 7020SOL    HW221960   6.182   6.919   6.460
 7021SOL     OW21961   1.962   1.350   5.376
 7021SOL    HW121962   1.970   1.315   5.283
 7021SOL    HW221963   1.917   1.440   5.373
 7022SOL     OW21964   4.542   5.280   1.027
 7022SOL    HW121965   4.455   5.315   1.062
 7022SOL    HW221966   4.618   5.321   1.079
 7023SOL     OW21967   0.574   2.190   3.572
 7023SOL    HW121968   0.592   2.107   3.624
 7023SOL    HW221969   0.603   2.269   3.625
 7024SOL     OW21970   1.460   5.046   5.790
 7024SOL    HW121971   1.386   5.000   5.839
 7024SOL    HW221972   1.528   5.080   5.855
 7025SOL     OW21973   2.551   1.078   6.995
 7025SOL    HW121974   2.578   1.173   6.979
 7025SOL    HW221975   2.569   1.025   6.912
 7026SOL     OW21976   2.732   1.929   1.994
 7026SOL    HW121977   2.716   1.932   2.093
 7026SOL    HW221978   2.735   1.834   1.964
 7027SOL     OW21979   2.657   4.622   3.454
 7027SOL    HW121980   2.639   4.718   3.473
 7027SOL    HW221981   2.623   4.566   3.530
 7028SOL     OW21982   5.871   6.722   4.284
 7028SOL    HW121983   5.809   6.731   4.206
 7028SOL    HW221984   5.850   6.792   4.352
 7029SOL     OW21985   4.148   6.252   6.358
 7029SOL    HW121986   4.057   6.265   6.318
 7029SOL    HW221987   4.179   6.159   6.341
 7030SOL     OW21988   6.257   2.641   5.776
 7030SOL    HW121989   6.229   2.561   5.830
 7030SOL    HW221990   6.187   2.661   5.707
 7031SOL     OW21991   2.426   6.394   4.549
 7031SOL    HW121992   2.417   6.301   4.585
 7031SOL    HW221993   2.457   6.390   4.454
 7032SOL     OW21994   3.874   6.748   3.841
 7032SOL    HW121995   3.778   6.777   3.833
 7032SOL    HW221996   3.889   6.670   3.779
 7033SOL     OW21997   0.293   2.016   3.813
 7033SOL    HW121998   0.321   2.095   3.868
 7033SOL    HW221999   0.205   1.983   3.846
 7034SOL     OW22000   6.339   0.680   3.110
 7034SOL    HW122001   6.425   0.691   3.062
 7034SOL    HW222002   6.267   0.730   3.063
 7035SOL     OW22003   1.076   6.514   1.913
 7035SOL    HW122004   1.133   6.577   1.965
 7035SOL    HW222005   1.019   6.565   1.849
 7036SOL     OW22006   6.818   0.640   2.028
 7036SOL    HW122007   6.766   0.707   1.975
 7036SOL    HW222008   6.907   0.678   2.051
 7037SOL     OW22009   1.162   0.704   6.169
 7037SOL    HW122010   1.226   0.638   6.210
 7037SOL    HW222011   1.070   0.687   6.205
 7038SOL     OW22012   1.469   3.319   4.102
 7038SOL    HW122013   1.437   3.405   4.061
 7038SOL    HW222014   1.467   3.247   4.034
 7039SOL     OW22015   2.699   5.181   1.415
 7039SOL    HW122016   2.635   5.214   1.346
 7039SOL    HW222017   2.769   5.124   1.371
 7040SOL     OW22018   5.966   1.640   4.935
 7040SOL    HW122019   5.906   1.702   4.985
 7040SOL    HW222020   5.912   1.569   4.889
 7041SOL     OW22021   0.565   2.031   2.822
 7041SOL    HW122022   0.514   2.095   2.879
 7041SOL    HW222023   0.662   2.052   2.827
 7042SOL     OW22024   5.870   5.362   6.808
 7042SOL    HW122025   5.803   5.289   6.794
 7042SOL    HW222026   5.885   5.374   6.906
 7043SOL     OW22027   2.169   3.075   3.378
 7043SOL    HW122028   2.240   3.039   3.437
 7043SOL    HW222029   2.095   3.114   3.433
 7044SOL     OW22030   4.680   4.972   2.660
 7044SOL    HW122031   4.673   5.064   2.621
 7044SOL    HW222032   4.616   4.911   2.613
 7045SOL     OW22033   5.099   5.784   2.242
 7045SOL    HW122034   5.178   5.758   2.187
 7045SOL    HW222035   5.085   5.716   2.314
 7046SOL     OW22036   3.515   2.078   3.142
 7046SOL    HW122037   3.584   2.069   3.213
 7046SOL    HW222038   3.426   2.096   3.184
 7047SOL     OW22039   0.787   2.572   2.338
 7047SOL    HW122040   0.870   2.579   2.393
 7047SOL    HW222041   0.715   2.528   2.392
 7048SOL     OW22042   0.094   5.603   1.912
 7048SOL    HW122043   0.105   5.658   1.829
 7048SOL    HW222044   0.004   5.562   1.913
 7049SOL     OW22045   2.294   1.851   1.099
 7049SOL    HW122046   2.227   1.909   1.146
 7049SOL    HW222047   2.246   1.790   1.036
 7050SOL     OW22048   4.058   3.689   2.716
 7050SOL    HW122049   4.049   3.745   2.799
 7050SOL    HW222050   4.008   3.732   2.641
 7051SOL     OW22051   0.081   1.071   0.934
 7051SOL    HW122052   0.032   1.053   0.850
 7051SOL    HW222053   0.019   1.063   1.012
 7052SOL     OW22054   6.333   2.809   3.997
 7052SOL    HW122055   6.425   2.794   4.032
 7052SOL    HW222056   6.294   2.721   3.969
 7053SOL     OW22057   0.706   3.531   4.615
 7053SOL    HW122058   0.786   3.492   4.660
 7053SOL    HW222059   0.686   3.620   4.655
 7054SOL     OW22060   1.011   5.821   1.133
 7054SOL    HW122061   1.030   5.914   1.165
 7054SOL    HW222062   1.086   5.761   1.159
 7055SOL     OW22063   3.610   5.865   5.388
 7055SOL    HW122064   3.609   5.793   5.458
 7055SOL    HW222065   3.556   5.835   5.309
 7056SOL     OW22066   6.094   6.045   2.525
 7056SOL    HW122067   6.008   5.996   2.510
 7056SOL    HW222068   6.151   5.994   2.590
 7057SOL     OW22069   1.277   5.589   3.802
 7057SOL    HW122070   1.350   5.657   3.814
 7057SOL    HW222071   1.248   5.588   3.706
 7058SOL     OW22072   6.714   5.702   6.628
 7058SOL    HW122073   6.645   5.668   6.691
 7058SOL    HW222074   6.692   5.673   6.535
 7059SOL     OW22075   6.923   1.114   3.123
 7059SOL    HW122076   7.005   1.147   3.078
 7059SOL    HW222077   6.908   1.018   3.099
 7060SOL     OW22078   4.164   0.177   1.505
 7060SOL    HW122079   4.140   0.271   1.479
 7060SOL    HW222080   4.112   0.150   1.586
 7061SOL     OW22081   0.101   3.296   3.807
 7061SOL    HW122082   0.172   3.347   3.856
 7061SOL    HW222083   0.062   3.354   3.735
 7062SOL     OW22084   5.604   1.311   5.784
 7062SOL    HW122085   5.638   1.220   5.758
 7062SOL    HW222086   5.539   1.302   5.859
 7063SOL     OW22087   0.216   0.447   1.411
 7063SOL    HW122088   0.125   0.472   1.444
 7063SOL    HW222089   0.247   0.513   1.343
 7064SOL     OW22090   4.248   1.887   2.310
 7064SOL    HW122091   4.214   1.891   2.215
 7064SOL    HW222092   4.282   1.794   2.328
 7065SOL     OW22093   4.250   3.164   6.419
 7065SOL    HW122094   4.276   3.259   6.400
 7065SOL    HW222095   4.320   3.119   6.474
 7066SOL     OW22096   4.395   0.448   0.644
 7066SOL    HW122097   4.413   0.388   0.567
 7066SOL    HW222098   4.467   0.517   0.650
 7067SOL     OW22099   1.642   1.640   5.456
 7067SOL    HW122100   1.658   1.643   5.555
 7067SOL    HW222101   1.603   1.727   5.426
 7068SOL     OW22102   0.736   4.460   4.324
 7068SOL    HW122103   0.756   4.557   4.335
 7068SOL    HW222104   0.804   4.406   4.373
 7069SOL     OW22105   6.265   2.328   4.105
 7069SOL    HW122106   6.234   2.246   4.058
 7069SOL    HW222107   6.218   2.336   4.193
 7070SOL     OW22108   6.939   6.952   5.036
 7070SOL    HW122109   6.968   6.938   4.942
 7070SOL    HW222110   6.863   6.891   5.057
 7071SOL     OW22111   1.683   6.603   5.948
 7071SOL    HW122112   1.691   6.544   5.867
 7071SOL    HW222113   1.728   6.690   5.930
 7072SOL     OW22114   0.597   6.260   6.100
 7072SOL    HW122115   0.678   6.226   6.148
 7072SOL    HW222116   0.624   6.298   6.011
 7073SOL     OW22117   5.426   6.728   4.761
 7073SOL    HW122118   5.390   6.644   4.720
 7073SOL    HW222119   5.514   6.749   4.720
 7074SOL     OW22120   4.238   2.169   1.228
 7074SOL    HW122121   4.221   2.127   1.318
 7074SOL    HW222122   4.296   2.250   1.240
 7075SOL     OW22123   1.321   5.614   5.450
 7075SOL    HW122124   1.357   5.521   5.456
 7075SOL    HW222125   1.363   5.661   5.372
 7076SOL     OW22126   4.555   2.270   6.532
 7076SOL    HW122127   4.599   2.340   6.589
 7076SOL    HW222128   4.620   2.238   6.463
 7077SOL     OW22129   2.294   4.336   4.944
 7077SOL    HW122130   2.360   4.373   5.009
 7077SOL    HW222131   2.285   4.237   4.957
 7078SOL     OW22132   6.172   0.805   1.609
 7078SOL    HW122133   6.248   0.747   1.638
 7078SOL    HW222134   6.091   0.783   1.664
 7079SOL     OW22135   6.351   6.576   5.375
 7079SOL    HW122136   6.251   6.580   5.374
 7079SOL    HW222137   6.380   6.480   5.375
 7080SOL     OW22138   3.418   2.146   4.697
 7080SOL    HW122139   3.434   2.191   4.784
 7080SOL    HW222140   3.402   2.215   4.626
 7081SOL     OW22141   2.656   1.680   6.934
 7081SOL    HW122142   2.674   1.582   6.927
 7081SOL    HW222143   2.558   1.694   6.952
 7082SOL     OW22144   6.270   4.260   6.773
 7082SOL    HW122145   6.198   4.229   6.836
 7082SOL    HW222146   6.357   4.218   6.798
 7083SOL     OW22147   3.212   1.055   0.186
 7083SOL    HW122148   3.134   0.995   0.168
 7083SOL    HW222149   3.242   1.042   0.280
 7084SOL     OW22150   0.237   6.728   5.658
 7084SOL    HW122151   0.318   6.755   5.710
 7084SOL    HW222152   0.261   6.716   5.562
 7085SOL     OW22153   1.443   1.370   2.243
 7085SOL    HW122154   1.521   1.318   2.277
 7085SOL    HW222155   1.474   1.432   2.170
 7086SOL     OW22156   5.016   1.088   5.497
 7086SOL    HW122157   5.085   1.045   5.438
 7086SOL    HW222158   4.932   1.034   5.494
 7087SOL     OW22159   5.758   4.098   3.957
 7087SOL    HW122160   5.673   4.144   3.985
 7087SOL    HW222161   5.739   4.001   3.942
 7088SOL     OW22162   5.484   2.582   3.625
 7088SOL    HW122163   5.537   2.498   3.636
 7088SOL    HW222164   5.455   2.590   3.529
 7089SOL     OW22165   3.693   2.238   5.247
 7089SOL    HW122166   3.620   2.270   5.308
 7089SOL    HW222167   3.689   2.138   5.240
 7090SOL     OW22168   2.221   1.623   6.380
 7090SOL    HW122169   2.263   1.546   6.332
 7090SOL    HW222170   2.163   1.589   6.454
 7091SOL     OW22171   0.148   1.580   0.151
 7091SOL    HW122172   0.105   1.529   0.076
 7091SOL    HW222173   0.116   1.543   0.238
 7092SOL     OW22174   4.060   2.737   6.439
 7092SOL    HW122175   4.043   2.820   6.387
 7092SOL    HW222176   4.154   2.707   6.425
 7093SOL     OW22177   2.907   3.604   3.160
 7093SOL    HW122178   2.904   3.540   3.084
 7093SOL    HW222179   2.882   3.696   3.128
 7094SOL     OW22180   1.097   5.419   5.494
 7094SOL    HW122181   1.101   5.486   5.419
 7094SOL    HW222182   1.189   5.404   5.530
 7095SOL     OW22183   3.428   3.956   6.033
 7095SOL    HW122184   3.484   3.884   5.992
 7095SOL    HW222185   3.478   3.997   6.110
 7096SOL     OW22186   6.107   0.552   3.911
 7096SOL    HW122187   6.079   0.457   3.926
 7096SOL    HW222188   6.127   0.566   3.814
 7097SOL     OW22189   6.032   1.331   1.184
 7097SOL    HW122190   6.102   1.293   1.244
 7097SOL    HW222191   6.028   1.431   1.197
 7098SOL     OW22192   0.838   0.195   4.281
 7098SOL    HW122193   0.893   0.157   4.206
 7098SOL    HW222194   0.867   0.289   4.299
 7099SOL     OW22195   2.860   0.784   4.970
 7099SOL    HW122196   2.838   0.841   4.891
 7099SOL    HW222197   2.953   0.805   5.001
 7100SOL     OW22198   5.896   3.373   0.780
 7100SOL    HW122199   5.815   3.333   0.823
 7100SOL    HW222200   5.869   3.454   0.727
 7101SOL     OW22201   1.971   0.818   4.725
 7101SOL    HW122202   2.044   0.780   4.782
 7101SOL    HW222203   1.897   0.752   4.716
 7102SOL     OW22204   4.547   0.564   1.147
 7102SOL    HW122205   4.563   0.532   1.054
 7102SOL    HW222206   4.513   0.488   1.203
 7103SOL     OW22207   4.340   4.944   1.461
 7103SOL    HW122208   4.317   4.937   1.364
 7103SOL    HW222209   4.325   4.856   1.506
 7104SOL     OW22210   1.121   3.177   5.079
 7104SOL    HW122211   1.037   3.186   5.131
 7104SOL    HW222212   1.173   3.262   5.085
 7105SOL     OW22213   3.202   2.932   5.430
 7105SOL    HW122214   3.292   2.953   5.468
 7105SOL    HW222215   3.212   2.904   5.335
 7106SOL     OW22216   2.947   3.882   3.059
 7106SOL    HW122217   3.015   3.878   2.986
 7106SOL    HW222218   2.869   3.936   3.028
 7107SOL     OW22219   2.950   1.922   0.875
 7107SOL    HW122220   2.925   1.981   0.952
 7107SOL    HW222221   2.895   1.946   0.795
 7108SOL     OW22222   3.605   6.634   2.665
 7108SOL    HW122223   3.617   6.652   2.567
 7108SOL    HW222224   3.597   6.721   2.714
 7109SOL     OW22225   3.442   0.442   6.522
 7109SOL    HW122226   3.445   0.458   6.423
 7109SOL    HW222227   3.507   0.370   6.546
 7110SOL     OW22228   3.652   6.151   3.798
 7110SOL    HW122229   3.568   6.120   3.843
 7110SOL    HW222230   3.724   6.084   3.812
 7111SOL     OW22231   2.187   2.028   4.497
 7111SOL    HW122232   2.095   1.995   4.475
 7111SOL    HW222233   2.251   1.952   4.495
 7112SOL     OW22234   1.998   5.810   4.173
 7112SOL    HW122235   2.053   5.771   4.247
 7112SOL    HW222236   1.992   5.743   4.098
 7113SOL     OW22237   3.546   4.193   4.881
 7113SOL    HW122238   3.626   4.242   4.846
 7113SOL    HW222239   3.480   4.180   4.808
 7114SOL     OW22240   3.871   6.471   1.409
 7114SOL    HW122241   3.807   6.538   1.370
 7114SOL    HW222242   3.857   6.465   1.508
 7115SOL     OW22243   5.282   3.392   2.207
 7115SOL    HW122244   5.293   3.309   2.153
 7115SOL    HW222245   5.256   3.368   2.301
 7116SOL     OW22246   5.654   3.970   3.496
 7116SOL    HW122247   5.653   4.003   3.591
 7116SOL    HW222248   5.640   3.871   3.496
 7117SOL     OW22249   6.918   6.515   4.860
 7117SOL    HW122250   6.951   6.530   4.953
 7117SOL    HW222251   6.995   6.507   4.798
 7118SOL     OW22252   2.391   3.977   1.036
 7118SOL    HW122253   2.337   4.061   1.026
 7118SOL    HW222254   2.478   3.999   1.081
 7119SOL     OW22255   4.906   1.306   3.070
 7119SOL    HW122256   4.965   1.355   3.134
 7119SOL    HW222257   4.930   1.330   2.976
 7120SOL     OW22258   4.160   2.082   2.499
 7120SOL    HW122259   4.204   2.084   2.588
 7120SOL    HW222260   4.204   2.013   2.441
 7121SOL     OW22261   1.999   6.882   2.446
 7121SOL    HW122262   1.927   6.844   2.388
 7121SOL    HW222263   1.981   6.858   2.541
 7122SOL     OW22264   0.807   0.420   5.793
 7122SOL    HW122265   0.811   0.509   5.839
 7122SOL    HW222266   0.714   0.404   5.761
 7123SOL     OW22267   2.491   4.842   2.729
 7123SOL    HW122268   2.425   4.768   2.745
 7123SOL    HW222269   2.442   4.928   2.718
 7124SOL     OW22270   6.807   2.435   0.421
 7124SOL    HW122271   6.826   2.522   0.376
 7124SOL    HW222272   6.858   2.362   0.375
 7125SOL     OW22273   6.412   6.618   0.624
 7125SOL    HW122274   6.325   6.663   0.646
 7125SOL    HW222275   6.399   6.519   0.628
 7126SOL     OW22276   3.544   4.227   0.047
 7126SOL    HW122277   3.611   4.290   0.008
 7126SOL    HW222278   3.539   4.242   0.146
 7127SOL     OW22279   1.743   6.224   4.480
 7127SOL    HW122280   1.722   6.218   4.382
 7127SOL    HW222281   1.813   6.156   4.503
 7128SOL     OW22282   2.777   4.566   0.514
 7128SOL    HW122283   2.744   4.646   0.564
 7128SOL    HW222284   2.769   4.485   0.573
 7129SOL     OW22285   2.011   1.724   0.302
 7129SOL    HW122286   2.107   1.747   0.321
 7129SOL    HW222287   1.956   1.744   0.383
 7130SOL     OW22288   3.703   4.973   5.159
 7130SOL    HW122289   3.628   4.933   5.108
 7130SOL    HW222290   3.778   4.908   5.166
 7131SOL     OW22291   2.185   1.370   0.510
 7131SOL    HW122292   2.104   1.408   0.555
 7131SOL    HW222293   2.201   1.417   0.424
 7132SOL     OW22294   3.598   3.469   6.712
 7132SOL    HW122295   3.583   3.442   6.617
 7132SOL    HW222296   3.532   3.541   6.737
 7133SOL     OW22297   5.245   5.883   4.719
 7133SOL    HW122298   5.295   5.827   4.654
 7133SOL    HW222299   5.305   5.910   4.794
 7134SOL     OW22300   5.950   6.690   1.947
 7134SOL    HW122301   5.852   6.679   1.936
 7134SOL    HW222302   5.969   6.776   1.993
 7135SOL     OW22303   1.133   3.130   2.579
 7135SOL    HW122304   1.150   3.170   2.489
 7135SOL    HW222305   1.188   3.047   2.589
 7136SOL     OW22306   1.544   2.423   1.256
 7136SOL    HW122307   1.482   2.411   1.334
 7136SOL    HW222308   1.489   2.434   1.173
 7137SOL     OW22309   4.204   0.506   6.552
 7137SOL    HW122310   4.224   0.601   6.575
 7137SOL    HW222311   4.243   0.446   6.623
 7138SOL     OW22312   1.451   2.574   0.139
 7138SOL    HW122313   1.545   2.579   0.105
 7138SOL    HW222314   1.400   2.506   0.086
 7139SOL     OW22315   4.968   3.638   2.198
 7139SOL    HW122316   5.052   3.667   2.152
 7139SOL    HW222317   4.974   3.658   2.296
 7140SOL     OW22318   5.693   4.249   4.543
 7140SOL    HW122319   5.766   4.197   4.586
 7140SOL    HW222320   5.607   4.231   4.590
 7141SOL     OW22321   2.951   5.913   1.631
 7141SOL    HW122322   3.005   5.984   1.677
 7141SOL    HW222323   2.939   5.835   1.692
 7142SOL     OW22324   4.522   0.056   3.663
 7142SOL    HW122325   4.575   7.018   3.716
 7142SOL    HW222326   4.563   0.147   3.672
 7143SOL     OW22327   1.608   3.278   6.218
 7143SOL    HW122328   1.509   3.283   6.218
 7143SOL    HW222329   1.637   3.189   6.254
 7144SOL     OW22330   1.548   1.552   3.536
 7144SOL    HW122331   1.595   1.547   3.624
 7144SOL    HW222332   1.616   1.560   3.462
 7145SOL     OW22333   4.166   6.840   6.985
 7145SOL    HW122334   4.069   6.833   7.011
 7145SOL    HW222335   4.214   6.757   7.013
 7146SOL     OW22336   2.159   0.839   0.402
 7146SOL    HW122337   2.132   0.836   0.306
 7146SOL    HW222338   2.122   0.921   0.445
 7147SOL     OW22339   6.484   6.707   3.152
 7147SOL    HW122340   6.487   6.613   3.118
 7147SOL    HW222341   6.538   6.714   3.236
 7148SOL     OW22342   0.587   6.954   0.264
 7148SOL    HW122343   0.611   6.948   0.167
 7148SOL    HW222344   0.501   7.004   0.274
 7149SOL     OW22345   6.488   6.548   2.934
 7149SOL    HW122346   6.400   6.500   2.926
 7149SOL    HW222347   6.561   6.489   2.901
 7150SOL     OW22348   3.377   1.717   2.239
 7150SOL    HW122349   3.455   1.765   2.199
 7150SOL    HW222350   3.348   1.764   2.322
 7151SOL     OW22351   1.536   6.380   0.418
 7151SOL    HW122352   1.457   6.437   0.395
 7151SOL    HW222353   1.513   6.284   0.403
 7152SOL     OW22354   1.138   1.522   4.790
 7152SOL    HW122355   1.094   1.460   4.724
 7152SOL    HW222356   1.068   1.580   4.831
 7153SOL     OW22357   3.169   5.608   2.424
 7153SOL    HW122358   3.186   5.510   2.427
 7153SOL    HW222359   3.255   5.657   2.437
 7154SOL     OW22360   3.710   0.962   4.066
 7154SOL    HW122361   3.805   0.961   4.034
 7154SOL    HW222362   3.670   0.871   4.055
 7155SOL     OW22363   2.242   4.242   1.588
 7155SOL    HW122364   2.206   4.335   1.590
 7155SOL    HW222365   2.273   4.216   1.680
 7156SOL     OW22366   0.549   4.295   4.410
 7156SOL    HW122367   0.618   4.360   4.377
 7156SOL    HW222368   0.566   4.274   4.506
 7157SOL     OW22369   6.363   4.462   1.539
 7157SOL    HW122370   6.341   4.559   1.527
 7157SOL    HW222371   6.388   4.422   1.451
 7158SOL     OW22372   1.167   0.175   2.837
 7158SOL    HW122373   1.236   0.171   2.766
 7158SOL    HW222374   1.197   0.235   2.911
 7159SOL     OW22375   0.571   4.047   2.739
 7159SOL    HW122376   0.594   4.070   2.833
 7159SOL    HW222377   0.488   3.991   2.737
 7160SOL     OW22378   5.431   0.694   3.076
 7160SOL    HW122379   5.453   0.602   3.109
 7160SOL    HW222380   5.470   0.762   3.138
 7161SOL     OW22381   3.018   3.474   5.094
 7161SOL    HW122382   2.930   3.500   5.133
 7161SOL    HW222383   3.068   3.418   5.159
 7162SOL     OW22384   2.272   5.689   5.683
 7162SOL    HW122385   2.272   5.786   5.705
 7162SOL    HW222386   2.350   5.645   5.728
 7163SOL     OW22387   2.977   6.474   2.698
 7163SOL    HW122388   2.966   6.518   2.609
 7163SOL    HW222389   2.887   6.442   2.730
 7164SOL     OW22390   1.907   1.057   4.007
 7164SOL    HW122391   1.843   1.125   4.044
 7164SOL    HW222392   1.862   1.005   3.934
 7165SOL     OW22393   6.739   1.407   1.379
 7165SOL    HW122394   6.724   1.333   1.314
 7165SOL    HW222395   6.807   1.470   1.342
 7166SOL     OW22396   5.847   3.027   0.385
 7166SOL    HW122397   5.893   2.939   0.399
 7166SOL    HW222398   5.916   3.099   0.374
 7167SOL     OW22399   4.857   3.767   4.523
 7167SOL    HW122400   4.763   3.744   4.498
 7167SOL    HW222401   4.890   3.703   4.593
 7168SOL     OW22402   1.760   2.752   3.675
 7168SOL    HW122403   1.693   2.752   3.749
 7168SOL    HW222404   1.717   2.722   3.590
 7169SOL     OW22405   0.199   3.597   5.129
 7169SOL    HW122406   0.116   3.543   5.117
 7169SOL    HW222407   0.244   3.570   5.214
 7170SOL     OW22408   5.317   5.880   3.227
 7170SOL    HW122409   5.371   5.956   3.190
 7170SOL    HW222410   5.221   5.895   3.205
 7171SOL     OW22411   5.365   4.326   6.748
 7171SOL    HW122412   5.271   4.348   6.722
 7171SOL    HW222413   5.366   4.238   6.795
 7172SOL     OW22414   1.414   1.168   5.223
 7172SOL    HW122415   1.509   1.196   5.218
 7172SOL    HW222416   1.379   1.181   5.315
 7173SOL     OW22417   6.864   4.730   6.091
 7173SOL    HW122418   6.850   4.755   6.187
 7173SOL    HW222419   6.955   4.690   6.080
 7174SOL     OW22420   1.075   4.356   0.547
 7174SOL    HW122421   1.017   4.335   0.469
 7174SOL    HW222422   1.161   4.395   0.516
 7175SOL     OW22423   5.194   3.003   6.483
 7175SOL    HW122424   5.118   2.954   6.524
 7175SOL    HW222425   5.280   2.961   6.513
 7176SOL     OW22426   0.984   5.828   2.762
 7176SOL    HW122427   1.034   5.768   2.823
 7176SOL    HW222428   1.029   5.830   2.672
 7177SOL     OW22429   2.199   6.560   4.130
 7177SOL    HW122430   2.270   6.592   4.193
 7177SOL    HW222431   2.232   6.479   4.082
 7178SOL     OW22432   2.043   3.132   5.547
 7178SOL    HW122433   2.030   3.086   5.459
 7178SOL    HW222434   1.982   3.093   5.615
 7179SOL     OW22435   1.585   3.788   4.468
 7179SOL    HW122436   1.572   3.802   4.370
 7179SOL    HW222437   1.508   3.736   4.504
 7180SOL     OW22438   1.387   4.501   6.344
 7180SOL    HW122439   1.480   4.539   6.339
 7180SOL    HW222440   1.389   4.414   6.394
 7181SOL     OW22441   2.167   6.222   0.566
 7181SOL    HW122442   2.204   6.172   0.645
 7181SOL    HW222443   2.096   6.167   0.522
 7182SOL     OW22444   1.185   2.731   5.586
 7182SOL    HW122445   1.217   2.785   5.665
 7182SOL    HW222446   1.110   2.780   5.541
 7183SOL     OW22447   2.079   6.153   0.216
 7183SOL    HW122448   2.150   6.091   0.250
 7183SOL    HW222449   2.120   6.241   0.191
 7184SOL     OW22450   0.370   0.884   2.931
 7184SOL    HW122451   0.406   0.807   2.880
 7184SOL    HW222452   0.425   0.966   2.912
 7185SOL     OW22453   5.592   0.326   5.407
 7185SOL    HW122454   5.530   0.249   5.395
 7185SOL    HW222455   5.683   0.302   5.373
 7186SOL     OW22456   6.276   0.024   6.718
 7186SOL    HW122457   6.364   0.065   6.695
 7186SOL    HW222458   6.290   6.975   6.780
 7187SOL     OW22459   3.334   3.800   7.017
 7187SOL    HW122460   3.277   3.790   0.071
 7187SOL    HW222461   3.427   3.826   0.016
 7188SOL     OW22462   6.168   6.719   0.692
 7188SOL    HW122463   6.179   6.669   0.778
 7188SOL    HW222464   6.079   6.698   0.652
 7189SOL     OW22465   6.979   0.941   5.962
 7189SOL    HW122466   0.039   0.896   5.979
 7189SOL    HW222467   6.907   0.872   5.960
 7190SOL     OW22468   6.527   3.960   3.178
 7190SOL    HW122469   6.606   3.979   3.119
 7190SOL    HW222470   6.550   3.886   3.241
 7191SOL     OW22471   0.191   4.142   3.385
 7191SOL    HW122472   0.146   4.143   3.474
 7191SOL    HW222473   0.207   4.237   3.355
 7192SOL     OW22474   3.843   4.988   5.602
 7192SOL    HW122475   3.861   4.896   5.637
 7192SOL    HW222476   3.930   5.030   5.574
 7193SOL     OW22477   2.131   2.427   2.349
 7193SOL    HW122478   2.049   2.408   2.295
 7193SOL    HW222479   2.195   2.350   2.340
 7194SOL     OW22480   2.799   2.087   0.690
 7194SOL    HW122481   2.700   2.080   0.683
 7194SOL    HW222482   2.823   2.151   0.764
 7195SOL     OW22483   0.309   4.910   0.038
 7195SOL    HW122484   0.241   4.975   0.002
 7195SOL    HW222485   0.273   4.866   0.119
 7196SOL     OW22486   3.302   4.349   1.624
 7196SOL    HW122487   3.312   4.250   1.612
 7196SOL    HW222488   3.391   4.389   1.645
 7197SOL     OW22489   6.861   1.993   5.821
 7197SOL    HW122490   6.807   1.965   5.899
 7197SOL    HW222491   6.948   2.032   5.852
 7198SOL     OW22492   0.580   0.953   6.365
 7198SOL    HW122493   0.676   0.947   6.338
 7198SOL    HW222494   0.557   1.048   6.385
 7199SOL     OW22495   2.081   0.196   2.471
 7199SOL    HW122496   2.049   0.111   2.428
 7199SOL    HW222497   2.123   0.175   2.559
 7200SOL     OW22498   2.465   2.406   0.467
 7200SOL    HW122499   2.434   2.317   0.436
 7200SOL    HW222500   2.556   2.397   0.508
 7201SOL     OW22501   1.485   5.716   4.195
 7201SOL    HW122502   1.490   5.721   4.095
 7201SOL    HW222503   1.478   5.621   4.223
 7202SOL     OW22504   4.468   0.620   5.644
 7202SOL    HW122505   4.467   0.520   5.646
 7202SOL    HW222506   4.379   0.655   5.671
 7203SOL     OW22507   7.016   2.185   1.177
 7203SOL    HW122508   6.998   2.226   1.088
 7203SOL    HW222509   0.080   2.147   1.180
 7204SOL     OW22510   0.010   6.895   5.437
 7204SOL    HW122511   6.954   6.940   5.407
 7204SOL    HW222512   7.016   6.806   5.478
 7205SOL     OW22513   0.645   5.474   3.085
 7205SOL    HW122514   0.743   5.462   3.066
 7205SOL    HW222515   0.629   5.470   3.183
 7206SOL     OW22516   1.801   0.375   0.724
 7206SOL    HW122517   1.853   0.452   0.760
 7206SOL    HW222518   1.703   0.391   0.739
 7207SOL     OW22519   3.420   0.189   2.363
 7207SOL    HW122520   3.480   0.257   2.405
 7207SOL    HW222521   3.412   0.208   2.265
 7208SOL     OW22522   4.120   6.768   3.956
 7208SOL    HW122523   4.024   6.751   3.932
 7208SOL    HW222524   4.136   6.739   4.051
 7209SOL     OW22525   3.312   3.862   2.225
 7209SOL    HW122526   3.245   3.880   2.298
 7209SOL    HW222527   3.283   3.783   2.172
 7210SOL     OW22528   4.225   0.440   4.246
 7210SOL    HW122529   4.136   0.419   4.206
 7210SOL    HW222530   4.213   0.499   4.326
 7211SOL     OW22531   2.460   5.642   4.227
 7211SOL    HW122532   2.474   5.549   4.195
 7211SOL    HW222533   2.539   5.671   4.282
 7212SOL     OW22534   0.714   6.595   4.152
 7212SOL    HW122535   0.800   6.645   4.157
 7212SOL    HW222536   0.728   6.502   4.188
 7213SOL     OW22537   6.065   0.265   6.524
 7213SOL    HW122538   5.967   0.280   6.536
 7213SOL    HW222539   6.109   0.250   6.613
 7214SOL     OW22540   0.910   6.204   4.986
 7214SOL    HW122541   0.993   6.257   4.976
 7214SOL    HW222542   0.876   6.212   5.080
 7215SOL     OW22543   0.354   3.085   4.915
 7215SOL    HW122544   0.387   3.122   4.828
 7215SOL    HW222545   0.289   3.011   4.899
 7216SOL     OW22546   2.428   6.127   0.168
 7216SOL    HW122547   2.391   6.052   0.223
 7216SOL    HW222548   2.502   6.093   0.110
 7217SOL     OW22549   2.093   4.398   2.589
 7217SOL    HW122550   2.146   4.344   2.654
 7217SOL    HW222551   2.103   4.359   2.497
 7218SOL     OW22552   5.021   2.503   5.461
 7218SOL    HW122553   5.014   2.574   5.391
 7218SOL    HW222554   4.957   2.429   5.440
 7219SOL     OW22555   4.508   6.314   4.495
 7219SOL    HW122556   4.606   6.323   4.514
 7219SOL    HW222557   4.461   6.285   4.578
 7220SOL     OW22558   0.849   6.183   4.414
 7220SOL    HW122559   0.947   6.161   4.415
 7220SOL    HW222560   0.797   6.108   4.454
 7221SOL     OW22561   4.772   4.928   4.572
 7221SOL    HW122562   4.736   4.834   4.576
 7221SOL    HW222563   4.756   4.972   4.660
 7222SOL     OW22564   6.365   0.580   2.241
 7222SOL    HW122565   6.418   0.626   2.312
 7222SOL    HW222566   6.393   0.484   2.236
 7223SOL     OW22567   2.829   2.262   1.468
 7223SOL    HW122568   2.764   2.189   1.490
 7223SOL    HW222569   2.794   2.349   1.502
 7224SOL     OW22570   5.527   2.137   4.485
 7224SOL    HW122571   5.443   2.187   4.508
 7224SOL    HW222572   5.504   2.055   4.433
 7225SOL     OW22573   1.049   5.924   6.209
 7225SOL    HW122574   1.093   5.836   6.230
 7225SOL    HW222575   1.104   5.998   6.248
 7226SOL     OW22576   0.253   0.545   0.533
 7226SOL    HW122577   0.186   0.485   0.577
 7226SOL    HW222578   0.338   0.542   0.584
 7227SOL     OW22579   1.130   2.171   1.008
 7227SOL    HW122580   1.168   2.181   1.100
 7227SOL    HW222581   1.050   2.111   1.012
 7228SOL     OW22582   0.420   0.993   1.988
 7228SOL    HW122583   0.356   0.918   2.001
 7228SOL    HW222584   0.445   1.000   1.892
 7229SOL     OW22585   1.078   6.960   5.027
 7229SOL    HW122586   1.150   6.961   4.958
 7229SOL    HW222587   1.031   0.020   5.027
 7230SOL     OW22588   5.024   5.218   4.498
 7230SOL    HW122589   4.937   5.205   4.451
 7230SOL    HW222590   5.034   5.148   4.569
 7231SOL     OW22591   4.588   6.728   6.979
 7231SOL    HW122592   4.531   6.650   7.006
 7231SOL    HW222593   4.684   6.704   6.989
 7232SOL     OW22594   4.772   5.496   3.143
 7232SOL    HW122595   4.809   5.426   3.081
 7232SOL    HW222596   4.746   5.576   3.090
 7233SOL     OW22597   7.015   2.220   4.412
 7233SOL    HW122598   6.976   2.228   4.504
 7233SOL    HW222599   0.057   2.290   4.399
 7234SOL     OW22600   5.425   3.327   3.534
 7234SOL    HW122601   5.456   3.345   3.628
 7234SOL    HW222602   5.451   3.235   3.506
 7235SOL     OW22603   6.410   4.187   3.266
 7235SOL    HW122604   6.371   4.168   3.355
 7235SOL    HW222605   6.447   4.103   3.227
 7236SOL     OW22606   3.296   1.479   3.086
 7236SOL    HW122607   3.269   1.575   3.093
 7236SOL    HW222608   3.228   1.422   3.133
 7237SOL     OW22609   6.081   6.507   5.062
 7237SOL    HW122610   6.120   6.589   5.020
 7237SOL    HW222611   6.109   6.503   5.158
 7238SOL     OW22612   2.751   2.162   1.060
 7238SOL    HW122613   2.810   2.200   0.989
 7238SOL    HW222614   2.692   2.234   1.097
 7239SOL     OW22615   2.312   1.514   3.170
 7239SOL    HW122616   2.270   1.487   3.257
 7239SOL    HW222617   2.401   1.471   3.161
 7240SOL     OW22618   2.604   4.111   6.048
 7240SOL    HW122619   2.529   4.144   5.990
 7240SOL    HW222620   2.573   4.032   6.100
 7241SOL     OW22621   3.110   0.481   0.188
 7241SOL    HW122622   3.173   0.426   0.242
 7241SOL    HW222623   3.161   0.527   0.114
 7242SOL     OW22624   6.735   5.807   0.183
 7242SOL    HW122625   6.790   5.888   0.205
 7242SOL    HW222626   6.644   5.816   0.223
 7243SOL     OW22627   0.120   4.698   6.134
 7243SOL    HW122628   0.146   4.766   6.065
 7243SOL    HW222629   0.132   4.737   6.226
 7244SOL     OW22630   5.109   0.655   0.759
 7244SOL    HW122631   5.017   0.616   0.747
 7244SOL    HW222632   5.167   0.627   0.683
 7245SOL     OW22633   0.337   2.075   5.330
 7245SOL    HW122634   0.371   2.002   5.390
 7245SOL    HW222635   0.336   2.042   5.236
 7246SOL     OW22636   5.875   6.910   4.958
 7246SOL    HW122637   5.821   6.846   4.903
 7246SOL    HW222638   5.967   6.917   4.920
 7247SOL     OW22639   3.555   6.752   3.546
 7247SOL    HW122640   3.590   6.841   3.519
 7247SOL    HW222641   3.512   6.708   3.468
 7248SOL     OW22642   3.942   0.829   2.994
 7248SOL    HW122643   3.979   0.736   2.991
 7248SOL    HW222644   3.971   0.874   3.078
 7249SOL     OW22645   5.592   5.034   1.716
 7249SOL    HW122646   5.523   4.968   1.748
 7249SOL    HW222647   5.662   5.045   1.786
 7250SOL     OW22648   4.014   5.505   6.093
 7250SOL    HW122649   4.039   5.493   5.997
 7250SOL    HW222650   4.057   5.589   6.128
 7251SOL     OW22651   0.352   6.484   5.377
 7251SOL    HW122652   0.388   6.518   5.290
 7251SOL    HW222653   0.413   6.511   5.451
 7252SOL     OW22654   3.722   3.161   3.681
 7252SOL    HW122655   3.640   3.123   3.723
 7252SOL    HW222656   3.802   3.113   3.715
 7253SOL     OW22657   2.188   6.710   0.009
 7253SOL    HW122658   2.191   6.742   0.103
 7253SOL    HW222659   2.097   6.728   6.998
 7254SOL     OW22660   4.699   5.461   5.079
 7254SOL    HW122661   4.794   5.480   5.106
 7254SOL    HW222662   4.662   5.541   5.032
 7255SOL     OW22663   3.560   3.890   0.987
 7255SOL    HW122664   3.560   3.802   0.939
 7255SOL    HW222665   3.580   3.876   1.084
 7256SOL     OW22666   4.981   4.799   4.403
 7256SOL    HW122667   4.902   4.842   4.447
 7256SOL    HW222668   5.063   4.816   4.458
 7257SOL     OW22669   4.730   2.853   3.875
 7257SOL    HW122670   4.807   2.805   3.916
 7257SOL    HW222671   4.644   2.816   3.912
 7258SOL     OW22672   4.301   1.353   3.339
 7258SOL    HW122673   4.276   1.272   3.287
 7258SOL    HW222674   4.243   1.361   3.420
 7259SOL     OW22675   3.777   3.953   1.530
 7259SOL    HW122676   3.743   4.003   1.609
 7259SOL    HW222677   3.760   3.855   1.542
 7260SOL     OW22678   3.329   2.133   2.864
 7260SOL    HW122679   3.403   2.163   2.924
 7260SOL    HW222680   3.346   2.040   2.834
 7261SOL     OW22681   2.507   2.987   0.877
 7261SOL    HW122682   2.522   2.974   0.975
 7261SOL    HW222683   2.445   2.916   0.843
 7262SOL     OW22684   5.322   2.204   3.954
 7262SOL    HW122685   5.263   2.206   4.035
 7262SOL    HW222686   5.280   2.259   3.881
 7263SOL     OW22687   0.074   5.797   2.422
 7263SOL    HW122688   0.044   5.838   2.336
 7263SOL    HW222689   0.101   5.869   2.486
 7264SOL     OW22690   6.153   1.203   6.805
 7264SOL    HW122691   6.234   1.252   6.836
 7264SOL    HW222692   6.106   1.257   6.736
 7265SOL     OW22693   5.859   5.563   5.817
 7265SOL    HW122694   5.817   5.501   5.751
 7265SOL    HW222695   5.800   5.642   5.831
 7266SOL     OW22696   4.014   0.913   0.829
 7266SOL    HW122697   3.951   0.982   0.862
 7266SOL    HW222698   4.091   0.904   0.893
 7267SOL     OW22699   0.028   5.139   5.680
 7267SOL    HW122700   0.021   5.045   5.646
 7267SOL    HW222701   6.999   5.199   5.623
 7268SOL     OW22702   4.345   4.969   3.390
 7268SOL    HW122703   4.375   4.978   3.295
 7268SOL    HW222704   4.423   4.940   3.447
 7269SOL     OW22705   6.646   6.287   1.116
 7269SOL    HW122706   6.661   6.189   1.125
 7269SOL    HW222707   6.669   6.332   1.202
 7270SOL     OW22708   1.228   2.672   3.728
 7270SOL    HW122709   1.261   2.597   3.671
 7270SOL    HW222710   1.217   2.640   3.822
 7271SOL     OW22711   0.193   4.904   4.574
 7271SOL    HW122712   0.192   4.972   4.648
 7271SOL    HW222713   0.100   4.883   4.546
 7272SOL     OW22714   5.773   4.433   2.334
 7272SOL    HW122715   5.693   4.374   2.347
 7272SOL    HW222716   5.769   4.474   2.243
 7273SOL     OW22717   5.414   4.473   2.176
 7273SOL    HW122718   5.485   4.423   2.227
 7273SOL    HW222719   5.332   4.482   2.232
 7274SOL     OW22720   0.720   6.688   5.894
 7274SOL    HW122721   0.670   6.681   5.981
 7274SOL    HW222722   0.813   6.653   5.906
 7275SOL     OW22723   6.642   1.085   1.745
 7275SOL    HW122724   6.653   0.997   1.792
 7275SOL    HW222725   6.550   1.120   1.762
 7276SOL     OW22726   3.356   1.519   3.729
 7276SOL    HW122727   3.337   1.461   3.808
 7276SOL    HW222728   3.440   1.570   3.744
 7277SOL     OW22729   5.443   1.303   4.889
 7277SOL    HW122730   5.352   1.298   4.931
 7277SOL    HW222731   5.482   1.211   4.885
 7278SOL     OW22732   3.169   2.051   3.100
 7278SOL    HW122733   3.078   2.090   3.110
 7278SOL    HW222734   3.202   2.065   3.007
 7279SOL     OW22735   4.336   3.386   6.623
 7279SOL    HW122736   4.305   3.380   6.528
 7279SOL    HW222737   4.275   3.332   6.681
 7280SOL     OW22738   6.270   2.436   5.009
 7280SOL    HW122739   6.257   2.349   4.963
 7280SOL    HW222740   6.203   2.502   4.975
 7281SOL     OW22741   2.552   0.263   0.116
 7281SOL    HW122742   2.512   0.352   0.131
 7281SOL    HW222743   2.482   0.198   0.086
 7282SOL     OW22744   6.620   6.524   0.941
 7282SOL    HW122745   6.555   6.591   0.976
 7282SOL    HW222746   6.655   6.469   1.017
 7283SOL     OW22747   2.348   6.683   2.122
 7283SOL    HW122748   2.343   6.770   2.073
 7283SOL    HW222749   2.403   6.618   2.069
 7284SOL     OW22750   6.726   3.078   4.120
 7284SOL    HW122751   6.782   3.018   4.177
 7284SOL    HW222752   6.785   3.138   4.066
 7285SOL     OW22753   5.346   3.706   1.856
 7285SOL    HW122754   5.433   3.716   1.904
 7285SOL    HW222755   5.304   3.618   1.879
 7286SOL     OW22756   1.042   1.220   0.667
 7286SOL    HW122757   1.018   1.206   0.764
 7286SOL    HW222758   1.072   1.133   0.628
 7287SOL     OW22759   6.622   3.189   4.461
 7287SOL    HW122760   6.664   3.278   4.441
 7287SOL    HW222761   6.523   3.201   4.471
 7288SOL     OW22762   1.543   2.751   2.328
 7288SOL    HW122763   1.637   2.777   2.350
 7288SOL    HW222764   1.517   2.672   2.384
 7289SOL     OW22765   6.566   2.945   2.439
 7289SOL    HW122766   6.508   2.883   2.385
 7289SOL    HW222767   6.557   3.038   2.404
 7290SOL     OW22768   3.049   0.934   5.189
 7290SOL    HW122769   3.145   0.961   5.193
 7290SOL    HW222770   3.008   0.942   5.280
 7291SOL     OW22771   3.334   6.705   0.679
 7291SOL    HW122772   3.423   6.687   0.720
 7291SOL    HW222773   3.267   6.641   0.716
 7292SOL     OW22774   2.191   6.818   3.280
 7292SOL    HW122775   2.260   6.775   3.223
 7292SOL    HW222776   2.202   6.917   3.277
 7293SOL     OW22777   1.728   0.933   6.124
 7293SOL    HW122778   1.724   0.834   6.105
 7293SOL    HW222779   1.637   0.973   6.112
 7294SOL     OW22780   2.871   4.524   1.154
 7294SOL    HW122781   2.910   4.562   1.070
 7294SOL    HW222782   2.860   4.597   1.222
 7295SOL     OW22783   0.086   4.190   1.588
 7295SOL    HW122784   0.059   4.232   1.501
 7295SOL    HW222785   0.076   4.257   1.662
 7296SOL     OW22786   4.261   5.108   2.896
 7296SOL    HW122787   4.240   5.205   2.897
 7296SOL    HW222788   4.309   5.086   2.811
 7297SOL     OW22789   2.485   0.003   2.627
 7297SOL    HW122790   2.431   7.000   2.549
 7297SOL    HW222791   2.441   0.082   2.670
 7298SOL     OW22792   5.390   5.323   0.166
 7298SOL    HW122793   5.461   5.392   0.177
 7298SOL    HW222794   5.391   5.262   0.246
 7299SOL     OW22795   0.601   1.536   0.860
 7299SOL    HW122796   0.581   1.591   0.779
 7299SOL    HW222797   0.697   1.507   0.858
 7300SOL     OW22798   1.109   5.019   1.652
 7300SOL    HW122799   1.067   4.928   1.654
 7300SOL    HW222800   1.193   5.018   1.706
 7301SOL     OW22801   0.102   1.062   5.425
 7301SOL    HW122802   0.021   1.032   5.476
 7301SOL    HW222803   0.090   1.041   5.328
 7302SOL     OW22804   6.573   1.784   4.972
 7302SOL    HW122805   6.613   1.697   4.999
 7302SOL    HW222806   6.473   1.776   4.972
 7303SOL     OW22807   3.310   0.963   6.993
 7303SOL    HW122808   3.370   0.884   7.006
 7303SOL    HW222809   3.283   0.998   0.055
 7304SOL     OW22810   2.179   5.364   1.792
 7304SOL    HW122811   2.108   5.377   1.862
 7304SOL    HW222812   2.141   5.311   1.716
 7305SOL     OW22813   5.642   2.389   1.492
 7305SOL    HW122814   5.676   2.395   1.398
 7305SOL    HW222815   5.701   2.328   1.545
 7306SOL     OW22816   3.706   1.704   1.803
 7306SOL    HW122817   3.664   1.795   1.803
 7306SOL    HW222818   3.649   1.641   1.750
 7307SOL     OW22819   3.968   6.695   2.285
 7307SOL    HW122820   3.985   6.788   2.256
 7307SOL    HW222821   4.037   6.634   2.247
 7308SOL     OW22822   0.201   1.377   3.243
 7308SOL    HW122823   0.208   1.342   3.150
 7308SOL    HW222824   0.222   1.475   3.244
 7309SOL     OW22825   2.173   6.065   2.150
 7309SOL    HW122826   2.174   5.979   2.099
 7309SOL    HW222827   2.100   6.124   2.115
 7310SOL     OW22828   1.551   3.608   5.661
 7310SOL    HW122829   1.503   3.653   5.736
 7310SOL    HW222830   1.649   3.627   5.668
 7311SOL     OW22831   0.871   0.268   0.414
 7311SOL    HW122832   0.874   0.236   0.319
 7311SOL    HW222833   0.883   0.190   0.475
 7312SOL     OW22834   0.790   1.296   4.784
 7312SOL    HW122835   0.870   1.270   4.731
 7312SOL    HW222836   0.707   1.272   4.733
 7313SOL     OW22837   2.658   1.726   0.817
 7313SOL    HW122838   2.673   1.647   0.877
 7313SOL    HW222839   2.719   1.720   0.738
 7314SOL     OW22840   6.819   3.383   6.480
 7314SOL    HW122841   6.777   3.453   6.538
 7314SOL    HW222842   6.752   3.353   6.411
 7315SOL     OW22843   6.113   5.416   2.134
 7315SOL    HW122844   6.125   5.362   2.217
 7315SOL    HW222845   6.113   5.355   2.054
 7316SOL     OW22846   3.327   2.176   6.553
 7316SOL    HW122847   3.250   2.114   6.539
 7316SOL    HW222848   3.338   2.234   6.472
 7317SOL     OW22849   3.793   1.329   2.286
 7317SOL    HW122850   3.869   1.320   2.350
 7317SOL    HW222851   3.706   1.329   2.336
 7318SOL     OW22852   3.228   6.575   2.140
 7318SOL    HW122853   3.157   6.633   2.179
 7318SOL    HW222854   3.307   6.572   2.201
 7319SOL     OW22855   6.051   3.323   6.565
 7319SOL    HW122856   5.981   3.335   6.494
 7319SOL    HW222857   6.119   3.395   6.556
 7320SOL     OW22858   0.313   3.586   0.707
 7320SOL    HW122859   0.290   3.646   0.784
 7320SOL    HW222860   0.285   3.493   0.729
 7321SOL     OW22861   1.749   6.441   6.160
 7321SOL    HW122862   1.767   6.351   6.121
 7321SOL    HW222863   1.725   6.505   6.086
 7322SOL     OW22864   0.310   2.981   3.065
 7322SOL    HW122865   0.243   2.918   3.027
 7322SOL    HW222866   0.394   2.978   3.010
 7323SOL     OW22867   2.756   1.943   1.246
 7323SOL    HW122868   2.734   2.013   1.179
 7323SOL    HW222869   2.855   1.939   1.259
 7324SOL     OW22870   5.939   4.189   2.631
 7324SOL    HW122871   5.966   4.112   2.574
 7324SOL    HW222872   5.877   4.248   2.579
 7325SOL     OW22873   2.601   0.193   5.423
 7325SOL    HW122874   2.529   0.160   5.362
 7325SOL    HW222875   2.568   0.272   5.474
 7326SOL     OW22876   4.332   0.741   6.295
 7326SOL    HW122877   4.330   0.789   6.382
 7326SOL    HW222878   4.412   0.770   6.242
 7327SOL     OW22879   5.660   3.560   4.034
 7327SOL    HW122880   5.723   3.613   4.091
 7327SOL    HW222881   5.711   3.494   3.979
 7328SOL     OW22882   4.220   6.373   6.061
 7328SOL    HW122883   4.209   6.274   6.051
 7328SOL    HW222884   4.270   6.394   6.145
 7329SOL     OW22885   0.916   2.778   0.041
 7329SOL    HW122886   0.878   2.773   6.976
 7329SOL    HW222887   1.016   2.788   0.035
 7330SOL     OW22888   3.101   2.976   1.516
 7330SOL    HW122889   3.068   2.962   1.609
 7330SOL    HW222890   3.111   3.074   1.499
 7331SOL     OW22891   4.931   6.938   2.084
 7331SOL    HW122892   4.908   6.933   2.182
 7331SOL    HW222893   5.028   6.921   2.072
 7332SOL     OW22894   4.119   4.195   7.026
 7332SOL    HW122895   4.095   4.106   6.988
 7332SOL    HW222896   4.216   4.194   0.024
 7333SOL     OW22897   6.134   3.212   3.139
 7333SOL    HW122898   6.091   3.245   3.223
 7333SOL    HW222899   6.209   3.150   3.161
 7334SOL     OW22900   2.908   5.538   5.896
 7334SOL    HW122901   2.902   5.544   5.796
 7334SOL    HW222902   2.988   5.484   5.922
 7335SOL     OW22903   0.502   3.224   2.852
 7335SOL    HW122904   0.518   3.127   2.832
 7335SOL    HW222905   0.579   3.261   2.904
 7336SOL     OW22906   2.377   6.471   1.221
 7336SOL    HW122907   2.474   6.449   1.229
 7336SOL    HW222908   2.328   6.441   1.303
 7337SOL     OW22909   2.867   3.172   1.439
 7337SOL    HW122910   2.841   3.082   1.475
 7337SOL    HW222911   2.801   3.200   1.369
 7338SOL     OW22912   6.203   2.263   1.721
 7338SOL    HW122913   6.292   2.308   1.729
 7338SOL    HW222914   6.217   2.163   1.724
 7339SOL     OW22915   7.025   6.465   5.849
 7339SOL    HW122916   0.023   6.500   5.939
 7339SOL    HW222917   0.077   6.467   5.789
 7340SOL     OW22918   4.314   1.538   6.810
 7340SOL    HW122919   4.270   1.578   6.729
 7340SOL    HW222920   4.333   1.609   6.877
 7341SOL     OW22921   1.240   5.096   4.973
 7341SOL    HW122922   1.218   5.146   5.057
 7341SOL    HW222923   1.211   5.149   4.894
 7342SOL     OW22924   6.244   0.260   0.338
 7342SOL    HW122925   6.307   0.337   0.345
 7342SOL    HW222926   6.289   0.177   0.371
 7343SOL     OW22927   5.505   3.023   2.551
 7343SOL    HW122928   5.539   2.948   2.607
 7343SOL    HW222929   5.449   2.987   2.477
 7344SOL     OW22930   1.907   0.126   6.514
 7344SOL    HW122931   1.869   0.057   6.453
 7344SOL    HW222932   1.915   0.089   6.606
 7345SOL     OW22933   4.460   5.322   5.526
 7345SOL    HW122934   4.485   5.369   5.441
 7345SOL    HW222935   4.430   5.229   5.506
 7346SOL     OW22936   4.047   3.783   0.908
 7346SOL    HW122937   3.959   3.737   0.920
 7346SOL    HW222938   4.062   3.801   0.811
 7347SOL     OW22939   6.654   2.368   2.023
 7347SOL    HW122940   6.588   2.407   1.959
 7347SOL    HW222941   6.643   2.411   2.113
 7348SOL     OW22942   1.492   3.672   3.692
 7348SOL    HW122943   1.405   3.719   3.675
 7348SOL    HW222944   1.492   3.583   3.646
 7349SOL     OW22945   3.621   1.858   1.498
 7349SOL    HW122946   3.545   1.899   1.550
 7349SOL    HW222947   3.584   1.793   1.432
 7350SOL     OW22948   0.879   3.080   4.079
 7350SOL    HW122949   0.862   3.041   3.988
 7350SOL    HW222950   0.793   3.084   4.130
 7351SOL     OW22951   4.377   5.092   6.394
 7351SOL    HW122952   4.464   5.051   6.369
 7351SOL    HW222953   4.371   5.099   6.494
 7352SOL     OW22954   1.321   2.478   3.579
 7352SOL    HW122955   1.315   2.398   3.639
 7352SOL    HW222956   1.369   2.455   3.496
 7353SOL     OW22957   0.842   1.109   5.427
 7353SOL    HW122958   0.919   1.155   5.382
 7353SOL    HW222959   0.822   1.023   5.379
 7354SOL     OW22960   0.440   0.864   6.580
 7354SOL    HW122961   0.467   0.769   6.562
 7354SOL    HW222962   0.480   0.924   6.511
 7355SOL     OW22963   1.918   6.466   7.010
 7355SOL    HW122964   1.832   6.417   6.997
 7355SOL    HW222965   1.925   6.497   0.077
 7356SOL     OW22966   5.166   2.460   6.441
 7356SOL    HW122967   5.217   2.524   6.383
 7356SOL    HW222968   5.131   2.385   6.385
 7357SOL     OW22969   4.544   0.847   1.015
 7357SOL    HW122970   4.586   0.821   1.102
 7357SOL    HW222971   4.458   0.796   1.004
 7358SOL     OW22972   2.157   1.928   2.306
 7358SOL    HW122973   2.234   1.872   2.337
 7358SOL    HW222974   2.160   1.936   2.206
 7359SOL     OW22975   3.698   2.084   1.129
 7359SOL    HW122976   3.787   2.067   1.172
 7359SOL    HW222977   3.700   2.172   1.083
 7360SOL     OW22978   2.740   1.896   5.485
 7360SOL    HW122979   2.754   1.993   5.504
 7360SOL    HW222980   2.827   1.854   5.458
 7361SOL     OW22981   4.720   6.355   1.913
 7361SOL    HW122982   4.623   6.353   1.887
 7361SOL    HW222983   4.771   6.410   1.847
 7362SOL     OW22984   0.359   6.675   4.680
 7362SOL    HW122985   0.412   6.671   4.596
 7362SOL    HW222986   0.402   6.740   4.743
 7363SOL     OW22987   4.078   1.999   0.680
 7363SOL    HW122988   4.070   1.987   0.581
 7363SOL    HW222989   4.126   1.921   0.719
 7364SOL     OW22990   3.900   6.938   0.958
 7364SOL    HW122991   3.874   7.007   1.026
 7364SOL    HW222992   3.868   6.848   0.988
 7365SOL     OW22993   1.725   5.797   2.143
 7365SOL    HW122994   1.650   5.864   2.133
 7365SOL    HW222995   1.804   5.828   2.091
 7366SOL     OW22996   1.746   5.680   0.665
 7366SOL    HW122997   1.709   5.762   0.620
 7366SOL    HW222998   1.829   5.705   0.715
 7367SOL     OW22999   4.049   3.638   1.410
 7367SOL    HW123000   3.956   3.602   1.414
 7367SOL    HW223001   4.052   3.713   1.344
 7368SOL     OW23002   3.440   2.934   4.022
 7368SOL    HW123003   3.341   2.923   4.025
 7368SOL    HW223004   3.477   2.931   4.114
 7369SOL     OW23005   5.125   3.337   0.931
 7369SOL    HW123006   5.206   3.283   0.910
 7369SOL    HW223007   5.085   3.304   1.016
 7370SOL     OW23008   2.174   1.000   5.618
 7370SOL    HW123009   2.160   0.960   5.527
 7370SOL    HW223010   2.228   1.084   5.609
 7371SOL     OW23011   2.735   5.631   4.041
 7371SOL    HW123012   2.732   5.725   4.008
 7371SOL    HW223013   2.773   5.572   3.970
 7372SOL     OW23014   2.527   0.728   5.516
 7372SOL    HW123015   2.546   0.705   5.420
 7372SOL    HW223016   2.583   0.806   5.543
 7373SOL     OW23017   4.827   1.535   3.743
 7373SOL    HW123018   4.739   1.579   3.759
 7373SOL    HW223019   4.839   1.517   3.645
 7374SOL     OW23020   2.887   2.566   5.359
 7374SOL    HW123021   2.873   2.664   5.373
 7374SOL    HW223022   2.798   2.520   5.351
 7375SOL     OW23023   1.895   2.187   3.489
 7375SOL    HW123024   1.823   2.125   3.520
 7375SOL    HW223025   1.855   2.275   3.464
 7376SOL     OW23026   3.758   1.821   0.544
 7376SOL    HW123027   3.807   1.734   0.549
 7376SOL    HW223028   3.823   1.896   0.536
 7377SOL     OW23029   4.744   6.001   1.718
 7377SOL    HW123030   4.732   6.006   1.817
 7377SOL    HW223031   4.654   6.004   1.674
 7378SOL     OW23032   0.181   2.382   4.371
 7378SOL    HW123033   0.265   2.330   4.353
 7378SOL    HW223034   0.165   2.446   4.295
 7379SOL     OW23035   4.401   2.110   3.116
 7379SOL    HW123036   4.322   2.168   3.097
 7379SOL    HW223037   4.371   2.025   3.159
 7380SOL     OW23038   7.020   3.374   5.580
 7380SOL    HW123039   6.979   3.444   5.521
 7380SOL    HW223040   6.951   3.342   5.645
 7381SOL     OW23041   4.913   3.436   2.461
 7381SOL    HW123042   5.008   3.406   2.450
 7381SOL    HW223043   4.857   3.397   2.388
 7382SOL     OW23044   0.220   5.476   5.491
 7382SOL    HW123045   0.248   5.393   5.539
 7382SOL    HW223046   0.123   5.493   5.508
 7383SOL     OW23047   0.303   0.011   2.520
 7383SOL    HW123048   0.339   0.016   2.613
 7383SOL    HW223049   0.231   0.080   2.509
 7384SOL     OW23050   4.636   0.722   2.064
 7384SOL    HW123051   4.553   0.770   2.091
 7384SOL    HW223052   4.682   0.686   2.146
 7385SOL     OW23053   3.698   6.523   2.077
 7385SOL    HW123054   3.664   6.518   2.170
 7385SOL    HW223055   3.660   6.448   2.023
 7386SOL     OW23056   0.221   2.713   5.059
 7386SOL    HW123057   0.160   2.684   5.133
 7386SOL    HW223058   0.315   2.686   5.081
 7387SOL     OW23059   4.254   7.022   4.751
 7387SOL    HW123060   4.314   0.043   4.815
 7387SOL    HW223061   4.213   0.059   4.687
 7388SOL     OW23062   6.686   5.701   3.580
 7388SOL    HW123063   6.763   5.663   3.530
 7388SOL    HW223064   6.664   5.642   3.658
 7389SOL     OW23065   0.882   4.827   6.444
 7389SOL    HW123066   0.938   4.745   6.453
 7389SOL    HW223067   0.789   4.801   6.418
 7390SOL     OW23068   1.792   1.601   6.485
 7390SOL    HW123069   1.730   1.524   6.501
 7390SOL    HW223070   1.820   1.602   6.389
 7391SOL     OW23071   4.854   4.488   4.923
 7391SOL    HW123072   4.913   4.447   4.993
 7391SOL    HW223073   4.907   4.552   4.868
 7392SOL     OW23074   2.733   6.083   6.450
 7392SOL    HW123075   2.705   5.989   6.433
 7392SOL    HW223076   2.653   6.138   6.473
 7393SOL     OW23077   6.041   5.577   1.607
 7393SOL    HW123078   6.070   5.672   1.606
 7393SOL    HW223079   6.056   5.536   1.517
 7394SOL     OW23080   3.042   2.654   6.191
 7394SOL    HW123081   3.078   2.712   6.118
 7394SOL    HW223082   2.949   2.626   6.169
 7395SOL     OW23083   1.627   0.970   6.978
 7395SOL    HW123084   1.707   1.013   7.020
 7395SOL    HW223085   1.577   0.918   0.019
 7396SOL     OW23086   1.130   0.759   0.077
 7396SOL    HW123087   1.187   0.824   0.026
 7396SOL    HW223088   1.038   0.797   0.087
 7397SOL     OW23089   5.191   5.231   4.844
 7397SOL    HW123090   5.132   5.302   4.883
 7397SOL    HW223091   5.137   5.171   4.786
 7398SOL     OW23092   3.151   4.936   4.246
 7398SOL    HW123093   3.054   4.953   4.226
 7398SOL    HW223094   3.192   4.886   4.170
 7399SOL     OW23095   0.451   3.255   5.361
 7399SOL    HW123096   0.533   3.221   5.407
 7399SOL    HW223097   0.378   3.268   5.428
 7400SOL     OW23098   3.200   3.735   6.589
 7400SOL    HW123099   3.156   3.788   6.517
 7400SOL    HW223100   3.265   3.670   6.549
 7401SOL     OW23101   0.543   1.379   3.618
 7401SOL    HW123102   0.600   1.359   3.698
 7401SOL    HW223103   0.590   1.446   3.561
 7402SOL     OW23104   1.856   5.778   4.546
 7402SOL    HW123105   1.877   5.774   4.644
 7402SOL    HW223106   1.844   5.873   4.518
 7403SOL     OW23107   1.745   3.679   2.822
 7403SOL    HW123108   1.752   3.623   2.905
 7403SOL    HW223109   1.756   3.620   2.741
 7404SOL     OW23110   2.082   6.045   1.427
 7404SOL    HW123111   2.045   5.959   1.392
 7404SOL    HW223112   2.037   6.122   1.382
 7405SOL     OW23113   1.542   5.011   4.629
 7405SOL    HW123114   1.629   5.047   4.596
 7405SOL    HW223115   1.468   5.046   4.572
 7406SOL     OW23116   1.614   3.671   2.489
 7406SOL    HW123117   1.546   3.597   2.497
 7406SOL    HW223118   1.567   3.756   2.467
 7407SOL     OW23119   6.902   6.029   4.802
 7407SOL    HW123120   6.934   6.000   4.712
 7407SOL    HW223121   6.890   6.128   4.803
 7408SOL     OW23122   1.023   4.159   5.524
 7408SOL    HW123123   1.026   4.064   5.493
 7408SOL    HW223124   1.088   4.171   5.599
 7409SOL     OW23125   0.507   0.440   4.574
 7409SOL    HW123126   0.413   0.423   4.543
 7409SOL    HW223127   0.558   0.485   4.501
 7410SOL     OW23128   6.885   4.577   0.893
 7410SOL    HW123129   6.873   4.628   0.978
 7410SOL    HW223130   6.871   4.637   0.814
 7411SOL     OW23131   3.173   6.705   4.255
 7411SOL    HW123132   3.139   6.716   4.162
 7411SOL    HW223133   3.184   6.608   4.276
 7412SOL     OW23134   4.104   0.943   1.835
 7412SOL    HW123135   4.025   0.957   1.775
 7412SOL    HW223136   4.180   0.907   1.781
 7413SOL     OW23137   6.536   5.599   4.347
 7413SOL    HW123138   6.567   5.653   4.425
 7413SOL    HW223139   6.489   5.517   4.380
 7414SOL     OW23140   0.253   0.240   3.146
 7414SOL    HW123141   0.210   0.151   3.159
 7414SOL    HW223142   0.201   0.293   3.079
 7415SOL     OW23143   0.704   4.105   3.437
 7415SOL    HW123144   0.654   4.116   3.523
 7415SOL    HW223145   0.641   4.112   3.360
 7416SOL     OW23146   2.842   0.597   4.347
 7416SOL    HW123147   2.822   0.615   4.251
 7416SOL    HW223148   2.862   0.500   4.360
 7417SOL     OW23149   1.779   0.365   6.504
 7417SOL    HW123150   1.685   0.333   6.492
 7417SOL    HW223151   1.841   0.286   6.506
 7418SOL     OW23152   4.207   4.969   1.196
 7418SOL    HW123153   4.207   4.923   1.107
 7418SOL    HW223154   4.220   5.067   1.182
 7419SOL     OW23155   6.420   2.462   4.400
 7419SOL    HW123156   6.452   2.529   4.467
 7419SOL    HW223157   6.364   2.508   4.331
 7420SOL     OW23158   6.445   6.629   2.241
 7420SOL    HW123159   6.487   6.543   2.210
 7420SOL    HW223160   6.347   6.626   2.223
 7421SOL     OW23161   2.931   3.279   1.763
 7421SOL    HW123162   2.898   3.187   1.743
 7421SOL    HW223163   2.922   3.297   1.861
 7422SOL     OW23164   0.406   3.781   2.261
 7422SOL    HW123165   0.336   3.797   2.330
 7422SOL    HW223166   0.380   3.701   2.206
 7423SOL     OW23167   6.757   3.757   6.367
 7423SOL    HW123168   6.814   3.709   6.300
 7423SOL    HW223169   6.813   3.825   6.415
 7424SOL     OW23170   6.428   0.809   4.041
 7424SOL    HW123171   6.455   0.748   4.115
 7424SOL    HW223172   6.337   0.846   4.061
 7425SOL     OW23173   4.446   5.461   6.370
 7425SOL    HW123174   4.467   5.467   6.467
 7425SOL    HW223175   4.361   5.411   6.356
 7426SOL     OW23176   0.865   2.242   6.630
 7426SOL    HW123177   0.782   2.298   6.621
 7426SOL    HW223178   0.945   2.302   6.637
 7427SOL     OW23179   3.343   5.988   4.559
 7427SOL    HW123180   3.370   5.905   4.608
 7427SOL    HW223181   3.244   5.999   4.564
 7428SOL     OW23182   3.615   1.597   4.939
 7428SOL    HW123183   3.710   1.572   4.921
 7428SOL    HW223184   3.575   1.639   4.857
 7429SOL     OW23185   5.372   0.613   3.376
 7429SOL    HW123186   5.413   0.588   3.288
 7429SOL    HW223187   5.368   0.712   3.384
 7430SOL     OW23188   6.696   4.342   6.313
 7430SOL    HW123189   6.673   4.419   6.253
 7430SOL    HW223190   6.617   4.281   6.321
 7431SOL     OW23191   0.599   3.838   2.059
 7431SOL    HW123192   0.558   3.849   1.968
 7431SOL    HW223193   0.526   3.824   2.127
 7432SOL     OW23194   0.068   6.968   2.995
 7432SOL    HW123195   0.047   6.986   3.091
 7432SOL    HW223196   0.096   0.026   2.951
 7433SOL     OW23197   6.599   5.514   0.827
 7433SOL    HW123198   6.517   5.570   0.836
 7433SOL    HW223199   6.679   5.568   0.854
 7434SOL     OW23200   4.346   1.422   6.460
 7434SOL    HW123201   4.295   1.488   6.405
 7434SOL    HW223202   4.424   1.468   6.503
 7435SOL     OW23203   3.913   6.023   6.568
 7435SOL    HW123204   3.878   6.116   6.571
 7435SOL    HW223205   3.909   5.988   6.475
 7436SOL     OW23206   5.697   3.123   6.447
 7436SOL    HW123207   5.764   3.091   6.380
 7436SOL    HW223208   5.725   3.091   6.538
 7437SOL     OW23209   0.462   5.925   6.948
 7437SOL    HW123210   0.478   5.870   0.002
 7437SOL    HW223211   0.395   5.996   6.969
 7438SOL     OW23212   0.867   4.889   0.601
 7438SOL    HW123213   0.943   4.954   0.604
 7438SOL    HW223214   0.899   4.800   0.634
 7439SOL     OW23215   1.833   6.448   4.656
 7439SOL    HW123216   1.905   6.495   4.604
 7439SOL    HW223217   1.807   6.365   4.607
 7440SOL     OW23218   1.239   2.970   4.435
 7440SOL    HW123219   1.212   2.970   4.339
 7440SOL    HW223220   1.157   2.977   4.493
 7441SOL     OW23221   5.607   5.983   4.631
 7441SOL    HW123222   5.637   6.064   4.582
 7441SOL    HW223223   5.552   6.010   4.710
 7442SOL     OW23224   1.236   0.907   6.392
 7442SOL    HW123225   1.149   0.884   6.435
 7442SOL    HW223226   1.258   0.838   6.323
 7443SOL     OW23227   0.056   1.580   1.493
 7443SOL    HW123228   0.051   1.523   1.574
 7443SOL    HW223229   0.050   1.676   1.519
 7444SOL     OW23230   6.613   3.574   5.349
 7444SOL    HW123231   6.582   3.530   5.264
 7444SOL    HW223232   6.555   3.653   5.368
 7445SOL     OW23233   3.254   0.981   1.490
 7445SOL    HW123234   3.338   1.022   1.452
 7445SOL    HW223235   3.263   0.973   1.589
 7446SOL     OW23236   5.576   4.314   0.291
 7446SOL    HW123237   5.517   4.240   0.323
 7446SOL    HW223238   5.547   4.400   0.333
 7447SOL     OW23239   1.752   3.165   5.551
 7447SOL    HW123240   1.714   3.255   5.528
 7447SOL    HW223241   1.793   3.168   5.641
 7448SOL     OW23242   5.731   6.560   5.583
 7448SOL    HW123243   5.665   6.635   5.578
 7448SOL    HW223244   5.724   6.504   5.500
 7449SOL     OW23245   5.804   2.658   2.127
 7449SOL    HW123246   5.901   2.682   2.121
 7449SOL    HW223247   5.792   2.562   2.104
 7450SOL     OW23248   5.298   1.917   4.228
 7450SOL    HW123249   5.377   1.931   4.167
 7450SOL    HW223250   5.214   1.934   4.177
 7451SOL     OW23251   2.375   0.396   2.987
 7451SOL    HW123252   2.312   0.446   2.927
 7451SOL    HW223253   2.374   0.438   3.078
 7452SOL     OW23254   0.714   6.610   4.639
 7452SOL    HW123255   0.751   6.664   4.714
 7452SOL    HW223256   0.678   6.524   4.674
 7453SOL     OW23257   4.960   5.766   6.419
 7453SOL    HW123258   4.977   5.799   6.326
 7453SOL    HW223259   4.927   5.671   6.416
 7454SOL     OW23260   1.015   2.939   1.835
 7454SOL    HW123261   1.097   2.979   1.876
 7454SOL    HW223262   1.032   2.922   1.738
 7455SOL     OW23263   6.790   1.589   1.693
 7455SOL    HW123264   6.789   1.490   1.686
 7455SOL    HW223265   6.838   1.628   1.614
 7456SOL     OW23266   0.704   2.067   4.267
 7456SOL    HW123267   0.656   2.081   4.181
 7456SOL    HW223268   0.792   2.023   4.249
 7457SOL     OW23269   3.682   0.391   5.844
 7457SOL    HW123270   3.631   0.308   5.864
 7457SOL    HW223271   3.639   0.468   5.891
 7458SOL     OW23272   1.614   0.433   6.116
 7458SOL    HW123273   1.685   0.451   6.183
 7458SOL    HW223274   1.653   0.434   6.024
 7459SOL     OW23275   4.737   0.114   0.611
 7459SOL    HW123276   4.767   0.188   0.550
 7459SOL    HW223277   4.699   0.040   0.557
 7460SOL     OW23278   1.333   4.367   1.281
 7460SOL    HW123279   1.337   4.405   1.374
 7460SOL    HW223280   1.244   4.323   1.267
 7461SOL     OW23281   5.885   1.214   6.251
 7461SOL    HW123282   5.805   1.204   6.193
 7461SOL    HW223283   5.886   1.141   6.320
 7462SOL     OW23284   2.196   2.994   2.402
 7462SOL    HW123285   2.178   3.092   2.395
 7462SOL    HW223286   2.228   2.973   2.494
 7463SOL     OW23287   3.242   4.574   1.211
 7463SOL    HW123288   3.178   4.499   1.225
 7463SOL    HW223289   3.334   4.544   1.235
 7464SOL     OW23290   3.360   6.894   6.419
 7464SOL    HW123291   3.397   6.923   6.330
 7464SOL    HW223292   3.418   6.929   6.492
 7465SOL     OW23293   1.619   6.957   0.290
 7465SOL    HW123294   1.648   6.939   0.196
 7465SOL    HW223295   1.577   6.875   0.328
 7466SOL     OW23296   0.425   0.195   6.673
 7466SOL    HW123297   0.348   0.139   6.705
 7466SOL    HW223298   0.433   0.276   6.731
 7467SOL     OW23299   6.824   1.298   0.717
 7467SOL    HW123300   6.774   1.239   0.781
 7467SOL    HW223301   6.763   1.327   0.644
 7468SOL     OW23302   5.730   2.965   2.993
 7468SOL    HW123303   5.757   2.958   3.090
 7468SOL    HW223304   5.807   3.001   2.940
 7469SOL     OW23305   0.243   6.951   0.707
 7469SOL    HW123306   0.326   6.902   0.732
 7469SOL    HW223307   0.188   6.969   0.788
 7470SOL     OW23308   0.543   3.067   4.371
 7470SOL    HW123309   0.613   3.008   4.331
 7470SOL    HW223310   0.580   3.159   4.383
 7471SOL     OW23311   5.835   6.372   5.758
 7471SOL    HW123312   5.837   6.464   5.720
 7471SOL    HW223313   5.855   6.376   5.856
 7472SOL     OW23314   5.919   6.470   4.403
 7472SOL    HW123315   5.905   6.395   4.338
 7472SOL    HW223316   5.923   6.557   4.352
 7473SOL     OW23317   0.644   4.107   3.005
 7473SOL    HW123318   0.743   4.112   3.016
 7473SOL    HW223319   0.600   4.098   3.095
 7474SOL     OW23320   2.399   1.828   5.019
 7474SOL    HW123321   2.499   1.817   5.016
 7474SOL    HW223322   2.364   1.835   4.926
 7475SOL     OW23323   3.429   1.678   2.538
 7475SOL    HW123324   3.398   1.613   2.608
 7475SOL    HW223325   3.371   1.759   2.539
 7476SOL     OW23326   3.336   6.230   4.435
 7476SOL    HW123327   3.358   6.138   4.467
 7476SOL    HW223328   3.238   6.237   4.416
 7477SOL     OW23329   6.399   1.126   4.336
 7477SOL    HW123330   6.467   1.156   4.403
 7477SOL    HW223331   6.388   1.027   4.340
 7478SOL     OW23332   4.101   4.639   6.829
 7478SOL    HW123333   4.114   4.610   6.923
 7478SOL    HW223334   4.102   4.739   6.824
 7479SOL     OW23335   4.532   2.577   1.188
 7479SOL    HW123336   4.465   2.564   1.115
 7479SOL    HW223337   4.582   2.662   1.174
 7480SOL     OW23338   0.006   3.966   1.898
 7480SOL    HW123339   7.012   4.041   1.836
 7480SOL    HW223340   0.012   4.001   1.992
 7481SOL     OW23341   5.837   4.875   2.177
 7481SOL    HW123342   5.879   4.966   2.175
 7481SOL    HW223343   5.898   4.811   2.223
 7482SOL     OW23344   5.296   1.713   3.109
 7482SOL    HW123345   5.278   1.628   3.160
 7482SOL    HW223346   5.256   1.706   3.017
 7483SOL     OW23347   4.618   2.412   5.058
 7483SOL    HW123348   4.689   2.388   5.124
 7483SOL    HW223349   4.614   2.344   4.985
 7484SOL     OW23350   0.404   0.066   2.762
 7484SOL    HW123351   0.399   0.066   2.862
 7484SOL    HW223352   0.472   0.134   2.733
 7485SOL     OW23353   3.304   6.351   5.174
 7485SOL    HW123354   3.370   6.320   5.105
 7485SOL    HW223355   3.219   6.298   5.164
 7486SOL     OW23356   2.822   0.556   6.196
 7486SOL    HW123357   2.822   0.556   6.296
 7486SOL    HW223358   2.756   0.488   6.164
 7487SOL     OW23359   2.434   6.221   2.137
 7487SOL    HW123360   2.360   6.159   2.164
 7487SOL    HW223361   2.416   6.313   2.172
 7488SOL     OW23362   1.844   6.835   4.655
 7488SOL    HW123363   1.791   6.887   4.588
 7488SOL    HW223364   1.782   6.792   4.721
 7489SOL     OW23365   5.623   1.982   4.870
 7489SOL    HW123366   5.603   2.044   4.946
 7489SOL    HW223367   5.633   2.034   4.785
 7490SOL     OW23368   0.933   1.495   1.154
 7490SOL    HW123369   0.916   1.521   1.060
 7490SOL    HW223370   0.919   1.573   1.214
 7491SOL     OW23371   6.666   3.950   0.228
 7491SOL    HW123372   6.610   3.873   0.197
 7491SOL    HW223373   6.608   4.022   0.264
 7492SOL     OW23374   2.842   1.264   4.667
 7492SOL    HW123375   2.756   1.269   4.717
 7492SOL    HW223376   2.865   1.354   4.630
 7493SOL     OW23377   0.150   4.617   0.045
 7493SOL    HW123378   0.108   4.660   6.993
 7493SOL    HW223379   0.080   4.573   0.101
 7494SOL     OW23380   6.034   1.053   2.326
 7494SOL    HW123381   6.090   0.975   2.299
 7494SOL    HW223382   5.939   1.036   2.301
 7495SOL     OW23383   2.718   0.944   1.116
 7495SOL    HW123384   2.726   0.845   1.107
 7495SOL    HW223385   2.719   0.986   1.025
 7496SOL     OW23386   0.699   3.334   6.548
 7496SOL    HW123387   0.611   3.289   6.532
 7496SOL    HW223388   0.698   3.424   6.503
 7497SOL     OW23389   2.700   4.205   0.568
 7497SOL    HW123390   2.603   4.185   0.587
 7497SOL    HW223391   2.732   4.275   0.631
 7498SOL     OW23392   2.091   1.482   5.047
 7498SOL    HW123393   2.053   1.574   5.059
 7498SOL    HW223394   2.189   1.490   5.025
 7499SOL     OW23395   5.333   0.900   3.415
 7499SOL    HW123396   5.241   0.877   3.446
 7499SOL    HW223397   5.331   0.989   3.368
 7500SOL     OW23398   3.767   6.032   4.244
 7500SOL    HW123399   3.764   6.106   4.177
 7500SOL    HW223400   3.791   6.069   4.334
 7501SOL     OW23401   6.831   4.441   4.261
 7501SOL    HW123402   6.931   4.445   4.270
 7501SOL    HW223403   6.799   4.523   4.212
 7502SOL     OW23404   1.134   0.326   4.916
 7502SOL    HW123405   1.136   0.424   4.896
 7502SOL    HW223406   1.210   0.303   4.976
 7503SOL     OW23407   1.843   1.276   0.382
 7503SOL    HW123408   1.828   1.321   0.295
 7503SOL    HW223409   1.869   1.181   0.367
 7504SOL     OW23410   2.674   0.325   3.824
 7504SOL    HW123411   2.636   0.343   3.733
 7504SOL    HW223412   2.691   0.227   3.834
 7505SOL     OW23413   1.844   1.301   5.616
 7505SOL    HW123414   1.769   1.236   5.601
 7505SOL    HW223415   1.898   1.311   5.532
 7506SOL     OW23416   4.600   6.343   3.022
 7506SOL    HW123417   4.655   6.415   3.065
 7506SOL    HW223418   4.555   6.379   2.940
 7507SOL     OW23419   0.757   0.418   1.417
 7507SOL    HW123420   0.660   0.429   1.436
 7507SOL    HW223421   0.809   0.418   1.502
 7508SOL     OW23422   6.508   6.893   2.086
 7508SOL    HW123423   6.426   6.938   2.121
 7508SOL    HW223424   6.510   6.798   2.116
 7509SOL     OW23425   5.745   4.140   1.346
 7509SOL    HW123426   5.824   4.202   1.350
 7509SOL    HW223427   5.661   4.193   1.340
 7510SOL     OW23428   2.863   4.560   5.470
 7510SOL    HW123429   2.868   4.551   5.371
 7510SOL    HW223430   2.938   4.509   5.513
 7511SOL     OW23431   1.574   7.009   3.493
 7511SOL    HW123432   1.664   6.964   3.487
 7511SOL    HW223433   1.549   7.020   3.589
 7512SOL     OW23434   3.681   4.392   0.413
 7512SOL    HW123435   3.768   4.352   0.443
 7512SOL    HW223436   3.617   4.318   0.389
 7513SOL     OW23437   2.094   2.039   1.197
 7513SOL    HW123438   2.001   2.000   1.198
 7513SOL    HW223439   2.106   2.097   1.278
 7514SOL     OW23440   2.500   5.324   2.066
 7514SOL    HW123441   2.458   5.305   1.977
 7514SOL    HW223442   2.523   5.421   2.072
 7515SOL     OW23443   0.779   5.745   2.158
 7515SOL    HW123444   0.680   5.759   2.148
 7515SOL    HW223445   0.796   5.677   2.229
 7516SOL     OW23446   6.680   6.364   4.255
 7516SOL    HW123447   6.762   6.344   4.309
 7516SOL    HW223448   6.612   6.292   4.270
 7517SOL     OW23449   0.349   3.090   1.230
 7517SOL    HW123450   0.414   3.082   1.154
 7517SOL    HW223451   0.257   3.103   1.194
 7518SOL     OW23452   3.837   5.257   3.715
 7518SOL    HW123453   3.807   5.314   3.792
 7518SOL    HW223454   3.798   5.165   3.724
 7519SOL     OW23455   0.349   6.516   3.680
 7519SOL    HW123456   0.387   6.458   3.608
 7519SOL    HW223457   0.282   6.579   3.641
 7520SOL     OW23458   3.207   6.969   1.958
 7520SOL    HW123459   3.278   6.909   1.994
 7520SOL    HW223460   3.182   6.939   1.865
 7521SOL     OW23461   4.684   5.116   6.603
 7521SOL    HW123462   4.692   5.215   6.610
 7521SOL    HW223463   4.685   5.089   6.507
 7522SOL     OW23464   2.187   6.632   6.445
 7522SOL    HW123465   2.103   6.652   6.495
 7522SOL    HW223466   2.259   6.695   6.475
 7523SOL     OW23467   5.658   0.474   6.409
 7523SOL    HW123468   5.639   0.395   6.350
 7523SOL    HW223469   5.722   0.536   6.363
 7524SOL     OW23470   1.290   2.215   6.661
 7524SOL    HW123471   1.334   2.127   6.645
 7524SOL    HW223472   1.317   2.249   6.751
 7525SOL     OW23473   2.524   6.897   6.671
 7525SOL    HW123474   2.560   6.989   6.685
 7525SOL    HW223475   2.425   6.900   6.666
 7526SOL     OW23476   3.435   2.870   2.481
 7526SOL    HW123477   3.412   2.854   2.577
 7526SOL    HW223478   3.438   2.968   2.463
 7527SOL     OW23479   4.118   5.598   3.310
 7527SOL    HW123480   4.069   5.679   3.341
 7527SOL    HW223481   4.052   5.529   3.280
 7528SOL     OW23482   4.242   1.707   6.613
 7528SOL    HW123483   4.236   1.682   6.517
 7528SOL    HW223484   4.158   1.756   6.640
 7529SOL     OW23485   5.680   0.550   4.506
 7529SOL    HW123486   5.763   0.544   4.451
 7529SOL    HW223487   5.600   0.556   4.446
 7530SOL     OW23488   6.693   4.321   2.408
 7530SOL    HW123489   6.653   4.249   2.465
 7530SOL    HW223490   6.620   4.375   2.366
 7531SOL     OW23491   4.846   2.304   4.018
 7531SOL    HW123492   4.800   2.223   3.983
 7531SOL    HW223493   4.816   2.384   3.967
 7532SOL     OW23494   5.481   5.417   1.337
 7532SOL    HW123495   5.389   5.456   1.348
 7532SOL    HW223496   5.492   5.341   1.401
 7533SOL     OW23497   2.471   1.098   2.762
 7533SOL    HW123498   2.531   1.090   2.682
 7533SOL    HW223499   2.451   1.194   2.780
 7534SOL     OW23500   3.626   6.737   6.166
 7534SOL    HW123501   3.677   6.759   6.083
 7534SOL    HW223502   3.685   6.748   6.246
 7535SOL     OW23503   2.808   0.785   5.713
 7535SOL    HW123504   2.856   0.711   5.667
 7535SOL    HW223505   2.738   0.747   5.774
 7536SOL     OW23506   5.503   5.434   5.047
 7536SOL    HW123507   5.451   5.507   5.003
 7536SOL    HW223508   5.495   5.442   5.146
 7537SOL     OW23509   2.575   5.367   3.798
 7537SOL    HW123510   2.668   5.391   3.772
 7537SOL    HW223511   2.562   5.387   3.896
 7538SOL     OW23512   3.430   3.048   2.089
 7538SOL    HW123513   3.437   2.959   2.135
 7538SOL    HW223514   3.353   3.100   2.127
 7539SOL     OW23515   2.385   2.435   4.014
 7539SOL    HW123516   2.341   2.416   3.926
 7539SOL    HW223517   2.382   2.354   4.072
 7540SOL     OW23518   2.876   0.235   5.759
 7540SOL    HW123519   2.901   0.268   5.850
 7540SOL    HW223520   2.891   0.307   5.692
 7541SOL     OW23521   0.230   4.056   4.530
 7541SOL    HW123522   0.163   3.982   4.525
 7541SOL    HW223523   0.254   4.073   4.626
 7542SOL     OW23524   0.753   5.510   0.277
 7542SOL    HW123525   0.809   5.585   0.241
 7542SOL    HW223526   0.698   5.472   0.203
 7543SOL     OW23527   4.356   2.122   0.998
 7543SOL    HW123528   4.294   2.091   0.925
 7543SOL    HW223529   4.304   2.136   1.082
 7544SOL     OW23530   0.243   2.499   3.411
 7544SOL    HW123531   0.271   2.417   3.461
 7544SOL    HW223532   0.314   2.524   3.345
 7545SOL     OW23533   5.775   6.505   2.342
 7545SOL    HW123534   5.798   6.445   2.419
 7545SOL    HW223535   5.808   6.464   2.257
 7546SOL     OW23536   3.936   0.696   1.690
 7546SOL    HW123537   3.955   0.638   1.611
 7546SOL    HW223538   3.936   0.641   1.773
 7547SOL     OW23539   4.408   0.247   0.436
 7547SOL    HW123540   4.352   0.198   0.502
 7547SOL    HW223541   4.434   0.185   0.362
 7548SOL     OW23542   3.519   1.940   0.214
 7548SOL    HW123543   3.510   1.853   0.263
 7548SOL    HW223544   3.433   1.959   0.166
 7549SOL     OW23545   5.657   1.574   1.027
 7549SOL    HW123546   5.751   1.582   1.062
 7549SOL    HW223547   5.593   1.587   1.102
 7550SOL     OW23548   2.471   4.805   2.218
 7550SOL    HW123549   2.516   4.893   2.230
 7550SOL    HW223550   2.414   4.808   2.136
 7551SOL     OW23551   4.681   3.880   6.843
 7551SOL    HW123552   4.773   3.866   6.881
 7551SOL    HW223553   4.672   3.828   6.758
 7552SOL     OW23554   2.017   5.894   3.639
 7552SOL    HW123555   2.053   5.836   3.711
 7552SOL    HW223556   2.057   5.985   3.646
 7553SOL     OW23557   4.354   5.054   5.485
 7553SOL    HW123558   4.410   4.989   5.434
 7553SOL    HW223559   4.263   5.059   5.444
 7554SOL     OW23560   5.130   0.271   1.126
 7554SOL    HW123561   5.168   0.209   1.058
 7554SOL    HW223562   5.035   0.245   1.144
 7555SOL     OW23563   1.714   5.318   5.324
 7555SOL    HW123564   1.710   5.251   5.250
 7555SOL    HW223565   1.724   5.270   5.411
 7556SOL     OW23566   0.468   3.013   5.635
 7556SOL    HW123567   0.439   2.956   5.558
 7556SOL    HW223568   0.403   3.088   5.648
 7557SOL     OW23569   5.007   2.602   6.177
 7557SOL    HW123570   5.007   2.505   6.204
 7557SOL    HW223571   5.042   2.610   6.083
 7558SOL     OW23572   1.922   2.922   3.812
 7558SOL    HW123573   2.010   2.882   3.788
 7558SOL    HW223574   1.852   2.894   3.746
 7559SOL     OW23575   6.131   5.060   6.970
 7559SOL    HW123576   6.112   5.050   6.872
 7559SOL    HW223577   6.143   4.969   7.010
 7560SOL     OW23578   4.541   6.482   0.319
 7560SOL    HW123579   4.554   6.455   0.224
 7560SOL    HW223580   4.464   6.430   0.357
 7561SOL     OW23581   0.701   2.668   0.125
 7561SOL    HW123582   0.785   2.717   0.102
 7561SOL    HW223583   0.724   2.576   0.156
 7562SOL     OW23584   5.475   6.095   5.135
 7562SOL    HW123585   5.568   6.067   5.159
 7562SOL    HW223586   5.413   6.076   5.211
 7563SOL     OW23587   2.691   6.333   0.727
 7563SOL    HW123588   2.699   6.292   0.636
 7563SOL    HW223589   2.669   6.262   0.794
 7564SOL     OW23590   5.650   1.525   2.699
 7564SOL    HW123591   5.578   1.491   2.759
 7564SOL    HW223592   5.619   1.609   2.655
 7565SOL     OW23593   5.053   4.290   6.943
 7565SOL    HW123594   5.007   4.315   0.001
 7565SOL    HW223595   5.150   4.315   6.948
 7566SOL     OW23596   6.991   5.354   3.607
 7566SOL    HW123597   0.062   5.339   3.603
 7566SOL    HW223598   6.948   5.284   3.664
 7567SOL     OW23599   1.724   2.585   4.871
 7567SOL    HW123600   1.745   2.626   4.783
 7567SOL    HW223601   1.789   2.619   4.940
 7568SOL     OW23602   5.635   6.212   2.845
 7568SOL    HW123603   5.581   6.276   2.899
 7568SOL    HW223604   5.603   6.213   2.750
 7569SOL     OW23605   4.388   4.787   6.696
 7569SOL    HW123606   4.332   4.795   6.779
 7569SOL    HW223607   4.451   4.710   6.705
 7570SOL     OW23608   5.405   4.703   5.436
 7570SOL    HW123609   5.465   4.734   5.362
 7570SOL    HW223610   5.400   4.603   5.435
 7571SOL     OW23611   4.751   5.354   2.798
 7571SOL    HW123612   4.738   5.262   2.834
 7571SOL    HW223613   4.678   5.414   2.832
 7572SOL     OW23614   4.729   0.976   3.099
 7572SOL    HW123615   4.647   1.032   3.106
 7572SOL    HW223616   4.778   0.997   3.014
 7573SOL     OW23617   6.406   6.632   4.615
 7573SOL    HW123618   6.319   6.679   4.635
 7573SOL    HW223619   6.406   6.599   4.521
 7574SOL     OW23620   6.881   0.767   4.377
 7574SOL    HW123621   6.925   0.848   4.416
 7574SOL    HW223622   6.866   0.782   4.279
 7575SOL     OW23623   3.956   0.300   5.847
 7575SOL    HW123624   3.995   0.275   5.936
 7575SOL    HW223625   3.870   0.349   5.860
 7576SOL     OW23626   6.381   5.117   0.037
 7576SOL    HW123627   6.454   5.119   6.996
 7576SOL    HW223628   6.292   5.116   7.018
 7577SOL     OW23629   0.221   6.442   6.309
 7577SOL    HW123630   0.129   6.473   6.284
 7577SOL    HW223631   0.284   6.462   6.235
 7578SOL     OW23632   2.795   6.123   2.613
 7578SOL    HW123633   2.730   6.081   2.551
 7578SOL    HW223634   2.888   6.104   2.583
 7579SOL     OW23635   5.426   2.457   2.328
 7579SOL    HW123636   5.422   2.514   2.246
 7579SOL    HW223637   5.395   2.510   2.407
 7580SOL     OW23638   0.880   4.296   4.109
 7580SOL    HW123639   0.956   4.257   4.161
 7580SOL    HW223640   0.795   4.286   4.161
 7581SOL     OW23641   6.038   0.060   1.168
 7581SOL    HW123642   5.946   0.044   1.133
 7581SOL    HW223643   6.087   0.122   1.106
 7582SOL     OW23644   2.820   1.312   0.601
 7582SOL    HW123645   2.879   1.391   0.612
 7582SOL    HW223646   2.863   1.231   0.641
 7583SOL     OW23647   6.381   3.235   1.525
 7583SOL    HW123648   6.471   3.210   1.491
 7583SOL    HW223649   6.347   3.315   1.475
 7584SOL     OW23650   2.649   6.599   0.697
 7584SOL    HW123651   2.637   6.500   0.699
 7584SOL    HW223652   2.628   6.637   0.787
 7585SOL     OW23653   1.996   3.438   5.991
 7585SOL    HW123654   1.898   3.418   5.995
 7585SOL    HW223655   2.048   3.353   5.999
 7586SOL     OW23656   3.756   0.646   3.367
 7586SOL    HW123657   3.853   0.644   3.391
 7586SOL    HW223658   3.712   0.721   3.416
 7587SOL     OW23659   3.061   1.802   6.682
 7587SOL    HW123660   3.074   1.881   6.622
 7587SOL    HW223661   3.040   1.834   6.774
 7588SOL     OW23662   1.597   3.069   2.835
 7588SOL    HW123663   1.678   3.094   2.888
 7588SOL    HW223664   1.515   3.105   2.880
 7589SOL     OW23665   6.770   6.956   1.513
 7589SOL    HW123666   6.712   7.018   1.460
 7589SOL    HW223667   6.830   7.009   1.573
 7590SOL     OW23668   3.684   2.205   6.626
 7590SOL    HW123669   3.617   2.279   6.623
 7590SOL    HW223670   3.763   2.234   6.680
 7591SOL     OW23671   0.082   4.269   0.391
 7591SOL    HW123672   0.117   4.213   0.317
 7591SOL    HW223673   7.010   4.258   0.398
 7592SOL     OW23674   6.541   4.129   6.264
 7592SOL    HW123675   6.517   4.109   6.359
 7592SOL    HW223676   6.559   4.044   6.215
 7593SOL     OW23677   5.669   2.513   1.255
 7593SOL    HW123678   5.611   2.588   1.286
 7593SOL    HW223679   5.730   2.546   1.182
 7594SOL     OW23680   6.966   4.624   2.167
 7594SOL    HW123681   6.945   4.561   2.092
 7594SOL    HW223682   6.991   4.571   2.249
 7595SOL     OW23683   6.947   2.747   5.908
 7595SOL    HW123684   6.980   2.705   5.823
 7595SOL    HW223685   6.852   2.720   5.923
 7596SOL     OW23686   4.691   5.844   3.294
 7596SOL    HW123687   4.761   5.877   3.357
 7596SOL    HW223688   4.604   5.836   3.343
 7597SOL     OW23689   2.401   6.446   2.347
 7597SOL    HW123690   2.384   6.509   2.422
 7597SOL    HW223691   2.417   6.497   2.263
 7598SOL     OW23692   0.027   1.756   3.252
 7598SOL    HW123693   0.120   1.758   3.217
 7598SOL    HW223694   0.024   1.797   3.343
 7599SOL     OW23695   5.896   1.728   3.023
 7599SOL    HW123696   5.983   1.776   3.011
 7599SOL    HW223697   5.893   1.687   3.114
 7600SOL     OW23698   1.688   1.360   2.564
 7600SOL    HW123699   1.770   1.415   2.544
 7600SOL    HW223700   1.626   1.414   2.621
 7601SOL     OW23701   2.060   5.383   2.415
 7601SOL    HW123702   2.150   5.375   2.458
 7601SOL    HW223703   2.069   5.430   2.327
 7602SOL     OW23704   1.024   4.580   6.455
 7602SOL    HW123705   0.990   4.565   6.362
 7602SOL    HW223706   1.122   4.561   6.458
 7603SOL     OW23707   1.884   5.264   6.015
 7603SOL    HW123708   1.886   5.231   5.921
 7603SOL    HW223709   1.966   5.317   6.034
 7604SOL     OW23710   1.692   4.450   4.488
 7604SOL    HW123711   1.723   4.379   4.551
 7604SOL    HW223712   1.695   4.539   4.534
 7605SOL     OW23713   0.487   6.871   0.783
 7605SOL    HW123714   0.573   6.920   0.798
 7605SOL    HW223715   0.504   6.792   0.723
 7606SOL     OW23716   6.665   3.157   3.477
 7606SOL    HW123717   6.602   3.100   3.528
 7606SOL    HW223718   6.752   3.162   3.525
 7607SOL     OW23719   4.990   5.191   0.675
 7607SOL    HW123720   4.994   5.291   0.682
 7607SOL    HW223721   5.045   5.161   0.597
 7608SOL     OW23722   3.278   4.117   3.167
 7608SOL    HW123723   3.372   4.134   3.197
 7608SOL    HW223724   3.270   4.141   3.070
 7609SOL     OW23725   0.222   3.831   3.969
 7609SOL    HW123726   0.314   3.796   3.984
 7609SOL    HW223727   0.183   3.862   4.056
 7610SOL     OW23728   5.910   6.720   0.102
 7610SOL    HW123729   5.923   6.803   0.048
 7610SOL    HW223730   5.960   6.728   0.188
 7611SOL     OW23731   0.773   1.549   0.262
 7611SOL    HW123732   0.740   1.455   0.249
 7611SOL    HW223733   0.696   1.612   0.261
 7612SOL     OW23734   5.337   3.391   4.837
 7612SOL    HW123735   5.284   3.456   4.891
 7612SOL    HW223736   5.321   3.298   4.871
 7613SOL     OW23737   5.985   3.448   1.500
 7613SOL    HW123738   5.897   3.495   1.509
 7613SOL    HW223739   6.007   3.402   1.586
 7614SOL     OW23740   5.457   3.513   0.752
 7614SOL    HW123741   5.522   3.438   0.743
 7614SOL    HW223742   5.495   3.595   0.708
 7615SOL     OW23743   4.641   3.963   6.523
 7615SOL    HW123744   4.724   4.006   6.558
 7615SOL    HW223745   4.617   4.002   6.435
 7616SOL     OW23746   6.403   4.811   5.315
 7616SOL    HW123747   6.488   4.863   5.304
 7616SOL    HW223748   6.334   4.869   5.359
 7617SOL     OW23749   3.628   5.574   2.429
 7617SOL    HW123750   3.652   5.512   2.504
 7617SOL    HW223751   3.538   5.614   2.446
 7618SOL     OW23752   0.704   2.009   5.915
 7618SOL    HW123753   0.634   2.029   5.846
 7618SOL    HW223754   0.779   1.958   5.873
 7619SOL     OW23755   5.606   3.155   5.506
 7619SOL    HW123756   5.677   3.226   5.504
 7619SOL    HW223757   5.640   3.076   5.558
 7620SOL     OW23758   4.262   5.138   0.407
 7620SOL    HW123759   4.221   5.198   0.339
 7620SOL    HW223760   4.358   5.122   0.384
 7621SOL     OW23761   0.038   1.228   0.175
 7621SOL    HW123762   6.975   1.258   0.206
 7621SOL    HW223763   0.053   1.259   0.081
 7622SOL     OW23764   5.400   5.323   1.772
 7622SOL    HW123765   5.410   5.227   1.745
 7622SOL    HW223766   5.321   5.332   1.833
 7623SOL     OW23767   4.288   4.379   6.859
 7623SOL    HW123768   4.227   4.433   6.800
 7623SOL    HW223769   4.275   4.282   6.840
 7624SOL     OW23770   6.914   2.256   4.680
 7624SOL    HW123771   6.876   2.343   4.648
 7624SOL    HW223772   6.964   2.270   4.765
 7625SOL     OW23773   5.040   0.482   1.363
 7625SOL    HW123774   5.073   0.506   1.272
 7625SOL    HW223775   4.950   0.438   1.355
 7626SOL     OW23776   6.625   6.604   4.135
 7626SOL    HW123777   6.556   6.568   4.073
 7626SOL    HW223778   6.651   6.533   4.201
 7627SOL     OW23779   5.423   2.962   0.110
 7627SOL    HW123780   5.378   2.880   0.146
 7627SOL    HW223781   5.494   2.936   0.045
 7628SOL     OW23782   3.582   0.371   2.483
 7628SOL    HW123783   3.553   0.446   2.542
 7628SOL    HW223784   3.611   0.407   2.395
 7629SOL     OW23785   6.878   0.399   3.274
 7629SOL    HW123786   6.798   0.458   3.280
 7629SOL    HW223787   6.863   0.331   3.202
 7630SOL     OW23788   6.506   0.415   1.871
 7630SOL    HW123789   6.599   0.415   1.835
 7630SOL    HW223790   6.488   0.501   1.918
 7631SOL     OW23791   0.498   0.538   5.442
 7631SOL    HW123792   0.426   0.604   5.463
 7631SOL    HW223793   0.585   0.571   5.478
 7632SOL     OW23794   3.672   2.758   1.762
 7632SOL    HW123795   3.583   2.759   1.718
 7632SOL    HW223796   3.716   2.669   1.747
 7633SOL     OW23797   5.009   1.822   1.250
 7633SOL    HW123798   4.943   1.793   1.319
 7633SOL    HW223799   5.029   1.920   1.261
 7634SOL     OW23800   0.341   1.681   2.711
 7634SOL    HW123801   0.354   1.721   2.801
 7634SOL    HW223802   0.381   1.741   2.641
 7635SOL     OW23803   2.933   5.670   5.240
 7635SOL    HW123804   2.962   5.751   5.190
 7635SOL    HW223805   2.866   5.619   5.186
 7636SOL     OW23806   1.542   2.688   3.517
 7636SOL    HW123807   1.536   2.595   3.553
 7636SOL    HW223808   1.456   2.711   3.471
 7637SOL     OW23809   2.741   6.054   2.865
 7637SOL    HW123810   2.809   6.037   2.936
 7637SOL    HW223811   2.787   6.076   2.779
 7638SOL     OW23812   3.677   6.254   1.084
 7638SOL    HW123813   3.614   6.274   1.159
 7638SOL    HW223814   3.626   6.248   0.998
 7639SOL     OW23815   1.443   1.768   0.347
 7639SOL    HW123816   1.365   1.719   0.306
 7639SOL    HW223817   1.429   1.866   0.338
 7640SOL     OW23818   3.310   1.702   0.129
 7640SOL    HW123819   3.284   1.684   0.034
 7640SOL    HW223820   3.384   1.639   0.156
 7641SOL     OW23821   0.999   4.357   1.578
 7641SOL    HW123822   1.046   4.269   1.584
 7641SOL    HW223823   0.942   4.370   1.659
 7642SOL     OW23824   2.872   0.992   2.366
 7642SOL    HW123825   2.917   1.065   2.315
 7642SOL    HW223826   2.934   0.956   2.436
 7643SOL     OW23827   4.864   3.102   4.581
 7643SOL    HW123828   4.941   3.054   4.539
 7643SOL    HW223829   4.785   3.098   4.520
 7644SOL     OW23830   5.797   2.446   2.553
 7644SOL    HW123831   5.811   2.445   2.652
 7644SOL    HW223832   5.866   2.505   2.511
 7645SOL     OW23833   4.460   3.940   5.451
 7645SOL    HW123834   4.494   3.925   5.544
 7645SOL    HW223835   4.410   3.858   5.421
 7646SOL     OW23836   2.244   2.977   2.672
 7646SOL    HW123837   2.182   3.010   2.743
 7646SOL    HW223838   2.313   2.917   2.712
 7647SOL     OW23839   6.867   3.421   2.427
 7647SOL    HW123840   6.819   3.505   2.452
 7647SOL    HW223841   6.843   3.349   2.492
 7648SOL     OW23842   3.214   1.752   3.631
 7648SOL    HW123843   3.223   1.744   3.532
 7648SOL    HW223844   3.285   1.699   3.676
 7649SOL     OW23845   0.904   0.902   2.713
 7649SOL    HW123846   0.853   0.967   2.657
 7649SOL    HW223847   0.848   0.874   2.791
 7650SOL     OW23848   4.894   2.672   1.684
 7650SOL    HW123849   4.902   2.771   1.683
 7650SOL    HW223850   4.910   2.638   1.777
 7651SOL     OW23851   1.888   0.059   4.770
 7651SOL    HW123852   1.814   0.124   4.753
 7651SOL    HW223853   1.850   6.996   4.784
 7652SOL     OW23854   6.682   3.942   4.591
 7652SOL    HW123855   6.761   3.965   4.533
 7652SOL    HW223856   6.699   3.976   4.684
 7653SOL     OW23857   2.680   1.578   0.386
 7653SOL    HW123858   2.605   1.619   0.439
 7653SOL    HW223859   2.696   1.633   0.304
 7654SOL     OW23860   5.129   2.977   3.953
 7654SOL    HW123861   5.072   3.037   4.010
 7654SOL    HW223862   5.074   2.900   3.920
 7655SOL     OW23863   3.603   0.286   3.604
 7655SOL    HW123864   3.519   0.239   3.632
 7655SOL    HW223865   3.612   0.283   3.505
 7656SOL     OW23866   2.058   5.002   6.193
 7656SOL    HW123867   2.007   5.039   6.271
 7656SOL    HW223868   2.137   5.060   6.174
 7657SOL     OW23869   2.199   2.845   3.777
 7657SOL    HW123870   2.218   2.899   3.859
 7657SOL    HW223871   2.251   2.759   3.781
 7658SOL     OW23872   3.526   0.483   6.239
 7658SOL    HW123873   3.476   0.401   6.213
 7658SOL    HW223874   3.624   0.469   6.224
 7659SOL     OW23875   6.141   5.093   0.234
 7659SOL    HW123876   6.041   5.097   0.228
 7659SOL    HW223877   6.180   5.089   0.142
 7660SOL     OW23878   0.469   6.314   3.526
 7660SOL    HW123879   0.382   6.275   3.496
 7660SOL    HW223880   0.513   6.252   3.591
 7661SOL     OW23881   5.504   2.348   4.843
 7661SOL    HW123882   5.575   2.288   4.808
 7661SOL    HW223883   5.433   2.293   4.887
 7662SOL     OW23884   1.022   2.665   2.514
 7662SOL    HW123885   1.106   2.700   2.473
 7662SOL    HW223886   1.042   2.627   2.605
 7663SOL     OW23887   1.258   6.624   5.601
 7663SOL    HW123888   1.186   6.575   5.650
 7663SOL    HW223889   1.287   6.570   5.522
 7664SOL     OW23890   3.462   0.014   2.566
 7664SOL    HW123891   3.460   0.089   2.499
 7664SOL    HW223892   3.400   6.970   2.537
 7665SOL     OW23893   5.019   0.268   4.975
 7665SOL    HW123894   4.971   0.318   5.047
 7665SOL    HW223895   5.033   0.327   4.896
 7666SOL     OW23896   0.909   6.242   1.415
 7666SOL    HW123897   0.898   6.339   1.392
 7666SOL    HW223898   0.836   6.215   1.479
 7667SOL     OW23899   4.537   5.950   1.948
 7667SOL    HW123900   4.506   5.970   1.855
 7667SOL    HW223901   4.592   6.026   1.982
 7668SOL     OW23902   3.015   4.319   1.474
 7668SOL    HW123903   3.080   4.347   1.545
 7668SOL    HW223904   3.058   4.328   1.384
 7669SOL     OW23905   5.693   1.672   5.893
 7669SOL    HW123906   5.699   1.670   5.993
 7669SOL    HW223907   5.756   1.740   5.857
 7670SOL     OW23908   0.566   4.898   6.603
 7670SOL    HW123909   0.616   4.978   6.570
 7670SOL    HW223910   0.617   4.853   6.676
 7671SOL     OW23911   4.451   0.828   3.855
 7671SOL    HW123912   4.420   0.853   3.947
 7671SOL    HW223913   4.410   0.741   3.828
 7672SOL     OW23914   5.886   6.857   3.268
 7672SOL    HW123915   5.866   6.760   3.283
 7672SOL    HW223916   5.973   6.867   3.221
 7673SOL     OW23917   2.060   5.495   6.875
 7673SOL    HW123918   2.051   5.570   6.810
 7673SOL    HW223919   2.084   5.411   6.826
 7674SOL     OW23920   6.079   1.857   4.420
 7674SOL    HW123921   6.046   1.816   4.506
 7674SOL    HW223922   6.122   1.786   4.365
 7675SOL     OW23923   5.522   6.915   2.583
 7675SOL    HW123924   5.510   7.013   2.598
 7675SOL    HW223925   5.573   6.875   2.659
 7676SOL     OW23926   1.949   2.361   0.036
 7676SOL    HW123927   2.012   2.346   0.112
 7676SOL    HW223928   1.891   2.281   0.025
 7677SOL     OW23929   0.389   4.223   2.458
 7677SOL    HW123930   0.440   4.309   2.447
 7677SOL    HW223931   0.380   4.178   2.369
 7678SOL     OW23932   2.647   1.942   4.682
 7678SOL    HW123933   2.660   1.926   4.780
 7678SOL    HW223934   2.573   2.008   4.669
 7679SOL     OW23935   2.915   5.746   6.694
 7679SOL    HW123936   2.885   5.651   6.691
 7679SOL    HW223937   3.015   5.749   6.694
 7680SOL     OW23938   1.705   1.796   0.434
 7680SOL    HW123939   1.620   1.751   0.409
 7680SOL    HW223940   1.770   1.727   0.467
 7681SOL     OW23941   2.599   6.813   0.228
 7681SOL    HW123942   2.581   6.817   0.130
 7681SOL    HW223943   2.523   6.766   0.274
 7682SOL     OW23944   2.776   0.394   1.837
 7682SOL    HW123945   2.759   0.476   1.891
 7682SOL    HW223946   2.709   0.388   1.763
 7683SOL     OW23947   6.370   1.716   3.670
 7683SOL    HW123948   6.459   1.680   3.640
 7683SOL    HW223949   6.366   1.814   3.650
 7684SOL     OW23950   3.974   1.970   1.776
 7684SOL    HW123951   3.878   1.996   1.786
 7684SOL    HW223952   3.990   1.884   1.823
 7685SOL     OW23953   3.790   2.987   0.301
 7685SOL    HW123954   3.706   2.999   0.354
 7685SOL    HW223955   3.771   3.009   0.205
 7686SOL     OW23956   6.107   0.046   3.033
 7686SOL    HW123957   6.041   0.081   3.100
 7686SOL    HW223958   6.200   0.068   3.064
 7687SOL     OW23959   5.940   5.062   4.736
 7687SOL    HW123960   5.990   4.987   4.693
 7687SOL    HW223961   6.004   5.119   4.787
 7688SOL     OW23962   0.789   6.261   5.234
 7688SOL    HW123963   0.729   6.254   5.313
 7688SOL    HW223964   0.764   6.342   5.180
 7689SOL     OW23965   5.242   6.659   2.945
 7689SOL    HW123966   5.194   6.597   2.883
 7689SOL    HW223967   5.178   6.697   3.011
 7690SOL     OW23968   6.655   4.970   1.439
 7690SOL    HW123969   6.653   5.033   1.517
 7690SOL    HW223970   6.721   5.003   1.371
 7691SOL     OW23971   4.894   2.718   4.047
 7691SOL    HW123972   4.952   2.734   4.126
 7691SOL    HW223973   4.809   2.674   4.075
 7692SOL     OW23974   0.842   6.355   2.020
 7692SOL    HW123975   0.925   6.397   1.983
 7692SOL    HW223976   0.778   6.337   1.946
 7693SOL     OW23977   3.616   0.003   1.192
 7693SOL    HW123978   3.714   0.019   1.203
 7693SOL    HW223979   3.594   6.937   1.220
 7694SOL     OW23980   0.203   4.611   4.606
 7694SOL    HW123981   0.190   4.708   4.628
 7694SOL    HW223982   0.283   4.577   4.655
 7695SOL     OW23983   4.225   6.372   0.802
 7695SOL    HW123984   4.196   6.338   0.712
 7695SOL    HW223985   4.177   6.457   0.822
 7696SOL     OW23986   6.811   1.481   4.534
 7696SOL    HW123987   6.908   1.458   4.520
 7696SOL    HW223988   6.800   1.580   4.534
 7697SOL     OW23989   3.344   0.018   1.659
 7697SOL    HW123990   3.249   7.023   1.678
 7697SOL    HW223991   3.355   0.035   1.560
 7698SOL     OW23992   6.507   2.202   3.497
 7698SOL    HW123993   6.430   2.248   3.543
 7698SOL    HW223994   6.494   2.207   3.398
 7699SOL     OW23995   3.562   6.041   6.932
 7699SOL    HW123996   3.528   6.050   7.026
 7699SOL    HW223997   3.658   6.014   6.934
 7700SOL     OW23998   4.787   6.361   4.525
 7700SOL    HW123999   4.797   6.355   4.625
 7700SOL    HW224000   4.816   6.452   4.495
 7701SOL     OW24001   6.875   1.542   6.959
 7701SOL    HW124002   6.955   1.488   6.932
 7701SOL    HW224003   6.797   1.516   6.901
 7702SOL     OW24004   3.077   6.203   6.370
 7702SOL    HW124005   3.134   6.255   6.306
 7702SOL    HW224006   3.121   6.115   6.389
 7703SOL     OW24007   6.346   0.851   5.227
 7703SOL    HW124008   6.313   0.816   5.315
 7703SOL    HW224009   6.326   0.949   5.221
 7704SOL     OW24010   5.546   4.632   5.781
 7704SOL    HW124011   5.566   4.600   5.688
 7704SOL    HW224012   5.450   4.658   5.787
 7705SOL     OW24013   3.603   5.179   5.694
 7705SOL    HW124014   3.644   5.270   5.694
 7705SOL    HW224015   3.675   5.109   5.686
 7706SOL     OW24016   4.621   2.669   4.909
 7706SOL    HW124017   4.685   2.735   4.948
 7706SOL    HW224018   4.617   2.588   4.968
 7707SOL     OW24019   0.828   5.785   5.799
 7707SOL    HW124020   0.814   5.696   5.756
 7707SOL    HW224021   0.755   5.803   5.865
 7708SOL     OW24022   6.181   6.728   5.756
 7708SOL    HW124023   6.211   6.820   5.731
 7708SOL    HW224024   6.081   6.727   5.765
 7709SOL     OW24025   5.949   4.024   1.647
 7709SOL    HW124026   5.937   3.979   1.559
 7709SOL    HW224027   6.038   3.998   1.685
 7710SOL     OW24028   3.418   0.486   0.697
 7710SOL    HW124029   3.463   0.402   0.728
 7710SOL    HW224030   3.320   0.479   0.715
 7711SOL     OW24031   6.173   6.181   5.381
 7711SOL    HW124032   6.107   6.182   5.305
 7711SOL    HW224033   6.146   6.250   5.448
 7712SOL     OW24034   5.173   5.971   2.418
 7712SOL    HW124035   5.263   5.927   2.420
 7712SOL    HW224036   5.114   5.923   2.353
 7713SOL     OW24037   1.743   4.725   0.427
 7713SOL    HW124038   1.682   4.800   0.455
 7713SOL    HW224039   1.837   4.759   0.423
 7714SOL     OW24040   6.205   4.330   5.626
 7714SOL    HW124041   6.278   4.359   5.687
 7714SOL    HW224042   6.121   4.316   5.679
 7715SOL     OW24043   4.465   1.881   6.980
 7715SOL    HW124044   4.400   1.945   6.940
 7715SOL    HW224045   4.416   1.803   7.019
 7716SOL     OW24046   6.795   4.189   4.050
 7716SOL    HW124047   6.761   4.278   4.080
 7716SOL    HW224048   6.736   4.117   4.086
 7717SOL     OW24049   1.520   1.020   4.584
 7717SOL    HW124050   1.507   1.107   4.632
 7717SOL    HW224051   1.443   1.004   4.522
 7718SOL     OW24052   1.736   1.951   2.988
 7718SOL    HW124053   1.800   1.900   3.046
 7718SOL    HW224054   1.686   1.887   2.930
 7719SOL     OW24055   6.913   3.765   4.411
 7719SOL    HW124056   6.888   3.859   4.386
 7719SOL    HW224057   6.982   3.767   4.483
 7720SOL     OW24058   0.461   0.654   0.019
 7720SOL    HW124059   0.536   0.720   0.031
 7720SOL    HW224060   0.376   0.704   0.006
 7721SOL     OW24061   0.332   4.705   2.948
 7721SOL    HW124062   0.319   4.779   3.014
 7721SOL    HW224063   0.369   4.742   2.863
 7722SOL     OW24064   0.409   6.356   3.213
 7722SOL    HW124065   0.443   6.400   3.129
 7722SOL    HW224066   0.315   6.385   3.230
 7723SOL     OW24067   6.528   3.584   6.924
 7723SOL    HW124068   6.599   3.516   6.940
 7723SOL    HW224069   6.438   3.541   6.929
 7724SOL     OW24070   2.799   4.365   1.657
 7724SOL    HW124071   2.877   4.344   1.598
 7724SOL    HW224072   2.832   4.405   1.743
 7725SOL     OW24073   5.764   2.992   3.283
 7725SOL    HW124074   5.680   3.045   3.298
 7725SOL    HW224075   5.840   3.038   3.327
 7726SOL     OW24076   1.789   6.202   5.163
 7726SOL    HW124077   1.805   6.225   5.067
 7726SOL    HW224078   1.735   6.274   5.206
 7727SOL     OW24079   0.291   0.643   2.420
 7727SOL    HW124080   0.225   0.682   2.357
 7727SOL    HW224081   0.251   0.563   2.465
 7728SOL     OW24082   1.179   4.939   3.539
 7728SOL    HW124083   1.235   4.942   3.457
 7728SOL    HW224084   1.100   4.879   3.524
 7729SOL     OW24085   5.889   3.010   0.786
 7729SOL    HW124086   5.843   3.064   0.716
 7729SOL    HW224087   5.849   3.030   0.876
 7730SOL     OW24088   5.998   6.101   1.265
 7730SOL    HW124089   6.036   6.161   1.336
 7730SOL    HW224090   5.913   6.060   1.298
 7731SOL     OW24091   6.129   0.974   0.927
 7731SOL    HW124092   6.078   1.056   0.899
 7731SOL    HW224093   6.172   0.991   1.016
 7732SOL     OW24094   3.920   6.510   0.521
 7732SOL    HW124095   3.846   6.552   0.574
 7732SOL    HW224096   4.005   6.562   0.535
 7733SOL     OW24097   4.597   7.002   2.244
 7733SOL    HW124098   4.599   6.970   2.149
 7733SOL    HW224099   4.678   6.967   2.292
 7734SOL     OW24100   2.092   5.467   3.490
 7734SOL    HW124101   2.067   5.474   3.587
 7734SOL    HW224102   2.191   5.476   3.480
 7735SOL     OW24103   4.651   6.041   6.305
 7735SOL    HW124104   4.718   6.097   6.257
 7735SOL    HW224105   4.582   6.100   6.348
 7736SOL     OW24106   3.159   3.965   6.805
 7736SOL    HW124107   3.175   3.919   6.892
 7736SOL    HW224108   3.148   3.897   6.733
 7737SOL     OW24109   3.544   0.860   2.026
 7737SOL    HW124110   3.475   0.850   2.098
 7737SOL    HW224111   3.629   0.895   2.066
 7738SOL     OW24112   3.016   5.565   6.928
 7738SOL    HW124113   3.079   5.642   6.938
 7738SOL    HW224114   3.037   5.495   6.996
 7739SOL     OW24115   0.791   2.341   1.721
 7739SOL    HW124116   0.864   2.401   1.688
 7739SOL    HW224117   0.814   2.309   1.813
 7740SOL     OW24118   1.970   0.954   2.791
 7740SOL    HW124119   1.893   0.964   2.729
 7740SOL    HW224120   1.938   0.922   2.880
 7741SOL     OW24121   1.056   5.299   5.040
 7741SOL    HW124122   1.105   5.376   4.999
 7741SOL    HW224123   0.958   5.320   5.043
 7742SOL     OW24124   5.937   1.974   3.669
 7742SOL    HW124125   6.006   1.985   3.599
 7742SOL    HW224126   5.929   2.058   3.723
 7743SOL     OW24127   5.055   1.654   0.280
 7743SOL    HW124128   5.049   1.738   0.227
 7743SOL    HW224129   5.051   1.675   0.377
 7744SOL     OW24130   1.127   6.110   3.405
 7744SOL    HW124131   1.226   6.096   3.401
 7744SOL    HW224132   1.102   6.187   3.346
 7745SOL     OW24133   2.744   1.142   5.918
 7745SOL    HW124134   2.792   1.167   5.834
 7745SOL    HW224135   2.788   1.185   5.997
 7746SOL     OW24136   2.908   6.184   0.339
 7746SOL    HW124137   2.893   6.227   0.250
 7746SOL    HW224138   2.975   6.111   0.331
 7747SOL     OW24139   4.838   5.948   1.337
 7747SOL    HW124140   4.865   5.870   1.395
 7747SOL    HW224141   4.866   6.033   1.381
 7748SOL     OW24142   3.479   3.400   5.318
 7748SOL    HW124143   3.537   3.384   5.399
 7748SOL    HW224144   3.394   3.444   5.347
 7749SOL     OW24145   2.931   2.853   5.351
 7749SOL    HW124146   2.858   2.919   5.367
 7749SOL    HW224147   3.020   2.896   5.368
 7750SOL     OW24148   0.150   6.467   1.573
 7750SOL    HW124149   0.092   6.432   1.499
 7750SOL    HW224150   0.167   6.394   1.639
 7751SOL     OW24151   1.587   2.178   2.444
 7751SOL    HW124152   1.659   2.237   2.481
 7751SOL    HW224153   1.584   2.187   2.344
 7752SOL     OW24154   5.071   0.306   6.008
 7752SOL    HW124155   5.005   0.362   5.957
 7752SOL    HW224156   5.151   0.360   6.031
 7753SOL     OW24157   2.461   1.300   4.309
 7753SOL    HW124158   2.541   1.239   4.301
 7753SOL    HW224159   2.446   1.322   4.406
 7754SOL     OW24160   3.351   6.048   1.152
 7754SOL    HW124161   3.431   5.993   1.126
 7754SOL    HW224162   3.276   5.988   1.178
 7755SOL     OW24163   1.809   2.505   5.613
 7755SOL    HW124164   1.760   2.558   5.682
 7755SOL    HW224165   1.905   2.535   5.610
 7756SOL     OW24166   2.896   6.814   1.753
 7756SOL    HW124167   2.804   6.834   1.789
 7756SOL    HW224168   2.895   6.726   1.707
 7757SOL     OW24169   5.646   4.790   1.522
 7757SOL    HW124170   5.622   4.866   1.582
 7757SOL    HW224171   5.636   4.704   1.572
 7758SOL     OW24172   1.790   0.063   6.162
 7758SOL    HW124173   1.701   0.103   6.143
 7758SOL    HW224174   1.854   0.086   6.088
 7759SOL     OW24175   1.880   1.630   5.279
 7759SOL    HW124176   1.918   1.640   5.371
 7759SOL    HW224177   1.781   1.643   5.283
 7760SOL     OW24178   5.357   2.624   2.527
 7760SOL    HW124179   5.396   2.662   2.611
 7760SOL    HW224180   5.301   2.694   2.482
 7761SOL     OW24181   6.773   6.283   4.846
 7761SOL    HW124182   6.829   6.364   4.865
 7761SOL    HW224183   6.724   6.297   4.761
 7762SOL     OW24184   2.581   0.052   3.834
 7762SOL    HW124185   2.634   6.995   3.825
 7762SOL    HW224186   2.487   0.030   3.861
 7763SOL     OW24187   2.375   0.250   6.770
 7763SOL    HW124188   2.330   0.249   6.860
 7763SOL    HW224189   2.330   0.317   6.712
 7764SOL     OW24190   3.299   4.061   5.789
 7764SOL    HW124191   3.213   4.009   5.788
 7764SOL    HW224192   3.331   4.070   5.884
 7765SOL     OW24193   5.887   2.864   4.988
 7765SOL    HW124194   5.887   2.924   4.909
 7765SOL    HW224195   5.834   2.906   5.062
 7766SOL     OW24196   6.911   3.799   0.731
 7766SOL    HW124197   6.983   3.735   0.707
 7766SOL    HW224198   6.915   3.819   0.829
 7767SOL     OW24199   4.284   6.531   2.368
 7767SOL    HW124200   4.291   6.619   2.322
 7767SOL    HW224201   4.300   6.543   2.466
 7768SOL     OW24202   5.046   5.083   3.841
 7768SOL    HW124203   5.071   5.061   3.747
 7768SOL    HW224204   5.032   4.998   3.892
 7769SOL     OW24205   4.336   1.652   4.846
 7769SOL    HW124206   4.383   1.647   4.934
 7769SOL    HW224207   4.375   1.584   4.783
 7770SOL     OW24208   0.421   3.213   4.666
 7770SOL    HW124209   0.347   3.272   4.633
 7770SOL    HW224210   0.489   3.201   4.595
 7771SOL     OW24211   3.314   1.588   5.487
 7771SOL    HW124212   3.269   1.631   5.408
 7771SOL    HW224213   3.251   1.589   5.565
 7772SOL     OW24214   5.182   0.068   0.955
 7772SOL    HW124215   5.120   7.021   0.933
 7772SOL    HW224216   5.267   0.031   0.993
 7773SOL     OW24217   1.869   5.439   5.644
 7773SOL    HW124218   1.903   5.499   5.571
 7773SOL    HW224219   1.803   5.375   5.606
 7774SOL     OW24220   4.663   2.733   4.340
 7774SOL    HW124221   4.740   2.796   4.351
 7774SOL    HW224222   4.643   2.690   4.428
 7775SOL     OW24223   4.405   6.963   7.013
 7775SOL    HW124224   4.310   6.933   7.020
 7775SOL    HW224225   4.464   6.884   6.999
 7776SOL     OW24226   0.891   5.885   6.672
 7776SOL    HW124227   0.829   5.819   6.630
 7776SOL    HW224228   0.858   5.909   6.763
 7777SOL     OW24229   5.888   5.271   4.575
 7777SOL    HW124230   5.800   5.318   4.586
 7777SOL    HW224231   5.896   5.199   4.645
 7778SOL     OW24232   5.650   3.930   2.310
 7778SOL    HW124233   5.585   3.884   2.249
 7778SOL    HW224234   5.723   3.971   2.256
 7779SOL     OW24235   2.654   1.120   1.823
 7779SOL    HW124236   2.709   1.200   1.843
 7779SOL    HW224237   2.653   1.104   1.724
 7780SOL     OW24238   1.193   5.236   5.266
 7780SOL    HW124239   1.164   5.298   5.339
 7780SOL    HW224240   1.131   5.244   5.189
 7781SOL     OW24241   1.056   3.712   1.205
 7781SOL    HW124242   0.964   3.746   1.182
 7781SOL    HW224243   1.087   3.650   1.134
 7782SOL     OW24244   4.950   5.423   4.013
 7782SOL    HW124245   4.858   5.442   4.047
 7782SOL    HW224246   4.990   5.347   4.066
 7783SOL     OW24247   0.969   0.192   5.844
 7783SOL    HW124248   0.952   0.289   5.828
 7783SOL    HW224249   1.022   0.181   5.929
 7784SOL     OW24250   3.288   2.263   1.506
 7784SOL    HW124251   3.319   2.178   1.464
 7784SOL    HW224252   3.196   2.284   1.475
 7785SOL     OW24253   2.290   6.268   4.015
 7785SOL    HW124254   2.204   6.217   4.019
 7785SOL    HW224255   2.359   6.213   3.968
 7786SOL     OW24256   4.038   0.684   6.363
 7786SOL    HW124257   4.048   0.602   6.418
 7786SOL    HW224258   4.124   0.735   6.361
 7787SOL     OW24259   2.069   3.207   0.206
 7787SOL    HW124260   1.971   3.186   0.204
 7787SOL    HW224261   2.082   3.303   0.183
 7788SOL     OW24262   1.707   5.058   1.323
 7788SOL    HW124263   1.661   5.106   1.399
 7788SOL    HW224264   1.762   5.124   1.271
 7789SOL     OW24265   3.027   0.296   6.473
 7789SOL    HW124266   3.093   0.344   6.531
 7789SOL    HW224267   3.074   0.259   6.393
 7790SOL     OW24268   5.472   5.614   2.383
 7790SOL    HW124269   5.477   5.652   2.475
 7790SOL    HW224270   5.380   5.576   2.368
 7791SOL     OW24271   1.830   4.882   1.948
 7791SOL    HW124272   1.769   4.958   1.971
 7791SOL    HW224273   1.922   4.918   1.929
 7792SOL     OW24274   1.380   6.198   3.502
 7792SOL    HW124275   1.462   6.178   3.556
 7792SOL    HW224276   1.313   6.245   3.559
 7793SOL     OW24277   4.111   0.578   0.064
 7793SOL    HW124278   4.026   0.536   0.035
 7793SOL    HW224279   4.119   0.572   0.163
 7794SOL     OW24280   0.246   4.407   2.174
 7794SOL    HW124281   0.271   4.400   2.077
 7794SOL    HW224282   0.288   4.489   2.213
 7795SOL     OW24283   3.130   5.282   5.066
 7795SOL    HW124284   3.175   5.259   4.980
 7795SOL    HW224285   3.185   5.349   5.116
 7796SOL     OW24286   3.659   2.588   5.537
 7796SOL    HW124287   3.605   2.504   5.534
 7796SOL    HW224288   3.716   2.595   5.455
 7797SOL     OW24289   0.817   5.636   1.102
 7797SOL    HW124290   0.737   5.659   1.156
 7797SOL    HW224291   0.884   5.711   1.108
 7798SOL     OW24292   1.380   1.650   2.642
 7798SOL    HW124293   1.453   1.691   2.697
 7798SOL    HW224294   1.334   1.721   2.589
 7799SOL     OW24295   1.795   5.253   2.858
 7799SOL    HW124296   1.861   5.294   2.796
 7799SOL    HW224297   1.735   5.190   2.808
 7800SOL     OW24298   0.885   5.955   2.978
 7800SOL    HW124299   0.929   5.921   2.895
 7800SOL    HW224300   0.787   5.966   2.962
 7801SOL     OW24301   1.600   1.334   2.857
 7801SOL    HW124302   1.666   1.316   2.930
 7801SOL    HW224303   1.584   1.250   2.805
 7802SOL     OW24304   6.926   3.017   0.392
 7802SOL    HW124305   6.868   3.047   0.469
 7802SOL    HW224306   6.889   2.932   0.355
 7803SOL     OW24307   4.796   1.825   0.189
 7803SOL    HW124308   4.885   1.818   0.144
 7803SOL    HW224309   4.810   1.843   0.287
 7804SOL     OW24310   4.709   2.178   5.192
 7804SOL    HW124311   4.629   2.167   5.133
 7804SOL    HW224312   4.681   2.214   5.281
 7805SOL     OW24313   5.319   3.648   2.489
 7805SOL    HW124314   5.237   3.698   2.461
 7805SOL    HW224315   5.301   3.550   2.483
 7806SOL     OW24316   5.909   1.125   6.556
 7806SOL    HW124317   5.823   1.096   6.599
 7806SOL    HW224318   5.970   1.047   6.547
 7807SOL     OW24319   0.735   4.446   5.353
 7807SOL    HW124320   0.821   4.398   5.340
 7807SOL    HW224321   0.749   4.544   5.338
 7808SOL     OW24322   5.930   3.245   3.327
 7808SOL    HW124323   5.859   3.261   3.396
 7808SOL    HW224324   5.896   3.270   3.237
 7809SOL     OW24325   5.037   5.044   4.714
 7809SOL    HW124326   5.097   4.969   4.689
 7809SOL    HW224327   4.965   5.011   4.775
 7810SOL     OW24328   2.777   6.627   5.690
 7810SOL    HW124329   2.685   6.644   5.726
 7810SOL    HW224330   2.834   6.587   5.761
 7811SOL     OW24331   1.305   5.054   1.848
 7811SOL    HW124332   1.357   5.121   1.902
 7811SOL    HW224333   1.347   4.964   1.858
 7812SOL     OW24334   2.101   2.676   4.773
 7812SOL    HW124335   2.026   2.742   4.780
 7812SOL    HW224336   2.078   2.607   4.704
 7813SOL     OW24337   4.439   2.352   1.307
 7813SOL    HW124338   4.512   2.285   1.321
 7813SOL    HW224339   4.477   2.432   1.260
 7814SOL     OW24340   7.006   3.826   3.180
 7814SOL    HW124341   6.992   3.769   3.261
 7814SOL    HW224342   6.963   3.782   3.100
 7815SOL     OW24343   5.680   1.641   4.545
 7815SOL    HW124344   5.766   1.591   4.538
 7815SOL    HW224345   5.670   1.678   4.637
 7816SOL     OW24346   0.338   2.412   6.434
 7816SOL    HW124347   0.302   2.496   6.474
 7816SOL    HW224348   0.350   2.423   6.336
 7817SOL     OW24349   4.576   4.343   5.076
 7817SOL    HW124350   4.610   4.386   4.992
 7817SOL    HW224351   4.479   4.365   5.088
 7818SOL     OW24352   4.326   0.779   2.918
 7818SOL    HW124353   4.247   0.834   2.890
 7818SOL    HW224354   4.410   0.829   2.896
 7819SOL     OW24355   0.454   3.703   3.986
 7819SOL    HW124356   0.533   3.659   3.943
 7819SOL    HW224357   0.483   3.747   4.071
 7820SOL     OW24358   1.737   1.037   5.651
 7820SOL    HW124359   1.801   1.027   5.727
 7820SOL    HW224360   1.733   0.952   5.598
 7821SOL     OW24361   5.819   6.089   0.650
 7821SOL    HW124362   5.878   6.132   0.718
 7821SOL    HW224363   5.857   6.103   0.559
 7822SOL     OW24364   1.596   1.470   6.332
 7822SOL    HW124365   1.549   1.424   6.407
 7822SOL    HW224366   1.544   1.456   6.247
 7823SOL     OW24367   2.377   3.687   6.103
 7823SOL    HW124368   2.460   3.727   6.143
 7823SOL    HW224369   2.403   3.623   6.031
 7824SOL     OW24370   5.369   0.213   4.967
 7824SOL    HW124371   5.366   0.305   5.007
 7824SOL    HW224372   5.383   0.221   4.868
 7825SOL     OW24373   1.614   2.897   1.121
 7825SOL    HW124374   1.644   2.829   1.055
 7825SOL    HW224375   1.662   2.983   1.104
 7826SOL     OW24376   4.955   1.917   6.645
 7826SOL    HW124377   5.047   1.879   6.645
 7826SOL    HW224378   4.933   1.952   6.737
 7827SOL     OW24379   3.091   4.942   0.987
 7827SOL    HW124380   3.075   5.023   0.931
 7827SOL    HW224381   3.156   4.963   1.060
 7828SOL     OW24382   6.955   5.147   0.848
 7828SOL    HW124383   0.005   5.120   0.792
 7828SOL    HW224384   6.909   5.066   0.883
 7829SOL     OW24385   2.258   2.724   0.486
 7829SOL    HW124386   2.284   2.803   0.430
 7829SOL    HW224387   2.295   2.640   0.446
 7830SOL     OW24388   5.285   3.902   6.290
 7830SOL    HW124389   5.351   3.826   6.291
 7830SOL    HW224390   5.275   3.935   6.196
 7831SOL     OW24391   1.437   5.341   0.557
 7831SOL    HW124392   1.536   5.341   0.572
 7831SOL    HW224393   1.390   5.325   0.644
 7832SOL     OW24394   3.460   1.211   4.134
 7832SOL    HW124395   3.465   1.154   4.052
 7832SOL    HW224396   3.367   1.207   4.172
 7833SOL     OW24397   0.240   0.865   7.010
 7833SOL    HW124398   0.208   0.845   6.917
 7833SOL    HW224399   0.166   0.847   0.047
 7834SOL     OW24400   0.700   1.774   2.827
 7834SOL    HW124401   0.650   1.856   2.854
 7834SOL    HW224402   0.716   1.776   2.728
 7835SOL     OW24403   1.858   2.318   5.022
 7835SOL    HW124404   1.955   2.296   5.015
 7835SOL    HW224405   1.847   2.417   5.037
 7836SOL     OW24406   3.547   1.859   6.234
 7836SOL    HW124407   3.474   1.802   6.272
 7836SOL    HW224408   3.585   1.917   6.307
 7837SOL     OW24409   6.408   6.442   1.597
 7837SOL    HW124410   6.441   6.442   1.691
 7837SOL    HW224411   6.338   6.512   1.586
 7838SOL     OW24412   4.370   5.873   6.999
 7838SOL    HW124413   4.467   5.857   7.018
 7838SOL    HW224414   4.361   5.948   6.933
 7839SOL     OW24415   6.277   4.942   5.742
 7839SOL    HW124416   6.191   4.985   5.773
 7839SOL    HW224417   6.265   4.843   5.739
 7840SOL     OW24418   5.235   3.702   4.121
 7840SOL    HW124419   5.194   3.627   4.068
 7840SOL    HW224420   5.200   3.789   4.087
 7841SOL     OW24421   5.750   1.341   6.969
 7841SOL    HW124422   5.781   1.346   6.874
 7841SOL    HW224423   5.819   1.294   7.025
 7842SOL     OW24424   2.030   1.578   3.098
 7842SOL    HW124425   1.982   1.553   3.182
 7842SOL    HW224426   2.129   1.581   3.116
 7843SOL     OW24427   5.610   4.559   1.671
 7843SOL    HW124428   5.554   4.537   1.751
 7843SOL    HW224429   5.707   4.559   1.697
 7844SOL     OW24430   4.280   0.161   3.543
 7844SOL    HW124431   4.224   0.164   3.626
 7844SOL    HW224432   4.373   0.189   3.564
 7845SOL     OW24433   0.029   0.894   3.697
 7845SOL    HW124434   0.079   0.958   3.638
 7845SOL    HW224435   0.018   0.934   3.788
 7846SOL     OW24436   1.429   0.704   1.858
 7846SOL    HW124437   1.504   0.685   1.795
 7846SOL    HW224438   1.376   0.782   1.824
 7847SOL     OW24439   6.767   1.722   1.422
 7847SOL    HW124440   6.677   1.678   1.422
 7847SOL    HW224441   6.832   1.663   1.373
 7848SOL     OW24442   3.124   3.896   0.944
 7848SOL    HW124443   3.131   3.874   1.041
 7848SOL    HW224444   3.048   3.959   0.929
 7849SOL     OW24445   5.111   3.941   4.012
 7849SOL    HW124446   5.128   4.034   4.045
 7849SOL    HW224447   5.013   3.929   3.994
 7850SOL     OW24448   0.037   1.515   4.232
 7850SOL    HW124449   7.015   1.508   4.318
 7850SOL    HW224450   0.035   1.610   4.200
 7851SOL     OW24451   6.492   0.139   0.655
 7851SOL    HW124452   6.461   0.224   0.612
 7851SOL    HW224453   6.420   0.070   0.646
 7852SOL     OW24454   2.931   0.415   5.972
 7852SOL    HW124455   2.833   0.407   5.985
 7852SOL    HW224456   2.965   0.495   6.022
 7853SOL     OW24457   3.980   1.727   1.892
 7853SOL    HW124458   4.048   1.667   1.850
 7853SOL    HW224459   3.888   1.694   1.871
 7854SOL     OW24460   3.433   4.469   0.975
 7854SOL    HW124461   3.371   4.391   0.981
 7854SOL    HW224462   3.381   4.552   0.958
 7855SOL     OW24463   3.731   5.835   5.964
 7855SOL    HW124464   3.755   5.873   6.053
 7855SOL    HW224465   3.631   5.825   5.958
 7856SOL     OW24466   5.991   4.722   3.749
 7856SOL    HW124467   6.010   4.783   3.671
 7856SOL    HW224468   5.928   4.651   3.720
 7857SOL     OW24469   6.552   2.881   5.311
 7857SOL    HW124470   6.531   2.935   5.392
 7857SOL    HW224471   6.570   2.942   5.234
 7858SOL     OW24472   4.887   5.308   3.778
 7858SOL    HW124473   4.882   5.362   3.861
 7858SOL    HW224474   4.937   5.223   3.797
 7859SOL     OW24475   6.610   4.439   5.888
 7859SOL    HW124476   6.516   4.408   5.902
 7859SOL    HW224477   6.673   4.380   5.938
 7860SOL     OW24478   3.928   6.761   3.018
 7860SOL    HW124479   3.891   6.717   2.936
 7860SOL    HW224480   3.941   6.692   3.090
 7861SOL     OW24481   3.987   5.668   1.980
 7861SOL    HW124482   3.945   5.578   1.963
 7861SOL    HW224483   3.933   5.717   2.048
 7862SOL     OW24484   3.128   4.543   1.689
 7862SOL    HW124485   3.051   4.524   1.750
 7862SOL    HW224486   3.183   4.460   1.678
 7863SOL     OW24487   6.539   6.641   3.733
 7863SOL    HW124488   6.488   6.673   3.813
 7863SOL    HW224489   6.601   6.712   3.701
 7864SOL     OW24490   6.952   6.209   5.789
 7864SOL    HW124491   6.968   6.307   5.805
 7864SOL    HW224492   6.883   6.197   5.718
 7865SOL     OW24493   4.845   6.837   4.008
 7865SOL    HW124494   4.910   6.913   4.000
 7865SOL    HW224495   4.817   6.807   3.917
 7866SOL     OW24496   2.349   2.517   0.714
 7866SOL    HW124497   2.254   2.491   0.730
 7866SOL    HW224498   2.377   2.485   0.623
 7867SOL     OW24499   5.038   5.672   2.491
 7867SOL    HW124500   5.044   5.763   2.531
 7867SOL    HW224501   4.969   5.619   2.539
 7868SOL     OW24502   5.719   6.945   2.387
 7868SOL    HW124503   5.644   6.932   2.452
 7868SOL    HW224504   5.736   6.860   2.337
 7869SOL     OW24505   5.530   3.900   0.449
 7869SOL    HW124506   5.539   3.934   0.356
 7869SOL    HW224507   5.519   3.800   0.447
 7870SOL     OW24508   5.195   6.099   4.196
 7870SOL    HW124509   5.220   6.118   4.291
 7870SOL    HW224510   5.243   6.016   4.165
 7871SOL     OW24511   5.858   4.086   2.881
 7871SOL    HW124512   5.933   4.022   2.895
 7871SOL    HW224513   5.868   4.131   2.792
 7872SOL     OW24514   1.599   4.522   2.847
 7872SOL    HW124515   1.641   4.603   2.889
 7872SOL    HW224516   1.671   4.456   2.823
 7873SOL     OW24517   5.124   6.811   5.029
 7873SOL    HW124518   5.140   6.812   5.128
 7873SOL    HW224519   5.167   6.890   4.987
 7874SOL     OW24520   5.459   0.906   0.408
 7874SOL    HW124521   5.548   0.913   0.364
 7874SOL    HW224522   5.456   0.967   0.488
 7875SOL     OW24523   4.032   3.224   6.609
 7875SOL    HW124524   4.094   3.184   6.542
 7875SOL    HW224525   3.988   3.151   6.661
 7876SOL     OW24526   7.003   0.173   5.110
 7876SOL    HW124527   6.976   0.079   5.088
 7876SOL    HW224528   6.937   0.213   5.173
 7877SOL     OW24529   0.404   3.497   2.715
 7877SOL    HW124530   0.383   3.500   2.812
 7877SOL    HW224531   0.319   3.496   2.662
 7878SOL     OW24532   5.178   5.211   4.056
 7878SOL    HW124533   5.157   5.185   3.962
 7878SOL    HW224534   5.269   5.253   4.059
 7879SOL     OW24535   4.498   5.451   3.890
 7879SOL    HW124536   4.440   5.505   3.829
 7879SOL    HW224537   4.484   5.354   3.872
 7880SOL     OW24538   0.469   5.163   0.896
 7880SOL    HW124539   0.417   5.234   0.944
 7880SOL    HW224540   0.468   5.078   0.949
 7881SOL     OW24541   6.261   3.400   4.907
 7881SOL    HW124542   6.187   3.366   4.850
 7881SOL    HW224543   6.348   3.390   4.859
 7882SOL     OW24544   1.394   2.581   3.123
 7882SOL    HW124545   1.323   2.650   3.140
 7882SOL    HW224546   1.395   2.558   3.026
 7883SOL     OW24547   1.683   6.600   0.959
 7883SOL    HW124548   1.735   6.568   1.038
 7883SOL    HW224549   1.724   6.683   0.922
 7884SOL     OW24550   1.776   4.142   3.624
 7884SOL    HW124551   1.868   4.178   3.638
 7884SOL    HW224552   1.768   4.054   3.671
 7885SOL     OW24553   6.448   6.224   2.456
 7885SOL    HW124554   6.470   6.232   2.553
 7885SOL    HW224555   6.527   6.253   2.401
 7886SOL     OW24556   4.629   3.553   1.591
 7886SOL    HW124557   4.558   3.623   1.595
 7886SOL    HW224558   4.590   3.467   1.561
 7887SOL     OW24559   3.494   2.361   5.491
 7887SOL    HW124560   3.537   2.298   5.556
 7887SOL    HW224561   3.461   2.309   5.412
 7888SOL     OW24562   0.205   0.384   5.072
 7888SOL    HW124563   0.279   0.399   5.007
 7888SOL    HW224564   0.157   0.300   5.049
 7889SOL     OW24565   0.698   4.581   0.104
 7889SOL    HW124566   0.700   4.500   0.162
 7889SOL    HW224567   0.759   4.651   0.141
 7890SOL     OW24568   0.341   3.478   3.894
 7890SOL    HW124569   0.392   3.559   3.923
 7890SOL    HW224570   0.391   3.431   3.821
 7891SOL     OW24571   1.220   3.702   4.501
 7891SOL    HW124572   1.143   3.765   4.514
 7891SOL    HW224573   1.260   3.717   4.411
 7892SOL     OW24574   1.092   2.236   3.878
 7892SOL    HW124575   1.006   2.222   3.828
 7892SOL    HW224576   1.073   2.241   3.976
 7893SOL     OW24577   6.098   6.953   2.187
 7893SOL    HW124578   6.062   6.963   2.280
 7893SOL    HW224579   6.093   6.857   2.159
 7894SOL     OW24580   2.891   0.918   1.336
 7894SOL    HW124581   2.945   0.839   1.363
 7894SOL    HW224582   2.846   0.899   1.248
 7895SOL     OW24583   4.598   6.620   5.317
 7895SOL    HW124584   4.638   6.644   5.229
 7895SOL    HW224585   4.508   6.665   5.326
 7896SOL     OW24586   5.717   3.207   1.156
 7896SOL    HW124587   5.699   3.232   1.061
 7896SOL    HW224588   5.667   3.269   1.217
 7897SOL     OW24589   3.466   3.311   0.947
 7897SOL    HW124590   3.396   3.361   0.895
 7897SOL    HW224591   3.528   3.376   0.991
 7898SOL     OW24592   3.647   0.247   3.986
 7898SOL    HW124593   3.569   0.191   3.960
 7898SOL    HW224594   3.727   0.188   4.001
 7899SOL     OW24595   6.045   6.943   1.774
 7899SOL    HW124596   5.947   6.956   1.759
 7899SOL    HW224597   6.078   7.008   1.842
 7900SOL     OW24598   0.798   4.390   1.822
 7900SOL    HW124599   0.741   4.458   1.776
 7900SOL    HW224600   0.829   4.425   1.910
 7901SOL     OW24601   4.882   0.959   6.128
 7901SOL    HW124602   4.826   1.026   6.079
 7901SOL    HW224603   4.905   0.884   6.066
 7902SOL     OW24604   6.094   5.795   3.207
 7902SOL    HW124605   6.066   5.781   3.111
 7902SOL    HW224606   6.144   5.715   3.239
 7903SOL     OW24607   4.626   2.233   2.928
 7903SOL    HW124608   4.555   2.167   2.952
 7903SOL    HW224609   4.689   2.244   3.005
 7904SOL     OW24610   5.875   0.799   3.048
 7904SOL    HW124611   5.925   0.763   2.969
 7904SOL    HW224612   5.862   0.725   3.115
 7905SOL     OW24613   5.925   2.187   0.952
 7905SOL    HW124614   5.825   2.187   0.958
 7905SOL    HW224615   5.961   2.111   1.005
 7906SOL     OW24616   1.199   5.801   0.738
 7906SOL    HW124617   1.208   5.706   0.766
 7906SOL    HW224618   1.257   5.818   0.658
 7907SOL     OW24619   6.818   0.856   3.019
 7907SOL    HW124620   6.761   0.775   2.999
 7907SOL    HW224621   6.848   0.896   2.933
 7908SOL     OW24622   0.956   1.553   5.970
 7908SOL    HW124623   0.947   1.480   5.901
 7908SOL    HW224624   1.010   1.628   5.932
 7909SOL     OW24625   4.898   4.524   3.645
 7909SOL    HW124626   4.872   4.455   3.577
 7909SOL    HW224627   4.984   4.498   3.688
 7910SOL     OW24628   1.651   3.373   0.575
 7910SOL    HW124629   1.685   3.299   0.517
 7910SOL    HW224630   1.724   3.439   0.592
 7911SOL     OW24631   0.749   4.409   1.136
 7911SOL    HW124632   0.762   4.345   1.211
 7911SOL    HW224633   0.754   4.360   1.049
 7912SOL     OW24634   5.611   4.210   1.048
 7912SOL    HW124635   5.673   4.133   1.059
 7912SOL    HW224636   5.527   4.179   1.002
 7913SOL     OW24637   1.621   4.283   2.003
 7913SOL    HW124638   1.709   4.299   1.958
 7913SOL    HW224639   1.624   4.197   2.052
 7914SOL     OW24640   0.463   4.375   0.865
 7914SOL    HW124641   0.551   4.419   0.885
 7914SOL    HW224642   0.461   4.284   0.907
 7915SOL     OW24643   4.851   1.978   2.635
 7915SOL    HW124644   4.786   2.028   2.692
 7915SOL    HW224645   4.944   2.011   2.651
 7916SOL     OW24646   0.638   6.294   5.468
 7916SOL    HW124647   0.548   6.277   5.509
 7916SOL    HW224648   0.687   6.362   5.524
 7917SOL     OW24649   4.176   2.997   5.394
 7917SOL    HW124650   4.158   3.048   5.478
 7917SOL    HW224651   4.273   3.000   5.373
 7918SOL     OW24652   6.843   1.074   4.781
 7918SOL    HW124653   6.881   1.136   4.849
 7918SOL    HW224654   6.822   0.985   4.823
 7919SOL     OW24655   1.221   4.719   2.549
 7919SOL    HW124656   1.316   4.739   2.526
 7919SOL    HW224657   1.217   4.644   2.615
 7920SOL     OW24658   5.905   6.804   1.500
 7920SOL    HW124659   5.991   6.849   1.524
 7920SOL    HW224660   5.917   6.753   1.414
 7921SOL     OW24661   5.677   6.728   2.235
 7921SOL    HW124662   5.704   6.644   2.280
 7921SOL    HW224663   5.603   6.709   2.170
 7922SOL     OW24664   0.684   5.718   0.070
 7922SOL    HW124665   0.684   5.646   0.001
 7922SOL    HW224666   0.766   5.773   0.062
 7923SOL     OW24667   3.682   1.506   5.629
 7923SOL    HW124668   3.606   1.475   5.570
 7923SOL    HW224669   3.758   1.442   5.620
 7924SOL     OW24670   4.368   0.033   1.071
 7924SOL    HW124671   4.284   0.082   1.046
 7924SOL    HW224672   4.345   6.969   1.103
 7925SOL     OW24673   1.314   0.144   0.735
 7925SOL    HW124674   1.284   0.109   0.823
 7925SOL    HW224675   1.378   0.220   0.749
 7926SOL     OW24676   5.208   1.644   6.952
 7926SOL    HW124677   5.283   1.630   7.017
 7926SOL    HW224678   5.210   1.572   6.882
 7927SOL     OW24679   4.816   6.891   2.343
 7927SOL    HW124680   4.768   6.812   2.381
 7927SOL    HW224681   4.883   6.925   2.409
 7928SOL     OW24682   0.295   1.676   4.084
 7928SOL    HW124683   0.238   1.683   4.166
 7928SOL    HW224684   0.338   1.765   4.067
 7929SOL     OW24685   3.557   3.662   5.452
 7929SOL    HW124686   3.480   3.725   5.448
 7929SOL    HW224687   3.600   3.655   5.362
 7930SOL     OW24688   3.965   5.028   5.952
 7930SOL    HW124689   3.885   4.969   5.963
 7930SOL    HW224690   4.045   4.982   5.992
 7931SOL     OW24691   4.243   2.758   0.925
 7931SOL    HW124692   4.315   2.689   0.920
 7931SOL    HW224693   4.154   2.716   0.909
 7932SOL     OW24694   1.419   5.549   6.627
 7932SOL    HW124695   1.411   5.598   6.541
 7932SOL    HW224696   1.396   5.453   6.613
 7933SOL     OW24697   6.743   0.325   5.658
 7933SOL    HW124698   6.725   0.258   5.586
 7933SOL    HW224699   6.679   0.310   5.734
 7934SOL     OW24700   1.548   5.165   6.805
 7934SOL    HW124701   1.510   5.100   6.740
 7934SOL    HW224702   1.567   5.251   6.759
 7935SOL     OW24703   5.402   6.401   1.507
 7935SOL    HW124704   5.342   6.322   1.512
 7935SOL    HW224705   5.409   6.444   1.597
 7936SOL     OW24706   3.071   5.810   3.200
 7936SOL    HW124707   3.068   5.736   3.268
 7936SOL    HW224708   3.110   5.776   3.115
 7937SOL     OW24709   1.084   6.156   3.963
 7937SOL    HW124710   1.110   6.142   3.868
 7937SOL    HW224711   1.055   6.069   4.003
 7938SOL     OW24712   6.019   5.947   5.473
 7938SOL    HW124713   6.084   6.022   5.462
 7938SOL    HW224714   6.016   5.918   5.568
 7939SOL     OW24715   1.318   2.337   5.692
 7939SOL    HW124716   1.399   2.307   5.740
 7939SOL    HW224717   1.309   2.286   5.606
 7940SOL     OW24718   2.784   2.196   2.704
 7940SOL    HW124719   2.725   2.134   2.653
 7940SOL    HW224720   2.743   2.286   2.709
 7941SOL     OW24721   5.545   6.236   2.575
 7941SOL    HW124722   5.575   6.186   2.494
 7941SOL    HW224723   5.445   6.236   2.580
 7942SOL     OW24724   0.778   3.825   3.432
 7942SOL    HW124725   0.700   3.777   3.393
 7942SOL    HW224726   0.758   3.923   3.437
 7943SOL     OW24727   0.654   4.393   5.898
 7943SOL    HW124728   0.590   4.386   5.822
 7943SOL    HW224729   0.616   4.347   5.978
 7944SOL     OW24730   0.656   2.748   1.158
 7944SOL    HW124731   0.738   2.693   1.137
 7944SOL    HW224732   0.661   2.780   1.252
 7945SOL     OW24733   6.165   5.807   1.929
 7945SOL    HW124734   6.233   5.734   1.937
 7945SOL    HW224735   6.128   5.809   1.836
 7946SOL     OW24736   3.343   0.665   5.779
 7946SOL    HW124737   3.410   0.695   5.846
 7946SOL    HW224738   3.378   0.681   5.687
 7947SOL     OW24739   2.546   1.888   5.300
 7947SOL    HW124740   2.454   1.881   5.338
 7947SOL    HW224741   2.612   1.902   5.374
 7948SOL     OW24742   1.119   5.585   0.946
 7948SOL    HW124743   1.180   5.528   0.891
 7948SOL    HW224744   1.030   5.592   0.902
 7949SOL     OW24745   4.311   4.185   6.286
 7949SOL    HW124746   4.366   4.111   6.248
 7949SOL    HW224747   4.362   4.231   6.359
 7950SOL     OW24748   4.814   5.841   4.529
 7950SOL    HW124749   4.869   5.877   4.604
 7950SOL    HW224750   4.732   5.796   4.566
 7951SOL     OW24751   1.746   5.157   2.001
 7951SOL    HW124752   1.761   5.210   2.085
 7951SOL    HW224753   1.648   5.139   1.991
 7952SOL     OW24754   0.298   2.972   0.089
 7952SOL    HW124755   0.351   2.937   0.167
 7952SOL    HW224756   0.201   2.952   0.104
 7953SOL     OW24757   4.349   2.395   2.021
 7953SOL    HW124758   4.339   2.379   1.923
 7953SOL    HW224759   4.272   2.354   2.070
 7954SOL     OW24760   3.904   4.572   6.267
 7954SOL    HW124761   3.881   4.669   6.261
 7954SOL    HW224762   3.840   4.519   6.212
 7955SOL     OW24763   1.887   1.025   6.460
 7955SOL    HW124764   1.829   1.104   6.438
 7955SOL    HW224765   1.973   1.032   6.409
 7956SOL     OW24766   4.955   0.625   1.806
 7956SOL    HW124767   4.987   0.551   1.745
 7956SOL    HW224768   4.856   0.628   1.805
 7957SOL     OW24769   1.788   0.927   0.267
 7957SOL    HW124770   1.750   0.835   0.252
 7957SOL    HW224771   1.818   0.935   0.362
 7958SOL     OW24772   4.818   5.047   5.957
 7958SOL    HW124773   4.786   4.964   6.005
 7958SOL    HW224774   4.739   5.101   5.928
 7959SOL     OW24775   5.013   6.602   0.473
 7959SOL    HW124776   5.060   6.624   0.387
 7959SOL    HW224777   5.027   6.676   0.538
 7960SOL     OW24778   2.128   0.945   6.035
 7960SOL    HW124779   2.088   0.869   6.086
 7960SOL    HW224780   2.192   0.995   6.094
 7961SOL     OW24781   6.451   0.439   1.001
 7961SOL    HW124782   6.510   0.512   0.966
 7961SOL    HW224783   6.506   0.374   1.052
 7962SOL     OW24784   0.595   1.197   5.540
 7962SOL    HW124785   0.682   1.169   5.500
 7962SOL    HW224786   0.520   1.152   5.492
 7963SOL     OW24787   6.226   5.689   4.453
 7963SOL    HW124788   6.144   5.642   4.486
 7963SOL    HW224789   6.286   5.710   4.530
 7964SOL     OW24790   6.430   3.837   2.938
 7964SOL    HW124791   6.367   3.893   2.993
 7964SOL    HW224792   6.499   3.896   2.897
 7965SOL     OW24793   3.992   2.182   6.084
 7965SOL    HW124794   3.945   2.109   6.133
 7965SOL    HW224795   4.010   2.258   6.146
 7966SOL     OW24796   3.122   3.225   5.866
 7966SOL    HW124797   3.055   3.173   5.919
 7966SOL    HW224798   3.079   3.307   5.828
 7967SOL     OW24799   2.692   5.576   1.846
 7967SOL    HW124800   2.731   5.548   1.934
 7967SOL    HW224801   2.636   5.502   1.809
 7968SOL     OW24802   6.331   2.232   4.490
 7968SOL    HW124803   6.276   2.192   4.417
 7968SOL    HW224804   6.371   2.318   4.458
 7969SOL     OW24805   6.158   5.640   1.197
 7969SOL    HW124806   6.190   5.732   1.173
 7969SOL    HW224807   6.236   5.579   1.206
 7970SOL     OW24808   6.525   3.513   2.244
 7970SOL    HW124809   6.445   3.484   2.191
 7970SOL    HW224810   6.606   3.462   2.212
 7971SOL     OW24811   3.322   1.850   1.130
 7971SOL    HW124812   3.341   1.848   1.032
 7971SOL    HW224813   3.240   1.797   1.150
 7972SOL     OW24814   3.062   3.460   0.964
 7972SOL    HW124815   3.028   3.380   1.014
 7972SOL    HW224816   3.074   3.536   1.028
 7973SOL     OW24817   4.706   4.744   4.207
 7973SOL    HW124818   4.663   4.663   4.168
 7973SOL    HW224819   4.726   4.727   4.304
 7974SOL     OW24820   6.107   0.997   5.810
 7974SOL    HW124821   6.018   0.976   5.852
 7974SOL    HW224822   6.146   0.914   5.771
 7975SOL     OW24823   5.606   0.775   1.322
 7975SOL    HW124824   5.537   0.716   1.364
 7975SOL    HW224825   5.565   0.823   1.244
 7976SOL     OW24826   1.131   0.119   6.275
 7976SOL    HW124827   1.155   0.177   6.352
 7976SOL    HW224828   1.047   0.069   6.295
 7977SOL     OW24829   4.251   5.709   2.849
 7977SOL    HW124830   4.206   5.742   2.931
 7977SOL    HW224831   4.210   5.622   2.821
 7978SOL     OW24832   6.626   2.705   6.198
 7978SOL    HW124833   6.572   2.745   6.272
 7978SOL    HW224834   6.713   2.670   6.233
 7979SOL     OW24835   3.075   5.136   5.647
 7979SOL    HW124836   3.018   5.218   5.640
 7979SOL    HW224837   3.029   5.059   5.602
 7980SOL     OW24838   3.310   5.528   6.663
 7980SOL    HW124839   3.322   5.490   6.572
 7980SOL    HW224840   3.342   5.463   6.731
 7981SOL     OW24841   1.153   4.485   1.918
 7981SOL    HW124842   1.105   4.544   1.983
 7981SOL    HW224843   1.103   4.484   1.831
 7982SOL     OW24844   1.278   1.448   6.742
 7982SOL    HW124845   1.253   1.490   6.829
 7982SOL    HW224846   1.239   1.501   6.667
 7983SOL     OW24847   6.291   2.220   0.354
 7983SOL    HW124848   6.276   2.205   0.257
 7983SOL    HW224849   6.237   2.155   0.407
 7984SOL     OW24850   0.298   1.264   0.286
 7984SOL    HW124851   0.297   1.263   0.186
 7984SOL    HW224852   0.205   1.265   0.321
 7985SOL     OW24853   2.789   2.152   4.549
 7985SOL    HW124854   2.797   2.224   4.618
 7985SOL    HW224855   2.724   2.083   4.580
 7986SOL     OW24856   2.960   0.820   6.584
 7986SOL    HW124857   2.868   0.793   6.611
 7986SOL    HW224858   2.955   0.895   6.518
 7987SOL     OW24859   2.083   2.659   6.747
 7987SOL    HW124860   2.081   2.637   6.649
 7987SOL    HW224861   2.174   2.641   6.783
 7988SOL     OW24862   1.693   0.659   2.668
 7988SOL    HW124863   1.645   0.725   2.725
 7988SOL    HW224864   1.647   0.651   2.579
 7989SOL     OW24865   2.727   2.893   0.213
 7989SOL    HW124866   2.761   2.868   0.122
 7989SOL    HW224867   2.691   2.986   0.212
 7990SOL     OW24868   2.142   5.274   4.636
 7990SOL    HW124869   2.125   5.185   4.678
 7990SOL    HW224870   2.218   5.319   4.683
 7991SOL     OW24871   6.043   1.601   4.030
 7991SOL    HW124872   6.105   1.565   3.961
 7991SOL    HW224873   6.080   1.582   4.121
 7992SOL     OW24874   1.307   0.511   0.300
 7992SOL    HW124875   1.329   0.597   0.255
 7992SOL    HW224876   1.223   0.523   0.354
 7993SOL     OW24877   0.585   7.027   1.212
 7993SOL    HW124878   0.639   6.956   1.167
 7993SOL    HW224879   0.630   0.088   1.199
 7994SOL     OW24880   3.879   0.047   3.393
 7994SOL    HW124881   3.865   0.143   3.416
 7994SOL    HW224882   3.953   0.010   3.450
 7995SOL     OW24883   5.496   5.764   3.590
 7995SOL    HW124884   5.443   5.679   3.598
 7995SOL    HW224885   5.561   5.756   3.515
 7996SOL     OW24886   3.510   6.365   4.293
 7996SOL    HW124887   3.510   6.452   4.344
 7996SOL    HW224888   3.441   6.304   4.332
 7997SOL     OW24889   6.664   1.146   0.047
 7997SOL    HW124890   6.607   1.213   0.095
 7997SOL    HW224891   6.729   1.194   7.016
 7998SOL     OW24892   3.549   0.550   0.345
 7998SOL    HW124893   3.474   0.487   0.364
 7998SOL    HW224894   3.595   0.573   0.430
 7999SOL     OW24895   0.666   1.250   5.824
 7999SOL    HW124896   0.582   1.220   5.868
 7999SOL    HW224897   0.659   1.234   5.725
 8000SOL     OW24898   5.091   6.690   6.589
 8000SOL    HW124899   5.016   6.731   6.538
 8000SOL    HW224900   5.120   6.752   6.662
 8001SOL     OW24901   3.968   6.245   1.728
 8001SOL    HW124902   3.996   6.254   1.633
 8001SOL    HW224903   3.959   6.336   1.769
 8002SOL     OW24904   1.286   0.586   6.398
 8002SOL    HW124905   1.345   0.525   6.346
 8002SOL    HW224906   1.331   0.612   6.484
 8003SOL     OW24907   2.270   5.836   1.709
 8003SOL    HW124908   2.268   5.802   1.615
 8003SOL    HW224909   2.363   5.830   1.744
 8004SOL     OW24910   1.740   3.306   3.510
 8004SOL    HW124911   1.770   3.327   3.603
 8004SOL    HW224912   1.710   3.210   3.506
 8005SOL     OW24913   3.230   0.786   3.415
 8005SOL    HW124914   3.221   0.882   3.388
 8005SOL    HW224915   3.313   0.748   3.375
 8006SOL     OW24916   2.416   6.092   5.308
 8006SOL    HW124917   2.472   6.175   5.306
 8006SOL    HW224918   2.340   6.106   5.372
 8007SOL     OW24919   5.679   1.680   6.152
 8007SOL    HW124920   5.776   1.684   6.179
 8007SOL    HW224921   5.628   1.625   6.217
 8008SOL     OW24922   3.903   6.405   6.316
 8008SOL    HW124923   3.862   6.315   6.330
 8008SOL    HW224924   3.934   6.441   6.404
 8009SOL     OW24925   5.182   0.707   1.011
 8009SOL    HW124926   5.128   0.675   0.934
 8009SOL    HW224927   5.240   0.633   1.045
 8010SOL     OW24928   2.208   1.788   5.193
 8010SOL    HW124929   2.119   1.778   5.147
 8010SOL    HW224930   2.278   1.808   5.125
 8011SOL     OW24931   3.415   2.066   1.313
 8011SOL    HW124932   3.378   1.987   1.265
 8011SOL    HW224933   3.513   2.073   1.295
 8012SOL     OW24934   2.196   3.645   0.297
 8012SOL    HW124935   2.233   3.662   0.388
 8012SOL    HW224936   2.180   3.733   0.251
 8013SOL     OW24937   1.370   4.944   3.294
 8013SOL    HW124938   1.443   4.899   3.344
 8013SOL    HW224939   1.365   5.040   3.322
 8014SOL     OW24940   1.492   6.792   4.592
 8014SOL    HW124941   1.546   6.846   4.527
 8014SOL    HW224942   1.441   6.722   4.543
 8015SOL     OW24943   2.150   0.749   6.354
 8015SOL    HW124944   2.111   0.721   6.267
 8015SOL    HW224945   2.248   0.767   6.343
 8016SOL     OW24946   3.742   0.641   5.608
 8016SOL    HW124947   3.649   0.667   5.584
 8016SOL    HW224948   3.742   0.548   5.646
 8017SOL     OW24949   5.706   6.939   0.239
 8017SOL    HW124950   5.678   6.867   0.303
 8017SOL    HW224951   5.686   6.909   0.145
 8018SOL     OW24952   3.399   2.567   0.526
 8018SOL    HW124953   3.397   2.580   0.625
 8018SOL    HW224954   3.493   2.577   0.493
 8019SOL     OW24955   2.401   5.034   1.408
 8019SOL    HW124956   2.474   5.057   1.343
 8019SOL    HW224957   2.439   5.024   1.499
 8020SOL     OW24958   6.528   6.871   6.577
 8020SOL    HW124959   6.520   6.920   6.664
 8020SOL    HW224960   6.575   6.930   6.511
 8021SOL     OW24961   1.136   2.938   0.838
 8021SOL    HW124962   1.155   2.956   0.742
 8021SOL    HW224963   1.074   2.860   0.846
 8022SOL     OW24964   6.042   0.538   2.151
 8022SOL    HW124965   6.057   0.593   2.233
 8022SOL    HW224966   6.080   0.446   2.164
 8023SOL     OW24967   5.537   4.849   2.572
 8023SOL    HW124968   5.528   4.862   2.473
 8023SOL    HW224969   5.572   4.757   2.591
 8024SOL     OW24970   1.306   5.031   6.331
 8024SOL    HW124971   1.337   4.940   6.305
 8024SOL    HW224972   1.348   5.099   6.271
 8025SOL     OW24973   2.307   5.482   1.027
 8025SOL    HW124974   2.390   5.526   0.992
 8025SOL    HW224975   2.317   5.383   1.023
 8026SOL     OW24976   6.934   4.115   1.015
 8026SOL    HW124977   7.019   4.129   1.066
 8026SOL    HW224978   6.871   4.190   1.035
 8027SOL     OW24979   3.826   0.235   5.276
 8027SOL    HW124980   3.740   0.194   5.306
 8027SOL    HW224981   3.856   0.190   5.191
 8028SOL     OW24982   3.872   5.191   4.604
 8028SOL    HW124983   3.803   5.225   4.540
 8028SOL    HW224984   3.891   5.095   4.585
 8029SOL     OW24985   5.354   2.931   1.996
 8029SOL    HW124986   5.418   2.972   1.931
 8029SOL    HW224987   5.265   2.919   1.952
 8030SOL     OW24988   5.660   4.930   0.016
 8030SOL    HW124989   5.666   4.860   6.973
 8030SOL    HW224990   5.578   4.985   0.001
 8031SOL     OW24991   6.761   6.282   2.429
 8031SOL    HW124992   6.797   6.349   2.494
 8031SOL    HW224993   6.827   6.207   2.419
 8032SOL     OW24994   5.986   4.213   2.045
 8032SOL    HW124995   5.930   4.227   1.964
 8032SOL    HW224996   6.083   4.212   2.019
 8033SOL     OW24997   4.300   2.628   0.058
 8033SOL    HW124998   4.246   2.605   0.139
 8033SOL    HW224999   4.303   2.550   7.024
 8034SOL     OW25000   4.652   0.052   5.349
 8034SOL    HW125001   4.646   0.137   5.296
 8034SOL    HW225002   4.639   0.072   5.446
 8035SOL     OW25003   5.440   1.860   2.071
 8035SOL    HW125004   5.355   1.911   2.062
 8035SOL    HW225005   5.440   1.808   2.156
 8036SOL     OW25006   6.497   3.767   4.251
 8036SOL    HW125007   6.581   3.771   4.197
 8036SOL    HW225008   6.469   3.859   4.276
 8037SOL     OW25009   2.556   3.436   6.688
 8037SOL    HW125010   2.495   3.397   6.758
 8037SOL    HW225011   2.629   3.371   6.669
 8038SOL     OW25012   4.396   7.023   2.410
 8038SOL    HW125013   4.471   6.997   2.349
 8038SOL    HW225014   4.320   0.030   2.356
 8039SOL     OW25015   6.733   1.571   5.024
 8039SOL    HW125016   6.712   1.486   5.073
 8039SOL    HW225017   6.796   1.551   4.948
 8040SOL     OW25018   1.436   5.658   0.250
 8040SOL    HW125019   1.435   5.757   0.234
 8040SOL    HW225020   1.404   5.639   0.343
 8041SOL     OW25021   3.136   0.862   2.901
 8041SOL    HW125022   3.046   0.865   2.943
 8041SOL    HW225023   3.171   0.956   2.890
 8042SOL     OW25024   3.860   3.248   5.285
 8042SOL    HW125025   3.815   3.234   5.373
 8042SOL    HW225026   3.792   3.273   5.216
 8043SOL     OW25027   3.580   5.348   0.771
 8043SOL    HW125028   3.616   5.329   0.680
 8043SOL    HW225029   3.632   5.421   0.814
 8044SOL     OW25030   4.279   3.225   1.010
 8044SOL    HW125031   4.200   3.253   0.957
 8044SOL    HW225032   4.290   3.286   1.088
 8045SOL     OW25033   6.147   2.307   2.538
 8045SOL    HW125034   6.167   2.226   2.484
 8045SOL    HW225035   6.056   2.342   2.515
 8046SOL     OW25036   1.152   4.499   2.717
 8046SOL    HW125037   1.235   4.458   2.756
 8046SOL    HW225038   1.103   4.430   2.665
 8047SOL     OW25039   3.777   5.812   6.769
 8047SOL    HW125040   3.678   5.815   6.787
 8047SOL    HW225041   3.796   5.859   6.683
 8048SOL     OW25042   4.307   1.686   0.020
 8048SOL    HW125043   4.342   1.617   0.084
 8048SOL    HW225044   4.207   1.685   0.021
 8049SOL     OW25045   1.027   6.900   0.432
 8049SOL    HW125046   0.929   6.908   0.453
 8049SOL    HW225047   1.041   6.911   0.334
 8050SOL     OW25048   1.799   3.376   3.774
 8050SOL    HW125049   1.854   3.300   3.809
 8050SOL    HW225050   1.823   3.460   3.824
 8051SOL     OW25051   4.948   6.376   4.812
 8051SOL    HW125052   4.936   6.472   4.836
 8051SOL    HW225053   4.922   6.319   4.889
 8052SOL     OW25054   2.649   1.833   1.466
 8052SOL    HW125055   2.664   1.905   1.534
 8052SOL    HW225056   2.680   1.864   1.377
 8053SOL     OW25057   3.583   2.889   4.795
 8053SOL    HW125058   3.658   2.930   4.847
 8053SOL    HW225059   3.585   2.790   4.805
 8054SOL     OW25060   0.029   4.235   4.890
 8054SOL    HW125061   0.019   4.310   4.825
 8054SOL    HW225062   6.972   4.222   4.940
 8055SOL     OW25063   6.809   0.767   5.369
 8055SOL    HW125064   6.766   0.694   5.423
 8055SOL    HW225065   6.743   0.806   5.306
 8056SOL     OW25066   2.808   0.970   4.765
 8056SOL    HW125067   2.758   1.049   4.730
 8056SOL    HW225068   2.817   0.901   4.693
 8057SOL     OW25069   2.804   2.269   3.374
 8057SOL    HW125070   2.761   2.179   3.379
 8057SOL    HW225071   2.874   2.275   3.446
 8058SOL     OW25072   3.485   6.937   3.235
 8058SOL    HW125073   3.454   6.959   3.327
 8058SOL    HW225074   3.585   6.937   3.233
 8059SOL     OW25075   2.429   1.528   4.674
 8059SOL    HW125076   2.525   1.546   4.652
 8059SOL    HW225077   2.372   1.554   4.596
 8060SOL     OW25078   0.214   2.177   6.465
 8060SOL    HW125079   0.242   2.265   6.428
 8060SOL    HW225080   0.288   2.111   6.456
 8061SOL     OW25081   0.434   0.382   2.843
 8061SOL    HW125082   0.458   0.367   2.747
 8061SOL    HW225083   0.349   0.334   2.864
 8062SOL     OW25084   3.843   4.879   3.736
 8062SOL    HW125085   3.917   4.834   3.686
 8062SOL    HW225086   3.775   4.913   3.672
 8063SOL     OW25087   2.390   1.729   2.977
 8063SOL    HW125088   2.345   1.804   3.026
 8063SOL    HW225089   2.358   1.642   3.015
 8064SOL     OW25090   5.840   2.577   1.033
 8064SOL    HW125091   5.907   2.507   1.007
 8064SOL    HW225092   5.878   2.668   1.014
 8065SOL     OW25093   2.953   5.868   4.026
 8065SOL    HW125094   2.873   5.883   3.967
 8065SOL    HW225095   3.037   5.877   3.973
 8066SOL     OW25096   0.009   0.628   5.496
 8066SOL    HW125097   0.021   0.545   5.441
 8066SOL    HW225098   7.023   0.706   5.435
 8067SOL     OW25099   5.134   2.783   2.879
 8067SOL    HW125100   5.086   2.813   2.796
 8067SOL    HW225101   5.230   2.768   2.857
 8068SOL     OW25102   6.912   4.415   1.649
 8068SOL    HW125103   6.865   4.449   1.731
 8068SOL    HW225104   6.941   4.492   1.593
 8069SOL     OW25105   1.856   5.214   1.169
 8069SOL    HW125106   1.804   5.255   1.094
 8069SOL    HW225107   1.952   5.204   1.141
 8070SOL     OW25108   4.209   3.420   0.718
 8070SOL    HW125109   4.213   3.466   0.629
 8070SOL    HW225110   4.239   3.484   0.790
 8071SOL     OW25111   2.930   6.592   5.419
 8071SOL    HW125112   2.966   6.534   5.346
 8071SOL    HW225113   2.839   6.559   5.445
 8072SOL     OW25114   3.512   1.825   0.807
 8072SOL    HW125115   3.428   1.873   0.784
 8072SOL    HW225116   3.591   1.883   0.785
 8073SOL     OW25117   3.808   6.288   5.403
 8073SOL    HW125118   3.820   6.203   5.351
 8073SOL    HW225119   3.776   6.266   5.495
 8074SOL     OW25120   2.976   2.804   0.731
 8074SOL    HW125121   2.994   2.902   0.729
 8074SOL    HW225122   3.054   2.757   0.773
 8075SOL     OW25123   6.838   6.749   0.757
 8075SOL    HW125124   6.843   6.809   0.677
 8075SOL    HW225125   6.751   6.762   0.804
 8076SOL     OW25126   5.935   0.084   5.720
 8076SOL    HW125127   5.879   0.032   5.784
 8076SOL    HW225128   5.940   0.180   5.750
 8077SOL     OW25129   3.673   6.173   2.453
 8077SOL    HW125130   3.742   6.246   2.453
 8077SOL    HW225131   3.688   6.114   2.532
 8078SOL     OW25132   0.607   1.899   0.896
 8078SOL    HW125133   0.559   1.982   0.925
 8078SOL    HW225134   0.694   1.923   0.855
 8079SOL     OW25135   6.615   1.623   3.536
 8079SOL    HW125136   6.591   1.679   3.456
 8079SOL    HW225137   6.630   1.528   3.507
 8080SOL     OW25138   0.983   2.267   2.299
 8080SOL    HW125139   1.020   2.344   2.248
 8080SOL    HW225140   1.055   2.199   2.314
 8081SOL     OW25141   6.463   5.334   6.565
 8081SOL    HW125142   6.466   5.434   6.566
 8081SOL    HW225143   6.550   5.299   6.530
 8082SOL     OW25144   3.751   1.003   2.163
 8082SOL    HW125145   3.694   1.068   2.113
 8082SOL    HW225146   3.774   1.041   2.252
 8083SOL     OW25147   4.751   2.778   3.605
 8083SOL    HW125148   4.785   2.852   3.548
 8083SOL    HW225149   4.745   2.809   3.700
 8084SOL     OW25150   3.478   7.024   6.644
 8084SOL    HW125151   3.547   7.002   6.713
 8084SOL    HW225152   3.506   0.078   6.593
 8085SOL     OW25153   5.814   6.211   2.163
 8085SOL    HW125154   5.729   6.259   2.185
 8085SOL    HW225155   5.882   6.277   2.132
 8086SOL     OW25156   6.610   0.884   2.164
 8086SOL    HW125157   6.568   0.823   2.097
 8086SOL    HW225158   6.591   0.851   2.256
 8087SOL     OW25159   1.972   7.022   6.974
 8087SOL    HW125160   1.899   0.048   6.931
 8087SOL    HW225161   1.933   6.962   0.016
 8088SOL     OW25162   5.783   0.876   1.497
 8088SOL    HW125163   5.838   0.957   1.475
 8088SOL    HW225164   5.719   0.859   1.422
 8089SOL     OW25165   5.658   2.739   0.398
 8089SOL    HW125166   5.747   2.785   0.403
 8089SOL    HW225167   5.616   2.737   0.489
 8090SOL     OW25168   3.614   1.201   6.554
 8090SOL    HW125169   3.674   1.258   6.609
 8090SOL    HW225170   3.524   1.245   6.547
 8091SOL     OW25171   1.791   3.861   4.868
 8091SOL    HW125172   1.888   3.838   4.885
 8091SOL    HW225173   1.742   3.777   4.844
 8092SOL     OW25174   5.363   1.779   5.642
 8092SOL    HW125175   5.394   1.808   5.732
 8092SOL    HW225176   5.326   1.687   5.647
 8093SOL     OW25177   2.779   5.335   3.257
 8093SOL    HW125178   2.732   5.287   3.331
 8093SOL    HW225179   2.875   5.306   3.255
 8094SOL     OW25180   0.063   3.300   4.752
 8094SOL    HW125181   0.131   3.322   4.822
 8094SOL    HW225182   0.105   3.309   4.661
 8095SOL     OW25183   0.798   4.595   4.836
 8095SOL    HW125184   0.887   4.552   4.853
 8095SOL    HW225185   0.781   4.666   4.904
 8096SOL     OW25186   2.348   0.208   2.762
 8096SOL    HW125187   2.253   0.180   2.773
 8096SOL    HW225188   2.375   0.266   2.839
 8097SOL     OW25189   4.476   7.026   5.021
 8097SOL    HW125190   4.540   6.955   5.049
 8097SOL    HW225191   4.392   7.020   5.076
 8098SOL     OW25192   1.640   6.350   3.362
 8098SOL    HW125193   1.596   6.297   3.289
 8098SOL    HW225194   1.733   6.317   3.376
 8099SOL     OW25195   4.100   6.005   4.238
 8099SOL    HW125196   4.015   6.031   4.282
 8099SOL    HW225197   4.113   6.059   4.155
 8100SOL     OW25198   0.080   0.252   0.021
 8100SOL    HW125199   0.045   0.161   0.044
 8100SOL    HW225200   0.180   0.249   0.015
 8101SOL     OW25201   1.673   5.735   1.471
 8101SOL    HW125202   1.605   5.747   1.398
 8101SOL    HW225203   1.629   5.751   1.560
 8102SOL     OW25204   0.576   3.862   3.691
 8102SOL    HW125205   0.612   3.956   3.691
 8102SOL    HW225206   0.627   3.808   3.758
 8103SOL     OW25207   2.656   6.810   1.532
 8103SOL    HW125208   2.645   6.831   1.629
 8103SOL    HW225209   2.566   6.807   1.488
 8104SOL     OW25210   1.788   0.537   6.288
 8104SOL    HW125211   1.840   0.619   6.311
 8104SOL    HW225212   1.795   0.470   6.363
 8105SOL     OW25213   0.156   3.524   3.130
 8105SOL    HW125214   0.157   3.447   3.194
 8105SOL    HW225215   0.092   3.593   3.162
 8106SOL     OW25216   3.292   5.864   3.369
 8106SOL    HW125217   3.196   5.873   3.343
 8106SOL    HW225218   3.341   5.813   3.299
 8107SOL     OW25219   0.526   4.885   4.058
 8107SOL    HW125220   0.430   4.903   4.037
 8107SOL    HW225221   0.534   4.793   4.098
 8108SOL     OW25222   6.324   3.018   6.337
 8108SOL    HW125223   6.400   2.976   6.387
 8108SOL    HW225224   6.246   3.029   6.399
 8109SOL     OW25225   6.559   3.900   6.108
 8109SOL    HW125226   6.613   3.816   6.113
 8109SOL    HW225227   6.462   3.879   6.117
 8110SOL     OW25228   3.985   5.998   2.434
 8110SOL    HW125229   3.939   6.086   2.425
 8110SOL    HW225230   3.986   5.970   2.530
 8111SOL     OW25231   4.939   1.008   4.512
 8111SOL    HW125232   4.900   1.050   4.594
 8111SOL    HW225233   5.014   1.065   4.479
 8112SOL     OW25234   2.226   2.916   4.519
 8112SOL    HW125235   2.204   3.006   4.479
 8112SOL    HW225236   2.255   2.928   4.614
 8113SOL     OW25237   1.301   3.325   0.421
 8113SOL    HW125238   1.241   3.315   0.500
 8113SOL    HW225239   1.276   3.258   0.351
 8114SOL     OW25240   1.629   3.998   2.894
 8114SOL    HW125241   1.609   3.918   2.951
 8114SOL    HW225242   1.559   4.068   2.910
 8115SOL     OW25243   3.853   0.387   6.170
 8115SOL    HW125244   3.785   0.322   6.136
 8115SOL    HW225245   3.917   0.340   6.231
 8116SOL     OW25246   4.475   4.741   0.469
 8116SOL    HW125247   4.454   4.832   0.505
 8116SOL    HW225248   4.502   4.681   0.545
 8117SOL     OW25249   2.022   0.031   3.528
 8117SOL    HW125250   2.068   0.064   3.445
 8117SOL    HW225251   2.066   0.071   3.608
 8118SOL     OW25252   5.287   4.255   6.427
 8118SOL    HW125253   5.270   4.340   6.477
 8118SOL    HW225254   5.272   4.177   6.488
 8119SOL     OW25255   5.431   5.532   6.560
 8119SOL    HW125256   5.528   5.526   6.585
 8119SOL    HW225257   5.423   5.562   6.465
 8120SOL     OW25258   2.894   5.052   1.270
 8120SOL    HW125259   2.896   4.959   1.233
 8120SOL    HW225260   2.855   5.114   1.202
 8121SOL     OW25261   6.947   5.174   1.949
 8121SOL    HW125262   6.886   5.122   2.008
 8121SOL    HW225263   6.906   5.264   1.930
 8122SOL     OW25264   6.862   4.771   3.703
 8122SOL    HW125265   6.817   4.684   3.685
 8122SOL    HW225266   6.796   4.846   3.694
 8123SOL     OW25267   6.688   1.880   6.377
 8123SOL    HW125268   6.700   1.958   6.439
 8123SOL    HW225269   6.610   1.826   6.407
 8124SOL     OW25270   4.978   6.192   1.625
 8124SOL    HW125271   4.968   6.269   1.688
 8124SOL    HW225272   4.924   6.115   1.659
 8125SOL     OW25273   1.681   1.574   2.783
 8125SOL    HW125274   1.668   1.492   2.838
 8125SOL    HW225275   1.778   1.600   2.783
 8126SOL     OW25276   5.213   4.097   2.731
 8126SOL    HW125277   5.172   4.180   2.693
 8126SOL    HW225278   5.272   4.054   2.663
 8127SOL     OW25279   2.572   3.878   6.227
 8127SOL    HW125280   2.636   3.801   6.227
 8127SOL    HW225281   2.563   3.913   6.320
 8128SOL     OW25282   2.944   2.211   2.270
 8128SOL    HW125283   2.960   2.252   2.180
 8128SOL    HW225284   3.028   2.168   2.302
 8129SOL     OW25285   3.837   1.474   6.003
 8129SOL    HW125286   3.782   1.532   5.943
 8129SOL    HW225287   3.853   1.522   6.090
 8130SOL     OW25288   0.500   4.089   6.910
 8130SOL    HW125289   0.556   4.066   6.831
 8130SOL    HW225290   0.536   4.172   6.954
 8131SOL     OW25291   2.467   2.362   1.409
 8131SOL    HW125292   2.509   2.338   1.321
 8131SOL    HW225293   2.368   2.371   1.396
 8132SOL     OW25294   5.909   6.731   5.817
 8132SOL    HW125295   5.855   6.664   5.869
 8132SOL    HW225296   5.891   6.823   5.853
 8133SOL     OW25297   3.559   5.446   2.175
 8133SOL    HW125298   3.514   5.513   2.116
 8133SOL    HW225299   3.587   5.490   2.261
 8134SOL     OW25300   6.798   2.386   5.851
 8134SOL    HW125301   6.777   2.344   5.763
 8134SOL    HW225302   6.776   2.321   5.925
 8135SOL     OW25303   2.933   6.931   1.332
 8135SOL    HW125304   2.871   7.002   1.301
 8135SOL    HW225305   2.928   6.923   1.432
 8136SOL     OW25306   4.338   6.136   2.920
 8136SOL    HW125307   4.351   6.039   2.899
 8136SOL    HW225308   4.241   6.154   2.937
 8137SOL     OW25309   3.474   1.631   5.182
 8137SOL    HW125310   3.526   1.619   5.097
 8137SOL    HW225311   3.537   1.644   5.258
 8138SOL     OW25312   5.116   0.919   0.487
 8138SOL    HW125313   5.094   0.904   0.584
 8138SOL    HW225314   5.034   0.905   0.432
 8139SOL     OW25315   0.201   0.750   1.805
 8139SOL    HW125316   0.215   0.658   1.769
 8139SOL    HW225317   0.242   0.757   1.896
 8140SOL     OW25318   5.694   0.558   6.671
 8140SOL    HW125319   5.661   0.491   6.737
 8140SOL    HW225320   5.675   0.527   6.578
 8141SOL     OW25321   4.576   5.779   4.665
 8141SOL    HW125322   4.479   5.799   4.650
 8141SOL    HW225323   4.588   5.741   4.757
 8142SOL     OW25324   0.158   5.609   0.074
 8142SOL    HW125325   0.232   5.637   0.136
 8142SOL    HW225326   0.179   5.518   0.038
 8143SOL     OW25327   5.902   4.096   1.038
 8143SOL    HW125328   5.844   4.033   1.089
 8143SOL    HW225329   5.929   4.172   1.098
 8144SOL     OW25330   6.114   6.303   6.638
 8144SOL    HW125331   6.068   6.251   6.567
 8144SOL    HW225332   6.193   6.252   6.671
 8145SOL     OW25333   5.680   5.908   1.826
 8145SOL    HW125334   5.616   5.985   1.824
 8145SOL    HW225335   5.667   5.856   1.910
 8146SOL     OW25336   3.792   1.107   4.494
 8146SOL    HW125337   3.782   1.195   4.540
 8146SOL    HW225338   3.753   1.113   4.402
 8147SOL     OW25339   5.961   1.893   1.580
 8147SOL    HW125340   5.984   1.796   1.566
 8147SOL    HW225341   5.895   1.922   1.511
 8148SOL     OW25342   4.896   4.807   0.761
 8148SOL    HW125343   4.902   4.732   0.827
 8148SOL    HW225344   4.873   4.892   0.809
 8149SOL     OW25345   2.517   6.095   1.911
 8149SOL    HW125346   2.497   6.144   1.996
 8149SOL    HW225347   2.437   6.098   1.851
 8150SOL     OW25348   1.064   4.135   0.336
 8150SOL    HW125349   1.152   4.125   0.383
 8150SOL    HW225350   0.990   4.126   0.403
 8151SOL     OW25351   6.451   2.076   1.289
 8151SOL    HW125352   6.390   1.998   1.303
 8151SOL    HW225353   6.490   2.104   1.376
 8152SOL     OW25354   0.373   1.603   2.324
 8152SOL    HW125355   0.362   1.576   2.420
 8152SOL    HW225356   0.287   1.588   2.276
 8153SOL     OW25357   3.594   0.196   3.325
 8153SOL    HW125358   3.663   0.138   3.282
 8153SOL    HW225359   3.567   0.268   3.262
 8154SOL     OW25360   2.931   5.569   3.380
 8154SOL    HW125361   2.847   5.525   3.412
 8154SOL    HW225362   2.927   5.579   3.281
 8155SOL     OW25363   2.258   3.890   1.852
 8155SOL    HW125364   2.283   3.836   1.772
 8155SOL    HW225365   2.331   3.955   1.873
 8156SOL     OW25366   5.183   6.720   0.297
 8156SOL    HW125367   5.164   6.818   0.304
 8156SOL    HW225368   5.204   6.696   0.203
 8157SOL     OW25369   6.853   5.355   6.570
 8157SOL    HW125370   6.837   5.322   6.663
 8157SOL    HW225371   6.880   5.452   6.574
 8158SOL     OW25372   6.032   5.334   1.351
 8158SOL    HW125373   5.939   5.315   1.318
 8158SOL    HW225374   6.095   5.336   1.273
 8159SOL     OW25375   2.760   6.440   2.465
 8159SOL    HW125376   2.720   6.363   2.416
 8159SOL    HW225377   2.725   6.442   2.559
 8160SOL     OW25378   4.680   1.167   2.823
 8160SOL    HW125379   4.682   1.242   2.889
 8160SOL    HW225380   4.762   1.111   2.834
 8161SOL     OW25381   5.284   1.419   6.715
 8161SOL    HW125382   5.321   1.329   6.693
 8161SOL    HW225383   5.188   1.424   6.685
 8162SOL     OW25384   6.110   6.580   6.081
 8162SOL    HW125385   6.204   6.557   6.103
 8162SOL    HW225386   6.102   6.679   6.069
 8163SOL     OW25387   2.872   3.845   5.169
 8163SOL    HW125388   2.926   3.907   5.225
 8163SOL    HW225389   2.861   3.758   5.216
 8164SOL     OW25390   5.716   3.183   0.607
 8164SOL    HW125391   5.726   3.108   0.541
 8164SOL    HW225392   5.744   3.269   0.564
 8165SOL     OW25393   0.636   5.395   0.040
 8165SOL    HW125394   0.684   5.316   0.001
 8165SOL    HW225395   0.569   5.428   7.001
 8166SOL     OW25396   2.112   0.302   2.148
 8166SOL    HW125397   2.034   0.256   2.188
 8166SOL    HW225398   2.197   0.257   2.177
 8167SOL     OW25399   6.061   0.464   4.651
 8167SOL    HW125400   6.101   0.544   4.695
 8167SOL    HW225401   6.130   0.420   4.593
 8168SOL     OW25402   2.732   1.862   3.630
 8168SOL    HW125403   2.740   1.771   3.590
 8168SOL    HW225404   2.654   1.910   3.589
 8169SOL     OW25405   5.151   2.665   1.557
 8169SOL    HW125406   5.066   2.642   1.604
 8169SOL    HW225407   5.193   2.583   1.519
 8170SOL     OW25408   1.681   5.608   2.953
 8170SOL    HW125409   1.599   5.561   2.986
 8170SOL    HW225410   1.758   5.544   2.955
 8171SOL     OW25411   1.388   1.299   0.008
 8171SOL    HW125412   1.455   1.342   6.975
 8171SOL    HW225413   1.387   1.346   0.096
 8172SOL     OW25414   0.975   1.062   2.319
 8172SOL    HW125415   1.050   1.028   2.377
 8172SOL    HW225416   1.001   1.151   2.281
 8173SOL     OW25417   3.978   1.640   1.186
 8173SOL    HW125418   3.960   1.687   1.272
 8173SOL    HW225419   4.051   1.688   1.137
 8174SOL     OW25420   5.552   2.579   0.980
 8174SOL    HW125421   5.543   2.498   0.922
 8174SOL    HW225422   5.648   2.593   1.003
 8175SOL     OW25423   0.405   3.418   6.160
 8175SOL    HW125424   0.332   3.352   6.144
 8175SOL    HW225425   0.477   3.406   6.091
 8176SOL     OW25426   2.348   5.321   2.297
 8176SOL    HW125427   2.382   5.313   2.203
 8176SOL    HW225428   2.316   5.232   2.328
 8177SOL     OW25429   2.447   5.827   4.015
 8177SOL    HW125430   2.543   5.807   3.999
 8177SOL    HW225431   2.413   5.770   4.090
 8178SOL     OW25432   2.532   6.265   6.520
 8178SOL    HW125433   2.466   6.314   6.464
 8178SOL    HW225434   2.516   6.287   6.617
 8179SOL     OW25435   3.939   2.288   6.363
 8179SOL    HW125436   3.849   2.291   6.321
 8179SOL    HW225437   3.936   2.333   6.453
 8180SOL     OW25438   6.858   0.361   4.442
 8180SOL    HW125439   6.892   0.296   4.511
 8180SOL    HW225440   6.924   0.370   4.368
 8181SOL     OW25441   2.366   2.019   1.959
 8181SOL    HW125442   2.438   2.007   1.891
 8181SOL    HW225443   2.315   2.103   1.940
 8182SOL     OW25444   3.525   1.910   6.856
 8182SOL    HW125445   3.502   1.933   6.950
 8182SOL    HW225446   3.624   1.920   6.842
 8183SOL     OW25447   0.558   2.235   4.715
 8183SOL    HW125448   0.559   2.321   4.664
 8183SOL    HW225449   0.646   2.188   4.704
 8184SOL     OW25450   4.873   1.499   5.776
 8184SOL    HW125451   4.908   1.543   5.693
 8184SOL    HW225452   4.853   1.569   5.845
 8185SOL     OW25453   2.862   6.638   0.566
 8185SOL    HW125454   2.882   6.736   0.571
 8185SOL    HW225455   2.773   6.620   0.609
 8186SOL     OW25456   3.653   5.427   6.522
 8186SOL    HW125457   3.578   5.413   6.587
 8186SOL    HW225458   3.619   5.416   6.428
 8187SOL     OW25459   1.784   2.226   5.637
 8187SOL    HW125460   1.696   2.206   5.680
 8187SOL    HW225461   1.792   2.324   5.622
 8188SOL     OW25462   5.353   2.209   2.286
 8188SOL    HW125463   5.428   2.145   2.303
 8188SOL    HW225464   5.385   2.303   2.303
 8189SOL     OW25465   5.063   4.616   2.114
 8189SOL    HW125466   5.078   4.691   2.179
 8189SOL    HW225467   5.051   4.654   2.022
 8190SOL     OW25468   4.953   5.613   4.444
 8190SOL    HW125469   5.008   5.619   4.361
 8190SOL    HW225470   4.939   5.705   4.481
 8191SOL     OW25471   3.032   5.277   3.608
 8191SOL    HW125472   3.086   5.288   3.692
 8191SOL    HW225473   2.969   5.200   3.619
 8192SOL     OW25474   3.756   5.469   0.044
 8192SOL    HW125475   3.852   5.498   0.046
 8192SOL    HW225476   3.698   5.550   0.047
 8193SOL     OW25477   6.815   7.012   4.111
 8193SOL    HW125478   6.810   0.025   4.201
 8193SOL    HW225479   6.903   0.007   4.068
 8194SOL     OW25480   6.055   2.412   0.956
 8194SOL    HW125481   6.144   2.387   0.920
 8194SOL    HW225482   5.999   2.330   0.968
 8195SOL     OW25483   0.621   0.406   0.438
 8195SOL    HW125484   0.559   0.378   0.364
 8195SOL    HW225485   0.709   0.360   0.427
 8196SOL     OW25486   3.065   0.394   5.580
 8196SOL    HW125487   3.133   0.347   5.635
 8196SOL    HW225488   3.033   0.476   5.629
 8197SOL     OW25489   4.422   1.368   5.617
 8197SOL    HW125490   4.353   1.380   5.546
 8197SOL    HW225491   4.449   1.458   5.651
 8198SOL     OW25492   2.648   6.513   3.029
 8198SOL    HW125493   2.568   6.553   2.984
 8198SOL    HW225494   2.639   6.413   3.030
 8199SOL     OW25495   6.898   3.412   0.347
 8199SOL    HW125496   6.957   3.395   0.426
 8199SOL    HW225497   6.833   3.337   0.338
 8200SOL     OW25498   4.851   4.131   1.371
 8200SOL    HW125499   4.809   4.040   1.370
 8200SOL    HW225500   4.823   4.179   1.454
 8201SOL     OW25501   5.135   0.817   4.631
 8201SOL    HW125502   5.077   0.899   4.633
 8201SOL    HW225503   5.134   0.778   4.539
 8202SOL     OW25504   0.838   5.824   4.086
 8202SOL    HW125505   0.792   5.893   4.028
 8202SOL    HW225506   0.877   5.753   4.028
 8203SOL     OW25507   4.362   3.081   0.148
 8203SOL    HW125508   4.378   3.180   0.154
 8203SOL    HW225509   4.341   3.057   0.053
 8204SOL     OW25510   3.383   5.485   1.104
 8204SOL    HW125511   3.410   5.574   1.138
 8204SOL    HW225512   3.462   5.438   1.065
 8205SOL     OW25513   6.792   4.554   1.847
 8205SOL    HW125514   6.782   4.485   1.917
 8205SOL    HW225515   6.706   4.565   1.797
 8206SOL     OW25516   3.267   2.516   5.597
 8206SOL    HW125517   3.347   2.474   5.554
 8206SOL    HW225518   3.184   2.484   5.551
 8207SOL     OW25519   3.758   4.516   5.539
 8207SOL    HW125520   3.777   4.476   5.450
 8207SOL    HW225521   3.828   4.583   5.562
 8208SOL     OW25522   2.588   6.716   1.212
 8208SOL    HW125523   2.555   6.737   1.120
 8208SOL    HW225524   2.617   6.800   1.257
 8209SOL     OW25525   0.805   1.888   5.145
 8209SOL    HW125526   0.751   1.889   5.229
 8209SOL    HW225527   0.778   1.964   5.086
 8210SOL     OW25528   3.161   0.715   0.806
 8210SOL    HW125529   3.170   0.619   0.779
 8210SOL    HW225530   3.113   0.766   0.735
 8211SOL     OW25531   3.701   4.124   3.752
 8211SOL    HW125532   3.646   4.182   3.692
 8211SOL    HW225533   3.670   4.136   3.846
 8212SOL     OW25534   3.223   0.992   0.877
 8212SOL    HW125535   3.195   0.902   0.845
 8212SOL    HW225536   3.262   0.984   0.969
 8213SOL     OW25537   5.031   4.643   3.170
 8213SOL    HW125538   5.050   4.628   3.267
 8213SOL    HW225539   5.117   4.641   3.118
 8214SOL     OW25540   2.038   6.093   3.852
 8214SOL    HW125541   2.014   6.116   3.946
 8214SOL    HW225542   2.102   6.016   3.852
 8215SOL     OW25543   4.417   5.044   0.096
 8215SOL    HW125544   4.454   5.111   0.161
 8215SOL    HW225545   4.332   5.078   0.058
 8216SOL     OW25546   5.084   6.997   3.038
 8216SOL    HW125547   5.064   6.906   3.076
 8216SOL    HW225548   5.007   0.031   3.057
 8217SOL     OW25549   2.257   4.309   2.046
 8217SOL    HW125550   2.302   4.310   2.135
 8217SOL    HW225551   2.310   4.253   1.982
 8218SOL     OW25552   1.973   0.191   3.978
 8218SOL    HW125553   1.942   0.284   4.000
 8218SOL    HW225554   1.967   0.177   3.879
 8219SOL     OW25555   3.315   4.046   0.850
 8219SOL    HW125556   3.245   3.993   0.897
 8219SOL    HW225557   3.401   3.996   0.851
 8220SOL     OW25558   3.470   4.235   5.247
 8220SOL    HW125559   3.464   4.316   5.306
 8220SOL    HW225560   3.460   4.153   5.302
 8221SOL     OW25561   5.908   4.308   3.354
 8221SOL    HW125562   5.870   4.269   3.270
 8221SOL    HW225563   5.974   4.244   3.393
 8222SOL     OW25564   5.666   1.912   0.822
 8222SOL    HW125565   5.604   1.950   0.891
 8222SOL    HW225566   5.637   1.819   0.800
 8223SOL     OW25567   0.452   5.123   5.898
 8223SOL    HW125568   0.498   5.202   5.858
 8223SOL    HW225569   0.512   5.043   5.892
 8224SOL     OW25570   4.741   1.752   1.502
 8224SOL    HW125571   4.705   1.664   1.531
 8224SOL    HW225572   4.829   1.768   1.547
 8225SOL     OW25573   3.712   0.710   1.142
 8225SOL    HW125574   3.678   0.788   1.088
 8225SOL    HW225575   3.707   0.627   1.086
 8226SOL     OW25576   2.945   0.747   0.495
 8226SOL    HW125577   2.905   0.673   0.549
 8226SOL    HW225578   3.040   0.726   0.476
 8227SOL     OW25579   0.139   1.394   2.367
 8227SOL    HW125580   0.152   1.460   2.442
 8227SOL    HW225581   0.158   1.440   2.280
 8228SOL     OW25582   0.163   1.394   5.868
 8228SOL    HW125583   0.105   1.395   5.786
 8228SOL    HW225584   0.113   1.351   5.943
 8229SOL     OW25585   4.388   4.593   1.212
 8229SOL    HW125586   4.327   4.597   1.292
 8229SOL    HW225587   4.479   4.563   1.241
 8230SOL     OW25588   3.814   6.685   5.950
 8230SOL    HW125589   3.875   6.631   6.007
 8230SOL    HW225590   3.804   6.641   5.861
 8231SOL     OW25591   3.331   1.812   2.786
 8231SOL    HW125592   3.322   1.712   2.784
 8231SOL    HW225593   3.307   1.850   2.697
 8232SOL     OW25594   5.058   1.891   2.347
 8232SOL    HW125595   5.078   1.988   2.362
 8232SOL    HW225596   4.959   1.878   2.341
 8233SOL     OW25597   1.082   0.045   5.647
 8233SOL    HW125598   1.178   0.057   5.675
 8233SOL    HW225599   1.023   0.097   5.709
 8234SOL     OW25600   3.067   2.971   0.450
 8234SOL    HW125601   3.137   3.041   0.460
 8234SOL    HW225602   3.109   2.887   0.416
 8235SOL     OW25603   0.472   3.933   0.169
 8235SOL    HW125604   0.433   3.983   0.091
 8235SOL    HW225605   0.572   3.940   0.166
 8236SOL     OW25606   0.191   5.581   5.802
 8236SOL    HW125607   0.126   5.510   5.830
 8236SOL    HW225608   0.144   5.644   5.740
 8237SOL     OW25609   4.175   6.080   6.002
 8237SOL    HW125610   4.188   5.993   6.049
 8237SOL    HW225611   4.135   6.065   5.912
 8238SOL     OW25612   0.683   5.584   6.838
 8238SOL    HW125613   0.734   5.504   6.807
 8238SOL    HW225614   0.587   5.561   6.848
 8239SOL     OW25615   0.379   1.271   4.889
 8239SOL    HW125616   0.451   1.247   4.824
 8239SOL    HW225617   0.386   1.212   4.970
 8240SOL     OW25618   2.866   3.440   2.953
 8240SOL    HW125619   2.783   3.414   2.904
 8240SOL    HW225620   2.946   3.414   2.898
 8241SOL     OW25621   1.521   3.667   6.526
 8241SOL    HW125622   1.542   3.618   6.442
 8241SOL    HW225623   1.556   3.760   6.520
 8242SOL     OW25624   1.264   3.423   5.109
 8242SOL    HW125625   1.363   3.418   5.125
 8242SOL    HW225626   1.246   3.491   5.037
 8243SOL     OW25627   0.253   4.195   6.913
 8243SOL    HW125628   0.268   4.291   6.890
 8243SOL    HW225629   0.340   4.145   6.906
 8244SOL     OW25630   0.774   0.329   3.436
 8244SOL    HW125631   0.858   0.367   3.477
 8244SOL    HW225632   0.795   0.292   3.346
 8245SOL     OW25633   4.335   1.871   3.301
 8245SOL    HW125634   4.266   1.799   3.311
 8245SOL    HW225635   4.401   1.865   3.376
 8246SOL     OW25636   0.923   4.524   6.194
 8246SOL    HW125637   0.963   4.577   6.119
 8246SOL    HW225638   0.826   4.508   6.175
 8247SOL     OW25639   2.275   5.905   3.449
 8247SOL    HW125640   2.207   5.855   3.396
 8247SOL    HW225641   2.354   5.925   3.390
 8248SOL     OW25642   0.832   6.177   4.725
 8248SOL    HW125643   0.918   6.152   4.680
 8248SOL    HW225644   0.846   6.183   4.824
 8249SOL     OW25645   2.597   1.534   5.432
 8249SOL    HW125646   2.640   1.444   5.426
 8249SOL    HW225647   2.667   1.603   5.453
 8250SOL     OW25648   3.107   1.804   0.675
 8250SOL    HW125649   3.168   1.855   0.736
 8250SOL    HW225650   3.013   1.833   0.690
 8251SOL     OW25651   6.113   1.590   4.295
 8251SOL    HW125652   6.196   1.541   4.324
 8251SOL    HW225653   6.034   1.551   4.341
 8252SOL     OW25654   3.126   1.909   0.152
 8252SOL    HW125655   3.186   1.828   0.157
 8252SOL    HW225656   3.092   1.930   0.243
 8253SOL     OW25657   4.021   5.822   6.338
 8253SOL    HW125658   4.078   5.812   6.420
 8253SOL    HW225659   3.937   5.768   6.349
 8254SOL     OW25660   5.492   5.003   6.120
 8254SOL    HW125661   5.514   5.099   6.138
 8254SOL    HW225662   5.491   4.952   6.206
 8255SOL     OW25663   0.873   6.992   6.327
 8255SOL    HW125664   0.825   6.995   6.414
 8255SOL    HW225665   0.887   6.897   6.299
 8256SOL     OW25666   6.969   0.329   3.535
 8256SOL    HW125667   6.943   0.357   3.442
 8256SOL    HW225668   7.023   0.400   3.577
 8257SOL     OW25669   5.597   4.492   4.279
 8257SOL    HW125670   5.570   4.397   4.266
 8257SOL    HW225671   5.514   4.549   4.289
 8258SOL     OW25672   5.612   2.594   1.671
 8258SOL    HW125673   5.529   2.583   1.725
 8258SOL    HW225674   5.615   2.524   1.599
 8259SOL     OW25675   4.043   1.980   5.222
 8259SOL    HW125676   4.120   1.941   5.172
 8259SOL    HW225677   3.982   2.026   5.157
 8260SOL     OW25678   2.191   6.647   1.118
 8260SOL    HW125679   2.105   6.597   1.114
 8260SOL    HW225680   2.264   6.587   1.149
 8261SOL     OW25681   5.461   6.373   3.029
 8261SOL    HW125682   5.522   6.445   3.062
 8261SOL    HW225683   5.376   6.373   3.083
 8262SOL     OW25684   1.000   4.575   0.699
 8262SOL    HW125685   1.037   4.489   0.663
 8262SOL    HW225686   0.965   4.560   0.792
 8263SOL     OW25687   6.631   2.633   6.746
 8263SOL    HW125688   6.702   2.699   6.771
 8263SOL    HW225689   6.544   2.659   6.788
 8264SOL     OW25690   1.576   6.715   1.274
 8264SOL    HW125691   1.535   6.728   1.183
 8264SOL    HW225692   1.643   6.786   1.291
 8265SOL     OW25693   4.506   0.245   1.615
 8265SOL    HW125694   4.459   0.203   1.694
 8265SOL    HW225695   4.441   0.301   1.564
 8266SOL     OW25696   2.781   0.510   4.919
 8266SOL    HW125697   2.863   0.454   4.929
 8266SOL    HW225698   2.805   0.607   4.932
 8267SOL     OW25699   1.650   5.174   1.601
 8267SOL    HW125700   1.736   5.154   1.650
 8267SOL    HW225701   1.588   5.096   1.611
 8268SOL     OW25702   2.927   4.535   5.989
 8268SOL    HW125703   2.863   4.463   6.014
 8268SOL    HW225704   3.008   4.531   6.048
 8269SOL     OW25705   4.613   2.653   2.914
 8269SOL    HW125706   4.570   2.646   3.004
 8269SOL    HW225707   4.710   2.675   2.925
 8270SOL     OW25708   2.702   5.945   5.773
 8270SOL    HW125709   2.711   5.979   5.679
 8270SOL    HW225710   2.784   5.968   5.825
 8271SOL     OW25711   6.331   6.824   3.470
 8271SOL    HW125712   6.409   6.881   3.445
 8271SOL    HW225713   6.270   6.814   3.392
 8272SOL     OW25714   0.508   0.679   2.835
 8272SOL    HW125715   0.531   0.627   2.918
 8272SOL    HW225716   0.521   0.620   2.755
 8273SOL     OW25717   3.248   0.277   0.336
 8273SOL    HW125718   3.272   0.239   0.425
 8273SOL    HW225719   3.272   0.210   0.265
 8274SOL     OW25720   3.793   4.550   6.744
 8274SOL    HW125721   3.866   4.618   6.750
 8274SOL    HW225722   3.806   4.495   6.661
 8275SOL     OW25723   5.731   0.085   4.760
 8275SOL    HW125724   5.735   0.114   4.856
 8275SOL    HW225725   5.672   0.148   4.708
 8276SOL     OW25726   6.658   2.280   5.621
 8276SOL    HW125727   6.621   2.236   5.703
 8276SOL    HW225728   6.597   2.355   5.593
 8277SOL     OW25729   2.893   5.803   4.640
 8277SOL    HW125730   2.862   5.720   4.685
 8277SOL    HW225731   2.815   5.854   4.605
 8278SOL     OW25732   2.806   1.415   6.785
 8278SOL    HW125733   2.826   1.319   6.765
 8278SOL    HW225734   2.856   1.473   6.720
 8279SOL     OW25735   5.755   5.179   6.650
 8279SOL    HW125736   5.656   5.180   6.662
 8279SOL    HW225737   5.778   5.205   6.556
 8280SOL     OW25738   4.779   2.689   0.328
 8280SOL    HW125739   4.806   2.784   0.316
 8280SOL    HW225740   4.788   2.640   0.241
 8281SOL     OW25741   1.712   4.676   0.777
 8281SOL    HW125742   1.721   4.612   0.701
 8281SOL    HW225743   1.704   4.625   0.863
 8282SOL     OW25744   2.919   2.274   0.826
 8282SOL    HW125745   2.889   2.336   0.754
 8282SOL    HW225746   2.964   2.326   0.899
 8283SOL     OW25747   0.406   4.968   3.438
 8283SOL    HW125748   0.469   5.040   3.411
 8283SOL    HW225749   0.312   5.003   3.434
 8284SOL     OW25750   1.758   3.250   2.549
 8284SOL    HW125751   1.777   3.153   2.557
 8284SOL    HW225752   1.681   3.264   2.486
 8285SOL     OW25753   3.163   3.618   5.941
 8285SOL    HW125754   3.114   3.538   5.974
 8285SOL    HW225755   3.213   3.593   5.858
 8286SOL     OW25756   5.815   1.389   4.780
 8286SOL    HW125757   5.769   1.403   4.692
 8286SOL    HW225758   5.746   1.380   4.853
 8287SOL     OW25759   1.650   6.676   3.903
 8287SOL    HW125760   1.646   6.578   3.882
 8287SOL    HW225761   1.729   6.717   3.857
 8288SOL     OW25762   1.720   2.458   2.907
 8288SOL    HW125763   1.650   2.465   2.836
 8288SOL    HW225764   1.702   2.378   2.964
 8289SOL     OW25765   6.254   0.164   6.129
 8289SOL    HW125766   6.252   0.226   6.207
 8289SOL    HW225767   6.224   0.213   6.047
 8290SOL     OW25768   4.124   2.852   1.764
 8290SOL    HW125769   4.189   2.924   1.741
 8290SOL    HW225770   4.173   2.764   1.770
 8291SOL     OW25771   5.969   6.166   6.927
 8291SOL    HW125772   5.920   6.235   6.873
 8291SOL    HW225773   6.063   6.196   6.941
 8292SOL     OW25774   2.513   5.538   5.743
 8292SOL    HW125775   2.457   5.468   5.697
 8292SOL    HW225776   2.585   5.569   5.680
 8293SOL     OW25777   1.851   4.683   1.596
 8293SOL    HW125778   1.784   4.663   1.525
 8293SOL    HW225779   1.808   4.675   1.686
 8294SOL     OW25780   6.079   3.450   5.366
 8294SOL    HW125781   6.137   3.498   5.301
 8294SOL    HW225782   6.096   3.352   5.360
 8295SOL     OW25783   4.789   3.988   2.340
 8295SOL    HW125784   4.702   4.037   2.339
 8295SOL    HW225785   4.808   3.958   2.434
 8296SOL     OW25786   3.960   5.219   6.906
 8296SOL    HW125787   3.884   5.284   6.898
 8296SOL    HW225788   3.956   5.155   6.829
 8297SOL     OW25789   6.319   3.895   2.384
 8297SOL    HW125790   6.314   3.885   2.484
 8297SOL    HW225791   6.303   3.806   2.341
 8298SOL     OW25792   0.331   0.372   6.403
 8298SOL    HW125793   0.354   0.280   6.370
 8298SOL    HW225794   0.256   0.409   6.347
 8299SOL     OW25795   0.506   3.514   1.130
 8299SOL    HW125796   0.429   3.471   1.177
 8299SOL    HW225797   0.487   3.520   1.032
 8300SOL     OW25798   6.170   6.764   4.585
 8300SOL    HW125799   6.090   6.715   4.620
 8300SOL    HW225800   6.164   6.770   4.486
 8301SOL     OW25801   4.573   0.042   6.683
 8301SOL    HW125802   4.489   0.079   6.642
 8301SOL    HW225803   4.649   0.104   6.664
 8302SOL     OW25804   3.538   6.962   5.048
 8302SOL    HW125805   3.608   6.935   5.115
 8302SOL    HW225806   3.464   7.010   5.096
 8303SOL     OW25807   0.131   0.419   2.946
 8303SOL    HW125808   0.194   0.482   2.991
 8303SOL    HW225809   0.136   0.433   2.847
 8304SOL     OW25810   5.618   4.211   2.626
 8304SOL    HW125811   5.617   4.200   2.726
 8304SOL    HW225812   5.621   4.120   2.583
 8305SOL     OW25813   4.676   5.134   3.610
 8305SOL    HW125814   4.770   5.124   3.644
 8305SOL    HW225815   4.676   5.192   3.529
 8306SOL     OW25816   6.797   1.586   2.530
 8306SOL    HW125817   6.844   1.564   2.616
 8306SOL    HW225818   6.785   1.503   2.477
 8307SOL     OW25819   2.528   5.292   1.253
 8307SOL    HW125820   2.529   5.362   1.181
 8307SOL    HW225821   2.443   5.299   1.305
 8308SOL     OW25822   1.453   4.569   7.012
 8308SOL    HW125823   1.370   4.614   0.018
 8308SOL    HW225824   1.526   4.637   7.000
 8309SOL     OW25825   6.365   5.025   4.172
 8309SOL    HW125826   6.314   5.060   4.093
 8309SOL    HW225827   6.424   5.097   4.208
 8310SOL     OW25828   0.899   5.893   0.546
 8310SOL    HW125829   0.844   5.923   0.624
 8310SOL    HW225830   0.904   5.793   0.546
 8311SOL     OW25831   5.363   6.921   4.418
 8311SOL    HW125832   5.301   6.889   4.489
 8311SOL    HW225833   5.353   7.020   4.407
 8312SOL     OW25834   5.590   0.601   0.467
 8312SOL    HW125835   5.627   0.692   0.488
 8312SOL    HW225836   5.657   0.532   0.491
 8313SOL     OW25837   4.264   6.975   5.465
 8313SOL    HW125838   4.196   0.017   5.444
 8313SOL    HW225839   4.351   7.019   5.488
 8314SOL     OW25840   5.964   6.547   6.484
 8314SOL    HW125841   5.985   6.610   6.560
 8314SOL    HW225842   6.048   6.523   6.436
 8315SOL     OW25843   3.564   3.553   3.388
 8315SOL    HW125844   3.527   3.462   3.370
 8315SOL    HW225845   3.543   3.580   3.482
 8316SOL     OW25846   1.482   3.575   6.836
 8316SOL    HW125847   1.526   3.665   6.826
 8316SOL    HW225848   1.417   3.562   6.761
 8317SOL     OW25849   2.357   1.802   4.146
 8317SOL    HW125850   2.406   1.720   4.175
 8317SOL    HW225851   2.423   1.876   4.129
 8318SOL     OW25852   4.592   1.282   6.221
 8318SOL    HW125853   4.539   1.261   6.304
 8318SOL    HW225854   4.531   1.320   6.152
 8319SOL     OW25855   1.739   6.658   6.364
 8319SOL    HW125856   1.640   6.662   6.379
 8319SOL    HW225857   1.758   6.594   6.289
 8320SOL     OW25858   3.845   3.676   3.590
 8320SOL    HW125859   3.864   3.717   3.501
 8320SOL    HW225860   3.764   3.718   3.630
 8321SOL     OW25861   0.130   0.165   5.857
 8321SOL    HW125862   0.183   0.229   5.802
 8321SOL    HW225863   0.062   0.120   5.800
 8322SOL     OW25864   0.048   1.000   0.340
 8322SOL    HW125865   0.088   1.030   0.427
 8322SOL    HW225866   0.036   1.078   0.280
 8323SOL     OW25867   3.993   4.715   1.318
 8323SOL    HW125868   4.005   4.731   1.220
 8323SOL    HW225869   4.070   4.663   1.354
 8324SOL     OW25870   6.005   0.414   0.056
 8324SOL    HW125871   5.942   0.476   0.103
 8324SOL    HW225872   6.087   0.464   0.028
 8325SOL     OW25873   1.232   4.297   4.851
 8325SOL    HW125874   1.295   4.334   4.918
 8325SOL    HW225875   1.274   4.300   4.760
 8326SOL     OW25876   3.979   3.944   7.028
 8326SOL    HW125877   4.048   3.943   0.072
 8326SOL    HW225878   3.909   3.876   0.019
 8327SOL     OW25879   0.712   0.692   5.557
 8327SOL    HW125880   0.653   0.671   5.635
 8327SOL    HW225881   0.807   0.669   5.579
 8328SOL     OW25882   1.696   6.706   5.649
 8328SOL    HW125883   1.728   6.611   5.650
 8328SOL    HW225884   1.774   6.767   5.640
 8329SOL     OW25885   0.155   2.790   4.596
 8329SOL    HW125886   0.224   2.841   4.546
 8329SOL    HW225887   0.164   2.807   4.694
 8330SOL     OW25888   3.686   1.163   6.292
 8330SOL    HW125889   3.659   1.156   6.388
 8330SOL    HW225890   3.625   1.227   6.245
 8331SOL     OW25891   3.121   1.644   0.403
 8331SOL    HW125892   3.115   1.730   0.454
 8331SOL    HW225893   3.054   1.645   0.329
 8332SOL     OW25894   5.489   5.782   2.170
 8332SOL    HW125895   5.494   5.729   2.255
 8332SOL    HW225896   5.573   5.767   2.117
 8333SOL     OW25897   2.278   5.216   0.414
 8333SOL    HW125898   2.326   5.134   0.381
 8333SOL    HW225899   2.222   5.252   0.340
 8334SOL     OW25900   2.695   1.971   6.506
 8334SOL    HW125901   2.772   2.035   6.502
 8334SOL    HW225902   2.696   1.913   6.425
 8335SOL     OW25903   4.602   2.840   6.709
 8335SOL    HW125904   4.593   2.834   6.808
 8335SOL    HW225905   4.517   2.809   6.666
 8336SOL     OW25906   1.141   3.839   3.042
 8336SOL    HW125907   1.114   3.865   2.949
 8336SOL    HW225908   1.105   3.906   3.107
 8337SOL     OW25909   1.116   0.020   4.591
 8337SOL    HW125910   1.030   0.071   4.587
 8337SOL    HW225911   1.097   6.950   4.601
 8338SOL     OW25912   4.216   5.514   2.563
 8338SOL    HW125913   4.129   5.539   2.605
 8338SOL    HW225914   4.210   5.527   2.464
 8339SOL     OW25915   6.636   0.612   0.849
 8339SOL    HW125916   6.708   0.631   0.915
 8339SOL    HW225917   6.676   0.597   0.758
 8340SOL     OW25918   4.758   3.933   0.297
 8340SOL    HW125919   4.852   3.940   0.265
 8340SOL    HW225920   4.738   3.838   0.323
 8341SOL     OW25921   3.555   0.607   6.724
 8341SOL    HW125922   3.622   0.676   6.696
 8341SOL    HW225923   3.528   0.552   6.645
 8342SOL     OW25924   3.667   6.405   0.166
 8342SOL    HW125925   3.678   6.490   0.217
 8342SOL    HW225926   3.702   6.329   0.221
 8343SOL     OW25927   6.368   5.823   4.196
 8343SOL    HW125928   6.440   5.761   4.225
 8343SOL    HW225929   6.305   5.839   4.272
 8344SOL     OW25930   0.604   5.128   4.555
 8344SOL    HW125931   0.585   5.097   4.462
 8344SOL    HW225932   0.526   5.180   4.590
 8345SOL     OW25933   5.225   2.047   3.368
 8345SOL    HW125934   5.196   2.059   3.463
 8345SOL    HW225935   5.279   1.963   3.360
 8346SOL     OW25936   3.782   3.235   5.969
 8346SOL    HW125937   3.743   3.146   5.992
 8346SOL    HW225938   3.735   3.273   5.889
 8347SOL     OW25939   3.182   5.957   6.352
 8347SOL    HW125940   3.276   5.930   6.376
 8347SOL    HW225941   3.118   5.885   6.379
 8348SOL     OW25942   2.367   6.808   1.403
 8348SOL    HW125943   2.327   6.889   1.360
 8348SOL    HW225944   2.381   6.737   1.334
 8349SOL     OW25945   0.772   6.556   1.404
 8349SOL    HW125946   0.819   6.642   1.383
 8349SOL    HW225947   0.728   6.562   1.493
 8350SOL     OW25948   3.107   6.855   6.339
 8350SOL    HW125949   3.190   6.874   6.391
 8350SOL    HW225950   3.084   6.758   6.347
 8351SOL     OW25951   5.663   5.705   3.883
 8351SOL    HW125952   5.642   5.711   3.785
 8351SOL    HW225953   5.672   5.609   3.909
 8352SOL     OW25954   1.977   6.740   2.932
 8352SOL    HW125955   2.049   6.710   2.994
 8352SOL    HW225956   1.927   6.816   2.974
 8353SOL     OW25957   1.833   3.749   1.530
 8353SOL    HW125958   1.892   3.783   1.603
 8353SOL    HW225959   1.790   3.827   1.483
 8354SOL     OW25960   3.507   6.462   4.040
 8354SOL    HW125961   3.439   6.402   3.999
 8354SOL    HW225962   3.532   6.428   4.130
 8355SOL     OW25963   1.826   1.194   6.030
 8355SOL    HW125964   1.802   1.099   6.047
 8355SOL    HW225965   1.835   1.243   6.116
 8356SOL     OW25966   0.818   5.020   1.364
 8356SOL    HW125967   0.906   5.000   1.406
 8356SOL    HW225968   0.832   5.037   1.266
 8357SOL     OW25969   3.743   5.445   5.779
 8357SOL    HW125970   3.789   5.534   5.778
 8357SOL    HW225971   3.812   5.373   5.774
 8358SOL     OW25972   0.907   3.184   5.286
 8358SOL    HW125973   0.983   3.124   5.310
 8358SOL    HW225974   0.934   3.280   5.299
 8359SOL     OW25975   2.389   1.244   4.595
 8359SOL    HW125976   2.325   1.191   4.651
 8359SOL    HW225977   2.393   1.338   4.628
 8360SOL     OW25978   4.643   6.787   1.076
 8360SOL    HW125979   4.664   6.883   1.097
 8360SOL    HW225980   4.544   6.774   1.074
 8361SOL     OW25981   2.609   0.126   6.700
 8361SOL    HW125982   2.697   0.173   6.704
 8361SOL    HW225983   2.537   0.187   6.734
 8362SOL     OW25984   5.675   2.197   0.996
 8362SOL    HW125985   5.629   2.234   1.076
 8362SOL    HW225986   5.636   2.236   0.913
 8363SOL     OW25987   4.795   1.741   0.909
 8363SOL    HW125988   4.801   1.679   0.986
 8363SOL    HW225989   4.867   1.810   0.915
 8364SOL     OW25990   0.377   3.333   3.660
 8364SOL    HW125991   0.466   3.356   3.622
 8364SOL    HW225992   0.365   3.234   3.663
 8365SOL     OW25993   1.427   1.851   3.022
 8365SOL    HW125994   1.467   1.852   2.930
 8365SOL    HW225995   1.338   1.897   3.020
 8366SOL     OW25996   3.651   5.165   1.131
 8366SOL    HW125997   3.554   5.185   1.120
 8366SOL    HW225998   3.703   5.251   1.128
 8367SOL     OW25999   3.290   5.140   4.862
 8367SOL    HW126000   3.261   5.087   4.782
 8367SOL    HW226001   3.385   5.169   4.850
 8368SOL     OW26002   1.449   6.036   6.741
 8368SOL    HW126003   1.362   6.024   6.691
 8368SOL    HW226004   1.525   6.008   6.682
 8369SOL     OW26005   0.617   1.311   0.545
 8369SOL    HW126006   0.697   1.274   0.498
 8369SOL    HW226007   0.607   1.268   0.634
 8370SOL     OW26008   2.645   1.232   6.490
 8370SOL    HW126009   2.684   1.300   6.553
 8370SOL    HW226010   2.551   1.211   6.519
 8371SOL     OW26011   2.029   3.432   6.336
 8371SOL    HW126012   2.128   3.428   6.350
 8371SOL    HW226013   2.008   3.500   6.267
 8372SOL     OW26014   1.631   5.547   2.045
 8372SOL    HW126015   1.631   5.494   2.130
 8372SOL    HW226016   1.659   5.640   2.063
 8373SOL     OW26017   1.475   1.241   4.718
 8373SOL    HW126018   1.421   1.270   4.797
 8373SOL    HW226019   1.538   1.314   4.693
 8374SOL     OW26020   0.645   0.626   4.427
 8374SOL    HW126021   0.596   0.707   4.461
 8374SOL    HW226022   0.684   0.647   4.337
 8375SOL     OW26023   3.246   0.446   5.970
 8375SOL    HW126024   3.230   0.518   6.037
 8375SOL    HW226025   3.223   0.358   6.010
 8376SOL     OW26026   1.791   1.309   4.022
 8376SOL    HW126027   1.838   1.312   4.110
 8376SOL    HW226028   1.740   1.394   4.008
 8377SOL     OW26029   6.266   5.668   0.404
 8377SOL    HW126030   6.229   5.610   0.477
 8377SOL    HW226031   6.343   5.721   0.439
 8378SOL     OW26032   4.949   5.111   3.511
 8378SOL    HW126033   4.916   5.162   3.432
 8378SOL    HW226034   4.928   5.014   3.499
 8379SOL     OW26035   4.666   2.213   1.999
 8379SOL    HW126036   4.642   2.275   2.074
 8379SOL    HW226037   4.613   2.238   1.917
 8380SOL     OW26038   0.556   6.608   6.796
 8380SOL    HW126039   0.531   6.540   6.726
 8380SOL    HW226040   0.538   6.700   6.761
 8381SOL     OW26041   6.939   2.389   3.523
 8381SOL    HW126042   6.887   2.357   3.444
 8381SOL    HW226043   6.904   2.479   3.551
 8382SOL     OW26044   2.706   0.072   0.631
 8382SOL    HW126045   2.690   0.111   0.541
 8382SOL    HW226046   2.768   7.021   0.623
 8383SOL     OW26047   1.952   0.486   5.475
 8383SOL    HW126048   1.896   0.540   5.538
 8383SOL    HW226049   1.929   0.390   5.484
 8384SOL     OW26050   6.839   0.917   0.487
 8384SOL    HW126051   6.775   0.929   0.412
 8384SOL    HW226052   6.933   0.922   0.452
 8385SOL     OW26053   4.585   2.070   0.394
 8385SOL    HW126054   4.591   2.036   0.488
 8385SOL    HW226055   4.614   1.999   0.330
 8386SOL     OW26056   1.885   5.564   1.168
 8386SOL    HW126057   1.815   5.536   1.234
 8386SOL    HW226058   1.901   5.489   1.104
 8387SOL     OW26059   1.727   1.521   1.352
 8387SOL    HW126060   1.646   1.464   1.368
 8387SOL    HW226061   1.807   1.462   1.338
 8388SOL     OW26062   1.527   0.345   0.808
 8388SOL    HW126063   1.485   0.435   0.818
 8388SOL    HW226064   1.554   0.310   0.897
 8389SOL     OW26065   0.620   3.305   3.953
 8389SOL    HW126066   0.615   3.371   3.878
 8389SOL    HW226067   0.527   3.286   3.987
 8390SOL     OW26068   4.177   0.037   6.748
 8390SOL    HW126069   4.184   0.046   6.848
 8390SOL    HW226070   4.173   6.968   6.724
 8391SOL     OW26071   5.238   5.111   0.845
 8391SOL    HW126072   5.333   5.141   0.853
 8391SOL    HW226073   5.214   5.055   0.925
 8392SOL     OW26074   6.818   5.626   5.678
 8392SOL    HW126075   6.875   5.559   5.725
 8392SOL    HW226076   6.767   5.679   5.746
 8393SOL     OW26077   0.203   0.280   4.028
 8393SOL    HW126078   0.279   0.314   4.082
 8393SOL    HW226079   0.117   0.316   4.065
 8394SOL     OW26080   0.318   2.509   1.473
 8394SOL    HW126081   0.288   2.585   1.530
 8394SOL    HW226082   0.382   2.542   1.404
 8395SOL     OW26083   1.977   6.752   4.042
 8395SOL    HW126084   2.050   6.706   4.093
 8395SOL    HW226085   1.991   6.739   3.944
 8396SOL     OW26086   4.677   4.369   2.314
 8396SOL    HW126087   4.774   4.387   2.297
 8396SOL    HW226088   4.644   4.300   2.248
 8397SOL     OW26089   2.881   0.324   3.243
 8397SOL    HW126090   2.844   0.236   3.214
 8397SOL    HW226091   2.923   0.370   3.164
 8398SOL     OW26092   3.787   1.889   6.996
 8398SOL    HW126093   3.783   1.789   6.990
 8398SOL    HW226094   3.805   1.916   0.062
 8399SOL     OW26095   6.355   6.872   6.914
 8399SOL    HW126096   6.341   6.839   7.007
 8399SOL    HW226097   6.379   6.795   6.855
 8400SOL     OW26098   1.463   0.492   3.510
 8400SOL    HW126099   1.376   0.502   3.463
 8400SOL    HW226100   1.538   0.513   3.447
 8401SOL     OW26101   3.406   2.695   6.497
 8401SOL    HW126102   3.366   2.784   6.520
 8401SOL    HW226103   3.333   2.632   6.470
 8402SOL     OW26104   3.222   1.828   5.948
 8402SOL    HW126105   3.174   1.910   5.915
 8402SOL    HW226106   3.184   1.801   6.036
 8403SOL     OW26107   0.640   2.314   3.056
 8403SOL    HW126108   0.648   2.298   3.155
 8403SOL    HW226109   0.550   2.284   3.025
 8404SOL     OW26110   5.554   5.706   6.975
 8404SOL    HW126111   5.505   5.619   6.977
 8404SOL    HW226112   5.490   5.781   6.987
 8405SOL     OW26113   1.784   1.590   6.765
 8405SOL    HW126114   1.752   1.674   6.809
 8405SOL    HW226115   1.781   1.602   6.666
 8406SOL     OW26116   3.867   0.709   0.765
 8406SOL    HW126117   3.923   0.790   0.782
 8406SOL    HW226118   3.776   0.722   0.804
 8407SOL     OW26119   5.853   5.906   4.386
 8407SOL    HW126120   5.886   5.879   4.295
 8407SOL    HW226121   5.831   6.004   4.385
 8408SOL     OW26122   4.948   1.876   3.661
 8408SOL    HW126123   4.894   1.887   3.577
 8408SOL    HW226124   5.021   1.944   3.663
 8409SOL     OW26125   6.558   2.544   3.694
 8409SOL    HW126126   6.546   2.458   3.745
 8409SOL    HW226127   6.490   2.548   3.621
 8410SOL     OW26128   4.140   0.596   1.364
 8410SOL    HW126129   4.078   0.634   1.295
 8410SOL    HW226130   4.090   0.532   1.422
 8411SOL     OW26131   1.706   5.437   4.136
 8411SOL    HW126132   1.613   5.400   4.127
 8411SOL    HW226133   1.717   5.477   4.227
 8412SOL     OW26134   4.331   1.782   1.689
 8412SOL    HW126135   4.311   1.772   1.591
 8412SOL    HW226136   4.288   1.865   1.724
 8413SOL     OW26137   5.015   4.278   0.512
 8413SOL    HW126138   5.020   4.213   0.588
 8413SOL    HW226139   4.936   4.256   0.454
 8414SOL     OW26140   4.571   6.667   2.840
 8414SOL    HW126141   4.499   6.599   2.858
 8414SOL    HW226142   4.624   6.639   2.760
 8415SOL     OW26143   6.915   5.363   4.011
 8415SOL    HW126144   6.998   5.409   4.044
 8415SOL    HW226145   6.835   5.413   4.043
 8416SOL     OW26146   5.170   4.490   3.759
 8416SOL    HW126147   5.268   4.495   3.738
 8416SOL    HW226148   5.146   4.396   3.784
 8417SOL     OW26149   1.577   5.548   5.243
 8417SOL    HW126150   1.616   5.638   5.260
 8417SOL    HW226151   1.649   5.479   5.251
 8418SOL     OW26152   5.942   5.594   1.915
 8418SOL    HW126153   5.995   5.554   1.990
 8418SOL    HW226154   5.926   5.691   1.934
 8419SOL     OW26155   4.522   0.959   2.358
 8419SOL    HW126156   4.520   1.017   2.440
 8419SOL    HW226157   4.429   0.926   2.340
 8420SOL     OW26158   3.583   0.434   0.953
 8420SOL    HW126159   3.528   0.482   0.884
 8420SOL    HW226160   3.679   0.460   0.944
 8421SOL     OW26161   2.795   6.465   0.952
 8421SOL    HW126162   2.865   6.521   0.908
 8421SOL    HW226163   2.733   6.428   0.882
 8422SOL     OW26164   4.931   6.561   1.414
 8422SOL    HW126165   4.980   6.572   1.328
 8422SOL    HW226166   4.995   6.559   1.490
 8423SOL     OW26167   4.097   3.729   6.020
 8423SOL    HW126168   4.099   3.811   5.963
 8423SOL    HW226169   4.141   3.748   6.108
 8424SOL     OW26170   2.369   2.737   2.742
 8424SOL    HW126171   2.379   2.690   2.654
 8424SOL    HW226172   2.430   2.696   2.809
 8425SOL     OW26173   5.887   5.730   1.244
 8425SOL    HW126174   5.981   5.696   1.237
 8425SOL    HW226175   5.878   5.788   1.325
 8426SOL     OW26176   3.627   2.974   4.520
 8426SOL    HW126177   3.628   2.946   4.617
 8426SOL    HW226178   3.544   2.938   4.477
 8427SOL     OW26179   1.959   3.831   5.862
 8427SOL    HW126180   2.034   3.872   5.913
 8427SOL    HW226181   1.982   3.827   5.765
 8428SOL     OW26182   6.595   4.211   1.814
 8428SOL    HW126183   6.613   4.152   1.893
 8428SOL    HW226184   6.627   4.165   1.731
 8429SOL     OW26185   2.154   4.615   4.031
 8429SOL    HW126186   2.058   4.632   4.050
 8429SOL    HW226187   2.208   4.637   4.113
 8430SOL     OW26188   4.184   5.737   3.583
 8430SOL    HW126189   4.192   5.638   3.569
 8430SOL    HW226190   4.090   5.766   3.562
 8431SOL     OW26191   2.570   4.963   0.569
 8431SOL    HW126192   2.657   4.946   0.524
 8431SOL    HW226193   2.578   5.044   0.627
 8432SOL     OW26194   4.549   6.177   5.321
 8432SOL    HW126195   4.536   6.088   5.365
 8432SOL    HW226196   4.495   6.247   5.370
 8433SOL     OW26197   6.271   2.719   6.331
 8433SOL    HW126198   6.317   2.808   6.320
 8433SOL    HW226199   6.306   2.673   6.412
 8434SOL     OW26200   2.748   0.088   4.960
 8434SOL    HW126201   2.685   0.111   5.034
 8434SOL    HW226202   2.728   0.146   4.881
 8435SOL     OW26203   4.804   0.833   0.648
 8435SOL    HW126204   4.827   0.792   0.736
 8435SOL    HW226205   4.798   0.932   0.658
 8436SOL     OW26206   3.320   6.903   4.383
 8436SOL    HW126207   3.277   6.833   4.325
 8436SOL    HW226208   3.287   6.993   4.357
 8437SOL     OW26209   2.035   0.299   3.091
 8437SOL    HW126210   2.098   0.312   3.168
 8437SOL    HW226211   1.950   0.259   3.125
 8438SOL     OW26212   3.216   5.345   2.371
 8438SOL    HW126213   3.227   5.273   2.438
 8438SOL    HW226214   3.266   5.322   2.288
 8439SOL     OW26215   6.755   5.525   1.127
 8439SOL    HW126216   6.773   5.476   1.212
 8439SOL    HW226217   6.818   5.493   1.056
 8440SOL     OW26218   0.222   1.233   3.735
 8440SOL    HW126219   0.226   1.326   3.698
 8440SOL    HW226220   0.206   1.168   3.661
 8441SOL     OW26221   6.656   6.541   0.024
 8441SOL    HW126222   6.755   6.543   0.040
 8441SOL    HW226223   6.609   6.568   0.108
 8442SOL     OW26224   3.195   2.442   6.101
 8442SOL    HW126225   3.150   2.523   6.140
 8442SOL    HW226226   3.174   2.436   6.004
 8443SOL     OW26227   1.344   6.625   3.401
 8443SOL    HW126228   1.345   6.531   3.365
 8443SOL    HW226229   1.403   6.683   3.344
 8444SOL     OW26230   3.608   5.858   3.678
 8444SOL    HW126231   3.556   5.890   3.757
 8444SOL    HW226232   3.613   5.931   3.610
 8445SOL     OW26233   3.653   5.257   1.980
 8445SOL    HW126234   3.631   5.333   2.041
 8445SOL    HW226235   3.599   5.177   2.006
 8446SOL     OW26236   5.201   5.520   1.442
 8446SOL    HW126237   5.130   5.460   1.405
 8446SOL    HW226238   5.171   5.558   1.529
 8447SOL     OW26239   5.653   1.787   1.904
 8447SOL    HW126240   5.571   1.815   1.954
 8447SOL    HW226241   5.689   1.702   1.943
 8448SOL     OW26242   6.044   4.491   4.968
 8448SOL    HW126243   6.057   4.498   5.067
 8448SOL    HW226244   6.048   4.582   4.927
 8449SOL     OW26245   6.612   2.695   4.478
 8449SOL    HW126246   6.529   2.750   4.488
 8449SOL    HW226247   6.639   2.692   4.382
 8450SOL     OW26248   1.366   5.866   1.895
 8450SOL    HW126249   1.416   5.915   1.966
 8450SOL    HW226250   1.419   5.867   1.810
 8451SOL     OW26251   4.903   2.938   0.177
 8451SOL    HW126252   4.814   2.971   0.206
 8451SOL    HW226253   4.951   3.010   0.126
 8452SOL     OW26254   7.011   0.541   1.538
 8452SOL    HW126255   0.012   0.579   1.626
 8452SOL    HW226256   6.950   0.463   1.554
 8453SOL     OW26257   6.422   4.085   6.548
 8453SOL    HW126258   6.487   4.154   6.579
 8453SOL    HW226259   6.329   4.114   6.571
 8454SOL     OW26260   0.940   5.848   0.851
 8454SOL    HW126261   1.008   5.820   0.782
 8454SOL    HW226262   0.979   5.835   0.942
 8455SOL     OW26263   5.150   1.610   1.178
 8455SOL    HW126264   5.085   1.681   1.206
 8455SOL    HW226265   5.142   1.531   1.239
 8456SOL     OW26266   5.235   4.573   3.019
 8456SOL    HW126267   5.325   4.555   2.980
 8456SOL    HW226268   5.167   4.514   2.976
 8457SOL     OW26269   6.961   6.638   5.506
 8457SOL    HW126270   6.901   6.618   5.429
 8457SOL    HW226271   0.015   6.580   5.501
 8458SOL     OW26272   2.362   1.138   6.566
 8458SOL    HW126273   2.345   1.054   6.515
 8458SOL    HW226274   2.275   1.177   6.596
 8459SOL     OW26275   3.229   6.964   1.293
 8459SOL    HW126276   3.133   6.969   1.322
 8459SOL    HW226277   3.285   7.018   1.356
 8460SOL     OW26278   4.210   2.492   5.789
 8460SOL    HW126279   4.264   2.472   5.871
 8460SOL    HW226280   4.182   2.588   5.790
 8461SOL     OW26281   0.963   4.123   2.276
 8461SOL    HW126282   0.866   4.136   2.256
 8461SOL    HW226283   1.017   4.143   2.194
 8462SOL     OW26284   3.661   2.585   0.430
 8462SOL    HW126285   3.671   2.489   0.456
 8462SOL    HW226286   3.747   2.633   0.445
 8463SOL     OW26287   6.587   0.654   0.530
 8463SOL    HW126288   6.575   0.732   0.469
 8463SOL    HW226289   6.501   0.635   0.578
 8464SOL     OW26290   6.645   4.370   5.388
 8464SOL    HW126291   6.550   4.351   5.414
 8464SOL    HW226292   6.653   4.370   5.288
 8465SOL     OW26293   3.300   2.485   1.149
 8465SOL    HW126294   3.216   2.524   1.112
 8465SOL    HW226295   3.281   2.397   1.191
 8466SOL     OW26296   6.039   6.347   5.588
 8466SOL    HW126297   6.120   6.337   5.646
 8466SOL    HW226298   5.957   6.336   5.643
 8467SOL     OW26299   3.576   0.873   1.366
 8467SOL    HW126300   3.578   0.826   1.278
 8467SOL    HW226301   3.584   0.806   1.440
 8468SOL     OW26302   4.691   2.843   6.990
 8468SOL    HW126303   4.653   2.815   0.051
 8468SOL    HW226304   4.683   2.942   6.980
 8469SOL     OW26305   2.493   1.597   5.671
 8469SOL    HW126306   2.534   1.562   5.587
 8469SOL    HW226307   2.482   1.696   5.664
 8470SOL     OW26308   1.149   4.925   6.961
 8470SOL    HW126309   1.160   5.014   6.916
 8470SOL    HW226310   1.079   4.872   6.912
 8471SOL     OW26311   3.876   0.095   5.688
 8471SOL    HW126312   3.887   0.010   5.739
 8471SOL    HW226313   3.883   0.173   5.751
 8472SOL     OW26314   6.113   0.473   5.490
 8472SOL    HW126315   6.076   0.382   5.470
 8472SOL    HW226316   6.076   0.539   5.424
 8473SOL     OW26317   6.480   5.802   0.509
 8473SOL    HW126318   6.469   5.808   0.608
 8473SOL    HW226319   6.560   5.855   0.481
 8474SOL     OW26320   3.434   3.579   1.846
 8474SOL    HW126321   3.468   3.551   1.936
 8474SOL    HW226322   3.396   3.500   1.798
 8475SOL     OW26323   0.028   2.762   3.248
 8475SOL    HW126324   6.970   2.814   3.251
 8475SOL    HW226325   0.087   2.792   3.324
 8476SOL     OW26326   6.564   2.022   0.928
 8476SOL    HW126327   6.594   2.102   0.876
 8476SOL    HW226328   6.494   1.973   0.875
 8477SOL     OW26329   4.716   6.557   2.639
 8477SOL    HW126330   4.662   6.511   2.570
 8477SOL    HW226331   4.803   6.586   2.600
 8478SOL     OW26332   1.378   0.539   5.389
 8478SOL    HW126333   1.366   0.540   5.289
 8478SOL    HW226334   1.467   0.578   5.412
 8479SOL     OW26335   1.454   3.635   0.989
 8479SOL    HW126336   1.407   3.638   0.901
 8479SOL    HW226337   1.497   3.546   1.001
 8480SOL     OW26338   5.103   3.214   6.599
 8480SOL    HW126339   5.144   3.137   6.551
 8480SOL    HW226340   5.006   3.196   6.614
 8481SOL     OW26341   4.649   2.208   4.844
 8481SOL    HW126342   4.710   2.128   4.842
 8481SOL    HW226343   4.694   2.285   4.800
 8482SOL     OW26344   4.947   0.029   2.513
 8482SOL    HW126345   4.872   0.041   2.578
 8482SOL    HW226346   4.976   0.118   2.478
 8483SOL     OW26347   3.245   6.131   2.306
 8483SOL    HW126348   3.199   6.155   2.220
 8483SOL    HW226349   3.213   6.191   2.379
 8484SOL     OW26350   6.857   6.420   3.639
 8484SOL    HW126351   6.837   6.496   3.576
 8484SOL    HW226352   6.786   6.416   3.709
 8485SOL     OW26353   3.895   2.525   0.223
 8485SOL    HW126354   3.902   2.531   0.124
 8485SOL    HW226355   3.928   2.436   0.254
 8486SOL     OW26356   2.589   1.129   2.520
 8486SOL    HW126357   2.559   1.037   2.496
 8486SOL    HW226358   2.578   1.189   2.441
 8487SOL     OW26359   5.971   2.453   6.057
 8487SOL    HW126360   5.884   2.502   6.046
 8487SOL    HW226361   6.012   2.477   6.145
 8488SOL     OW26362   5.482   6.105   1.736
 8488SOL    HW126363   5.556   6.169   1.758
 8488SOL    HW226364   5.402   6.127   1.791
 8489SOL     OW26365   6.210   1.734   1.756
 8489SOL    HW126366   6.238   1.826   1.726
 8489SOL    HW226367   6.125   1.740   1.807
 8490SOL     OW26368   3.132   6.810   5.763
 8490SOL    HW126369   3.099   6.904   5.756
 8490SOL    HW226370   3.152   6.788   5.858
 8491SOL     OW26371   1.871   5.915   1.953
 8491SOL    HW126372   1.862   5.899   1.855
 8491SOL    HW226373   1.857   6.012   1.972
 8492SOL     OW26374   5.847   4.771   5.188
 8492SOL    HW126375   5.804   4.706   5.125
 8492SOL    HW226376   5.850   4.862   5.146
 8493SOL     OW26377   2.154   2.623   6.013
 8493SOL    HW126378   2.089   2.592   6.083
 8493SOL    HW226379   2.169   2.549   5.947
 8494SOL     OW26380   4.276   5.414   1.800
 8494SOL    HW126381   4.276   5.501   1.850
 8494SOL    HW226382   4.182   5.388   1.778
 8495SOL     OW26383   0.325   4.817   1.366
 8495SOL    HW126384   0.294   4.798   1.272
 8495SOL    HW226385   0.422   4.797   1.374
 8496SOL     OW26386   0.682   1.404   2.518
 8496SOL    HW126387   0.728   1.317   2.537
 8496SOL    HW226388   0.668   1.453   2.603
 8497SOL     OW26389   0.100   1.513   3.635
 8497SOL    HW126390   0.020   1.480   3.586
 8497SOL    HW226391   0.079   1.519   3.733
 8498SOL     OW26392   6.444   6.408   3.325
 8498SOL    HW126393   6.428   6.317   3.364
 8498SOL    HW226394   6.360   6.442   3.284
 8499SOL     OW26395   2.013   3.625   6.865
 8499SOL    HW126396   2.062   3.569   6.798
 8499SOL    HW226397   1.960   3.695   6.818
 8500SOL     OW26398   1.795   6.089   5.934
 8500SOL    HW126399   1.722   6.089   5.865
 8500SOL    HW226400   1.796   6.001   5.981
 8501SOL     OW26401   0.080   2.788   5.609
 8501SOL    HW126402   0.136   2.793   5.692
 8501SOL    HW226403   0.135   2.755   5.533
 8502SOL     OW26404   0.661   2.808   1.444
 8502SOL    HW126405   0.611   2.890   1.468
 8502SOL    HW226406   0.682   2.756   1.527
 8503SOL     OW26407   0.635   5.577   4.693
 8503SOL    HW126408   0.640   5.552   4.597
 8503SOL    HW226409   0.722   5.558   4.738
 8504SOL     OW26410   1.841   5.235   2.261
 8504SOL    HW126411   1.907   5.310   2.266
 8504SOL    HW226412   1.855   5.173   2.338
 8505SOL     OW26413   6.125   3.953   3.291
 8505SOL    HW126414   6.038   3.943   3.338
 8505SOL    HW226415   6.175   3.866   3.294
 8506SOL     OW26416   1.222   1.561   6.985
 8506SOL    HW126417   1.263   1.573   0.048
 8506SOL    HW226418   1.134   1.513   6.995
 8507SOL     OW26419   3.641   6.668   5.355
 8507SOL    HW126420   3.566   6.629   5.302
 8507SOL    HW226421   3.634   6.641   5.450
 8508SOL     OW26422   4.673   1.781   4.929
 8508SOL    HW126423   4.588   1.834   4.930
 8508SOL    HW226424   4.747   1.838   4.893
 8509SOL     OW26425   5.145   0.459   3.457
 8509SOL    HW126426   5.222   0.519   3.437
 8509SOL    HW226427   5.154   0.374   3.405
 8510SOL     OW26428   5.807   4.204   3.112
 8510SOL    HW126429   5.814   4.163   3.021
 8510SOL    HW226430   5.725   4.169   3.158
 8511SOL     OW26431   6.063   3.815   2.973
 8511SOL    HW126432   6.035   3.754   2.899
 8511SOL    HW226433   6.030   3.779   3.061
 8512SOL     OW26434   2.923   0.933   2.648
 8512SOL    HW126435   2.868   0.855   2.675
 8512SOL    HW226436   2.876   1.018   2.673
 8513SOL     OW26437   6.810   4.920   0.946
 8513SOL    HW126438   6.742   4.877   0.888
 8513SOL    HW226439   6.816   4.872   1.033
 8514SOL     OW26440   2.497   1.006   3.712
 8514SOL    HW126441   2.518   0.921   3.663
 8514SOL    HW226442   2.572   1.028   3.774
 8515SOL     OW26443   4.892   2.543   1.430
 8515SOL    HW126444   4.889   2.596   1.514
 8515SOL    HW226445   4.875   2.603   1.352
 8516SOL     OW26446   0.130   1.603   2.176
 8516SOL    HW126447   0.073   1.672   2.221
 8516SOL    HW226448   0.124   1.614   2.077
 8517SOL     OW26449   0.560   2.813   4.957
 8517SOL    HW126450   0.511   2.834   4.872
 8517SOL    HW226451   0.626   2.885   4.976
 8518SOL     OW26452   4.635   4.280   6.537
 8518SOL    HW126453   4.629   4.235   6.626
 8518SOL    HW226454   4.547   4.319   6.513
 8519SOL     OW26455   1.448   5.219   2.028
 8519SOL    HW126456   1.421   5.215   2.125
 8519SOL    HW226457   1.424   5.309   1.991
 8520SOL     OW26458   3.837   1.090   0.918
 8520SOL    HW126459   3.795   1.118   0.832
 8520SOL    HW226460   3.851   1.170   0.976
 8521SOL     OW26461   2.126   5.427   5.739
 8521SOL    HW126462   2.160   5.522   5.740
 8521SOL    HW226463   2.032   5.425   5.705
 8522SOL     OW26464   0.896   5.691   1.817
 8522SOL    HW126465   0.910   5.784   1.851
 8522SOL    HW226466   0.910   5.689   1.718
 8523SOL     OW26467   2.967   6.428   0.127
 8523SOL    HW126468   2.872   6.402   0.142
 8523SOL    HW226469   2.971   6.508   0.067
 8524SOL     OW26470   1.461   2.597   4.732
 8524SOL    HW126471   1.529   2.565   4.799
 8524SOL    HW226472   1.474   2.695   4.716
 8525SOL     OW26473   5.809   4.535   4.037
 8525SOL    HW126474   5.865   4.482   3.974
 8525SOL    HW226475   5.808   4.490   4.126
 8526SOL     OW26476   2.821   4.058   0.913
 8526SOL    HW126477   2.830   4.016   1.003
 8526SOL    HW226478   2.759   4.137   0.920
 8527SOL     OW26479   3.341   0.368   5.159
 8527SOL    HW126480   3.248   0.399   5.139
 8527SOL    HW226481   3.387   0.343   5.074
 8528SOL     OW26482   4.852   3.280   6.127
 8528SOL    HW126483   4.795   3.252   6.204
 8528SOL    HW226484   4.940   3.234   6.132
 8529SOL     OW26485   0.851   6.875   6.616
 8529SOL    HW126486   0.938   6.830   6.598
 8529SOL    HW226487   0.867   6.964   6.657
 8530SOL     OW26488   1.342   4.573   5.979
 8530SOL    HW126489   1.402   4.652   5.965
 8530SOL    HW226490   1.366   4.528   6.065
 8531SOL     OW26491   5.723   4.618   2.821
 8531SOL    HW126492   5.816   4.643   2.849
 8531SOL    HW226493   5.718   4.616   2.721
 8532SOL     OW26494   4.102   5.425   5.024
 8532SOL    HW126495   4.010   5.438   5.061
 8532SOL    HW226496   4.099   5.427   4.924
 8533SOL     OW26497   1.472   0.424   5.683
 8533SOL    HW126498   1.502   0.329   5.676
 8533SOL    HW226499   1.387   0.427   5.736
 8534SOL     OW26500   7.004   3.672   3.403
 8534SOL    HW126501   0.057   3.700   3.454
 8534SOL    HW226502   6.923   3.682   3.461
 8535SOL     OW26503   0.600   2.180   4.996
 8535SOL    HW126504   0.697   2.202   4.990
 8535SOL    HW226505   0.565   2.157   4.905
 8536SOL     OW26506   6.097   2.186   5.011
 8536SOL    HW126507   6.165   2.129   5.056
 8536SOL    HW226508   6.034   2.224   5.079
 8537SOL     OW26509   5.712   1.980   1.150
 8537SOL    HW126510   5.623   1.959   1.192
 8537SOL    HW226511   5.700   2.050   1.080
 8538SOL     OW26512   0.356   0.845   4.896
 8538SOL    HW126513   0.274   0.798   4.928
 8538SOL    HW226514   0.365   0.834   4.797
 8539SOL     OW26515   6.040   2.203   1.944
 8539SOL    HW126516   6.014   2.116   1.904
 8539SOL    HW226517   6.113   2.245   1.889
 8540SOL     OW26518   3.371   1.548   0.600
 8540SOL    HW126519   3.320   1.548   0.513
 8540SOL    HW226520   3.332   1.479   0.661
 8541SOL     OW26521   2.660   1.901   4.424
 8541SOL    HW126522   2.724   1.829   4.399
 8541SOL    HW226523   2.647   1.903   4.523
 8542SOL     OW26524   2.862   4.394   6.704
 8542SOL    HW126525   2.802   4.474   6.696
 8542SOL    HW226526   2.898   4.370   6.614
 8543SOL     OW26527   3.142   1.633   5.669
 8543SOL    HW126528   3.152   1.732   5.676
 8543SOL    HW226529   3.177   1.589   5.751
 8544SOL     OW26530   5.389   3.076   4.653
 8544SOL    HW126531   5.337   3.052   4.735
 8544SOL    HW226532   5.486   3.081   4.676
 8545SOL     OW26533   3.501   6.630   4.676
 8545SOL    HW126534   3.464   6.547   4.719
 8545SOL    HW226535   3.459   6.710   4.716
 8546SOL     OW26536   6.746   0.105   1.766
 8546SOL    HW126537   6.771   0.130   1.860
 8546SOL    HW226538   6.673   0.165   1.734
 8547SOL     OW26539   0.118   0.396   5.349
 8547SOL    HW126540   0.171   0.338   5.411
 8547SOL    HW226541   0.142   0.374   5.254
 8548SOL     OW26542   0.053   3.461   5.870
 8548SOL    HW126543   6.997   3.449   5.817
 8548SOL    HW226544   0.106   3.536   5.832
 8549SOL     OW26545   0.943   2.564   3.872
 8549SOL    HW126546   0.931   2.571   3.773
 8549SOL    HW226547   0.880   2.497   3.910
 8550SOL     OW26548   1.153   3.963   6.106
 8550SOL    HW126549   1.130   4.019   6.027
 8550SOL    HW226550   1.145   3.866   6.081
 8551SOL     OW26551   3.162   2.937   7.027
 8551SOL    HW126552   3.210   2.876   6.964
 8551SOL    HW226553   3.201   2.927   0.091
 8552SOL     OW26554   2.693   0.299   2.369
 8552SOL    HW126555   2.614   0.288   2.430
 8552SOL    HW226556   2.755   0.221   2.381
 8553SOL     OW26557   4.426   4.476   0.043
 8553SOL    HW126558   4.364   4.442   7.000
 8553SOL    HW226559   4.398   4.567   0.072
 8554SOL     OW26560   0.576   5.962   1.263
 8554SOL    HW126561   0.571   5.966   1.363
 8554SOL    HW226562   0.586   5.867   1.233
 8555SOL     OW26563   3.991   1.608   3.122
 8555SOL    HW126564   3.896   1.588   3.144
 8555SOL    HW226565   3.995   1.689   3.063
 8556SOL     OW26566   2.050   6.240   5.252
 8556SOL    HW126567   2.028   6.330   5.290
 8556SOL    HW226568   1.970   6.205   5.202
 8557SOL     OW26569   6.620   0.588   1.244
 8557SOL    HW126570   6.665   0.629   1.323
 8557SOL    HW226571   6.526   0.620   1.238
 8558SOL     OW26572   1.951   5.543   3.047
 8558SOL    HW126573   2.006   5.622   3.018
 8558SOL    HW226574   2.004   5.486   3.110
 8559SOL     OW26575   1.494   6.236   2.362
 8559SOL    HW126576   1.430   6.229   2.285
 8559SOL    HW226577   1.587   6.249   2.328
 8560SOL     OW26578   1.192   5.185   1.451
 8560SOL    HW126579   1.190   5.280   1.482
 8560SOL    HW226580   1.160   5.125   1.525
 8561SOL     OW26581   3.463   0.019   3.882
 8561SOL    HW126582   3.369   7.021   3.902
 8561SOL    HW226583   3.517   6.964   3.865
 8562SOL     OW26584   3.651   0.056   0.046
 8562SOL    HW126585   3.719   0.055   0.119
 8562SOL    HW226586   3.644   6.993   0.005
 8563SOL     OW26587   0.840   4.783   1.893
 8563SOL    HW126588   0.866   4.722   1.968
 8563SOL    HW226589   0.814   4.873   1.930
 8564SOL     OW26590   3.373   6.565   5.815
 8564SOL    HW126591   3.405   6.471   5.803
 8564SOL    HW226592   3.375   6.589   5.911
 8565SOL     OW26593   3.667   5.466   1.134
 8565SOL    HW126594   3.725   5.499   1.209
 8565SOL    HW226595   3.693   5.512   1.049
 8566SOL     OW26596   1.902   0.146   2.232
 8566SOL    HW126597   1.826   0.129   2.295
 8566SOL    HW226598   1.867   0.145   2.138
 8567SOL     OW26599   1.180   2.076   2.353
 8567SOL    HW126600   1.184   1.977   2.338
 8567SOL    HW226601   1.234   2.101   2.433
 8568SOL     OW26602   5.756   1.646   0.557
 8568SOL    HW126603   5.682   1.649   0.625
 8568SOL    HW226604   5.717   1.634   0.466
 8569SOL     OW26605   5.460   1.837   5.878
 8569SOL    HW126606   5.416   1.850   5.967
 8569SOL    HW226607   5.532   1.768   5.886
 8570SOL     OW26608   1.359   1.739   4.814
 8570SOL    HW126609   1.353   1.808   4.886
 8570SOL    HW226610   1.272   1.690   4.809
 8571SOL     OW26611   0.780   0.089   4.853
 8571SOL    HW126612   0.835   0.122   4.930
 8571SOL    HW226613   0.691   0.136   4.853
 8572SOL     OW26614   1.947   4.104   5.024
 8572SOL    HW126615   1.858   4.060   5.030
 8572SOL    HW226616   1.941   4.197   5.062
 8573SOL     OW26617   3.007   5.736   6.337
 8573SOL    HW126618   3.053   5.727   6.425
 8573SOL    HW226619   2.934   5.669   6.331
 8574SOL     OW26620   6.327   6.770   6.168
 8574SOL    HW126621   6.344   6.685   6.119
 8574SOL    HW226622   6.407   6.830   6.159
 8575SOL     OW26623   3.525   1.523   3.314
 8575SOL    HW126624   3.449   1.478   3.360
 8575SOL    HW226625   3.530   1.618   3.343
 8576SOL     OW26626   1.867   4.652   3.988
 8576SOL    HW126627   1.828   4.741   4.011
 8576SOL    HW226628   1.851   4.588   4.063
 8577SOL     OW26629   1.381   0.377   6.229
 8577SOL    HW126630   1.473   0.398   6.194
 8577SOL    HW226631   1.319   0.364   6.151
 8578SOL     OW26632   6.798   4.753   5.815
 8578SOL    HW126633   6.810   4.741   5.914
 8578SOL    HW226634   6.736   4.684   5.781
 8579SOL     OW26635   1.092   5.884   1.917
 8579SOL    HW126636   1.071   5.850   2.009
 8579SOL    HW226637   1.191   5.879   1.901
 8580SOL     OW26638   2.258   6.057   0.761
 8580SOL    HW126639   2.208   5.976   0.729
 8580SOL    HW226640   2.341   6.028   0.808
 8581SOL     OW26641   3.763   4.801   1.465
 8581SOL    HW126642   3.831   4.777   1.395
 8581SOL    HW226643   3.700   4.869   1.428
 8582SOL     OW26644   4.719   4.731   5.649
 8582SOL    HW126645   4.793   4.754   5.587
 8582SOL    HW226646   4.677   4.645   5.621
 8583SOL     OW26647   2.841   6.818   2.619
 8583SOL    HW126648   2.836   6.783   2.712
 8583SOL    HW226649   2.896   6.755   2.563
 8584SOL     OW26650   0.527   6.627   5.568
 8584SOL    HW126651   0.601   6.567   5.599
 8584SOL    HW226652   0.486   6.673   5.646
 8585SOL     OW26653   6.431   1.596   0.779
 8585SOL    HW126654   6.339   1.556   0.776
 8585SOL    HW226655   6.479   1.563   0.860
 8586SOL     OW26656   3.924   6.856   1.307
 8586SOL    HW126657   4.022   6.841   1.299
 8586SOL    HW226658   3.874   6.779   1.269
 8587SOL     OW26659   0.894   1.066   5.074
 8587SOL    HW126660   0.973   1.082   5.016
 8587SOL    HW226661   0.921   1.071   5.170
 8588SOL     OW26662   4.778   1.106   6.794
 8588SOL    HW126663   4.689   1.084   6.753
 8588SOL    HW226664   4.847   1.043   6.758
 8589SOL     OW26665   6.551   2.602   5.358
 8589SOL    HW126666   6.589   2.569   5.271
 8589SOL    HW226667   6.526   2.698   5.349
 8590SOL     OW26668   0.762   1.134   2.649
 8590SOL    HW126669   0.671   1.103   2.623
 8590SOL    HW226670   0.763   1.155   2.747
 8591SOL     OW26671   0.160   4.024   0.532
 8591SOL    HW126672   0.256   4.015   0.506
 8591SOL    HW226673   0.114   3.936   0.521
 8592SOL     OW26674   6.934   2.333   0.193
 8592SOL    HW126675   6.881   2.409   0.157
 8592SOL    HW226676   7.026   2.365   0.217
 8593SOL     OW26677   2.998   1.004   6.388
 8593SOL    HW126678   2.959   1.093   6.366
 8593SOL    HW226679   3.086   1.016   6.433
 8594SOL     OW26680   6.228   2.429   5.959
 8594SOL    HW126681   6.137   2.415   5.997
 8594SOL    HW226682   6.281   2.487   6.020
 8595SOL     OW26683   6.217   0.955   3.800
 8595SOL    HW126684   6.233   0.869   3.751
 8595SOL    HW226685   6.300   1.011   3.796
 8596SOL     OW26686   1.397   4.502   3.337
 8596SOL    HW126687   1.371   4.406   3.342
 8596SOL    HW226688   1.492   4.513   3.369
 8597SOL     OW26689   5.244   1.929   1.437
 8597SOL    HW126690   5.342   1.949   1.443
 8597SOL    HW226691   5.198   2.002   1.387
 8598SOL     OW26692   5.841   6.970   5.923
 8598SOL    HW126693   5.879   7.012   6.005
 8598SOL    HW226694   5.741   6.972   5.927
 8599SOL     OW26695   1.205   2.567   4.616
 8599SOL    HW126696   1.279   2.555   4.683
 8599SOL    HW226697   1.244   2.595   4.528
 8600SOL     OW26698   5.358   3.412   0.035
 8600SOL    HW126699   5.431   3.420   0.103
 8600SOL    HW226700   5.340   3.502   7.023
 8601SOL     OW26701   0.522   1.711   3.651
 8601SOL    HW126702   0.467   1.632   3.622
 8601SOL    HW226703   0.615   1.680   3.673
 8602SOL     OW26704   2.517   6.484   2.056
 8602SOL    HW126705   2.531   6.418   1.982
 8602SOL    HW226706   2.605   6.515   2.091
 8603SOL     OW26707   5.243   6.980   0.296
 8603SOL    HW126708   5.298   7.003   0.216
 8603SOL    HW226709   5.163   0.013   0.300
 8604SOL     OW26710   1.010   2.402   6.123
 8604SOL    HW126711   0.979   2.457   6.046
 8604SOL    HW226712   1.100   2.363   6.103
 8605SOL     OW26713   1.555   5.223   3.597
 8605SOL    HW126714   1.587   5.170   3.675
 8605SOL    HW226715   1.509   5.306   3.630
 8606SOL     OW26716   2.305   2.606   6.897
 8606SOL    HW126717   2.365   2.592   6.976
 8606SOL    HW226718   2.339   2.551   6.820
 8607SOL     OW26719   2.618   4.508   6.283
 8607SOL    HW126720   2.619   4.566   6.201
 8607SOL    HW226721   2.691   4.538   6.345
 8608SOL     OW26722   2.154   4.632   2.263
 8608SOL    HW126723   2.166   4.683   2.349
 8608SOL    HW226724   2.056   4.616   2.248
 8609SOL     OW26725   4.991   0.321   3.861
 8609SOL    HW126726   4.953   0.351   3.949
 8609SOL    HW226727   5.008   0.223   3.864
 8610SOL     OW26728   6.624   0.752   3.324
 8610SOL    HW126729   6.707   0.760   3.268
 8610SOL    HW226730   6.651   0.744   3.420
 8611SOL     OW26731   3.015   1.561   4.283
 8611SOL    HW126732   2.923   1.568   4.245
 8611SOL    HW226733   3.050   1.469   4.269
 8612SOL     OW26734   2.229   3.492   1.263
 8612SOL    HW126735   2.153   3.482   1.328
 8612SOL    HW226736   2.210   3.567   1.201
 8613SOL     OW26737   3.025   1.957   1.259
 8613SOL    HW126738   3.071   1.962   1.348
 8613SOL    HW226739   3.086   1.989   1.187
 8614SOL     OW26740   1.160   2.785   2.784
 8614SOL    HW126741   1.202   2.851   2.722
 8614SOL    HW226742   1.191   2.803   2.878
 8615SOL     OW26743   4.915   2.022   5.127
 8615SOL    HW126744   4.910   1.953   5.199
 8615SOL    HW226745   4.840   2.087   5.137
 8616SOL     OW26746   2.971   4.799   1.812
 8616SOL    HW126747   3.000   4.875   1.871
 8616SOL    HW226748   2.927   4.729   1.867
 8617SOL     OW26749   6.169   0.905   4.082
 8617SOL    HW126750   6.096   0.851   4.125
 8617SOL    HW226751   6.157   0.904   3.983
 8618SOL     OW26752   6.494   4.322   1.371
 8618SOL    HW126753   6.469   4.307   1.275
 8618SOL    HW226754   6.593   4.316   1.381
 8619SOL     OW26755   3.960   5.051   2.924
 8619SOL    HW126756   4.055   5.085   2.925
 8619SOL    HW226757   3.961   4.951   2.918
 8620SOL     OW26758   2.054   6.091   4.141
 8620SOL    HW126759   2.058   5.996   4.170
 8620SOL    HW226760   1.998   6.143   4.206
 8621SOL     OW26761   4.961   2.854   2.141
 8621SOL    HW126762   4.878   2.808   2.109
 8621SOL    HW226763   4.937   2.946   2.173
 8622SOL     OW26764   5.187   4.466   1.393
 8622SOL    HW126765   5.210   4.375   1.428
 8622SOL    HW226766   5.268   4.523   1.391
 8623SOL     OW26767   0.659   4.416   5.080
 8623SOL    HW126768   0.705   4.419   5.169
 8623SOL    HW226769   0.561   4.425   5.092
 8624SOL     OW26770   2.977   4.190   5.785
 8624SOL    HW126771   2.974   4.141   5.697
 8624SOL    HW226772   2.921   4.140   5.852
 8625SOL     OW26773   4.915   0.407   5.178
 8625SOL    HW126774   4.847   0.347   5.220
 8625SOL    HW226775   4.964   0.457   5.250
 8626SOL     OW26776   3.993   2.939   7.001
 8626SOL    HW126777   4.012   3.010   0.041
 8626SOL    HW226778   4.067   2.871   7.001
 8627SOL     OW26779   2.251   1.788   2.037
 8627SOL    HW126780   2.326   1.736   2.076
 8627SOL    HW226781   2.287   1.870   1.992
 8628SOL     OW26782   6.174   6.661   6.917
 8628SOL    HW126783   6.186   6.727   6.992
 8628SOL    HW226784   6.185   6.568   6.952
 8629SOL     OW26785   1.931   6.822   5.570
 8629SOL    HW126786   1.939   6.820   5.470
 8629SOL    HW226787   1.918   6.916   5.601
 8630SOL     OW26788   4.928   3.526   4.027
 8630SOL    HW126789   4.914   3.461   3.952
 8630SOL    HW226790   4.914   3.480   4.115
 8631SOL     OW26791   1.266   5.641   6.231
 8631SOL    HW126792   1.311   5.552   6.233
 8631SOL    HW226793   1.205   5.645   6.152
 8632SOL     OW26794   3.955   4.791   5.220
 8632SOL    HW126795   3.960   4.740   5.306
 8632SOL    HW226796   4.042   4.786   5.172
 8633SOL     OW26797   5.433   2.761   5.767
 8633SOL    HW126798   5.384   2.710   5.696
 8633SOL    HW226799   5.504   2.817   5.724
 8634SOL     OW26800   4.919   4.115   6.553
 8634SOL    HW126801   4.936   4.107   6.651
 8634SOL    HW226802   4.922   4.211   6.527
 8635SOL     OW26803   5.649   2.863   6.974
 8635SOL    HW126804   5.656   2.952   7.019
 8635SOL    HW226805   5.737   2.817   6.979
 8636SOL     OW26806   5.287   6.328   1.071
 8636SOL    HW126807   5.260   6.263   1.142
 8636SOL    HW226808   5.315   6.414   1.114
 8637SOL     OW26809   1.911   1.935   6.844
 8637SOL    HW126810   1.822   1.897   6.816
 8637SOL    HW226811   1.964   1.959   6.762
 8638SOL     OW26812   4.036   2.264   5.357
 8638SOL    HW126813   4.094   2.196   5.312
 8638SOL    HW226814   4.078   2.292   5.443
 8639SOL     OW26815   4.573   3.173   6.810
 8639SOL    HW126816   4.510   3.096   6.805
 8639SOL    HW226817   4.616   3.176   6.900
 8640SOL     OW26818   4.047   3.809   0.593
 8640SOL    HW126819   3.988   3.730   0.611
 8640SOL    HW226820   4.140   3.778   0.577
 8641SOL     OW26821   4.051   4.759   4.150
 8641SOL    HW126822   4.083   4.822   4.079
 8641SOL    HW226823   4.006   4.811   4.223
 8642SOL     OW26824   1.182   6.660   3.782
 8642SOL    HW126825   1.194   6.595   3.856
 8642SOL    HW226826   1.085   6.670   3.761
 8643SOL     OW26827   1.640   0.324   6.997
 8643SOL    HW126828   1.659   0.420   6.978
 8643SOL    HW226829   1.626   0.311   0.067
 8644SOL     OW26830   5.259   2.752   6.183
 8644SOL    HW126831   5.172   2.701   6.184
 8644SOL    HW226832   5.280   2.781   6.089
 8645SOL     OW26833   4.357   5.053   1.721
 8645SOL    HW126834   4.379   5.148   1.697
 8645SOL    HW226835   4.378   4.994   1.643
 8646SOL     OW26836   0.390   1.488   6.882
 8646SOL    HW126837   0.414   1.565   6.940
 8646SOL    HW226838   0.331   1.519   6.807
 8647SOL     OW26839   2.636   5.010   0.079
 8647SOL    HW126840   2.637   5.107   0.102
 8647SOL    HW226841   2.722   4.967   0.109
 8648SOL     OW26842   6.329   0.417   1.574
 8648SOL    HW126843   6.354   0.467   1.657
 8648SOL    HW226844   6.245   0.457   1.535
 8649SOL     OW26845   6.067   5.876   0.569
 8649SOL    HW126846   6.034   5.782   0.575
 8649SOL    HW226847   6.123   5.897   0.649
 8650SOL     OW26848   1.690   6.681   4.948
 8650SOL    HW126849   1.662   6.603   5.002
 8650SOL    HW226850   1.614   6.745   4.937
 8651SOL     OW26851   3.744   1.556   1.054
 8651SOL    HW126852   3.696   1.644   1.050
 8651SOL    HW226853   3.809   1.557   1.130
 8652SOL     OW26854   0.890   4.915   3.312
 8652SOL    HW126855   0.911   4.834   3.368
 8652SOL    HW226856   0.816   4.893   3.248
 8653SOL     OW26857   6.846   1.366   6.050
 8653SOL    HW126858   6.864   1.446   5.993
 8653SOL    HW226859   6.800   1.395   6.134
 8654SOL     OW26860   0.123   4.815   1.730
 8654SOL    HW126861   0.209   4.767   1.717
 8654SOL    HW226862   0.134   4.911   1.705
 8655SOL     OW26863   5.616   0.260   4.317
 8655SOL    HW126864   5.623   0.359   4.303
 8655SOL    HW226865   5.695   0.228   4.370
 8656SOL     OW26866   6.113   1.346   2.208
 8656SOL    HW126867   6.186   1.395   2.255
 8656SOL    HW226868   6.132   1.248   2.209
 8657SOL     OW26869   5.921   6.141   0.362
 8657SOL    HW126870   5.831   6.169   0.330
 8657SOL    HW226871   5.926   6.041   0.364
 8658SOL     OW26872   6.552   5.385   0.277
 8658SOL    HW126873   6.480   5.433   0.228
 8658SOL    HW226874   6.530   5.288   0.284
 8659SOL     OW26875   5.141   2.074   2.682
 8659SOL    HW126876   5.143   2.091   2.583
 8659SOL    HW226877   5.232   2.089   2.720
 8660SOL     OW26878   6.763   3.346   2.176
 8660SOL    HW126879   6.779   3.248   2.168
 8660SOL    HW226880   6.815   3.382   2.253
 8661SOL     OW26881   6.015   3.756   2.177
 8661SOL    HW126882   6.108   3.728   2.153
 8661SOL    HW226883   5.961   3.675   2.199
 8662SOL     OW26884   3.945   5.986   1.760
 8662SOL    HW126885   3.961   6.084   1.763
 8662SOL    HW226886   4.006   5.939   1.823
 8663SOL     OW26887   2.436   5.749   2.464
 8663SOL    HW126888   2.402   5.682   2.397
 8663SOL    HW226889   2.393   5.838   2.446
 8664SOL     OW26890   2.234   4.678   1.739
 8664SOL    HW126891   2.200   4.584   1.748
 8664SOL    HW226892   2.223   4.725   1.826
 8665SOL     OW26893   6.061   5.535   4.609
 8665SOL    HW126894   6.144   5.493   4.647
 8665SOL    HW226895   5.995   5.463   4.586
 8666SOL     OW26896   5.620   0.144   4.048
 8666SOL    HW126897   5.528   0.108   4.036
 8666SOL    HW226898   5.615   0.243   4.060
 8667SOL     OW26899   5.296   1.839   3.782
 8667SOL    HW126900   5.249   1.759   3.745
 8667SOL    HW226901   5.338   1.815   3.869
 8668SOL     OW26902   5.283   3.761   4.590
 8668SOL    HW126903   5.287   3.662   4.578
 8668SOL    HW226904   5.235   3.781   4.676
 8669SOL     OW26905   0.459   6.425   6.586
 8669SOL    HW126906   0.359   6.427   6.585
 8669SOL    HW226907   0.491   6.332   6.572
 8670SOL     OW26908   4.432   5.531   5.940
 8670SOL    HW126909   4.448   5.462   6.010
 8670SOL    HW226910   4.408   5.618   5.983
 8671SOL     OW26911   0.718   1.752   2.551
 8671SOL    HW126912   0.816   1.754   2.530
 8671SOL    HW226913   0.666   1.728   2.469
 8672SOL     OW26914   0.482   6.714   3.369
 8672SOL    HW126915   0.427   6.705   3.286
 8672SOL    HW226916   0.426   6.755   3.441
 8673SOL     OW26917   6.329   1.631   0.411
 8673SOL    HW126918   6.379   1.544   0.420
 8673SOL    HW226919   6.243   1.625   0.461
 8674SOL     OW26920   5.800   5.004   3.227
 8674SOL    HW126921   5.703   4.987   3.210
 8674SOL    HW226922   5.810   5.083   3.288
 8675SOL     OW26923   4.671   1.160   5.284
 8675SOL    HW126924   4.584   1.196   5.251
 8675SOL    HW226925   4.660   1.063   5.306
 8676SOL     OW26926   4.741   0.101   2.660
 8676SOL    HW126927   4.697   0.017   2.690
 8676SOL    HW226928   4.673   0.173   2.649
 8677SOL     OW26929   2.067   5.865   5.418
 8677SOL    HW126930   2.121   5.781   5.418
 8677SOL    HW226931   2.125   5.942   5.446
 8678SOL     OW26932   1.062   0.512   0.425
 8678SOL    HW126933   1.017   0.602   0.423
 8678SOL    HW226934   0.999   0.442   0.393
 8679SOL     OW26935   1.303   1.403   3.489
 8679SOL    HW126936   1.327   1.366   3.399
 8679SOL    HW226937   1.386   1.436   3.534
 8680SOL     OW26938   5.877   3.567   0.053
 8680SOL    HW126939   5.842   3.574   6.987
 8680SOL    HW226940   5.832   3.635   0.110
 8681SOL     OW26941   4.758   5.591   1.773
 8681SOL    HW126942   4.715   5.514   1.820
 8681SOL    HW226943   4.819   5.638   1.836
 8682SOL     OW26944   6.437   0.690   2.002
 8682SOL    HW126945   6.358   0.750   1.991
 8682SOL    HW226946   6.433   0.645   2.091
 8683SOL     OW26947   1.390   2.616   6.009
 8683SOL    HW126948   1.378   2.644   6.104
 8683SOL    HW226949   1.327   2.541   5.988
 8684SOL     OW26950   6.236   3.184   4.557
 8684SOL    HW126951   6.280   3.151   4.641
 8684SOL    HW226952   6.162   3.246   4.581
 8685SOL     OW26953   5.440   2.893   6.535
 8685SOL    HW126954   5.468   2.860   6.625
 8685SOL    HW226955   5.404   2.817   6.481
 8686SOL     OW26956   6.617   0.715   1.626
 8686SOL    HW126957   6.639   0.767   1.544
 8686SOL    HW226958   6.676   0.634   1.631
 8687SOL     OW26959   5.122   4.745   2.665
 8687SOL    HW126960   5.043   4.721   2.720
 8687SOL    HW226961   5.192   4.788   2.722
 8688SOL     OW26962   1.223   4.652   6.800
 8688SOL    HW126963   1.236   4.682   6.706
 8688SOL    HW226964   1.254   4.724   6.862
 8689SOL     OW26965   4.517   2.711   0.195
 8689SOL    HW126966   4.429   2.698   0.150
 8689SOL    HW226967   4.539   2.629   0.248
 8690SOL     OW26968   1.043   3.354   3.494
 8690SOL    HW126969   0.984   3.348   3.414
 8690SOL    HW226970   0.989   3.337   3.576
 8691SOL     OW26971   3.611   1.907   5.631
 8691SOL    HW126972   3.696   1.872   5.590
 8691SOL    HW226973   3.632   1.949   5.719
 8692SOL     OW26974   3.611   0.903   4.502
 8692SOL    HW126975   3.697   0.953   4.515
 8692SOL    HW226976   3.551   0.919   4.580
 8693SOL     OW26977   5.901   0.330   6.854
 8693SOL    HW126978   5.925   0.353   6.948
 8693SOL    HW226979   5.985   0.315   6.801
 8694SOL     OW26980   6.114   1.341   4.802
 8694SOL    HW126981   6.089   1.288   4.883
 8694SOL    HW226982   6.042   1.407   4.782
 8695SOL     OW26983   4.025   3.000   6.373
 8695SOL    HW126984   4.123   3.018   6.375
 8695SOL    HW226985   3.980   3.064   6.310
 8696SOL     OW26986   3.078   5.714   5.459
 8696SOL    HW126987   3.086   5.636   5.521
 8696SOL    HW226988   3.020   5.689   5.381
 8697SOL     OW26989   0.262   4.195   6.584
 8697SOL    HW126990   0.249   4.106   6.541
 8697SOL    HW226991   0.226   4.193   6.678
 8698SOL     OW26992   5.035   6.226   5.049
 8698SOL    HW126993   5.060   6.141   5.096
 8698SOL    HW226994   4.950   6.262   5.088
 8699SOL     OW26995   1.896   3.484   5.292
 8699SOL    HW126996   1.858   3.391   5.299
 8699SOL    HW226997   1.917   3.503   5.196
 8700SOL     OW26998   0.733   0.514   4.771
 8700SOL    HW126999   0.660   0.544   4.710
 8700SOL    HW227000   0.704   0.527   4.866
 8701SOL     OW27001   1.957   1.337   0.649
 8701SOL    HW127002   1.937   1.306   0.556
 8701SOL    HW227003   1.875   1.381   0.688
 8702SOL     OW27004   5.313   5.062   1.892
 8702SOL    HW127005   5.313   4.986   1.827
 8702SOL    HW227006   5.359   5.035   1.976
 8703SOL     OW27007   2.766   4.670   0.261
 8703SOL    HW127008   2.742   4.624   0.347
 8703SOL    HW227009   2.854   4.636   0.228
 8704SOL     OW27010   6.770   4.289   3.347
 8704SOL    HW127011   6.845   4.318   3.286
 8704SOL    HW227012   6.710   4.367   3.365
 8705SOL     OW27013   4.434   2.017   6.506
 8705SOL    HW127014   4.429   1.966   6.420
 8705SOL    HW227015   4.480   2.104   6.491
 8706SOL     OW27016   4.811   1.889   0.467
 8706SOL    HW127017   4.735   1.905   0.530
 8706SOL    HW227018   4.880   1.833   0.512
 8707SOL     OW27019   1.218   2.525   3.957
 8707SOL    HW127020   1.121   2.500   3.963
 8707SOL    HW227021   1.271   2.443   3.935
 8708SOL     OW27022   4.309   1.491   3.680
 8708SOL    HW127023   4.238   1.501   3.611
 8708SOL    HW227024   4.297   1.405   3.729
 8709SOL     OW27025   6.767   6.735   6.770
 8709SOL    HW127026   6.794   6.777   6.684
 8709SOL    HW227027   6.682   6.684   6.758
 8710SOL     OW27028   2.320   2.867   3.536
 8710SOL    HW127029   2.260   2.883   3.615
 8710SOL    HW227030   2.384   2.793   3.557
 8711SOL     OW27031   1.825   6.501   3.027
 8711SOL    HW127032   1.857   6.583   2.979
 8711SOL    HW227033   1.729   6.514   3.055
 8712SOL     OW27034   3.721   1.505   4.442
 8712SOL    HW127035   3.628   1.498   4.409
 8712SOL    HW227036   3.784   1.514   4.365
 8713SOL     OW27037   6.374   4.029   2.064
 8713SOL    HW127038   6.322   4.083   1.998
 8713SOL    HW227039   6.371   3.933   2.038
 8714SOL     OW27040   1.472   0.230   6.442
 8714SOL    HW127041   1.409   0.242   6.519
 8714SOL    HW227042   1.442   0.287   6.366
 8715SOL     OW27043   4.043   1.726   0.766
 8715SOL    HW127044   3.993   1.671   0.700
 8715SOL    HW227045   3.979   1.781   0.819
 8716SOL     OW27046   0.580   6.355   0.702
 8716SOL    HW127047   0.609   6.439   0.746
 8716SOL    HW227048   0.623   6.348   0.612
 8717SOL     OW27049   2.296   3.540   5.302
 8717SOL    HW127050   2.335   3.513   5.213
 8717SOL    HW227051   2.254   3.460   5.345
 8718SOL     OW27052   1.393   2.559   5.533
 8718SOL    HW127053   1.316   2.621   5.528
 8718SOL    HW227054   1.370   2.481   5.591
 8719SOL     OW27055   3.466   0.779   0.244
 8719SOL    HW127056   3.510   0.704   0.294
 8719SOL    HW227057   3.481   0.768   0.146
 8720SOL     OW27058   0.876   6.446   5.952
 8720SOL    HW127059   0.805   6.398   5.901
 8720SOL    HW227060   0.914   6.384   6.022
 8721SOL     OW27061   6.356   1.347   0.451
 8721SOL    HW127062   6.269   1.384   0.483
 8721SOL    HW227063   6.369   1.255   0.489
 8722SOL     OW27064   2.993   1.101   0.733
 8722SOL    HW127065   2.904   1.086   0.777
 8722SOL    HW227066   3.065   1.100   0.802
 8723SOL     OW27067   5.369   0.396   2.350
 8723SOL    HW127068   5.466   0.421   2.355
 8723SOL    HW227069   5.333   0.420   2.260
 8724SOL     OW27070   6.187   0.068   4.138
 8724SOL    HW127071   6.237   7.009   4.130
 8724SOL    HW227072   6.090   0.053   4.117
 8725SOL     OW27073   1.070   5.543   5.253
 8725SOL    HW127074   0.979   5.566   5.218
 8725SOL    HW227075   1.137   5.610   5.221
 8726SOL     OW27076   6.881   1.012   1.099
 8726SOL    HW127077   6.857   0.916   1.084
 8726SOL    HW227078   6.802   1.061   1.135
 8727SOL     OW27079   6.141   0.243   0.716
 8727SOL    HW127080   6.165   0.285   0.803
 8727SOL    HW227081   6.180   0.151   0.712
 8728SOL     OW27082   5.209   1.644   2.309
 8728SOL    HW127083   5.132   1.708   2.311
 8728SOL    HW227084   5.272   1.664   2.384
 8729SOL     OW27085   3.402   5.127   5.276
 8729SOL    HW127086   3.352   5.055   5.228
 8729SOL    HW227087   3.449   5.088   5.355
 8730SOL     OW27088   5.195   4.657   3.406
 8730SOL    HW127089   5.211   4.755   3.397
 8730SOL    HW227090   5.261   4.607   3.350
 8731SOL     OW27091   1.004   3.937   3.269
 8731SOL    HW127092   1.065   4.005   3.309
 8731SOL    HW227093   0.925   3.923   3.329
 8732SOL     OW27094   5.330   4.145   2.307
 8732SOL    HW127095   5.233   4.150   2.331
 8732SOL    HW227096   5.339   4.141   2.207
 8733SOL     OW27097   1.370   5.846   0.531
 8733SOL    HW127098   1.374   5.746   0.529
 8733SOL    HW227099   1.407   5.883   0.446
 8734SOL     OW27100   0.062   3.507   2.857
 8734SOL    HW127101   0.058   3.537   2.953
 8734SOL    HW227102   0.113   3.422   2.851
 8735SOL     OW27103   0.631   2.733   5.243
 8735SOL    HW127104   0.573   2.814   5.242
 8735SOL    HW227105   0.660   2.711   5.150
 8736SOL     OW27106   6.872   5.224   2.229
 8736SOL    HW127107   6.898   5.319   2.216
 8736SOL    HW227108   6.926   5.184   2.304
 8737SOL     OW27109   2.471   6.470   6.751
 8737SOL    HW127110   2.457   6.510   6.841
 8737SOL    HW227111   2.530   6.530   6.696
 8738SOL     OW27112   2.486   5.897   3.264
 8738SOL    HW127113   2.432   5.973   3.227
 8738SOL    HW227114   2.557   5.871   3.198
 8739SOL     OW27115   5.494   5.274   5.709
 8739SOL    HW127116   5.551   5.230   5.779
 8739SOL    HW227117   5.400   5.240   5.716
 8740SOL     OW27118   4.167   2.261   3.130
 8740SOL    HW127119   4.231   2.309   3.189
 8740SOL    HW227120   4.174   2.297   3.037
 8741SOL     OW27121   2.586   0.628   2.914
 8741SOL    HW127122   2.543   0.718   2.920
 8741SOL    HW227123   2.520   0.562   2.877
 8742SOL     OW27124   4.274   0.556   1.840
 8742SOL    HW127125   4.348   0.505   1.882
 8742SOL    HW227126   4.277   0.543   1.740
 8743SOL     OW27127   2.165   0.702   1.044
 8743SOL    HW127128   2.243   0.730   0.987
 8743SOL    HW227129   2.199   0.673   1.134
 8744SOL     OW27130   4.360   3.014   0.875
 8744SOL    HW127131   4.287   2.949   0.897
 8744SOL    HW227132   4.334   3.105   0.908
 8745SOL     OW27133   6.660   2.271   6.077
 8745SOL    HW127134   6.621   2.363   6.074
 8745SOL    HW227135   6.588   2.203   6.060
 8746SOL     OW27136   4.553   5.920   4.355
 8746SOL    HW127137   4.606   5.895   4.436
 8746SOL    HW227138   4.558   5.845   4.288
 8747SOL     OW27139   0.406   1.402   2.533
 8747SOL    HW127140   0.499   1.434   2.515
 8747SOL    HW227141   0.379   1.334   2.465
 8748SOL     OW27142   1.013   2.125   4.553
 8748SOL    HW127143   1.066   2.196   4.600
 8748SOL    HW227144   0.917   2.154   4.550
 8749SOL     OW27145   1.612   0.719   5.357
 8749SOL    HW127146   1.667   0.778   5.416
 8749SOL    HW227147   1.629   0.743   5.261
 8750SOL     OW27148   3.648   3.238   5.713
 8750SOL    HW127149   3.691   3.154   5.682
 8750SOL    HW227150   3.665   3.311   5.647
 8751SOL     OW27151   6.841   1.276   1.613
 8751SOL    HW127152   6.804   1.190   1.649
 8751SOL    HW227153   6.784   1.307   1.537
 8752SOL     OW27154   4.323   3.053   6.847
 8752SOL    HW127155   4.276   3.139   6.864
 8752SOL    HW227156   4.255   2.979   6.839
 8753SOL     OW27157   2.722   2.687   6.181
 8753SOL    HW127158   2.665   2.670   6.100
 8753SOL    HW227159   2.775   2.605   6.202
 8754SOL     OW27160   2.646   4.330   5.768
 8754SOL    HW127161   2.723   4.272   5.740
 8754SOL    HW227162   2.562   4.297   5.724
 8755SOL     OW27163   2.092   0.304   1.486
 8755SOL    HW127164   2.190   0.314   1.501
 8755SOL    HW227165   2.042   0.345   1.562
 8756SOL     OW27166   1.063   3.217   3.239
 8756SOL    HW127167   1.143   3.276   3.250
 8756SOL    HW227168   1.028   3.226   3.146
 8757SOL     OW27169   4.840   5.861   6.949
 8757SOL    HW127170   4.847   5.900   0.013
 8757SOL    HW227171   4.931   5.839   6.915
 8758SOL     OW27172   4.378   6.424   2.869
 8758SOL    HW127173   4.302   6.485   2.890
 8758SOL    HW227174   4.354   6.330   2.892
 8759SOL     OW27175   6.273   3.111   0.035
 8759SOL    HW127176   6.371   3.101   0.019
 8759SOL    HW227177   6.234   3.177   6.999
 8760SOL     OW27178   2.841   0.749   4.589
 8760SOL    HW127179   2.844   0.696   4.504
 8760SOL    HW227180   2.913   0.717   4.650
 8761SOL     OW27181   6.330   1.526   1.169
 8761SOL    HW127182   6.385   1.558   1.092
 8761SOL    HW227183   6.245   1.578   1.173
 8762SOL     OW27184   1.220   5.879   4.413
 8762SOL    HW127185   1.261   5.902   4.325
 8762SOL    HW227186   1.132   5.833   4.399
 8763SOL     OW27187   5.818   0.234   5.291
 8763SOL    HW127188   5.813   0.240   5.191
 8763SOL    HW227189   5.914   0.226   5.319
 8764SOL     OW27190   4.263   6.654   5.902
 8764SOL    HW127191   4.355   6.680   5.932
 8764SOL    HW227192   4.241   6.563   5.936
 8765SOL     OW27193   5.073   1.377   4.176
 8765SOL    HW127194   5.081   1.278   4.185
 8765SOL    HW227195   5.046   1.400   4.082
 8766SOL     OW27196   4.144   4.283   5.265
 8766SOL    HW127197   4.211   4.322   5.202
 8766SOL    HW227198   4.092   4.210   5.219
 8767SOL     OW27199   4.951   6.360   3.223
 8767SOL    HW127200   4.917   6.404   3.139
 8767SOL    HW227201   4.886   6.289   3.251
 8768SOL     OW27202   1.236   2.673   1.031
 8768SOL    HW127203   1.146   2.699   1.064
 8768SOL    HW227204   1.246   2.573   1.037
 8769SOL     OW27205   6.902   1.151   1.937
 8769SOL    HW127206   6.827   1.117   1.879
 8769SOL    HW227207   6.988   1.111   1.906
 8770SOL     OW27208   5.094   4.305   2.598
 8770SOL    HW127209   5.005   4.265   2.577
 8770SOL    HW227210   5.084   4.376   2.668
 8771SOL     OW27211   0.363   2.499   6.162
 8771SOL    HW127212   0.300   2.561   6.116
 8771SOL    HW227213   0.453   2.504   6.119
 8772SOL     OW27214   4.902   0.524   5.932
 8772SOL    HW127215   4.923   0.613   5.892
 8772SOL    HW227216   4.803   0.511   5.934
 8773SOL     OW27217   5.259   2.839   3.116
 8773SOL    HW127218   5.199   2.808   3.042
 8773SOL    HW227219   5.354   2.831   3.088
 8774SOL     OW27220   0.649   0.439   0.077
 8774SOL    HW127221   0.585   0.364   0.096
 8774SOL    HW227222   0.599   0.523   0.059
 8775SOL     OW27223   5.125   0.987   5.779
 8775SOL    HW127224   5.076   1.062   5.734
 8775SOL    HW227225   5.209   0.968   5.728
 8776SOL     OW27226   4.997   3.241   1.513
 8776SOL    HW127227   4.945   3.197   1.440
 8776SOL    HW227228   4.936   3.300   1.566
 8777SOL     OW27229   6.715   3.937   4.072
 8777SOL    HW127230   6.691   3.938   3.975
 8777SOL    HW227231   6.779   3.862   4.089
 8778SOL     OW27232   5.257   3.395   5.249
 8778SOL    HW127233   5.255   3.328   5.323
 8778SOL    HW227234   5.177   3.381   5.189
 8779SOL     OW27235   2.034   5.535   2.186
 8779SOL    HW127236   1.969   5.574   2.252
 8779SOL    HW227237   1.991   5.530   2.096
 8780SOL     OW27238   0.106   6.806   2.746
 8780SOL    HW127239   0.047   6.827   2.668
 8780SOL    HW227240   0.089   6.872   2.819
 8781SOL     OW27241   4.781   0.212   3.682
 8781SOL    HW127242   4.821   0.282   3.741
 8781SOL    HW227243   4.842   0.134   3.677
 8782SOL     OW27244   6.090   1.145   1.816
 8782SOL    HW127245   6.041   1.058   1.817
 8782SOL    HW227246   6.025   1.220   1.830
 8783SOL     OW27247   6.647   4.177   4.339
 8783SOL    HW127248   6.610   4.264   4.371
 8783SOL    HW227249   6.579   4.105   4.353
 8784SOL     OW27250   6.660   6.380   6.136
 8784SOL    HW127251   6.658   6.357   6.038
 8784SOL    HW227252   6.614   6.308   6.187
 8785SOL     OW27253   7.011   5.591   6.555
 8785SOL    HW127254   6.950   5.663   6.585
 8785SOL    HW227255   0.041   5.624   6.481
 8786SOL     OW27256   3.055   1.154   1.806
 8786SOL    HW127257   3.074   1.236   1.859
 8786SOL    HW227258   3.078   1.170   1.710
 8787SOL     OW27259   3.437   0.682   2.535
 8787SOL    HW127260   3.512   0.747   2.527
 8787SOL    HW227261   3.357   0.729   2.574
 8788SOL     OW27262   6.938   1.393   5.402
 8788SOL    HW127263   6.876   1.462   5.366
 8788SOL    HW227264   7.026   1.399   5.355
 8789SOL     OW27265   6.355   4.355   5.411
 8789SOL    HW127266   6.281   4.354   5.478
 8789SOL    HW227267   6.318   4.341   5.319
 8790SOL     OW27268   6.423   1.143   6.474
 8790SOL    HW127269   6.376   1.215   6.423
 8790SOL    HW227270   6.471   1.082   6.411
 8791SOL     OW27271   4.939   6.768   4.611
 8791SOL    HW127272   5.035   6.796   4.604
 8791SOL    HW227273   4.913   6.718   4.529
 8792SOL     OW27274   2.987   5.264   2.603
 8792SOL    HW127275   2.976   5.361   2.625
 8792SOL    HW227276   2.897   5.224   2.582
 8793SOL     OW27277   1.005   4.731   3.451
 8793SOL    HW127278   1.026   4.672   3.373
 8793SOL    HW227279   1.015   4.678   3.536
 8794SOL     OW27280   5.494   1.201   3.429
 8794SOL    HW127281   5.414   1.164   3.382
 8794SOL    HW227282   5.476   1.207   3.527
 8795SOL     OW27283   1.422   4.870   5.123
 8795SOL    HW127284   1.357   4.931   5.078
 8795SOL    HW227285   1.414   4.880   5.222
 8796SOL     OW27286   5.661   2.680   3.233
 8796SOL    HW127287   5.619   2.604   3.284
 8796SOL    HW227288   5.677   2.756   3.295
 8797SOL     OW27289   6.704   6.814   5.157
 8797SOL    HW127290   6.720   6.856   5.246
 8797SOL    HW227291   6.625   6.753   5.162
 8798SOL     OW27292   4.178   5.802   6.094
 8798SOL    HW127293   4.257   5.750   6.126
 8798SOL    HW227294   4.107   5.802   6.164
 8799SOL     OW27295   2.713   5.200   2.626
 8799SOL    HW127296   2.692   5.263   2.552
 8799SOL    HW227297   2.688   5.241   2.714
 8800SOL     OW27298   5.595   5.736   5.980
 8800SOL    HW127299   5.612   5.829   6.011
 8800SOL    HW227300   5.498   5.725   5.958
 8801SOL     OW27301   6.626   1.273   4.464
 8801SOL    HW127302   6.650   1.298   4.370
 8801SOL    HW227303   6.591   1.354   4.511
 8802SOL     OW27304   1.758   5.853   5.723
 8802SOL    HW127305   1.700   5.775   5.698
 8802SOL    HW227306   1.820   5.826   5.797
 8803SOL     OW27307   6.812   6.968   6.876
 8803SOL    HW127308   6.803   6.869   6.863
 8803SOL    HW227309   6.838   7.011   6.790
 8804SOL     OW27310   2.234   5.842   1.124
 8804SOL    HW127311   2.303   5.914   1.126
 8804SOL    HW227312   2.262   5.767   1.184
 8805SOL     OW27313   3.760   5.432   3.499
 8805SOL    HW127314   3.801   5.353   3.544
 8805SOL    HW227315   3.666   5.410   3.473
 8806SOL     OW27316   1.992   4.526   0.971
 8806SOL    HW127317   1.898   4.558   0.957
 8806SOL    HW227318   2.036   4.582   1.042
 8807SOL     OW27319   4.461   1.467   0.108
 8807SOL    HW127320   4.449   1.399   0.036
 8807SOL    HW227321   4.550   1.511   0.098
 8808SOL     OW27322   0.051   2.352   6.131
 8808SOL    HW127323   0.077   2.281   6.066
 8808SOL    HW227324   0.015   2.310   6.214
 8809SOL     OW27325   2.466   4.528   3.749
 8809SOL    HW127326   2.468   4.531   3.849
 8809SOL    HW227327   2.439   4.437   3.718
 8810SOL     OW27328   5.697   1.261   5.114
 8810SOL    HW127329   5.664   1.353   5.093
 8810SOL    HW227330   5.723   1.256   5.210
 8811SOL     OW27331   2.740   0.744   2.710
 8811SOL    HW127332   2.757   0.685   2.632
 8811SOL    HW227333   2.692   0.693   2.781
 8812SOL     OW27334   2.803   0.224   0.374
 8812SOL    HW127335   2.884   0.199   0.427
 8812SOL    HW227336   2.783   0.151   0.308
 8813SOL     OW27337   2.061   5.051   2.694
 8813SOL    HW127338   2.038   5.114   2.767
 8813SOL    HW227339   2.157   5.064   2.667
 8814SOL     OW27340   6.200   7.014   0.632
 8814SOL    HW127341   6.190   6.955   0.713
 8814SOL    HW227342   6.121   7.003   0.573
 8815SOL     OW27343   5.636   6.820   0.819
 8815SOL    HW127344   5.691   6.883   0.764
 8815SOL    HW227345   5.669   6.821   0.914
 8816SOL     OW27346   0.637   0.054   6.484
 8816SOL    HW127347   0.653   7.000   6.538
 8816SOL    HW227348   0.558   0.103   6.520
 8817SOL     OW27349   0.096   3.841   4.208
 8817SOL    HW127350   0.059   3.908   4.273
 8817SOL    HW227351   0.125   3.759   4.258
 8818SOL     OW27352   1.142   6.073   3.688
 8818SOL    HW127353   1.171   6.169   3.684
 8818SOL    HW227354   1.123   6.040   3.596
 8819SOL     OW27355   6.243   4.436   6.172
 8819SOL    HW127356   6.147   4.437   6.201
 8819SOL    HW227357   6.292   4.510   6.219
 8820SOL     OW27358   2.717   1.549   4.700
 8820SOL    HW127359   2.783   1.621   4.723
 8820SOL    HW227360   2.710   1.484   4.775
 8821SOL     OW27361   1.051   5.566   0.463
 8821SOL    HW127362   0.977   5.599   0.521
 8821SOL    HW227363   1.029   5.475   0.429
 8822SOL     OW27364   0.618   0.529   3.405
 8822SOL    HW127365   0.691   0.461   3.405
 8822SOL    HW227366   0.529   0.483   3.408
 8823SOL     OW27367   2.410   1.356   2.798
 8823SOL    HW127368   2.478   1.414   2.753
 8823SOL    HW227369   2.319   1.381   2.764
 8824SOL     OW27370   1.390   0.999   0.661
 8824SOL    HW127371   1.430   0.920   0.614
 8824SOL    HW227372   1.305   1.026   0.616
 8825SOL     OW27373   0.776   1.078   1.607
 8825SOL    HW127374   0.697   1.137   1.622
 8825SOL    HW227375   0.767   1.029   1.521
 8826SOL     OW27376   1.050   3.343   0.888
 8826SOL    HW127377   1.065   3.253   0.929
 8826SOL    HW227378   1.066   3.413   0.957
 8827SOL     OW27379   3.755   6.960   3.185
 8827SOL    HW127380   3.792   6.987   3.274
 8827SOL    HW227381   3.822   6.902   3.138
 8828SOL     OW27382   4.148   4.914   6.878
 8828SOL    HW127383   4.143   4.958   6.789
 8828SOL    HW227384   4.159   4.984   6.949
 8829SOL     OW27385   5.746   1.537   1.586
 8829SOL    HW127386   5.726   1.462   1.649
 8829SOL    HW227387   5.688   1.616   1.609
 8830SOL     OW27388   2.270   1.715   2.472
 8830SOL    HW127389   2.196   1.745   2.533
 8830SOL    HW227390   2.348   1.686   2.527
 8831SOL     OW27391   6.126   2.750   3.046
 8831SOL    HW127392   6.125   2.659   3.004
 8831SOL    HW227393   6.174   2.744   3.134
 8832SOL     OW27394   6.992   6.197   4.545
 8832SOL    HW127395   0.051   6.224   4.589
 8832SOL    HW227396   7.007   6.114   4.492
 8833SOL     OW27397   3.713   3.925   6.559
 8833SOL    HW127398   3.785   3.990   6.584
 8833SOL    HW227399   3.695   3.864   6.636
 8834SOL     OW27400   5.853   4.517   4.650
 8834SOL    HW127401   5.944   4.547   4.676
 8834SOL    HW227402   5.829   4.435   4.702
 8835SOL     OW27403   5.568   0.828   6.152
 8835SOL    HW127404   5.511   0.768   6.208
 8835SOL    HW227405   5.602   0.904   6.208
 8836SOL     OW27406   4.817   2.453   1.039
 8836SOL    HW127407   4.817   2.500   1.127
 8836SOL    HW227408   4.761   2.370   1.046
 8837SOL     OW27409   6.905   0.420   1.866
 8837SOL    HW127410   6.983   0.366   1.897
 8837SOL    HW227411   6.871   0.476   1.943
 8838SOL     OW27412   1.372   4.356   2.775
 8838SOL    HW127413   1.374   4.266   2.819
 8838SOL    HW227414   1.445   4.413   2.812
 8839SOL     OW27415   3.645   6.259   1.997
 8839SOL    HW127416   3.630   6.231   1.902
 8839SOL    HW227417   3.604   6.191   2.058
 8840SOL     OW27418   6.718   0.335   2.721
 8840SOL    HW127419   6.637   0.294   2.680
 8840SOL    HW227420   6.767   0.266   2.774
 8841SOL     OW27421   6.319   1.647   2.931
 8841SOL    HW127422   6.275   1.600   3.009
 8841SOL    HW227423   6.412   1.612   2.920
 8842SOL     OW27424   3.397   3.796   3.389
 8842SOL    HW127425   3.426   3.892   3.382
 8842SOL    HW227426   3.409   3.751   3.300
 8843SOL     OW27427   1.403   3.580   4.669
 8843SOL    HW127428   1.356   3.626   4.594
 8843SOL    HW227429   1.424   3.486   4.643
 8844SOL     OW27430   6.836   1.437   4.802
 8844SOL    HW127431   6.891   1.360   4.835
 8844SOL    HW227432   6.802   1.417   4.710
 8845SOL     OW27433   2.322   4.268   0.864
 8845SOL    HW127434   2.264   4.346   0.843
 8845SOL    HW227435   2.266   4.185   0.873
 8846SOL     OW27436   4.523   4.786   3.824
 8846SOL    HW127437   4.621   4.786   3.808
 8846SOL    HW227438   4.504   4.815   3.918
 8847SOL     OW27439   2.081   1.568   3.873
 8847SOL    HW127440   2.108   1.474   3.852
 8847SOL    HW227441   2.162   1.626   3.876
 8848SOL     OW27442   2.902   1.742   2.385
 8848SOL    HW127443   2.919   1.776   2.477
 8848SOL    HW227444   2.985   1.752   2.330
 8849SOL     OW27445   3.640   4.879   3.266
 8849SOL    HW127446   3.587   4.794   3.274
 8849SOL    HW227447   3.590   4.945   3.210
 8850SOL     OW27448   2.998   1.623   0.909
 8850SOL    HW127449   3.039   1.587   0.825
 8850SOL    HW227450   2.954   1.711   0.890
 8851SOL     OW27451   1.110   4.799   2.225
 8851SOL    HW127452   1.147   4.865   2.160
 8851SOL    HW227453   1.159   4.806   2.312
 8852SOL     OW27454   4.460   3.447   5.907
 8852SOL    HW127455   4.461   3.350   5.884
 8852SOL    HW227456   4.489   3.460   6.002
 8853SOL     OW27457   2.861   0.351   5.203
 8853SOL    HW127458   2.885   0.376   5.109
 8853SOL    HW227459   2.905   0.264   5.227
 8854SOL     OW27460   2.398   0.556   6.423
 8854SOL    HW127461   2.345   0.509   6.494
 8854SOL    HW227462   2.383   0.512   6.335
 8855SOL     OW27463   7.018   6.463   0.315
 8855SOL    HW127464   0.062   6.398   0.289
 8855SOL    HW227465   6.987   6.444   0.407
 8856SOL     OW27466   5.470   0.212   6.008
 8856SOL    HW127467   5.483   0.288   5.943
 8856SOL    HW227468   5.378   0.176   5.999
 8857SOL     OW27469   6.531   1.851   3.970
 8857SOL    HW127470   6.494   1.758   3.972
 8857SOL    HW227471   6.531   1.884   3.875
 8858SOL     OW27472   1.276   2.825   5.835
 8858SOL    HW127473   1.351   2.890   5.845
 8858SOL    HW227474   1.292   2.745   5.892
 8859SOL     OW27475   0.220   6.992   4.886
 8859SOL    HW127476   0.134   6.955   4.851
 8859SOL    HW227477   0.227   0.061   4.864
 8860SOL     OW27478   1.981   4.456   3.003
 8860SOL    HW127479   1.976   4.406   3.089
 8860SOL    HW227480   1.981   4.554   3.021
 8861SOL     OW27481   3.687   2.298   6.220
 8861SOL    HW127482   3.627   2.378   6.223
 8861SOL    HW227483   3.701   2.270   6.125
 8862SOL     OW27484   6.388   1.263   3.804
 8862SOL    HW127485   6.483   1.282   3.778
 8862SOL    HW227486   6.383   1.251   3.903
 8863SOL     OW27487   1.955   6.061   4.567
 8863SOL    HW127488   1.982   6.108   4.651
 8863SOL    HW227489   2.034   6.053   4.506
 8864SOL     OW27490   2.139   3.213   6.105
 8864SOL    HW127491   2.217   3.176   6.157
 8864SOL    HW227492   2.059   3.218   6.165
 8865SOL     OW27493   3.418   1.994   5.464
 8865SOL    HW127494   3.474   1.960   5.539
 8865SOL    HW227495   3.460   1.968   5.377
 8866SOL     OW27496   5.618   6.718   4.114
 8866SOL    HW127497   5.610   6.757   4.023
 8866SOL    HW227498   5.608   6.619   4.109
 8867SOL     OW27499   5.133   3.537   3.146
 8867SOL    HW127500   5.053   3.586   3.178
 8867SOL    HW227501   5.152   3.460   3.207
 8868SOL     OW27502   6.103   3.371   0.481
 8868SOL    HW127503   6.130   3.333   0.569
 8868SOL    HW227504   6.177   3.427   0.445
 8869SOL     OW27505   4.420   5.686   3.743
 8869SOL    HW127506   4.358   5.692   3.666
 8869SOL    HW227507   4.368   5.671   3.827
 8870SOL     OW27508   3.930   6.909   0.484
 8870SOL    HW127509   3.832   6.901   0.503
 8870SOL    HW227510   3.982   6.891   0.568
 8871SOL     OW27511   2.478   0.851   4.199
 8871SOL    HW127512   2.573   0.871   4.220
 8871SOL    HW227513   2.436   0.930   4.155
 8872SOL     OW27514   1.566   4.448   4.812
 8872SOL    HW127515   1.508   4.401   4.745
 8872SOL    HW227516   1.624   4.514   4.765
 8873SOL     OW27517   0.131   5.336   2.054
 8873SOL    HW127518   0.061   5.273   2.020
 8873SOL    HW227519   0.088   5.417   2.092
 8874SOL     OW27520   2.595   6.250   1.271
 8874SOL    HW127521   2.600   6.231   1.369
 8874SOL    HW227522   2.650   6.331   1.250
 8875SOL     OW27523   6.908   3.082   5.155
 8875SOL    HW127524   7.001   3.117   5.153
 8875SOL    HW227525   6.903   2.996   5.104
 8876SOL     OW27526   1.803   0.271   4.276
 8876SOL    HW127527   1.855   0.321   4.207
 8876SOL    HW227528   1.833   0.175   4.278
 8877SOL     OW27529   2.512   1.561   4.240
 8877SOL    HW127530   2.592   1.586   4.295
 8877SOL    HW227531   2.498   1.462   4.245
 8878SOL     OW27532   0.245   5.725   0.926
 8878SOL    HW127533   0.207   5.664   0.855
 8878SOL    HW227534   0.330   5.765   0.894
 8879SOL     OW27535   5.528   5.516   1.063
 8879SOL    HW127536   5.521   5.540   1.159
 8879SOL    HW227537   5.606   5.562   1.022
 8880SOL     OW27538   6.628   5.974   4.359
 8880SOL    HW127539   6.641   5.998   4.455
 8880SOL    HW227540   6.551   6.026   4.322
 8881SOL     OW27541   5.933   0.075   4.591
 8881SOL    HW127542   5.868   0.091   4.665
 8881SOL    HW227543   6.020   0.121   4.612
 8882SOL     OW27544   5.258   1.151   0.599
 8882SOL    HW127545   5.199   1.202   0.661
 8882SOL    HW227546   5.208   1.072   0.563
 8883SOL     OW27547   1.290   0.567   5.136
 8883SOL    HW127548   1.332   0.591   5.048
 8883SOL    HW227549   1.197   0.534   5.119
 8884SOL     OW27550   5.790   5.242   6.357
 8884SOL    HW127551   5.718   5.300   6.320
 8884SOL    HW227552   5.762   5.146   6.351
 8885SOL     OW27553   0.135   3.546   1.063
 8885SOL    HW127554   0.058   3.528   1.123
 8885SOL    HW227555   0.198   3.611   1.107
 8886SOL     OW27556   3.344   6.785   5.484
 8886SOL    HW127557   3.364   6.780   5.386
 8886SOL    HW227558   3.422   6.750   5.535
 8887SOL     OW27559   3.119   0.749   1.380
 8887SOL    HW127560   3.098   0.768   1.284
 8887SOL    HW227561   3.172   0.824   1.418
 8888SOL     OW27562   1.729   1.752   1.228
 8888SOL    HW127563   1.749   1.663   1.270
 8888SOL    HW227564   1.776   1.824   1.278
 8889SOL     OW27565   5.484   6.840   5.359
 8889SOL    HW127566   5.499   6.830   5.457
 8889SOL    HW227567   5.568   6.874   5.315
 8890SOL     OW27568   5.811   5.535   4.161
 8890SOL    HW127569   5.902   5.574   4.169
 8890SOL    HW227570   5.743   5.604   4.188
 8891SOL     OW27571   5.187   3.364   5.657
 8891SOL    HW127572   5.135   3.450   5.662
 8891SOL    HW227573   5.187   3.331   5.563
 8892SOL     OW27574   3.458   5.918   2.722
 8892SOL    HW127575   3.363   5.936   2.699
 8892SOL    HW227576   3.466   5.892   2.818
 8893SOL     OW27577   0.996   0.211   2.609
 8893SOL    HW127578   1.012   0.184   2.704
 8893SOL    HW227579   0.976   0.129   2.555
 8894SOL     OW27580   4.199   2.763   5.655
 8894SOL    HW127581   4.176   2.745   5.560
 8894SOL    HW227582   4.292   2.729   5.674
 8895SOL     OW27583   6.437   1.883   1.489
 8895SOL    HW127584   6.474   1.797   1.453
 8895SOL    HW227585   6.342   1.893   1.459
 8896SOL     OW27586   2.020   3.497   5.556
 8896SOL    HW127587   2.003   3.398   5.556
 8896SOL    HW227588   1.994   3.535   5.467
 8897SOL     OW27589   2.088   2.449   3.287
 8897SOL    HW127590   2.050   2.474   3.376
 8897SOL    HW227591   2.067   2.520   3.220
 8898SOL     OW27592   5.949   3.658   4.768
 8898SOL    HW127593   5.858   3.654   4.726
 8898SOL    HW227594   6.018   3.667   4.696
 8899SOL     OW27595   1.809   4.940   0.087
 8899SOL    HW127596   1.850   4.953   0.178
 8899SOL    HW227597   1.791   5.029   0.045
 8900SOL     OW27598   5.405   2.699   2.784
 8900SOL    HW127599   5.394   2.619   2.844
 8900SOL    HW227600   5.489   2.747   2.807
 8901SOL     OW27601   2.392   1.123   4.116
 8901SOL    HW127602   2.418   1.198   4.176
 8901SOL    HW227603   2.293   1.126   4.101
 8902SOL     OW27604   3.377   6.621   6.734
 8902SOL    HW127605   3.359   6.523   6.741
 8902SOL    HW227606   3.406   6.643   6.640
 8903SOL     OW27607   1.017   1.089   4.522
 8903SOL    HW127608   0.943   1.109   4.457
 8903SOL    HW227609   0.990   1.013   4.581
 8904SOL     OW27610   6.095   5.761   3.798
 8904SOL    HW127611   6.165   5.789   3.864
 8904SOL    HW227612   6.006   5.794   3.829
 8905SOL     OW27613   1.909   3.886   4.540
 8905SOL    HW127614   1.959   3.968   4.566
 8905SOL    HW227615   1.812   3.897   4.561
 8906SOL     OW27616   0.098   6.697   6.649
 8906SOL    HW127617   0.093   6.726   6.744
 8906SOL    HW227618   0.153   6.614   6.641
 8907SOL     OW27619   3.277   1.934   4.795
 8907SOL    HW127620   3.237   1.975   4.878
 8907SOL    HW227621   3.316   2.007   4.738
 8908SOL     OW27622   1.525   2.896   6.382
 8908SOL    HW127623   1.528   2.824   6.452
 8908SOL    HW227624   1.452   2.877   6.318
 8909SOL     OW27625   1.679   1.208   5.157
 8909SOL    HW127626   1.693   1.271   5.233
 8909SOL    HW227627   1.738   1.234   5.080
 8910SOL     OW27628   1.424   3.213   5.826
 8910SOL    HW127629   1.470   3.200   5.914
 8910SOL    HW227630   1.328   3.187   5.835
 8911SOL     OW27631   4.390   2.382   4.770
 8911SOL    HW127632   4.315   2.408   4.831
 8911SOL    HW227633   4.378   2.288   4.741
 8912SOL     OW27634   4.563   1.754   0.742
 8912SOL    HW127635   4.634   1.731   0.808
 8912SOL    HW227636   4.476   1.714   0.770
 8913SOL     OW27637   4.720   5.060   0.201
 8913SOL    HW127638   4.779   5.138   0.182
 8913SOL    HW227639   4.687   5.021   0.114
 8914SOL     OW27640   4.304   0.656   4.853
 8914SOL    HW127641   4.323   0.702   4.940
 8914SOL    HW227642   4.286   0.725   4.783
 8915SOL     OW27643   0.832   2.099   3.756
 8915SOL    HW127644   0.845   2.136   3.664
 8915SOL    HW227645   0.743   2.055   3.762
 8916SOL     OW27646   0.396   3.610   1.444
 8916SOL    HW127647   0.473   3.600   1.508
 8916SOL    HW227648   0.368   3.520   1.411
 8917SOL     OW27649   5.953   4.087   6.029
 8917SOL    HW127650   6.017   4.054   6.099
 8917SOL    HW227651   5.860   4.060   6.054
 8918SOL     OW27652   0.256   3.977   1.583
 8918SOL    HW127653   0.182   4.044   1.585
 8918SOL    HW227654   0.220   3.887   1.559
 8919SOL     OW27655   4.239   3.984   0.970
 8919SOL    HW127656   4.289   4.011   0.888
 8919SOL    HW227657   4.172   3.913   0.946
 8920SOL     OW27658   0.922   6.508   6.444
 8920SOL    HW127659   0.877   6.421   6.426
 8920SOL    HW227660   0.868   6.582   6.403
 8921SOL     OW27661   2.532   2.023   2.810
 8921SOL    HW127662   2.438   1.990   2.826
 8921SOL    HW227663   2.584   2.018   2.895
 8922SOL     OW27664   3.152   5.368   1.649
 8922SOL    HW127665   3.069   5.318   1.672
 8922SOL    HW227666   3.174   5.353   1.552
 8923SOL     OW27667   1.649   3.907   5.961
 8923SOL    HW127668   1.631   3.809   5.950
 8923SOL    HW227669   1.569   3.951   6.002
 8924SOL     OW27670   3.486   6.092   5.498
 8924SOL    HW127671   3.468   6.019   5.564
 8924SOL    HW227672   3.541   6.056   5.422
 8925SOL     OW27673   0.838   0.446   2.688
 8925SOL    HW127674   0.842   0.367   2.627
 8925SOL    HW227675   0.931   0.476   2.709
 8926SOL     OW27676   5.888   3.370   6.810
 8926SOL    HW127677   5.867   3.295   6.746
 8926SOL    HW227678   5.896   3.456   6.760
 8927SOL     OW27679   0.963   1.782   4.533
 8927SOL    HW127680   1.024   1.846   4.580
 8927SOL    HW227681   0.869   1.815   4.538
 8928SOL     OW27682   6.602   0.788   5.188
 8928SOL    HW127683   6.587   0.693   5.162
 8928SOL    HW227684   6.514   0.830   5.211
 8929SOL     OW27685   6.882   3.251   3.962
 8929SOL    HW127686   6.798   3.294   3.930
 8929SOL    HW227687   6.956   3.272   3.899
 8930SOL     OW27688   2.093   4.528   4.400
 8930SOL    HW127689   2.087   4.441   4.350
 8930SOL    HW227690   2.091   4.510   4.499
 8931SOL     OW27691   3.381   2.980   1.484
 8931SOL    HW127692   3.384   2.993   1.583
 8931SOL    HW227693   3.287   2.956   1.456
 8932SOL     OW27694   5.598   0.642   0.086
 8932SOL    HW127695   5.552   0.603   0.166
 8932SOL    HW227696   5.530   0.663   0.016
 8933SOL     OW27697   0.885   2.305   5.591
 8933SOL    HW127698   0.794   2.272   5.567
 8933SOL    HW227699   0.919   2.255   5.670
 8934SOL     OW27700   3.119   5.565   3.554
 8934SOL    HW127701   3.054   5.580   3.480
 8934SOL    HW227702   3.130   5.467   3.570
 8935SOL     OW27703   5.577   4.045   1.766
 8935SOL    HW127704   5.626   3.958   1.762
 8935SOL    HW227705   5.634   4.118   1.726
 8936SOL     OW27706   1.169   3.175   1.153
 8936SOL    HW127707   1.205   3.267   1.169
 8936SOL    HW227708   1.235   3.122   1.101
 8937SOL     OW27709   0.902   0.462   4.306
 8937SOL    HW127710   0.888   0.497   4.399
 8937SOL    HW227711   0.889   0.537   4.240
 8938SOL     OW27712   7.021   0.837   0.127
 8938SOL    HW127713   7.015   0.740   0.150
 8938SOL    HW227714   0.023   0.888   0.207
 8939SOL     OW27715   6.405   3.414   4.570
 8939SOL    HW127716   6.339   3.342   4.549
 8939SOL    HW227717   6.388   3.493   4.511
 8940SOL     OW27718   5.996   2.027   1.218
 8940SOL    HW127719   5.926   1.957   1.203
 8940SOL    HW227720   5.952   2.114   1.241
 8941SOL     OW27721   6.107   2.795   2.386
 8941SOL    HW127722   6.071   2.794   2.293
 8941SOL    HW227723   6.168   2.873   2.398
 8942SOL     OW27724   1.020   5.768   4.291
 8942SOL    HW127725   0.996   5.674   4.317
 8942SOL    HW227726   0.968   5.794   4.210
 8943SOL     OW27727   4.026   5.527   0.481
 8943SOL    HW127728   3.964   5.604   0.494
 8943SOL    HW227729   4.052   5.520   0.385
 8944SOL     OW27730   4.748   5.469   4.362
 8944SOL    HW127731   4.729   5.503   4.270
 8944SOL    HW227732   4.825   5.519   4.401
 8945SOL     OW27733   6.704   2.133   4.560
 8945SOL    HW127734   6.625   2.135   4.622
 8945SOL    HW227735   6.786   2.162   4.610
 8946SOL     OW27736   3.979   0.962   4.012
 8946SOL    HW127737   4.002   0.966   3.915
 8946SOL    HW227738   4.063   0.955   4.066
 8947SOL     OW27739   2.167   3.571   5.792
 8947SOL    HW127740   2.124   3.570   5.701
 8947SOL    HW227741   2.097   3.557   5.862
 8948SOL     OW27742   6.161   5.932   2.868
 8948SOL    HW127743   6.100   5.854   2.855
 8948SOL    HW227744   6.241   5.921   2.809
 8949SOL     OW27745   4.018   5.581   0.789
 8949SOL    HW127746   4.050   5.506   0.846
 8949SOL    HW227747   4.090   5.607   0.724
 8950SOL     OW27748   4.519   3.128   1.120
 8950SOL    HW127749   4.445   3.124   1.187
 8950SOL    HW227750   4.480   3.131   1.028
 8951SOL     OW27751   2.035   1.316   4.721
 8951SOL    HW127752   2.010   1.407   4.688
 8951SOL    HW227753   1.958   1.277   4.772
 8952SOL     OW27754   0.575   5.174   3.303
 8952SOL    HW127755   0.570   5.134   3.212
 8952SOL    HW227756   0.518   5.256   3.308
 8953SOL     OW27757   1.555   4.186   1.178
 8953SOL    HW127758   1.564   4.149   1.271
 8953SOL    HW227759   1.487   4.259   1.178
 8954SOL     OW27760   0.228   6.858   3.990
 8954SOL    HW127761   0.281   6.831   4.071
 8954SOL    HW227762   0.291   6.872   3.913
 8955SOL     OW27763   6.935   3.780   2.912
 8955SOL    HW127764   6.956   3.706   2.848
 8955SOL    HW227765   6.963   3.868   2.871
 8956SOL     OW27766   1.192   0.548   5.596
 8956SOL    HW127767   1.185   0.471   5.659
 8956SOL    HW227768   1.264   0.531   5.529
 8957SOL     OW27769   2.383   4.494   1.206
 8957SOL    HW127770   2.413   4.507   1.300
 8957SOL    HW227771   2.440   4.549   1.145
 8958SOL     OW27772   0.709   2.592   5.494
 8958SOL    HW127773   0.727   2.511   5.438
 8958SOL    HW227774   0.655   2.658   5.441
 8959SOL     OW27775   1.801   3.513   2.603
 8959SOL    HW127776   1.781   3.415   2.599
 8959SOL    HW227777   1.741   3.563   2.541
 8960SOL     OW27778   6.164   5.498   3.758
 8960SOL    HW127779   6.140   5.590   3.788
 8960SOL    HW227780   6.081   5.451   3.727
 8961SOL     OW27781   4.256   1.764   3.748
 8961SOL    HW127782   4.285   1.671   3.723
 8961SOL    HW227783   4.286   1.784   3.841
 8962SOL     OW27784   6.725   6.085   1.515
 8962SOL    HW127785   6.776   6.001   1.530
 8962SOL    HW227786   6.784   6.153   1.472
 8963SOL     OW27787   3.401   6.598   5.218
 8963SOL    HW127788   3.364   6.506   5.228
 8963SOL    HW227789   3.326   6.664   5.211
 8964SOL     OW27790   5.533   3.456   2.921
 8964SOL    HW127791   5.500   3.522   2.989
 8964SOL    HW227792   5.459   3.432   2.859
 8965SOL     OW27793   3.663   4.725   0.801
 8965SOL    HW127794   3.606   4.733   0.883
 8965SOL    HW227795   3.644   4.801   0.740
 8966SOL     OW27796   6.904   4.510   0.146
 8966SOL    HW127797   6.872   4.434   0.091
 8966SOL    HW227798   6.895   4.487   0.243
 8967SOL     OW27799   4.346   1.718   3.053
 8967SOL    HW127800   4.289   1.752   2.978
 8967SOL    HW227801   4.325   1.770   3.136
 8968SOL     OW27802   2.756   5.358   2.237
 8968SOL    HW127803   2.850   5.391   2.232
 8968SOL    HW227804   2.694   5.426   2.197
 8969SOL     OW27805   0.341   0.360   3.574
 8969SOL    HW127806   0.381   0.304   3.645
 8969SOL    HW227807   0.329   0.454   3.608
 8970SOL     OW27808   1.198   2.448   0.101
 8970SOL    HW127809   1.223   2.506   0.179
 8970SOL    HW227810   1.148   2.368   0.134
 8971SOL     OW27811   5.463   6.709   1.905
 8971SOL    HW127812   5.429   6.734   1.995
 8971SOL    HW227813   5.470   6.792   1.848
 8972SOL     OW27814   5.016   3.985   0.569
 8972SOL    HW127815   5.113   3.999   0.592
 8972SOL    HW227816   4.988   3.894   0.599
 8973SOL     OW27817   0.598   3.377   2.236
 8973SOL    HW127818   0.650   3.451   2.279
 8973SOL    HW227819   0.501   3.388   2.255
 8974SOL     OW27820   1.865   3.803   4.253
 8974SOL    HW127821   1.886   3.823   4.349
 8974SOL    HW227822   1.849   3.888   4.204
 8975SOL     OW27823   1.189   6.091   6.360
 8975SOL    HW127824   1.258   6.157   6.390
 8975SOL    HW227825   1.159   6.037   6.439
 8976SOL     OW27826   0.069   6.217   0.740
 8976SOL    HW127827   0.017   6.297   0.713
 8976SOL    HW227828   0.032   6.180   0.825
 8977SOL     OW27829   6.690   4.119   7.027
 8977SOL    HW127830   6.667   4.023   0.015
 8977SOL    HW227831   6.762   4.148   0.062
 8978SOL     OW27832   5.213   6.857   4.630
 8978SOL    HW127833   5.261   6.809   4.703
 8978SOL    HW227834   5.248   6.950   4.623
 8979SOL     OW27835   1.464   5.459   5.892
 8979SOL    HW127836   1.505   5.390   5.832
 8979SOL    HW227837   1.370   5.433   5.914
 8980SOL     OW27838   5.406   2.370   5.599
 8980SOL    HW127839   5.439   2.340   5.689
 8980SOL    HW227840   5.359   2.458   5.610
 8981SOL     OW27841   4.969   1.563   5.517
 8981SOL    HW127842   5.041   1.632   5.517
 8981SOL    HW227843   5.002   1.480   5.473
 8982SOL     OW27844   0.000   2.141   1.498
 8982SOL    HW127845   6.989   2.143   1.406
 8982SOL    HW227846   0.086   2.192   1.499
 8983SOL     OW27847   0.676   5.250   1.484
 8983SOL    HW127848   0.709   5.161   1.454
 8983SOL    HW227849   0.643   5.302   1.405
 8984SOL     OW27850   6.181   0.156   4.680
 8984SOL    HW127851   6.199   0.058   4.669
 8984SOL    HW227852   6.261   0.208   4.652
 8985SOL     OW27853   3.195   2.199   1.195
 8985SOL    HW127854   3.232   2.140   1.266
 8985SOL    HW227855   3.100   2.221   1.215
 8986SOL     OW27856   4.869   4.870   2.839
 8986SOL    HW127857   4.827   4.933   2.773
 8986SOL    HW227858   4.827   4.780   2.831
 8987SOL     OW27859   2.792   0.676   1.031
 8987SOL    HW127860   2.767   0.652   0.938
 8987SOL    HW227861   2.806   0.592   1.084
 8988SOL     OW27862   1.858   5.439   0.028
 8988SOL    HW127863   1.936   5.462   6.998
 8988SOL    HW227864   1.835   5.517   0.086
 8989SOL     OW27865   4.951   3.227   2.670
 8989SOL    HW127866   4.922   3.289   2.596
 8989SOL    HW227867   4.919   3.135   2.649
 8990SOL     OW27868   2.031   5.633   1.569
 8990SOL    HW127869   1.994   5.667   1.482
 8990SOL    HW227870   2.130   5.647   1.570
 8991SOL     OW27871   2.503   1.639   1.635
 8991SOL    HW127872   2.411   1.602   1.621
 8991SOL    HW227873   2.526   1.701   1.560
 8992SOL     OW27874   0.058   2.571   0.481
 8992SOL    HW127875   0.073   2.669   0.467
 8992SOL    HW227876   0.034   2.554   0.576
 8993SOL     OW27877   4.869   2.527   3.178
 8993SOL    HW127878   4.922   2.610   3.166
 8993SOL    HW227879   4.833   2.497   3.090
 8994SOL     OW27880   1.797   5.728   3.702
 8994SOL    HW127881   1.765   5.644   3.659
 8994SOL    HW227882   1.874   5.765   3.649
 8995SOL     OW27883   1.207   2.448   5.915
 8995SOL    HW127884   1.139   2.517   5.892
 8995SOL    HW227885   1.228   2.394   5.834
 8996SOL     OW27886   0.688   4.204   2.223
 8996SOL    HW127887   0.665   4.158   2.309
 8996SOL    HW227888   0.622   4.179   2.153
 8997SOL     OW27889   4.664   0.826   6.370
 8997SOL    HW127890   4.637   0.880   6.290
 8997SOL    HW227891   4.750   0.861   6.407
 8998SOL     OW27892   0.184   1.934   4.657
 8998SOL    HW127893   0.235   1.850   4.640
 8998SOL    HW227894   0.162   1.978   4.570
 8999SOL     OW27895   4.231   0.782   6.972
 8999SOL    HW127896   4.166   0.844   6.927
 8999SOL    HW227897   4.188   0.694   6.990
 9000SOL     OW27898   2.855   4.053   5.979
 9000SOL    HW127899   2.761   4.079   6.002
 9000SOL    HW227900   2.916   4.085   6.052
 9001SOL     OW27901   1.351   5.220   2.794
 9001SOL    HW127902   1.361   5.209   2.892
 9001SOL    HW227903   1.337   5.131   2.751
 9002SOL     OW27904   0.854   5.543   5.562
 9002SOL    HW127905   0.935   5.495   5.530
 9002SOL    HW227906   0.827   5.611   5.494
 9003SOL     OW27907   5.878   2.968   1.496
 9003SOL    HW127908   5.970   3.007   1.488
 9003SOL    HW227909   5.812   3.041   1.511
 9004SOL     OW27910   4.497   6.345   1.777
 9004SOL    HW127911   4.522   6.368   1.683
 9004SOL    HW227912   4.398   6.332   1.783
 9005SOL     OW27913   6.079   1.884   3.908
 9005SOL    HW127914   6.013   1.883   3.832
 9005SOL    HW227915   6.085   1.793   3.948
 9006SOL     OW27916   1.323   5.992   0.911
 9006SOL    HW127917   1.343   6.066   0.847
 9006SOL    HW227918   1.250   5.934   0.872
 9007SOL     OW27919   3.640   5.664   3.377
 9007SOL    HW127920   3.712   5.597   3.397
 9007SOL    HW227921   3.570   5.659   3.448
 9008SOL     OW27922   6.069   5.294   3.148
 9008SOL    HW127923   6.162   5.302   3.114
 9008SOL    HW227924   6.018   5.229   3.091
 9009SOL     OW27925   3.423   6.424   0.597
 9009SOL    HW127926   3.346   6.437   0.659
 9009SOL    HW227927   3.405   6.474   0.512
 9010SOL     OW27928   0.951   6.710   4.867
 9010SOL    HW127929   0.873   6.764   4.836
 9010SOL    HW227930   1.033   6.767   4.868
 9011SOL     OW27931   3.848   2.312   1.201
 9011SOL    HW127932   3.885   2.255   1.275
 9011SOL    HW227933   3.916   2.318   1.128
 9012SOL     OW27934   2.836   5.238   1.081
 9012SOL    HW127935   2.921   5.225   1.030
 9012SOL    HW227936   2.794   5.324   1.053
 9013SOL     OW27937   6.134   6.029   4.825
 9013SOL    HW127938   6.228   6.063   4.824
 9013SOL    HW227939   6.121   5.963   4.750
 9014SOL     OW27940   1.230   1.449   0.539
 9014SOL    HW127941   1.233   1.426   0.637
 9014SOL    HW227942   1.135   1.445   0.507
 9015SOL     OW27943   6.252   0.561   0.389
 9015SOL    HW127944   6.210   0.552   0.299
 9015SOL    HW227945   6.188   0.604   0.452
 9016SOL     OW27946   6.416   6.504   6.118
 9016SOL    HW127947   6.507   6.476   6.149
 9016SOL    HW227948   6.359   6.423   6.103
 9017SOL     OW27949   5.465   2.219   3.388
 9017SOL    HW127950   5.500   2.157   3.458
 9017SOL    HW227951   5.371   2.194   3.365
 9018SOL     OW27952   4.016   1.271   5.371
 9018SOL    HW127953   3.931   1.302   5.327
 9018SOL    HW227954   4.005   1.278   5.471
 9019SOL     OW27955   1.426   6.793   0.417
 9019SOL    HW127956   1.469   6.771   0.504
 9019SOL    HW227957   1.387   6.886   0.421
 9020SOL     OW27958   1.698   3.373   2.093
 9020SOL    HW127959   1.680   3.344   1.999
 9020SOL    HW227960   1.665   3.466   2.106
 9021SOL     OW27961   6.522   0.219   3.968
 9021SOL    HW127962   6.536   0.294   3.903
 9021SOL    HW227963   6.585   0.229   4.044
 9022SOL     OW27964   2.722   0.936   0.596
 9022SOL    HW127965   2.698   0.840   0.609
 9022SOL    HW227966   2.821   0.944   0.583
 9023SOL     OW27967   4.113   3.267   3.090
 9023SOL    HW127968   4.130   3.216   3.005
 9023SOL    HW227969   4.168   3.350   3.090
 9024SOL     OW27970   1.882   5.580   5.903
 9024SOL    HW127971   1.875   5.504   5.838
 9024SOL    HW227972   1.975   5.583   5.940
 9025SOL     OW27973   6.406   5.713   0.821
 9025SOL    HW127974   6.443   5.801   0.850
 9025SOL    HW227975   6.306   5.717   0.822
 9026SOL     OW27976   3.805   3.555   3.289
 9026SOL    HW127977   3.708   3.562   3.314
 9026SOL    HW227978   3.828   3.459   3.274
 9027SOL     OW27979   3.106   2.199   3.871
 9027SOL    HW127980   3.064   2.111   3.850
 9027SOL    HW227981   3.050   2.247   3.938
 9028SOL     OW27982   2.341   4.487   6.338
 9028SOL    HW127983   2.440   4.480   6.349
 9028SOL    HW227984   2.319   4.482   6.241
 9029SOL     OW27985   3.760   5.550   4.663
 9029SOL    HW127986   3.771   5.611   4.585
 9029SOL    HW227987   3.849   5.529   4.702
 9030SOL     OW27988   2.081   1.097   2.545
 9030SOL    HW127989   1.995   1.113   2.594
 9030SOL    HW227990   2.128   1.184   2.531
 9031SOL     OW27991   4.120   5.347   5.529
 9031SOL    HW127992   4.162   5.266   5.571
 9031SOL    HW227993   4.161   5.430   5.567
 9032SOL     OW27994   3.892   2.819   0.663
 9032SOL    HW127995   3.895   2.916   0.687
 9032SOL    HW227996   3.933   2.805   0.574
 9033SOL     OW27997   1.190   3.538   4.067
 9033SOL    HW127998   1.130   3.459   4.075
 9033SOL    HW227999   1.147   3.607   4.008
 9034SOL     OW28000   2.743   6.553   5.017
 9034SOL    HW128001   2.703   6.528   4.929
 9034SOL    HW228002   2.670   6.559   5.086
 9035SOL     OW28003   0.433   6.454   4.873
 9035SOL    HW128004   0.377   6.508   4.810
 9035SOL    HW228005   0.502   6.403   4.823
 9036SOL     OW28006   1.659   1.923   4.482
 9036SOL    HW128007   1.613   1.938   4.395
 9036SOL    HW228008   1.597   1.949   4.557
 9037SOL     OW28009   1.378   3.587   6.121
 9037SOL    HW128010   1.383   3.510   6.184
 9037SOL    HW228011   1.462   3.590   6.066
 9038SOL     OW28012   5.238   0.061   5.973
 9038SOL    HW128013   5.243   6.989   5.970
 9038SOL    HW228014   5.150   0.089   6.010
 9039SOL     OW28015   1.632   4.695   5.073
 9039SOL    HW128016   1.586   4.609   5.054
 9039SOL    HW228017   1.568   4.758   5.117
 9040SOL     OW28018   2.673   2.045   3.328
 9040SOL    HW128019   2.614   1.984   3.381
 9040SOL    HW228020   2.626   2.073   3.244
 9041SOL     OW28021   1.054   1.747   2.220
 9041SOL    HW128022   1.032   1.650   2.222
 9041SOL    HW228023   0.973   1.800   2.244
 9042SOL     OW28024   2.929   6.052   3.348
 9042SOL    HW128025   3.004   6.103   3.388
 9042SOL    HW228026   2.912   6.085   3.255
 9043SOL     OW28027   2.339   1.563   5.321
 9043SOL    HW128028   2.301   1.634   5.262
 9043SOL    HW228029   2.429   1.592   5.355
 9044SOL     OW28030   6.366   1.256   1.252
 9044SOL    HW128031   6.342   1.328   1.188
 9044SOL    HW228032   6.410   1.296   1.332
 9045SOL     OW28033   3.102   1.748   1.870
 9045SOL    HW128034   3.163   1.678   1.831
 9045SOL    HW228035   3.085   1.819   1.802
 9046SOL     OW28036   3.490   4.173   4.526
 9046SOL    HW128037   3.433   4.096   4.554
 9046SOL    HW228038   3.584   4.156   4.555
 9047SOL     OW28039   1.285   3.949   5.644
 9047SOL    HW128040   1.381   3.972   5.657
 9047SOL    HW228041   1.275   3.882   5.571
 9048SOL     OW28042   6.556   2.887   6.404
 9048SOL    HW128043   6.609   2.890   6.489
 9048SOL    HW228044   6.612   2.918   6.328
 9049SOL     OW28045   4.589   6.273   6.822
 9049SOL    HW128046   4.588   6.369   6.794
 9049SOL    HW228047   4.682   6.237   6.815
 9050SOL     OW28048   1.348   5.398   6.290
 9050SOL    HW128049   1.364   5.327   6.221
 9050SOL    HW228050   1.369   5.362   6.381
 9051SOL     OW28051   4.387   6.307   1.041
 9051SOL    HW128052   4.305   6.303   1.098
 9051SOL    HW228053   4.360   6.325   0.946
 9052SOL     OW28054   2.157   4.242   4.328
 9052SOL    HW128055   2.094   4.186   4.274
 9052SOL    HW228056   2.174   4.198   4.416
 9053SOL     OW28057   2.304   1.918   3.149
 9053SOL    HW128058   2.213   1.931   3.188
 9053SOL    HW228059   2.352   2.006   3.145
 9054SOL     OW28060   2.052   0.328   1.791
 9054SOL    HW128061   1.958   0.314   1.760
 9054SOL    HW228062   2.063   0.424   1.818
 9055SOL     OW28063   0.315   3.811   3.689
 9055SOL    HW128064   0.266   3.831   3.774
 9055SOL    HW228065   0.408   3.845   3.696
 9056SOL     OW28066   5.010   0.286   2.380
 9056SOL    HW128067   5.042   0.254   2.291
 9056SOL    HW228068   4.927   0.340   2.369
 9057SOL     OW28069   6.674   5.218   6.413
 9057SOL    HW128070   6.661   5.216   6.314
 9057SOL    HW228071   6.762   5.258   6.434
 9058SOL     OW28072   2.593   1.635   3.810
 9058SOL    HW128073   2.661   1.682   3.867
 9058SOL    HW228074   2.635   1.609   3.724
 9059SOL     OW28075   6.992   0.669   3.592
 9059SOL    HW128076   0.007   0.753   3.624
 9059SOL    HW228077   6.930   0.633   3.662
 9060SOL     OW28078   6.608   3.981   2.339
 9060SOL    HW128079   6.624   4.004   2.435
 9060SOL    HW228080   6.510   3.978   2.321
 9061SOL     OW28081   3.988   5.575   2.674
 9061SOL    HW128082   3.898   5.540   2.647
 9061SOL    HW228083   3.980   5.672   2.696
 9062SOL     OW28084   1.459   4.718   2.427
 9062SOL    HW128085   1.544   4.701   2.476
 9062SOL    HW228086   1.444   4.646   2.359
 9063SOL     OW28087   2.761   0.582   2.498
 9063SOL    HW128088   2.751   0.491   2.458
 9063SOL    HW228089   2.757   0.650   2.424
 9064SOL     OW28090   6.282   4.256   4.447
 9064SOL    HW128091   6.333   4.181   4.404
 9064SOL    HW228092   6.294   4.340   4.394
 9065SOL     OW28093   3.157   5.750   6.564
 9065SOL    HW128094   3.206   5.668   6.594
 9065SOL    HW228095   3.191   5.829   6.615
 9066SOL     OW28096   5.755   0.240   6.539
 9066SOL    HW128097   5.688   0.230   6.613
 9066SOL    HW228098   5.737   0.324   6.489
 9067SOL     OW28099   5.723   6.077   5.257
 9067SOL    HW128100   5.815   6.114   5.247
 9067SOL    HW228101   5.716   6.031   5.346
 9068SOL     OW28102   3.137   0.531   5.088
 9068SOL    HW128103   3.183   0.592   5.023
 9068SOL    HW228104   3.089   0.586   5.156
 9069SOL     OW28105   3.500   2.102   2.278
 9069SOL    HW128106   3.559   2.168   2.230
 9069SOL    HW228107   3.504   2.014   2.230
 9070SOL     OW28108   0.931   3.122   5.776
 9070SOL    HW128109   0.917   3.197   5.711
 9070SOL    HW228110   0.848   3.067   5.783
 9071SOL     OW28111   5.046   6.821   0.647
 9071SOL    HW128112   5.141   6.789   0.643
 9071SOL    HW228113   5.041   6.914   0.610
 9072SOL     OW28114   4.946   0.176   1.709
 9072SOL    HW128115   4.932   0.152   1.806
 9072SOL    HW228116   4.900   0.108   1.652
 9073SOL     OW28117   3.457   7.012   0.949
 9073SOL    HW128118   3.358   6.995   0.947
 9073SOL    HW228119   3.490   7.005   1.043
 9074SOL     OW28120   1.795   0.684   1.307
 9074SOL    HW128121   1.804   0.654   1.212
 9074SOL    HW228122   1.762   0.607   1.363
 9075SOL     OW28123   0.213   0.177   1.332
 9075SOL    HW128124   0.142   0.137   1.389
 9075SOL    HW228125   0.212   0.277   1.342
 9076SOL     OW28126   5.257   1.705   4.907
 9076SOL    HW128127   5.293   1.781   4.852
 9076SOL    HW228128   5.331   1.660   4.956
 9077SOL     OW28129   5.324   1.133   6.659
 9077SOL    HW128130   5.278   1.096   6.741
 9077SOL    HW228131   5.416   1.164   6.684
 9078SOL     OW28132   4.905   3.365   0.393
 9078SOL    HW128133   4.873   3.423   0.468
 9078SOL    HW228134   4.845   3.378   0.314
 9079SOL     OW28135   1.824   6.733   4.264
 9079SOL    HW128136   1.867   6.748   4.175
 9079SOL    HW228137   1.876   6.666   4.316
 9080SOL     OW28138   6.014   2.530   0.005
 9080SOL    HW128139   6.099   2.492   6.998
 9080SOL    HW228140   5.974   2.468   0.072
 9081SOL     OW28141   3.183   0.449   2.438
 9081SOL    HW128142   3.274   0.467   2.401
 9081SOL    HW228143   3.136   0.382   2.380
 9082SOL     OW28144   2.466   6.425   5.523
 9082SOL    HW128145   2.370   6.423   5.551
 9082SOL    HW228146   2.494   6.519   5.505
 9083SOL     OW28147   3.674   4.348   5.740
 9083SOL    HW128148   3.719   4.321   5.825
 9083SOL    HW228149   3.728   4.419   5.695
 9084SOL     OW28150   1.729   2.269   6.458
 9084SOL    HW128151   1.654   2.214   6.419
 9084SOL    HW228152   1.723   2.362   6.423
 9085SOL     OW28153   1.783   5.288   0.870
 9085SOL    HW128154   1.742   5.306   0.781
 9085SOL    HW228155   1.871   5.336   0.876
 9086SOL     OW28156   6.766   4.271   1.477
 9086SOL    HW128157   6.818   4.311   1.553
 9086SOL    HW228158   6.735   4.180   1.502
 9087SOL     OW28159   4.994   3.208   1.952
 9087SOL    HW128160   4.940   3.126   1.968
 9087SOL    HW228161   5.058   3.192   1.877
 9088SOL     OW28162   6.965   6.455   0.585
 9088SOL    HW128163   6.868   6.446   0.610
 9088SOL    HW228164   7.010   6.518   0.648
 9089SOL     OW28165   3.728   6.304   6.025
 9089SOL    HW128166   3.633   6.272   6.020
 9089SOL    HW228167   3.734   6.396   5.987
 9090SOL     OW28168   5.592   0.026   3.661
 9090SOL    HW128169   5.669   7.020   3.607
 9090SOL    HW228170   5.567   0.117   3.629
 9091SOL     OW28171   2.513   3.489   0.480
 9091SOL    HW128172   2.498   3.451   0.389
 9091SOL    HW228173   2.581   3.433   0.528
 9092SOL     OW28174   0.112   1.374   6.981
 9092SOL    HW128175   0.111   1.342   6.886
 9092SOL    HW228176   0.199   1.419   7.000
 9093SOL     OW28177   1.756   5.885   6.127
 9093SOL    HW128178   1.658   5.865   6.137
 9093SOL    HW228179   1.801   5.875   6.215
 9094SOL     OW28180   0.258   4.998   3.163
 9094SOL    HW128181   0.225   4.980   3.256
 9094SOL    HW228182   0.183   5.032   3.107
 9095SOL     OW28183   3.817   3.792   6.074
 9095SOL    HW128184   3.821   3.840   6.162
 9095SOL    HW228185   3.907   3.753   6.053
 9096SOL     OW28186   5.533   4.324   2.386
 9096SOL    HW128187   5.558   4.286   2.475
 9096SOL    HW228188   5.496   4.252   2.328
 9097SOL     OW28189   0.399   2.636   6.643
 9097SOL    HW128190   0.450   2.702   6.587
 9097SOL    HW228191   0.462   2.589   6.705
 9098SOL     OW28192   3.892   2.588   6.982
 9098SOL    HW128193   3.905   2.572   6.884
 9098SOL    HW228194   3.835   2.670   6.995
 9099SOL     OW28195   3.940   4.045   0.669
 9099SOL    HW128196   3.999   3.972   0.633
 9099SOL    HW228197   3.854   4.006   0.700
 9100SOL     OW28198   0.914   3.623   3.221
 9100SOL    HW128199   0.995   3.568   3.204
 9100SOL    HW228200   0.940   3.703   3.275
 9101SOL     OW28201   2.337   2.841   3.248
 9101SOL    HW128202   2.312   2.915   3.186
 9101SOL    HW228203   2.353   2.878   3.339
 9102SOL     OW28204   2.403   0.147   1.811
 9102SOL    HW128205   2.459   0.097   1.877
 9102SOL    HW228206   2.308   0.116   1.819
 9103SOL     OW28207   6.343   3.964   0.241
 9103SOL    HW128208   6.255   3.964   0.288
 9103SOL    HW228209   6.363   3.871   0.209
 9104SOL     OW28210   5.635   6.827   2.812
 9104SOL    HW128211   5.699   6.787   2.746
 9104SOL    HW228212   5.684   6.895   2.867
 9105SOL     OW28213   1.747   1.085   0.864
 9105SOL    HW128214   1.846   1.072   0.875
 9105SOL    HW228215   1.721   1.175   0.899
 9106SOL     OW28216   6.398   4.448   0.683
 9106SOL    HW128217   6.442   4.358   0.674
 9106SOL    HW228218   6.312   4.448   0.632
 9107SOL     OW28219   3.131   0.604   6.203
 9107SOL    HW128220   3.059   0.673   6.196
 9107SOL    HW228221   3.150   0.585   6.299
 9108SOL     OW28222   5.080   4.075   5.868
 9108SOL    HW128223   5.156   4.077   5.933
 9108SOL    HW228224   5.003   4.024   5.909
 9109SOL     OW28225   0.554   2.693   2.866
 9109SOL    HW128226   0.476   2.631   2.872
 9109SOL    HW228227   0.638   2.643   2.884
 9110SOL     OW28228   1.972   4.103   4.214
 9110SOL    HW128229   1.900   4.113   4.283
 9110SOL    HW228230   1.932   4.109   4.123
 9111SOL     OW28231   4.331   2.447   0.338
 9111SOL    HW128232   4.290   2.513   0.402
 9111SOL    HW228233   4.335   2.357   0.382
 9112SOL     OW28234   0.896   4.874   5.192
 9112SOL    HW128235   0.966   4.865   5.121
 9112SOL    HW228236   0.897   4.967   5.228
 9113SOL     OW28237   4.723   0.265   1.466
 9113SOL    HW128238   4.649   0.241   1.528
 9113SOL    HW228239   4.725   0.365   1.453
 9114SOL     OW28240   1.435   4.503   1.929
 9114SOL    HW128241   1.487   4.417   1.930
 9114SOL    HW228242   1.338   4.483   1.915
 9115SOL     OW28243   0.847   5.127   5.272
 9115SOL    HW128244   0.791   5.206   5.296
 9115SOL    HW228245   0.845   5.112   5.173
 9116SOL     OW28246   6.064   1.389   0.541
 9116SOL    HW128247   6.116   1.385   0.627
 9116SOL    HW228248   5.969   1.367   0.560
 9117SOL     OW28249   6.205   2.441   0.489
 9117SOL    HW128250   6.218   2.438   0.588
 9117SOL    HW228251   6.241   2.357   0.449
 9118SOL     OW28252   6.582   4.598   0.356
 9118SOL    HW128253   6.532   4.520   0.319
 9118SOL    HW228254   6.532   4.634   0.435
 9119SOL     OW28255   4.319   0.547   1.559
 9119SOL    HW128256   4.388   0.618   1.546
 9119SOL    HW228257   4.254   0.548   1.483
 9120SOL     OW28258   6.000   1.953   6.399
 9120SOL    HW128259   6.049   1.935   6.313
 9120SOL    HW228260   6.063   1.992   6.466
 9121SOL     OW28261   2.604   2.283   5.022
 9121SOL    HW128262   2.537   2.298   5.094
 9121SOL    HW228263   2.634   2.188   5.022
 9122SOL     OW28264   1.851   4.139   2.471
 9122SOL    HW128265   1.777   4.075   2.491
 9122SOL    HW228266   1.819   4.208   2.407
 9123SOL     OW28267   2.778   0.143   4.219
 9123SOL    HW128268   2.680   0.146   4.239
 9123SOL    HW228269   2.806   0.048   4.206
 9124SOL     OW28270   5.588   6.504   6.712
 9124SOL    HW128271   5.627   6.417   6.682
 9124SOL    HW228272   5.626   6.528   6.801
 9125SOL     OW28273   4.944   4.564   1.524
 9125SOL    HW128274   4.963   4.527   1.615
 9125SOL    HW228275   5.021   4.543   1.463
 9126SOL     OW28276   5.507   3.030   1.780
 9126SOL    HW128277   5.591   2.980   1.759
 9126SOL    HW228278   5.433   2.998   1.720
 9127SOL     OW28279   6.257   1.207   5.914
 9127SOL    HW128280   6.174   1.154   5.899
 9127SOL    HW228281   6.331   1.146   5.940
 9128SOL     OW28282   5.849   1.858   5.742
 9128SOL    HW128283   5.937   1.823   5.711
 9128SOL    HW228284   5.793   1.882   5.663
 9129SOL     OW28285   0.329   2.339   0.696
 9129SOL    HW128286   0.304   2.388   0.779
 9129SOL    HW228287   0.246   2.316   0.645
 9130SOL     OW28288   0.181   3.210   0.467
 9130SOL    HW128289   0.251   3.145   0.496
 9130SOL    HW228290   0.213   3.259   0.385
 9131SOL     OW28291   5.919   2.810   5.343
 9131SOL    HW128292   5.887   2.884   5.283
 9131SOL    HW228293   5.995   2.842   5.399
 9132SOL     OW28294   0.967   5.402   4.258
 9132SOL    HW128295   0.875   5.387   4.220
 9132SOL    HW228296   0.959   5.449   4.346
 9133SOL     OW28297   4.080   5.727   2.404
 9133SOL    HW128298   4.020   5.669   2.348
 9133SOL    HW228299   4.045   5.820   2.406
 9134SOL     OW28300   5.305   5.436   0.729
 9134SOL    HW128301   5.341   5.387   0.808
 9134SOL    HW228302   5.306   5.375   0.649
 9135SOL     OW28303   6.493   6.860   1.551
 9135SOL    HW128304   6.588   6.885   1.566
 9135SOL    HW228305   6.464   6.795   1.621
 9136SOL     OW28306   5.443   5.267   6.420
 9136SOL    HW128307   5.445   5.344   6.484
 9136SOL    HW228308   5.444   5.181   6.472
 9137SOL     OW28309   4.970   1.217   1.215
 9137SOL    HW128310   4.987   1.130   1.169
 9137SOL    HW228311   4.883   1.212   1.264
 9138SOL     OW28312   0.400   5.619   5.986
 9138SOL    HW128313   0.338   5.573   5.921
 9138SOL    HW228314   0.417   5.558   6.064
 9139SOL     OW28315   2.832   1.604   3.994
 9139SOL    HW128316   2.923   1.613   3.953
 9139SOL    HW228317   2.810   1.688   4.044
 9140SOL     OW28318   6.169   4.055   3.026
 9140SOL    HW128319   6.167   4.052   3.126
 9140SOL    HW228320   6.146   3.965   2.989
 9141SOL     OW28321   5.436   0.111   0.432
 9141SOL    HW128322   5.490   0.158   0.362
 9141SOL    HW228323   5.364   0.058   0.388
 9142SOL     OW28324   0.951   2.405   1.277
 9142SOL    HW128325   1.011   2.353   1.337
 9142SOL    HW228326   0.856   2.395   1.309
 9143SOL     OW28327   6.713   3.383   0.019
 9143SOL    HW128328   6.735   3.323   6.969
 9143SOL    HW228329   6.712   3.329   0.103
 9144SOL     OW28330   2.358   4.905   5.306
 9144SOL    HW128331   2.364   4.929   5.403
 9144SOL    HW228332   2.397   4.814   5.292
 9145SOL     OW28333   6.736   5.557   0.425
 9145SOL    HW128334   6.772   5.615   0.351
 9145SOL    HW228335   6.651   5.514   0.395
 9146SOL     OW28336   5.169   3.094   3.210
 9146SOL    HW128337   5.230   3.021   3.240
 9146SOL    HW228338   5.187   3.115   3.113
 9147SOL     OW28339   5.642   0.375   4.737
 9147SOL    HW128340   5.661   0.443   4.667
 9147SOL    HW228341   5.723   0.365   4.796
 9148SOL     OW28342   5.129   6.134   1.209
 9148SOL    HW128343   5.158   6.069   1.139
 9148SOL    HW228344   5.044   6.179   1.181
 9149SOL     OW28345   6.114   3.548   3.712
 9149SOL    HW128346   6.178   3.614   3.672
 9149SOL    HW228347   6.084   3.483   3.642
 9150SOL     OW28348   3.036   5.614   1.727
 9150SOL    HW128349   3.082   5.530   1.696
 9150SOL    HW228350   3.060   5.689   1.665
 9151SOL     OW28351   1.973   4.717   3.199
 9151SOL    HW128352   1.951   4.812   3.221
 9151SOL    HW228353   1.950   4.658   3.277
 9152SOL     OW28354   1.825   4.237   4.645
 9152SOL    HW128355   1.768   4.170   4.693
 9152SOL    HW228356   1.917   4.236   4.684
 9153SOL     OW28357   1.324   3.369   6.287
 9153SOL    HW128358   1.317   3.339   6.382
 9153SOL    HW228359   1.247   3.333   6.234
 9154SOL     OW28360   4.618   4.897   7.023
 9154SOL    HW128361   4.539   4.952   0.025
 9154SOL    HW228362   4.600   4.800   0.015
 9155SOL     OW28363   1.611   3.628   2.083
 9155SOL    HW128364   1.537   3.645   2.018
 9155SOL    HW228365   1.688   3.689   2.064
 9156SOL     OW28366   0.759   2.387   6.925
 9156SOL    HW128367   0.768   2.351   7.017
 9156SOL    HW228368   0.840   2.441   6.903
 9157SOL     OW28369   0.215   3.999   6.210
 9157SOL    HW128370   0.170   3.968   6.126
 9157SOL    HW228371   0.284   4.068   6.187
 9158SOL     OW28372   5.678   3.112   4.442
 9158SOL    HW128373   5.608   3.161   4.391
 9158SOL    HW228374   5.681   3.016   4.413
 9159SOL     OW28375   2.009   0.451   2.483
 9159SOL    HW128376   2.021   0.519   2.410
 9159SOL    HW228377   2.048   0.364   2.455
 9160SOL     OW28378   5.845   6.876   5.589
 9160SOL    HW128379   5.859   6.969   5.624
 9160SOL    HW228380   5.872   6.810   5.659
 9161SOL     OW28381   5.006   4.281   4.281
 9161SOL    HW128382   5.034   4.368   4.321
 9161SOL    HW228383   5.085   4.235   4.241
 9162SOL     OW28384   4.520   1.269   3.995
 9162SOL    HW128385   4.509   1.368   3.988
 9162SOL    HW228386   4.538   1.244   4.091
 9163SOL     OW28387   1.376   2.159   4.829
 9163SOL    HW128388   1.299   2.171   4.893
 9163SOL    HW228389   1.458   2.201   4.869
 9164SOL     OW28390   2.393   6.851   6.311
 9164SOL    HW128391   2.429   6.897   6.230
 9164SOL    HW228392   2.449   6.876   6.391
 9165SOL     OW28393   6.163   1.398   5.560
 9165SOL    HW128394   6.208   1.452   5.490
 9165SOL    HW228395   6.203   1.420   5.650
 9166SOL     OW28396   3.674   5.947   1.780
 9166SOL    HW128397   3.657   6.045   1.782
 9166SOL    HW228398   3.772   5.929   1.790
 9167SOL     OW28399   1.790   2.698   6.152
 9167SOL    HW128400   1.868   2.641   6.176
 9167SOL    HW228401   1.816   2.764   6.081
 9168SOL     OW28402   6.899   6.321   6.247
 9168SOL    HW128403   6.811   6.342   6.204
 9168SOL    HW228404   6.971   6.321   6.178
 9169SOL     OW28405   6.181   7.015   5.423
 9169SOL    HW128406   6.262   6.976   5.378
 9169SOL    HW228407   6.185   6.995   5.521
 9170SOL     OW28408   1.448   6.518   6.567
 9170SOL    HW128409   1.380   6.516   6.640
 9170SOL    HW228410   1.443   6.434   6.514
 9171SOL     OW28411   4.454   5.190   0.757
 9171SOL    HW128412   4.495   5.225   0.841
 9171SOL    HW228413   4.442   5.266   0.691
 9172SOL     OW28414   4.572   1.490   2.592
 9172SOL    HW128415   4.513   1.521   2.667
 9172SOL    HW228416   4.561   1.392   2.580
 9173SOL     OW28417   6.334   3.480   6.126
 9173SOL    HW128418   6.428   3.513   6.137
 9173SOL    HW228419   6.270   3.549   6.161
 9174SOL     OW28420   6.252   4.180   1.524
 9174SOL    HW128421   6.221   4.169   1.618
 9174SOL    HW228422   6.307   4.263   1.516
 9175SOL     OW28423   0.753   7.011   5.970
 9175SOL    HW128424   0.794   6.924   5.998
 9175SOL    HW228425   0.823   0.042   5.929
 9176SOL     OW28426   2.506   1.254   3.526
 9176SOL    HW128427   2.428   1.287   3.474
 9176SOL    HW228428   2.486   1.163   3.563
 9177SOL     OW28429   0.720   4.747   4.369
 9177SOL    HW128430   0.622   4.728   4.370
 9177SOL    HW228431   0.751   4.756   4.274
 9178SOL     OW28432   2.153   5.845   0.626
 9178SOL    HW128433   2.169   5.831   0.528
 9178SOL    HW228434   2.168   5.759   0.674
 9179SOL     OW28435   2.174   4.382   3.871
 9179SOL    HW128436   2.209   4.413   3.783
 9179SOL    HW228437   2.168   4.460   3.934
 9180SOL     OW28438   6.589   2.578   3.364
 9180SOL    HW128439   6.494   2.556   3.387
 9180SOL    HW228440   6.609   2.672   3.393
 9181SOL     OW28441   5.832   2.592   4.964
 9181SOL    HW128442   5.877   2.524   4.906
 9181SOL    HW228443   5.865   2.683   4.939
 9182SOL     OW28444   2.339   6.672   2.554
 9182SOL    HW128445   2.312   6.761   2.519
 9182SOL    HW228446   2.258   6.614   2.566
 9183SOL     OW28447   4.431   4.963   0.593
 9183SOL    HW128448   4.473   5.044   0.554
 9183SOL    HW228449   4.356   4.989   0.654
 9184SOL     OW28450   5.033   2.413   0.552
 9184SOL    HW128451   4.944   2.388   0.513
 9184SOL    HW228452   5.033   2.511   0.574
 9185SOL     OW28453   4.968   6.647   4.859
 9185SOL    HW128454   4.952   6.706   4.780
 9185SOL    HW228455   5.016   6.700   4.930
 9186SOL     OW28456   6.005   5.608   5.046
 9186SOL    HW128457   6.061   5.673   5.098
 9186SOL    HW228458   5.992   5.643   4.953
 9187SOL     OW28459   3.027   1.924   0.398
 9187SOL    HW128460   3.080   1.976   0.466
 9187SOL    HW228461   2.933   1.958   0.397
 9188SOL     OW28462   1.665   0.009   1.395
 9188SOL    HW128463   1.567   0.012   1.375
 9188SOL    HW228464   1.717   0.028   1.312
 9189SOL     OW28465   2.769   6.188   1.998
 9189SOL    HW128466   2.731   6.200   1.906
 9189SOL    HW228467   2.780   6.090   2.016
 9190SOL     OW28468   1.940   4.328   5.458
 9190SOL    HW128469   1.959   4.369   5.369
 9190SOL    HW228470   1.884   4.390   5.512
 9191SOL     OW28471   6.101   1.317   6.530
 9191SOL    HW128472   6.022   1.256   6.527
 9191SOL    HW228473   6.169   1.287   6.463
 9192SOL     OW28474   0.401   2.204   5.787
 9192SOL    HW128475   0.373   2.291   5.746
 9192SOL    HW228476   0.329   2.171   5.848
 9193SOL     OW28477   3.852   3.986   5.411
 9193SOL    HW128478   3.787   4.030   5.472
 9193SOL    HW228479   3.803   3.939   5.338
 9194SOL     OW28480   3.651   1.130   2.930
 9194SOL    HW128481   3.671   1.100   3.024
 9194SOL    HW228482   3.663   1.053   2.868
 9195SOL     OW28483   0.426   2.703   2.535
 9195SOL    HW128484   0.379   2.792   2.539
 9195SOL    HW228485   0.520   2.714   2.569
 9196SOL     OW28486   5.956   0.450   3.677
 9196SOL    HW128487   5.879   0.451   3.741
 9196SOL    HW228488   5.957   0.534   3.624
 9197SOL     OW28489   2.310   4.934   1.074
 9197SOL    HW128490   2.333   4.893   1.162
 9197SOL    HW228491   2.327   4.868   1.001
 9198SOL     OW28492   6.287   4.530   6.867
 9198SOL    HW128493   6.262   4.443   6.825
 9198SOL    HW228494   6.312   4.596   6.796
 9199SOL     OW28495   0.464   3.067   5.163
 9199SOL    HW128496   0.418   3.059   5.074
 9199SOL    HW228497   0.444   3.156   5.203
 9200SOL     OW28498   3.341   6.191   6.832
 9200SOL    HW128499   3.298   6.209   6.920
 9200SOL    HW228500   3.431   6.150   6.845
 9201SOL     OW28501   0.263   3.250   0.187
 9201SOL    HW128502   0.331   3.204   0.129
 9201SOL    HW228503   0.222   3.326   0.136
 9202SOL     OW28504   0.676   6.324   2.617
 9202SOL    HW128505   0.730   6.247   2.583
 9202SOL    HW228506   0.662   6.314   2.716
 9203SOL     OW28507   0.092   3.215   6.055
 9203SOL    HW128508   0.065   3.273   5.979
 9203SOL    HW228509   0.053   3.124   6.042
 9204SOL     OW28510   4.533   3.339   5.389
 9204SOL    HW128511   4.452   3.391   5.359
 9204SOL    HW228512   4.609   3.402   5.404
 9205SOL     OW28513   5.219   6.280   3.171
 9205SOL    HW128514   5.140   6.320   3.218
 9205SOL    HW228515   5.281   6.240   3.239
 9206SOL     OW28516   3.389   5.066   3.502
 9206SOL    HW128517   3.325   4.989   3.511
 9206SOL    HW228518   3.364   5.120   3.421
 9207SOL     OW28519   5.440   4.566   6.364
 9207SOL    HW128520   5.481   4.520   6.443
 9207SOL    HW228521   5.482   4.531   6.280
 9208SOL     OW28522   5.554   4.536   3.940
 9208SOL    HW128523   5.581   4.578   3.854
 9208SOL    HW228524   5.629   4.544   4.006
 9209SOL     OW28525   4.472   0.767   0.357
 9209SOL    HW128526   4.507   0.815   0.277
 9209SOL    HW228527   4.514   0.677   0.363
 9210SOL     OW28528   0.955   1.715   1.947
 9210SOL    HW128529   0.975   1.624   1.909
 9210SOL    HW228530   1.016   1.782   1.905
 9211SOL     OW28531   6.883   3.239   5.754
 9211SOL    HW128532   6.843   3.196   5.836
 9211SOL    HW228533   6.914   3.167   5.692
 9212SOL     OW28534   4.036   5.475   4.428
 9212SOL    HW128535   4.102   5.529   4.376
 9212SOL    HW228536   3.999   5.531   4.502
 9213SOL     OW28537   5.690   4.018   5.184
 9213SOL    HW128538   5.788   4.000   5.194
 9213SOL    HW228539   5.645   3.937   5.147
 9214SOL     OW28540   6.996   3.725   5.677
 9214SOL    HW128541   6.969   3.684   5.589
 9214SOL    HW228542   6.989   3.824   5.671
 9215SOL     OW28543   1.919   2.958   2.074
 9215SOL    HW128544   1.911   3.045   2.122
 9215SOL    HW228545   1.902   2.971   1.976
 9216SOL     OW28546   3.144   0.024   2.403
 9216SOL    HW128547   3.082   7.017   2.332
 9216SOL    HW228548   3.203   6.977   2.434
 9217SOL     OW28549   6.751   3.195   6.848
 9217SOL    HW128550   6.824   3.154   6.901
 9217SOL    HW228551   6.772   3.189   6.750
 9218SOL     OW28552   2.258   0.937   6.830
 9218SOL    HW128553   2.173   0.900   6.792
 9218SOL    HW228554   2.240   1.023   6.877
 9219SOL     OW28555   6.052   3.767   6.878
 9219SOL    HW128556   6.053   3.807   6.969
 9219SOL    HW228557   5.964   3.785   6.834
 9220SOL     OW28558   0.863   5.681   1.541
 9220SOL    HW128559   0.767   5.706   1.530
 9220SOL    HW228560   0.896   5.636   1.459
 9221SOL     OW28561   2.198   0.796   2.875
 9221SOL    HW128562   2.118   0.823   2.821
 9221SOL    HW228563   2.226   0.704   2.848
 9222SOL     OW28564   2.621   5.817   6.020
 9222SOL    HW128565   2.611   5.717   6.019
 9222SOL    HW228566   2.634   5.850   5.927
 9223SOL     OW28567   1.054   1.924   3.970
 9223SOL    HW128568   1.143   1.887   3.995
 9223SOL    HW228569   1.060   2.023   3.961
 9224SOL     OW28570   1.191   5.338   4.052
 9224SOL    HW128571   1.118   5.337   4.120
 9224SOL    HW228572   1.179   5.416   3.991
 9225SOL     OW28573   3.049   6.370   6.592
 9225SOL    HW128574   2.961   6.386   6.637
 9225SOL    HW228575   3.040   6.293   6.528
 9226SOL     OW28576   5.992   6.373   1.417
 9226SOL    HW128577   6.023   6.457   1.372
 9226SOL    HW228578   5.894   6.380   1.435
 9227SOL     OW28579   2.137   6.223   1.097
 9227SOL    HW128580   2.084   6.155   1.046
 9227SOL    HW228581   2.083   6.256   1.174
 9228SOL     OW28582   2.551   1.732   6.012
 9228SOL    HW128583   2.568   1.656   6.075
 9228SOL    HW228584   2.634   1.789   6.006
 9229SOL     OW28585   1.430   5.712   4.937
 9229SOL    HW128586   1.458   5.807   4.929
 9229SOL    HW228587   1.423   5.671   4.846
 9230SOL     OW28588   5.478   2.478   3.331
 9230SOL    HW128589   5.472   2.387   3.372
 9230SOL    HW228590   5.470   2.471   3.232
 9231SOL     OW28591   0.974   2.797   4.301
 9231SOL    HW128592   1.072   2.780   4.298
 9231SOL    HW228593   0.957   2.894   4.317
 9232SOL     OW28594   3.836   5.732   0.482
 9232SOL    HW128595   3.774   5.768   0.552
 9232SOL    HW228596   3.876   5.808   0.431
 9233SOL     OW28597   5.740   5.781   2.060
 9233SOL    HW128598   5.784   5.853   2.114
 9233SOL    HW228599   5.743   5.695   2.111
 9234SOL     OW28600   3.376   5.252   6.735
 9234SOL    HW128601   3.454   5.205   6.776
 9234SOL    HW228602   3.343   5.200   6.657
 9235SOL     OW28603   1.260   3.149   3.726
 9235SOL    HW128604   1.359   3.160   3.738
 9235SOL    HW228605   1.241   3.129   3.630
 9236SOL     OW28606   1.867   4.220   6.218
 9236SOL    HW128607   1.873   4.169   6.132
 9236SOL    HW228608   1.956   4.222   6.262
 9237SOL     OW28609   0.722   6.329   4.219
 9237SOL    HW128610   0.651   6.271   4.180
 9237SOL    HW228611   0.758   6.286   4.302
 9238SOL     OW28612   2.243   2.034   0.181
 9238SOL    HW128613   2.299   2.089   0.118
 9238SOL    HW228614   2.173   1.985   0.129
 9239SOL     OW28615   6.647   3.819   6.994
 9239SOL    HW128616   6.744   3.795   6.989
 9239SOL    HW228617   6.592   3.738   6.973
 9240SOL     OW28618   4.983   2.209   2.016
 9240SOL    HW128619   4.977   2.217   2.116
 9240SOL    HW228620   4.904   2.159   1.982
 9241SOL     OW28621   1.418   5.369   5.437
 9241SOL    HW128622   1.393   5.275   5.458
 9241SOL    HW228623   1.495   5.370   5.373
 9242SOL     OW28624   1.055   4.638   0.245
 9242SOL    HW128625   0.984   4.704   0.267
 9242SOL    HW228626   1.016   4.546   0.244
 9243SOL     OW28627   0.218   6.745   1.588
 9243SOL    HW128628   0.188   6.650   1.588
 9243SOL    HW228629   0.245   6.771   1.495
 9244SOL     OW28630   3.895   5.411   6.637
 9244SOL    HW128631   3.810   5.443   6.596
 9244SOL    HW228632   3.970   5.422   6.571
 9245SOL     OW28633   1.862   4.970   3.210
 9245SOL    HW128634   1.809   5.019   3.141
 9245SOL    HW228635   1.830   4.997   3.301
 9246SOL     OW28636   6.289   5.297   2.508
 9246SOL    HW128637   6.388   5.303   2.498
 9246SOL    HW228638   6.265   5.281   2.603
 9247SOL     OW28639   1.691   6.537   3.558
 9247SOL    HW128640   1.625   6.545   3.632
 9247SOL    HW228641   1.663   6.464   3.496
 9248SOL     OW28642   2.396   2.467   4.621
 9248SOL    HW128643   2.430   2.470   4.715
 9248SOL    HW228644   2.303   2.430   4.620
 9249SOL     OW28645   3.465   3.892   0.343
 9249SOL    HW128646   3.415   3.833   0.279
 9249SOL    HW228647   3.405   3.919   0.418
 9250SOL     OW28648   5.785   2.855   3.897
 9250SOL    HW128649   5.692   2.837   3.929
 9250SOL    HW228650   5.851   2.821   3.964
 9251SOL     OW28651   3.659   1.678   2.726
 9251SOL    HW128652   3.757   1.694   2.725
 9251SOL    HW228653   3.618   1.715   2.642
 9252SOL     OW28654   5.013   0.034   3.875
 9252SOL    HW128655   5.110   0.027   3.901
 9252SOL    HW228656   5.005   0.021   3.776
 9253SOL     OW28657   5.894   6.434   6.011
 9253SOL    HW128658   5.981   6.483   6.018
 9253SOL    HW228659   5.894   6.357   6.076
 9254SOL     OW28660   6.268   4.628   2.859
 9254SOL    HW128661   6.236   4.575   2.938
 9254SOL    HW228662   6.235   4.585   2.775
 9255SOL     OW28663   4.620   3.999   0.062
 9255SOL    HW128664   4.656   3.972   7.000
 9255SOL    HW228665   4.694   4.004   0.128
 9256SOL     OW28666   3.042   0.474   3.017
 9256SOL    HW128667   3.049   0.412   2.939
 9256SOL    HW228668   3.131   0.517   3.034
 9257SOL     OW28669   0.260   3.902   3.241
 9257SOL    HW128670   0.167   3.867   3.232
 9257SOL    HW228671   0.260   3.980   3.304
 9258SOL     OW28672   3.248   3.126   2.474
 9258SOL    HW128673   3.210   3.047   2.522
 9258SOL    HW228674   3.255   3.203   2.536
 9259SOL     OW28675   1.039   1.965   0.638
 9259SOL    HW128676   1.129   1.946   0.677
 9259SOL    HW228677   1.031   2.063   0.620
 9260SOL     OW28678   6.145   1.126   4.595
 9260SOL    HW128679   6.072   1.132   4.527
 9260SOL    HW228680   6.149   1.212   4.647
 9261SOL     OW28681   2.631   1.352   0.171
 9261SOL    HW128682   2.660   1.423   0.236
 9261SOL    HW228683   2.665   1.263   0.201
 9262SOL     OW28684   6.996   4.909   5.547
 9262SOL    HW128685   6.998   4.931   5.449
 9262SOL    HW228686   6.902   4.893   5.575
 9263SOL     OW28687   5.006   6.890   0.903
 9263SOL    HW128688   4.960   6.827   0.966
 9263SOL    HW228689   5.013   6.849   0.813
 9264SOL     OW28690   4.531   5.139   0.379
 9264SOL    HW128691   4.538   5.239   0.390
 9264SOL    HW228692   4.592   5.110   0.305
 9265SOL     OW28693   3.841   1.882   0.886
 9265SOL    HW128694   3.795   1.830   0.959
 9265SOL    HW228695   3.781   1.956   0.857
 9266SOL     OW28696   1.824   0.213   1.213
 9266SOL    HW128697   1.824   0.147   1.138
 9266SOL    HW228698   1.917   0.229   1.244
 9267SOL     OW28699   6.884   3.101   4.535
 9267SOL    HW128700   6.966   3.103   4.478
 9267SOL    HW228701   6.813   3.158   4.495
 9268SOL     OW28702   0.703   5.098   2.341
 9268SOL    HW128703   0.687   5.073   2.436
 9268SOL    HW228704   0.802   5.102   2.324
 9269SOL     OW28705   3.185   1.452   6.467
 9269SOL    HW128706   3.181   1.415   6.375
 9269SOL    HW228707   3.227   1.384   6.528
 9270SOL     OW28708   4.404   6.728   6.309
 9270SOL    HW128709   4.395   6.789   6.230
 9270SOL    HW228710   4.369   6.773   6.391
 9271SOL     OW28711   5.995   7.015   0.406
 9271SOL    HW128712   5.940   6.932   0.413
 9271SOL    HW228713   5.952   0.051   0.342
 9272SOL     OW28714   1.145   6.006   4.869
 9272SOL    HW128715   1.152   5.923   4.924
 9272SOL    HW228716   1.090   6.074   4.917
 9273SOL     OW28717   6.080   7.012   2.775
 9273SOL    HW128718   6.113   7.021   2.869
 9273SOL    HW228719   5.993   0.033   2.766
 9274SOL     OW28720   6.570   2.054   6.742
 9274SOL    HW128721   6.627   2.100   6.674
 9274SOL    HW228722   6.560   2.112   6.822
 9275SOL     OW28723   6.405   0.785   0.311
 9275SOL    HW128724   6.364   0.702   0.351
 9275SOL    HW228725   6.468   0.758   0.238
 9276SOL     OW28726   1.856   3.663   1.973
 9276SOL    HW128727   1.914   3.691   2.050
 9276SOL    HW228728   1.856   3.563   1.965
 9277SOL     OW28729   4.599   3.568   0.115
 9277SOL    HW128730   4.533   3.507   0.158
 9277SOL    HW228731   4.551   3.629   0.052
 9278SOL     OW28732   1.846   0.663   5.700
 9278SOL    HW128733   1.749   0.682   5.717
 9278SOL    HW228734   1.901   0.737   5.737
 9279SOL     OW28735   4.439   1.104   2.065
 9279SOL    HW128736   4.442   1.009   2.096
 9279SOL    HW228737   4.530   1.145   2.073
 9280SOL     OW28738   2.065   1.986   3.272
 9280SOL    HW128739   2.010   1.918   3.222
 9280SOL    HW228740   2.039   2.078   3.241
 9281SOL     OW28741   2.861   3.922   7.015
 9281SOL    HW128742   2.858   4.015   0.023
 9281SOL    HW228743   2.768   3.890   6.997
 9282SOL     OW28744   4.988   1.159   3.787
 9282SOL    HW128745   5.017   1.214   3.708
 9282SOL    HW228746   4.927   1.086   3.757
 9283SOL     OW28747   5.527   0.406   4.058
 9283SOL    HW128748   5.540   0.488   4.113
 9283SOL    HW228749   5.459   0.423   3.987
 9284SOL     OW28750   3.371   3.318   5.634
 9284SOL    HW128751   3.343   3.271   5.550
 9284SOL    HW228752   3.446   3.267   5.677
 9285SOL     OW28753   4.923   2.722   0.759
 9285SOL    HW128754   4.852   2.652   0.757
 9285SOL    HW228755   4.970   2.725   0.671
 9286SOL     OW28756   5.326   5.902   0.583
 9286SOL    HW128757   5.290   5.927   0.673
 9286SOL    HW228758   5.269   5.943   0.512
 9287SOL     OW28759   3.199   4.957   0.216
 9287SOL    HW128760   3.255   4.940   0.135
 9287SOL    HW228761   3.241   4.914   0.295
 9288SOL     OW28762   4.888   1.235   3.496
 9288SOL    HW128763   4.835   1.276   3.422
 9288SOL    HW228764   4.829   1.174   3.550
 9289SOL     OW28765   4.022   1.313   2.069
 9289SOL    HW128766   4.073   1.232   2.099
 9289SOL    HW228767   3.941   1.324   2.127
 9290SOL     OW28768   5.410   1.472   3.254
 9290SOL    HW128769   5.403   1.500   3.350
 9290SOL    HW228770   5.504   1.445   3.234
 9291SOL     OW28771   1.401   6.317   4.132
 9291SOL    HW128772   1.466   6.359   4.069
 9291SOL    HW228773   1.414   6.355   4.223
 9292SOL     OW28774   2.188   2.877   6.513
 9292SOL    HW128775   2.202   2.907   6.607
 9292SOL    HW228776   2.200   2.777   6.508
 9293SOL     OW28777   5.197   3.447   6.733
 9293SOL    HW128778   5.150   3.377   6.679
 9293SOL    HW228779   5.295   3.431   6.732
 9294SOL     OW28780   4.362   0.934   5.409
 9294SOL    HW128781   4.320   0.844   5.406
 9294SOL    HW228782   4.302   1.000   5.362
 9295SOL     OW28783   5.369   1.827   4.679
 9295SOL    HW128784   5.384   1.797   4.585
 9295SOL    HW228785   5.273   1.848   4.694
 9296SOL     OW28786   1.489   5.834   6.965
 9296SOL    HW128787   1.571   5.837   7.022
 9296SOL    HW228788   1.489   5.912   6.902
 9297SOL     OW28789   6.598   0.255   1.610
 9297SOL    HW128790   6.505   0.290   1.599
 9297SOL    HW228791   6.621   0.194   1.534
 9298SOL     OW28792   1.147   6.861   5.447
 9298SOL    HW128793   1.145   6.933   5.516
 9298SOL    HW228794   1.166   6.773   5.490
 9299SOL     OW28795   0.412   2.543   5.247
 9299SOL    HW128796   0.493   2.603   5.243
 9299SOL    HW228797   0.403   2.495   5.160
 9300SOL     OW28798   0.109   4.614   5.822
 9300SOL    HW128799   0.144   4.706   5.843
 9300SOL    HW228800   0.111   4.600   5.723
 9301SOL     OW28801   5.139   5.602   3.899
 9301SOL    HW128802   5.228   5.596   3.944
 9301SOL    HW228803   5.085   5.521   3.923
 9302SOL     OW28804   2.228   2.877   4.042
 9302SOL    HW128805   2.227   2.967   4.085
 9302SOL    HW228806   2.229   2.806   4.113
 9303SOL     OW28807   2.617   4.244   0.943
 9303SOL    HW128808   2.634   4.249   1.041
 9303SOL    HW228809   2.519   4.251   0.925
 9304SOL     OW28810   4.091   5.223   1.806
 9304SOL    HW128811   4.165   5.154   1.805
 9304SOL    HW228812   4.021   5.195   1.872
 9305SOL     OW28813   3.149   1.286   0.997
 9305SOL    HW128814   3.143   1.208   1.060
 9305SOL    HW228815   3.127   1.370   1.047
 9306SOL     OW28816   0.371   5.227   4.843
 9306SOL    HW128817   0.333   5.316   4.867
 9306SOL    HW228818   0.469   5.226   4.860
 9307SOL     OW28819   1.831   3.513   1.718
 9307SOL    HW128820   1.791   3.591   1.669
 9307SOL    HW228821   1.910   3.545   1.771
 9308SOL     OW28822   2.398   3.459   0.209
 9308SOL    HW128823   2.356   3.410   0.132
 9308SOL    HW228824   2.333   3.528   0.243
 9309SOL     OW28825   3.856   4.600   5.931
 9309SOL    HW128826   3.940   4.545   5.932
 9309SOL    HW228827   3.791   4.563   5.998
 9310SOL     OW28828   4.776   5.382   6.678
 9310SOL    HW128829   4.781   5.464   6.621
 9310SOL    HW228830   4.862   5.370   6.727
 9311SOL     OW28831   4.295   4.981   1.992
 9311SOL    HW128832   4.381   4.945   2.027
 9311SOL    HW228833   4.304   5.001   1.894
 9312SOL     OW28834   1.170   3.533   1.037
 9312SOL    HW128835   1.230   3.599   0.992
 9312SOL    HW228836   1.221   3.486   1.109
 9313SOL     OW28837   0.582   0.889   1.011
 9313SOL    HW128838   0.492   0.860   0.978
 9313SOL    HW228839   0.641   0.809   1.019
 9314SOL     OW28840   5.461   5.175   6.703
 9314SOL    HW128841   5.482   5.166   6.800
 9314SOL    HW228842   5.367   5.145   6.686
 9315SOL     OW28843   5.903   0.649   5.339
 9315SOL    HW128844   5.911   0.601   5.251
 9315SOL    HW228845   5.876   0.744   5.323
 9316SOL     OW28846   4.882   6.379   5.861
 9316SOL    HW128847   4.892   6.366   5.762
 9316SOL    HW228848   4.967   6.355   5.907
 9317SOL     OW28849   5.265   5.333   3.752
 9317SOL    HW128850   5.318   5.328   3.836
 9317SOL    HW228851   5.240   5.428   3.733
 9318SOL     OW28852   5.887   0.552   6.277
 9318SOL    HW128853   5.842   0.584   6.193
 9318SOL    HW228854   5.903   0.454   6.270
 9319SOL     OW28855   2.092   2.997   0.021
 9319SOL    HW128856   2.070   3.072   0.083
 9319SOL    HW228857   2.029   2.921   0.036
 9320SOL     OW28858   3.739   0.548   5.255
 9320SOL    HW128859   3.792   0.501   5.326
 9320SOL    HW228860   3.803   0.590   5.189
 9321SOL     OW28861   0.398   0.321   4.209
 9321SOL    HW128862   0.352   0.360   4.288
 9321SOL    HW228863   0.451   0.241   4.238
 9322SOL     OW28864   0.042   3.397   6.747
 9322SOL    HW128865   6.975   3.430   6.751
 9322SOL    HW228866   0.064   3.373   6.653
 9323SOL     OW28867   1.327   0.794   5.754
 9323SOL    HW128868   1.287   0.831   5.838
 9323SOL    HW228869   1.269   0.719   5.720
 9324SOL     OW28870   1.105   4.125   1.394
 9324SOL    HW128871   1.069   4.062   1.463
 9324SOL    HW228872   1.058   4.110   1.307
 9325SOL     OW28873   5.863   0.644   0.094
 9325SOL    HW128874   5.903   0.696   0.018
 9325SOL    HW228875   5.765   0.661   0.098
 9326SOL     OW28876   2.342   5.492   0.503
 9326SOL    HW128877   2.296   5.406   0.479
 9326SOL    HW228878   2.439   5.487   0.476
 9327SOL     OW28879   5.349   0.597   2.685
 9327SOL    HW128880   5.287   0.522   2.659
 9327SOL    HW228881   5.309   0.648   2.761
 9328SOL     OW28882   2.279   1.294   5.248
 9328SOL    HW128883   2.294   1.393   5.251
 9328SOL    HW228884   2.229   1.272   5.164
 9329SOL     OW28885   6.107   3.681   1.355
 9329SOL    HW128886   6.050   3.762   1.368
 9329SOL    HW228887   6.077   3.608   1.416
 9330SOL     OW28888   6.689   0.002   5.660
 9330SOL    HW128889   6.689   6.972   5.742
 9330SOL    HW228890   6.597   0.034   5.642
 9331SOL     OW28891   2.034   0.723   0.098
 9331SOL    HW128892   2.000   0.812   0.067
 9331SOL    HW228893   2.133   0.727   0.111
 9332SOL     OW28894   4.323   4.136   1.205
 9332SOL    HW128895   4.402   4.174   1.158
 9332SOL    HW228896   4.263   4.089   1.139
 9333SOL     OW28897   4.116   4.049   0.335
 9333SOL    HW128898   4.139   4.064   0.431
 9333SOL    HW228899   4.179   4.101   0.277
 9334SOL     OW28900   5.816   6.134   3.121
 9334SOL    HW128901   5.785   6.215   3.170
 9334SOL    HW228902   5.914   6.141   3.104
 9335SOL     OW28903   0.868   0.999   6.847
 9335SOL    HW128904   0.888   1.084   6.798
 9335SOL    HW228905   0.773   0.973   6.831
 9336SOL     OW28906   3.438   5.882   5.992
 9336SOL    HW128907   3.451   5.789   6.027
 9336SOL    HW228908   3.343   5.910   6.007
 9337SOL     OW28909   4.161   1.336   4.579
 9337SOL    HW128910   4.152   1.348   4.481
 9337SOL    HW228911   4.096   1.396   4.626
 9338SOL     OW28912   5.399   6.942   1.750
 9338SOL    HW128913   5.446   7.018   1.795
 9338SOL    HW228914   5.314   6.976   1.708
 9339SOL     OW28915   5.676   6.514   1.126
 9339SOL    HW128916   5.581   6.513   1.160
 9339SOL    HW228917   5.715   6.423   1.134
 9340SOL     OW28918   4.552   4.483   3.846
 9340SOL    HW128919   4.620   4.514   3.780
 9340SOL    HW228920   4.461   4.509   3.815
 9341SOL     OW28921   0.137   5.507   1.087
 9341SOL    HW128922   0.181   5.582   1.037
 9341SOL    HW228923   0.163   5.420   1.046
 9342SOL     OW28924   2.791   6.324   4.003
 9342SOL    HW128925   2.730   6.398   4.033
 9342SOL    HW228926   2.846   6.355   3.926
 9343SOL     OW28927   5.778   4.306   1.897
 9343SOL    HW128928   5.758   4.316   1.800
 9343SOL    HW228929   5.717   4.237   1.937
 9344SOL     OW28930   4.898   6.511   2.974
 9344SOL    HW128931   4.963   6.480   2.904
 9344SOL    HW228932   4.807   6.519   2.933
 9345SOL     OW28933   6.859   5.719   2.091
 9345SOL    HW128934   6.878   5.748   1.998
 9345SOL    HW228935   6.769   5.752   2.119
 9346SOL     OW28936   5.447   1.215   1.313
 9346SOL    HW128937   5.382   1.196   1.386
 9346SOL    HW228938   5.538   1.232   1.352
 9347SOL     OW28939   2.985   3.875   0.226
 9347SOL    HW128940   2.942   3.878   0.136
 9347SOL    HW228941   2.920   3.839   0.293
 9348SOL     OW28942   2.641   6.758   2.391
 9348SOL    HW128943   2.550   6.748   2.432
 9348SOL    HW228944   2.708   6.773   2.463
 9349SOL     OW28945   6.297   4.984   3.009
 9349SOL    HW128946   6.333   4.950   2.922
 9349SOL    HW228947   6.358   5.053   3.046
 9350SOL     OW28948   6.914   2.908   4.925
 9350SOL    HW128949   6.868   2.899   4.836
 9350SOL    HW228950   6.878   2.839   4.988
 9351SOL     OW28951   2.989   6.653   6.979
 9351SOL    HW128952   3.047   6.713   0.007
 9351SOL    HW228953   2.921   6.709   6.931
 9352SOL     OW28954   3.530   1.894   5.958
 9352SOL    HW128955   3.431   1.893   5.948
 9352SOL    HW228956   3.555   1.891   6.055
 9353SOL     OW28957   0.423   4.101   0.990
 9353SOL    HW128958   0.483   4.073   1.066
 9353SOL    HW228959   0.428   4.034   0.917
 9354SOL     OW28960   0.483   1.575   6.212
 9354SOL    HW128961   0.387   1.599   6.225
 9354SOL    HW228962   0.509   1.594   6.117
 9355SOL     OW28963   0.184   2.036   4.334
 9355SOL    HW128964   0.239   2.102   4.284
 9355SOL    HW228965   0.098   2.079   4.361
 9356SOL     OW28966   4.589   6.933   2.756
 9356SOL    HW128967   4.585   6.838   2.787
 9356SOL    HW228968   4.496   6.966   2.739
 9357SOL     OW28969   1.626   3.633   5.958
 9357SOL    HW128970   1.665   3.555   5.911
 9357SOL    HW228971   1.684   3.659   6.035
 9358SOL     OW28972   0.102   3.053   1.886
 9358SOL    HW128973   0.158   3.050   1.803
 9358SOL    HW228974   0.145   3.115   1.952
 9359SOL     OW28975   1.806   3.958   5.313
 9359SOL    HW128976   1.868   3.993   5.244
 9359SOL    HW228977   1.835   3.867   5.342
 9360SOL     OW28978   0.712   4.678   6.815
 9360SOL    HW128979   0.658   4.597   6.791
 9360SOL    HW228980   0.657   4.737   6.874
 9361SOL     OW28981   1.089   5.317   2.771
 9361SOL    HW128982   1.098   5.385   2.844
 9361SOL    HW228983   1.175   5.268   2.760
 9362SOL     OW28984   2.067   2.696   2.704
 9362SOL    HW128985   2.032   2.775   2.754
 9362SOL    HW228986   2.144   2.724   2.647
 9363SOL     OW28987   2.966   6.270   1.556
 9363SOL    HW128988   3.008   6.267   1.465
 9363SOL    HW228989   3.010   6.201   1.615
 9364SOL     OW28990   2.956   3.153   6.563
 9364SOL    HW128991   3.018   3.231   6.576
 9364SOL    HW228992   2.993   3.093   6.492
 9365SOL     OW28993   2.578   2.025   4.045
 9365SOL    HW128994   2.592   2.112   4.093
 9365SOL    HW228995   2.520   2.041   3.965
 9366SOL     OW28996   3.963   5.258   6.132
 9366SOL    HW128997   3.974   5.217   6.041
 9366SOL    HW228998   3.963   5.358   6.123
 9367SOL     OW28999   6.849   6.460   2.594
 9367SOL    HW129000   6.925   6.439   2.656
 9367SOL    HW229001   6.878   6.530   2.528
 9368SOL     OW29002   3.536   0.425   3.186
 9368SOL    HW129003   3.457   0.487   3.193
 9368SOL    HW229004   3.604   0.464   3.124
 9369SOL     OW29005   0.058   6.650   4.009
 9369SOL    HW129006   0.120   6.728   4.009
 9369SOL    HW229007   0.062   6.604   3.921
 9370SOL     OW29008   5.483   0.558   4.296
 9370SOL    HW129009   5.442   0.618   4.227
 9370SOL    HW229010   5.411   0.502   4.337
 9371SOL     OW29011   2.300   4.605   0.307
 9371SOL    HW129012   2.327   4.621   0.212
 9371SOL    HW229013   2.311   4.689   0.360
 9372SOL     OW29014   4.775   7.028   1.383
 9372SOL    HW129015   4.718   0.006   1.301
 9372SOL    HW229016   4.773   0.087   1.432
 9373SOL     OW29017   4.695   2.184   1.578
 9373SOL    HW129018   4.789   2.183   1.611
 9373SOL    HW229019   4.654   2.093   1.591
 9374SOL     OW29020   0.192   2.433   0.280
 9374SOL    HW129021   0.199   2.484   0.194
 9374SOL    HW229022   0.152   2.492   0.351
 9375SOL     OW29023   0.409   1.601   1.072
 9375SOL    HW129024   0.430   1.638   1.162
 9375SOL    HW229025   0.494   1.585   1.022
 9376SOL     OW29026   2.349   4.110   1.363
 9376SOL    HW129027   2.310   4.018   1.368
 9376SOL    HW229028   2.307   4.168   1.433
 9377SOL     OW29029   1.764   5.332   3.330
 9377SOL    HW129030   1.779   5.430   3.317
 9377SOL    HW229031   1.730   5.292   3.245
 9378SOL     OW29032   2.279   1.390   3.404
 9378SOL    HW129033   2.206   1.343   3.454
 9378SOL    HW229034   2.319   1.460   3.463
 9379SOL     OW29035   5.196   6.943   5.612
 9379SOL    HW129036   5.211   6.883   5.691
 9379SOL    HW229037   5.098   6.956   5.598
 9380SOL     OW29038   3.889   5.682   5.729
 9380SOL    HW129039   3.879   5.683   5.629
 9380SOL    HW229040   3.846   5.764   5.767
 9381SOL     OW29041   4.834   2.785   5.790
 9381SOL    HW129042   4.860   2.821   5.880
 9381SOL    HW229043   4.887   2.831   5.719
 9382SOL     OW29044   3.979   0.352   4.176
 9382SOL    HW129045   4.008   0.275   4.234
 9382SOL    HW229046   3.881   0.367   4.187
 9383SOL     OW29047   5.448   5.212   4.409
 9383SOL    HW129048   5.539   5.224   4.371
 9383SOL    HW229049   5.454   5.206   4.509
 9384SOL     OW29050   4.076   0.196   1.907
 9384SOL    HW129051   4.035   0.182   1.998
 9384SOL    HW229052   4.030   0.136   1.841
 9385SOL     OW29053   4.561   1.547   3.788
 9385SOL    HW129054   4.484   1.530   3.726
 9385SOL    HW229055   4.527   1.557   3.881
 9386SOL     OW29056   3.258   5.982   5.290
 9386SOL    HW129057   3.350   5.974   5.252
 9386SOL    HW229058   3.251   5.926   5.373
 9387SOL     OW29059   2.620   2.198   0.306
 9387SOL    HW129060   2.693   2.251   0.349
 9387SOL    HW229061   2.641   2.184   0.210
 9388SOL     OW29062   2.817   5.829   3.492
 9388SOL    HW129063   2.864   5.746   3.462
 9388SOL    HW229064   2.838   5.904   3.430
 9389SOL     OW29065   2.596   6.769   3.276
 9389SOL    HW129066   2.652   6.783   3.194
 9389SOL    HW229067   2.657   6.754   3.354
 9390SOL     OW29068   5.254   4.667   6.633
 9390SOL    HW129069   5.309   4.630   6.559
 9390SOL    HW229070   5.178   4.606   6.653
 9391SOL     OW29071   0.780   0.672   5.967
 9391SOL    HW129072   0.793   0.769   5.987
 9391SOL    HW229073   0.683   0.654   5.955
 9392SOL     OW29074   5.243   5.366   5.885
 9392SOL    HW129075   5.235   5.292   5.818
 9392SOL    HW229076   5.152   5.402   5.905
 9393SOL     OW29077   2.533   0.167   6.138
 9393SOL    HW129078   2.511   0.087   6.083
 9393SOL    HW229079   2.580   0.139   6.222
 9394SOL     OW29080   6.283   1.044   1.549
 9394SOL    HW129081   6.261   1.094   1.633
 9394SOL    HW229082   6.271   0.946   1.564
 9395SOL     OW29083   2.396   0.965   0.763
 9395SOL    HW129084   2.445   1.007   0.687
 9395SOL    HW229085   2.341   0.889   0.729
 9396SOL     OW29086   2.082   4.228   4.771
 9396SOL    HW129087   2.133   4.303   4.814
 9396SOL    HW229088   2.098   4.143   4.822
 9397SOL     OW29089   3.185   6.034   6.080
 9397SOL    HW129090   3.220   6.015   6.172
 9397SOL    HW229091   3.088   6.011   6.076
 9398SOL     OW29092   5.969   1.157   5.542
 9398SOL    HW129093   5.926   1.118   5.624
 9398SOL    HW229094   6.033   1.228   5.570
 9399SOL     OW29095   0.988   2.740   4.920
 9399SOL    HW129096   1.086   2.732   4.935
 9399SOL    HW229097   0.940   2.735   5.008
 9400SOL     OW29098   5.204   0.955   1.084
 9400SOL    HW129099   5.115   0.987   1.116
 9400SOL    HW229100   5.199   0.856   1.066
 9401SOL     OW29101   6.674   1.973   2.743
 9401SOL    HW129102   6.597   1.929   2.788
 9401SOL    HW229103   6.643   2.012   2.656
 9402SOL     OW29104   1.646   4.371   3.195
 9402SOL    HW129105   1.720   4.363   3.127
 9402SOL    HW229106   1.647   4.463   3.234
 9403SOL     OW29107   5.992   1.653   1.912
 9403SOL    HW129108   5.970   1.568   1.959
 9403SOL    HW229109   6.013   1.724   1.979
 9404SOL     OW29110   0.535   1.834   1.203
 9404SOL    HW129111   0.580   1.858   1.117
 9404SOL    HW229112   0.604   1.829   1.276
 9405SOL     OW29113   2.310   4.290   3.600
 9405SOL    HW129114   2.353   4.264   3.514
 9405SOL    HW229115   2.297   4.209   3.657
 9406SOL     OW29116   0.799   2.634   6.548
 9406SOL    HW129117   0.749   2.549   6.566
 9406SOL    HW229118   0.836   2.631   6.455
 9407SOL     OW29119   2.681   5.126   3.860
 9407SOL    HW129120   2.634   5.196   3.806
 9407SOL    HW229121   2.613   5.074   3.913
 9408SOL     OW29122   6.806   3.409   6.007
 9408SOL    HW129123   6.894   3.455   6.022
 9408SOL    HW229124   6.805   3.369   5.916
 9409SOL     OW29125   6.597   5.911   1.331
 9409SOL    HW129126   6.683   5.863   1.320
 9409SOL    HW229127   6.605   5.979   1.404
 9410SOL     OW29128   2.675   0.580   2.115
 9410SOL    HW129129   2.741   0.619   2.180
 9410SOL    HW229130   2.690   0.620   2.025
 9411SOL     OW29131   3.821   3.288   3.252
 9411SOL    HW129132   3.915   3.279   3.218
 9411SOL    HW229133   3.797   3.207   3.305
 9412SOL     OW29134   1.836   1.078   2.179
 9412SOL    HW129135   1.858   1.064   2.082
 9412SOL    HW229136   1.878   1.005   2.233
 9413SOL     OW29137   4.708   4.848   3.302
 9413SOL    HW129138   4.754   4.918   3.246
 9413SOL    HW229139   4.654   4.892   3.373
 9414SOL     OW29140   2.910   1.468   3.601
 9414SOL    HW129141   2.834   1.418   3.642
 9414SOL    HW229142   2.978   1.489   3.671
 9415SOL     OW29143   2.274   6.942   2.452
 9415SOL    HW129144   2.295   6.942   2.354
 9415SOL    HW229145   2.176   6.933   2.465
 9416SOL     OW29146   0.180   0.767   6.006
 9416SOL    HW129147   0.204   0.788   5.912
 9416SOL    HW229148   0.259   0.783   6.065
 9417SOL     OW29149   3.337   0.685   1.030
 9417SOL    HW129150   3.278   0.687   0.949
 9417SOL    HW229151   3.345   0.591   1.062
 9418SOL     OW29152   2.518   1.164   1.132
 9418SOL    HW129153   2.600   1.110   1.152
 9418SOL    HW229154   2.525   1.254   1.174
 9419SOL     OW29155   2.184   3.833   6.366
 9419SOL    HW129156   2.241   3.795   6.439
 9419SOL    HW229157   2.184   3.771   6.288
 9420SOL     OW29158   5.914   4.441   0.379
 9420SOL    HW129159   5.945   4.531   0.346
 9420SOL    HW229160   5.892   4.383   0.301
 9421SOL     OW29161   3.123   6.130   4.909
 9421SOL    HW129162   3.198   6.196   4.914
 9421SOL    HW229163   3.091   6.109   5.001
 9422SOL     OW29164   3.184   5.777   2.949
 9422SOL    HW129165   3.182   5.816   2.857
 9422SOL    HW229166   3.261   5.713   2.957
 9423SOL     OW29167   4.214   6.198   3.332
 9423SOL    HW129168   4.163   6.257   3.269
 9423SOL    HW229169   4.307   6.185   3.297
 9424SOL     OW29170   5.094   1.885   4.656
 9424SOL    HW129171   5.012   1.935   4.684
 9424SOL    HW229172   5.095   1.876   4.556
 9425SOL     OW29173   5.695   4.253   1.645
 9425SOL    HW129174   5.746   4.332   1.610
 9425SOL    HW229175   5.685   4.186   1.572
 9426SOL     OW29176   3.244   1.438   6.191
 9426SOL    HW129177   3.339   1.433   6.161
 9426SOL    HW229178   3.205   1.346   6.195
 9427SOL     OW29179   3.066   5.265   3.127
 9427SOL    HW129180   3.159   5.274   3.092
 9427SOL    HW229181   3.001   5.260   3.051
 9428SOL     OW29182   0.274   0.517   0.942
 9428SOL    HW129183   0.299   0.535   1.037
 9428SOL    HW229184   0.232   0.426   0.936
 9429SOL     OW29185   2.144   3.676   4.204
 9429SOL    HW129186   2.197   3.742   4.151
 9429SOL    HW229187   2.053   3.714   4.222
 9430SOL     OW29188   0.184   2.313   4.797
 9430SOL    HW129189   0.215   2.224   4.766
 9430SOL    HW229190   0.166   2.372   4.718
 9431SOL     OW29191   6.604   4.775   1.640
 9431SOL    HW129192   6.638   4.803   1.550
 9431SOL    HW229193   6.610   4.675   1.648
 9432SOL     OW29194   6.582   0.589   4.204
 9432SOL    HW129195   6.606   0.572   4.300
 9432SOL    HW229196   6.487   0.563   4.189
 9433SOL     OW29197   3.202   6.541   2.836
 9433SOL    HW129198   3.127   6.500   2.785
 9433SOL    HW229199   3.198   6.640   2.828
 9434SOL     OW29200   5.856   5.931   2.424
 9434SOL    HW129201   5.801   5.880   2.491
 9434SOL    HW229202   5.893   5.867   2.356
 9435SOL     OW29203   6.836   1.899   2.959
 9435SOL    HW129204   6.781   1.935   2.884
 9435SOL    HW229205   6.924   1.869   2.925
 9436SOL     OW29206   1.696   1.739   2.424
 9436SOL    HW129207   1.705   1.826   2.473
 9436SOL    HW229208   1.662   1.669   2.487
 9437SOL     OW29209   0.030   6.188   3.177
 9437SOL    HW129210   0.056   6.279   3.208
 9437SOL    HW229211   6.962   6.170   3.201
 9438SOL     OW29212   0.989   0.111   1.896
 9438SOL    HW129213   0.960   0.110   1.992
 9438SOL    HW229214   0.935   0.178   1.845
 9439SOL     OW29215   0.891   2.767   0.930
 9439SOL    HW129216   0.848   2.836   0.989
 9439SOL    HW229217   0.848   2.678   0.947
 9440SOL     OW29218   3.941   4.890   3.234
 9440SOL    HW129219   3.844   4.865   3.236
 9440SOL    HW229220   3.952   4.982   3.272
 9441SOL     OW29221   6.609   5.219   6.105
 9441SOL    HW129222   6.692   5.274   6.093
 9441SOL    HW229223   6.624   5.128   6.067
 9442SOL     OW29224   4.892   3.569   1.895
 9442SOL    HW129225   4.874   3.493   1.833
 9442SOL    HW229226   4.861   3.546   1.987
 9443SOL     OW29227   2.529   5.708   0.369
 9443SOL    HW129228   2.515   5.757   0.283
 9443SOL    HW229229   2.469   5.747   0.439
 9444SOL     OW29230   1.677   4.034   0.782
 9444SOL    HW129231   1.690   4.026   0.881
 9444SOL    HW229232   1.704   4.126   0.753
 9445SOL     OW29233   6.759   3.639   3.565
 9445SOL    HW129234   6.700   3.671   3.639
 9445SOL    HW229235   6.729   3.548   3.536
 9446SOL     OW29236   6.647   5.760   4.589
 9446SOL    HW129237   6.724   5.698   4.572
 9446SOL    HW229238   6.681   5.853   4.599
 9447SOL     OW29239   5.459   5.010   3.910
 9447SOL    HW129240   5.379   4.982   3.963
 9447SOL    HW229241   5.501   4.930   3.868
 9448SOL     OW29242   6.593   0.271   5.868
 9448SOL    HW129243   6.662   0.258   5.938
 9448SOL    HW229244   6.551   0.182   5.846
 9449SOL     OW29245   5.544   6.562   0.023
 9449SOL    HW129246   5.557   6.661   0.030
 9449SOL    HW229247   5.523   6.525   0.113
 9450SOL     OW29248   2.236   5.710   3.066
 9450SOL    HW129249   2.180   5.721   2.984
 9450SOL    HW229250   2.277   5.798   3.090
 9451SOL     OW29251   3.788   5.733   5.091
 9451SOL    HW129252   3.858   5.664   5.076
 9451SOL    HW229253   3.699   5.689   5.105
 9452SOL     OW29254   1.160   3.892   0.168
 9452SOL    HW129255   1.135   3.983   0.199
 9452SOL    HW229256   1.239   3.859   0.220
 9453SOL     OW29257   2.871   5.541   2.625
 9453SOL    HW129258   2.924   5.598   2.562
 9453SOL    HW229259   2.782   5.582   2.641
 9454SOL     OW29260   3.730   3.632   6.357
 9454SOL    HW129261   3.708   3.713   6.304
 9454SOL    HW229262   3.748   3.658   6.452
 9455SOL     OW29263   2.447   2.162   3.134
 9455SOL    HW129264   2.519   2.221   3.098
 9455SOL    HW229265   2.391   2.214   3.199
 9456SOL     OW29266   6.651   3.660   0.759
 9456SOL    HW129267   6.567   3.713   0.751
 9456SOL    HW229268   6.729   3.718   0.736
 9457SOL     OW29269   0.852   4.736   4.600
 9457SOL    HW129270   0.800   4.733   4.515
 9457SOL    HW229271   0.818   4.666   4.663
 9458SOL     OW29272   1.012   4.051   6.748
 9458SOL    HW129273   0.937   4.117   6.755
 9458SOL    HW229274   0.976   3.963   6.717
 9459SOL     OW29275   5.217   4.917   4.074
 9459SOL    HW129276   5.206   4.980   4.151
 9459SOL    HW229277   5.130   4.870   4.057
 9460SOL     OW29278   2.053   3.792   4.952
 9460SOL    HW129279   2.077   3.867   5.014
 9460SOL    HW229280   2.087   3.706   4.989
 9461SOL     OW29281   0.624   1.908   1.928
 9461SOL    HW129282   0.596   1.840   1.996
 9461SOL    HW229283   0.582   1.996   1.948
 9462SOL     OW29284   1.356   2.876   3.250
 9462SOL    HW129285   1.408   2.960   3.267
 9462SOL    HW229286   1.313   2.845   3.334
 9463SOL     OW29287   5.449   0.305   1.551
 9463SOL    HW129288   5.533   0.255   1.533
 9463SOL    HW229289   5.388   0.297   1.472
 9464SOL     OW29290   6.042   0.360   0.481
 9464SOL    HW129291   6.097   0.339   0.562
 9464SOL    HW229292   6.086   0.320   0.400
 9465SOL     OW29293   0.417   3.271   1.799
 9465SOL    HW129294   0.389   3.185   1.842
 9465SOL    HW229295   0.491   3.253   1.734
 9466SOL     OW29296   3.487   4.461   5.455
 9466SOL    HW129297   3.559   4.456   5.524
 9466SOL    HW229298   3.399   4.443   5.498
 9467SOL     OW29299   0.788   3.321   0.905
 9467SOL    HW129300   0.881   3.336   0.869
 9467SOL    HW229301   0.777   3.371   0.990
 9468SOL     OW29302   5.813   3.870   6.784
 9468SOL    HW129303   5.745   3.928   6.831
 9468SOL    HW229304   5.865   3.925   6.719
 9469SOL     OW29305   0.587   5.640   1.253
 9469SOL    HW129306   0.579   5.544   1.225
 9469SOL    HW229307   0.512   5.662   1.316
 9470SOL     OW29308   4.840   3.415   0.096
 9470SOL    HW129309   4.754   3.466   0.101
 9470SOL    HW229310   4.911   3.473   0.057
 9471SOL     OW29311   6.399   1.990   4.615
 9471SOL    HW129312   6.394   2.069   4.555
 9471SOL    HW229313   6.334   2.001   4.691
 9472SOL     OW29314   0.228   3.621   5.425
 9472SOL    HW129315   0.257   3.696   5.485
 9472SOL    HW229316   0.134   3.638   5.394
 9473SOL     OW29317   3.464   4.532   0.485
 9473SOL    HW129318   3.555   4.495   0.468
 9473SOL    HW229319   3.397   4.483   0.430
 9474SOL     OW29320   6.347   3.560   1.747
 9474SOL    HW129321   6.274   3.492   1.747
 9474SOL    HW229322   6.430   3.520   1.786
 9475SOL     OW29323   3.852   3.407   1.063
 9475SOL    HW129324   3.903   3.348   0.999
 9475SOL    HW229325   3.791   3.351   1.118
 9476SOL     OW29326   3.961   4.009   4.617
 9476SOL    HW129327   4.052   4.042   4.590
 9476SOL    HW229328   3.957   3.910   4.606
 9477SOL     OW29329   0.221   2.614   0.887
 9477SOL    HW129330   0.134   2.592   0.930
 9477SOL    HW229331   0.296   2.569   0.936
 9478SOL     OW29332   5.626   3.280   0.891
 9478SOL    HW129333   5.638   3.236   0.802
 9478SOL    HW229334   5.528   3.287   0.911
 9479SOL     OW29335   4.421   6.625   0.844
 9479SOL    HW129336   4.438   6.622   0.746
 9479SOL    HW229337   4.447   6.538   0.886
 9480SOL     OW29338   6.538   5.027   0.563
 9480SOL    HW129339   6.518   5.036   0.466
 9480SOL    HW229340   6.569   5.116   0.599
 9481SOL     OW29341   4.957   2.618   2.688
 9481SOL    HW129342   5.036   2.581   2.737
 9481SOL    HW229343   4.914   2.546   2.634
 9482SOL     OW29344   0.196   1.052   3.065
 9482SOL    HW129345   0.250   0.983   3.018
 9482SOL    HW229346   0.248   1.088   3.143
 9483SOL     OW29347   1.697   0.664   0.436
 9483SOL    HW129348   1.781   0.668   0.490
 9483SOL    HW229349   1.720   0.667   0.339
 9484SOL     OW29350   3.542   0.495   4.584
 9484SOL    HW129351   3.576   0.500   4.678
 9484SOL    HW229352   3.605   0.441   4.529
 9485SOL     OW29353   0.344   1.487   1.386
 9485SOL    HW129354   0.338   1.394   1.350
 9485SOL    HW229355   0.255   1.515   1.421
 9486SOL     OW29356   4.481   5.851   0.981
 9486SOL    HW129357   4.416   5.867   1.055
 9486SOL    HW229358   4.450   5.900   0.899
 9487SOL     OW29359   3.371   4.105   3.485
 9487SOL    HW129360   3.331   4.102   3.576
 9487SOL    HW229361   3.297   4.113   3.417
 9488SOL     OW29362   2.942   0.104   1.017
 9488SOL    HW129363   2.977   0.194   0.991
 9488SOL    HW229364   2.844   0.109   1.031
 9489SOL     OW29365   5.257   4.203   1.443
 9489SOL    HW129366   5.285   4.135   1.511
 9489SOL    HW229367   5.210   4.157   1.367
 9490SOL     OW29368   6.358   5.614   3.481
 9490SOL    HW129369   6.417   5.692   3.504
 9490SOL    HW229370   6.263   5.639   3.495
 9491SOL     OW29371   5.181   5.583   3.629
 9491SOL    HW129372   5.166   5.641   3.709
 9491SOL    HW229373   5.093   5.556   3.590
 9492SOL     OW29374   3.359   3.312   4.475
 9492SOL    HW129375   3.316   3.334   4.562
 9492SOL    HW229376   3.357   3.393   4.415
 9493SOL     OW29377   3.108   5.740   4.486
 9493SOL    HW129378   3.026   5.750   4.543
 9493SOL    HW229379   3.083   5.696   4.400
 9494SOL     OW29380   5.670   2.821   2.752
 9494SOL    HW129381   5.672   2.868   2.840
 9494SOL    HW229382   5.763   2.819   2.714
 9495SOL     OW29383   6.492   2.082   2.567
 9495SOL    HW129384   6.503   2.052   2.473
 9495SOL    HW229385   6.401   2.057   2.599
 9496SOL     OW29386   5.686   3.497   1.658
 9496SOL    HW129387   5.710   3.489   1.755
 9496SOL    HW229388   5.600   3.449   1.641
 9497SOL     OW29389   4.899   5.850   4.885
 9497SOL    HW129390   4.924   5.911   4.810
 9497SOL    HW229391   4.850   5.902   4.955
 9498SOL     OW29392   5.739   4.859   4.713
 9498SOL    HW129393   5.729   4.821   4.621
 9498SOL    HW229394   5.806   4.934   4.710
 9499SOL     OW29395   1.562   5.841   5.387
 9499SOL    HW129396   1.656   5.875   5.392
 9499SOL    HW229397   1.542   5.788   5.469
 9500SOL     OW29398   4.155   6.642   0.269
 9500SOL    HW129399   4.140   6.584   0.349
 9500SOL    HW229400   4.066   6.667   0.229
 9501SOL     OW29401   2.374   1.510   4.953
 9501SOL    HW129402   2.388   1.495   4.855
 9501SOL    HW229403   2.415   1.597   4.980
 9502SOL     OW29404   5.631   3.061   4.975
 9502SOL    HW129405   5.613   2.973   5.018
 9502SOL    HW229406   5.574   3.071   4.893
 9503SOL     OW29407   6.726   2.218   0.796
 9503SOL    HW129408   6.728   2.189   0.700
 9503SOL    HW229409   6.812   2.194   0.841
 9504SOL     OW29410   6.914   3.780   1.289
 9504SOL    HW129411   6.824   3.737   1.296
 9504SOL    HW229412   6.908   3.876   1.316
 9505SOL     OW29413   5.092   4.511   5.170
 9505SOL    HW129414   5.028   4.434   5.177
 9505SOL    HW229415   5.060   4.585   5.229
 9506SOL     OW29416   1.777   2.585   0.449
 9506SOL    HW129417   1.855   2.647   0.452
 9506SOL    HW229418   1.807   2.493   0.426
 9507SOL     OW29419   0.509   1.160   2.179
 9507SOL    HW129420   0.455   1.089   2.133
 9507SOL    HW229421   0.605   1.132   2.182
 9508SOL     OW29422   5.867   1.855   2.407
 9508SOL    HW129423   5.855   1.927   2.339
 9508SOL    HW229424   5.905   1.894   2.491
 9509SOL     OW29425   0.304   0.972   4.069
 9509SOL    HW129426   0.210   0.996   4.092
 9509SOL    HW229427   0.340   1.037   4.002
 9510SOL     OW29428   1.361   4.003   4.012
 9510SOL    HW129429   1.352   3.987   3.914
 9510SOL    HW229430   1.285   4.059   4.044
 9511SOL     OW29431   2.158   0.170   0.578
 9511SOL    HW129432   2.076   0.226   0.561
 9511SOL    HW229433   2.239   0.227   0.569
 9512SOL     OW29434   6.912   1.685   0.629
 9512SOL    HW129435   6.996   1.663   0.678
 9512SOL    HW229436   6.931   1.693   0.531
 9513SOL     OW29437   2.837   4.152   6.352
 9513SOL    HW129438   2.884   4.121   6.434
 9513SOL    HW229439   2.903   4.158   6.277
 9514SOL     OW29440   2.399   4.831   6.449
 9514SOL    HW129441   2.310   4.792   6.473
 9514SOL    HW229442   2.414   4.820   6.351
 9515SOL     OW29443   1.873   6.166   2.019
 9515SOL    HW129444   1.941   6.236   1.998
 9515SOL    HW229445   1.808   6.202   2.086
 9516SOL     OW29446   5.704   4.859   6.670
 9516SOL    HW129447   5.728   4.956   6.678
 9516SOL    HW229448   5.615   4.843   6.712
 9517SOL     OW29449   1.843   4.140   1.432
 9517SOL    HW129450   1.849   4.237   1.453
 9517SOL    HW229451   1.749   4.118   1.404
 9518SOL     OW29452   1.891   1.550   0.867
 9518SOL    HW129453   1.977   1.601   0.864
 9518SOL    HW229454   1.816   1.611   0.841
 9519SOL     OW29455   3.490   3.032   5.069
 9519SOL    HW129456   3.456   2.956   5.125
 9519SOL    HW229457   3.413   3.085   5.036
 9520SOL     OW29458   2.488   1.311   3.079
 9520SOL    HW129459   2.585   1.291   3.073
 9520SOL    HW229460   2.443   1.288   2.993
 9521SOL     OW29461   4.940   5.881   2.658
 9521SOL    HW129462   4.853   5.887   2.608
 9521SOL    HW229463   4.970   5.972   2.684
 9522SOL     OW29464   2.920   5.750   1.390
 9522SOL    HW129465   2.999   5.790   1.437
 9522SOL    HW229466   2.863   5.702   1.457
 9523SOL     OW29467   3.591   5.132   4.827
 9523SOL    HW129468   3.575   5.213   4.770
 9523SOL    HW229469   3.651   5.069   4.778
 9524SOL     OW29470   4.075   2.389   1.055
 9524SOL    HW129471   4.141   2.439   0.999
 9524SOL    HW229472   4.075   2.292   1.028
 9525SOL     OW29473   2.577   2.865   5.890
 9525SOL    HW129474   2.548   2.960   5.889
 9525SOL    HW229475   2.513   2.811   5.947
 9526SOL     OW29476   4.881   5.808   1.559
 9526SOL    HW129477   4.841   5.883   1.611
 9526SOL    HW229478   4.821   5.728   1.566
 9527SOL     OW29479   0.499   0.269   2.590
 9527SOL    HW129480   0.593   0.235   2.597
 9527SOL    HW229481   0.493   0.337   2.518
 9528SOL     OW29482   6.831   0.606   0.593
 9528SOL    HW129483   6.870   0.696   0.576
 9528SOL    HW229484   6.736   0.604   0.562
 9529SOL     OW29485   6.176   2.922   5.435
 9529SOL    HW129486   6.251   2.984   5.458
 9529SOL    HW229487   6.190   2.885   5.343
 9530SOL     OW29488   1.917   3.168   3.243
 9530SOL    HW129489   1.976   3.087   3.249
 9530SOL    HW229490   1.858   3.173   3.323
 9531SOL     OW29491   3.965   5.837   2.976
 9531SOL    HW129492   3.905   5.916   2.991
 9531SOL    HW229493   4.051   5.850   3.026
 9532SOL     OW29494   0.668   6.832   1.900
 9532SOL    HW129495   0.575   6.812   1.867
 9532SOL    HW229496   0.681   6.792   1.990
 9533SOL     OW29497   6.960   0.597   4.758
 9533SOL    HW129498   6.865   0.577   4.781
 9533SOL    HW229499   6.969   0.696   4.741
 9534SOL     OW29500   5.542   3.275   5.174
 9534SOL    HW129501   5.569   3.215   5.099
 9534SOL    HW229502   5.445   3.297   5.166
 9535SOL     OW29503   2.732   1.296   5.438
 9535SOL    HW129504   2.700   1.258   5.351
 9535SOL    HW229505   2.675   1.262   5.513
 9536SOL     OW29506   2.794   4.987   5.304
 9536SOL    HW129507   2.854   4.907   5.301
 9536SOL    HW229508   2.847   5.070   5.294
 9537SOL     OW29509   2.277   0.002   2.181
 9537SOL    HW129510   2.321   6.995   2.099
 9537SOL    HW229511   2.328   0.079   2.217
 9538SOL     OW29512   6.463   2.040   4.242
 9538SOL    HW129513   6.523   2.119   4.234
 9538SOL    HW229514   6.501   1.964   4.189
 9539SOL     OW29515   1.982   3.739   5.353
 9539SOL    HW129516   1.956   3.645   5.331
 9539SOL    HW229517   2.060   3.767   5.297
 9540SOL     OW29518   4.878   4.186   4.847
 9540SOL    HW129519   4.842   4.167   4.939
 9540SOL    HW229520   4.810   4.237   4.795
 9541SOL     OW29521   2.203   1.663   5.760
 9541SOL    HW129522   2.256   1.603   5.700
 9541SOL    HW229523   2.200   1.624   5.852
 9542SOL     OW29524   4.871   3.854   4.891
 9542SOL    HW129525   4.850   3.767   4.935
 9542SOL    HW229526   4.813   3.926   4.930
 9543SOL     OW29527   3.721   1.188   4.225
 9543SOL    HW129528   3.632   1.232   4.213
 9543SOL    HW229529   3.716   1.094   4.192
 9544SOL     OW29530   6.737   1.371   2.394
 9544SOL    HW129531   6.708   1.281   2.427
 9544SOL    HW229532   6.743   1.369   2.294
 9545SOL     OW29533   6.207   4.924   3.812
 9545SOL    HW129534   6.166   4.837   3.839
 9545SOL    HW229535   6.191   4.939   3.714
 9546SOL     OW29536   2.428   2.711   6.073
 9546SOL    HW129537   2.463   2.649   6.003
 9546SOL    HW229538   2.330   2.694   6.087
 9547SOL     OW29539   1.757   6.104   4.199
 9547SOL    HW129540   1.798   6.051   4.124
 9547SOL    HW229541   1.696   6.045   4.251
 9548SOL     OW29542   6.409   6.110   4.821
 9548SOL    HW129543   6.430   6.165   4.740
 9548SOL    HW229544   6.487   6.111   4.883
 9549SOL     OW29545   2.779   3.900   1.548
 9549SOL    HW129546   2.725   3.863   1.473
 9549SOL    HW229547   2.863   3.942   1.512
 9550SOL     OW29548   7.019   1.378   6.723
 9550SOL    HW129549   0.085   1.382   6.687
 9550SOL    HW229550   6.955   1.388   6.647
 9551SOL     OW29551   0.194   0.141   4.527
 9551SOL    HW129552   0.207   0.124   4.625
 9551SOL    HW229553   0.116   0.088   4.495
 9552SOL     OW29554   0.457   6.498   2.185
 9552SOL    HW129555   0.543   6.466   2.226
 9552SOL    HW229556   0.425   6.580   2.232
 9553SOL     OW29557   5.862   4.073   6.549
 9553SOL    HW129558   5.841   4.152   6.607
 9553SOL    HW229559   5.788   4.060   6.482
 9554SOL     OW29560   2.484   0.726   1.179
 9554SOL    HW129561   2.486   0.809   1.235
 9554SOL    HW229562   2.488   0.751   1.082
 9555SOL     OW29563   0.029   1.397   0.607
 9555SOL    HW129564   6.978   1.356   0.652
 9555SOL    HW229565   0.043   1.490   0.641
 9556SOL     OW29566   2.340   2.643   1.306
 9556SOL    HW129567   2.330   2.560   1.360
 9556SOL    HW229568   2.406   2.628   1.233
 9557SOL     OW29569   6.295   0.748   2.766
 9557SOL    HW129570   6.278   0.843   2.793
 9557SOL    HW229571   6.209   0.706   2.738
 9558SOL     OW29572   5.443   5.293   3.972
 9558SOL    HW129573   5.466   5.204   3.933
 9558SOL    HW229574   5.520   5.356   3.961
 9559SOL     OW29575   0.034   3.423   1.582
 9559SOL    HW129576   0.115   3.426   1.641
 9559SOL    HW229577   7.003   3.502   1.602
 9560SOL     OW29578   1.057   1.425   2.460
 9560SOL    HW129579   1.027   1.396   2.368
 9560SOL    HW229580   1.155   1.410   2.469
 9561SOL     OW29581   2.194   6.982   0.887
 9561SOL    HW129582   2.251   6.903   0.909
 9561SOL    HW229583   2.138   6.961   0.806
 9562SOL     OW29584   2.926   6.802   5.132
 9562SOL    HW129585   2.854   6.835   5.194
 9562SOL    HW229586   2.892   6.726   5.078
 9563SOL     OW29587   6.625   6.147   0.137
 9563SOL    HW129588   6.638   6.190   0.047
 9563SOL    HW229589   6.580   6.059   0.126
 9564SOL     OW29590   2.602   0.400   6.554
 9564SOL    HW129591   2.540   0.344   6.609
 9564SOL    HW229592   2.550   0.454   6.488
 9565SOL     OW29593   4.421   5.995   5.031
 9565SOL    HW129594   4.360   5.934   4.981
 9565SOL    HW229595   4.424   5.966   5.127
 9566SOL     OW29596   3.164   4.511   0.390
 9566SOL    HW129597   3.127   4.431   0.437
 9566SOL    HW229598   3.094   4.550   0.331
 9567SOL     OW29599   6.438   5.595   6.661
 9567SOL    HW129600   6.390   5.599   6.749
 9567SOL    HW229601   6.383   5.641   6.591
 9568SOL     OW29602   4.464   2.994   6.183
 9568SOL    HW129603   4.505   2.909   6.149
 9568SOL    HW229604   4.421   2.977   6.271
 9569SOL     OW29605   6.661   1.160   1.239
 9569SOL    HW129606   6.581   1.185   1.184
 9569SOL    HW229607   6.630   1.113   1.321
 9570SOL     OW29608   1.172   1.906   1.864
 9570SOL    HW129609   1.180   1.873   1.770
 9570SOL    HW229610   1.219   1.994   1.873
 9571SOL     OW29611   3.357   3.495   7.023
 9571SOL    HW129612   3.343   3.591   6.996
 9571SOL    HW229613   3.292   3.471   0.067
 9572SOL     OW29614   2.092   5.304   0.610
 9572SOL    HW129615   2.143   5.270   0.531
 9572SOL    HW229616   2.076   5.229   0.674
 9573SOL     OW29617   0.552   1.546   6.628
 9573SOL    HW129618   0.620   1.538   6.701
 9573SOL    HW229619   0.597   1.573   6.543
 9574SOL     OW29620   3.898   3.111   4.839
 9574SOL    HW129621   3.873   3.040   4.904
 9574SOL    HW229622   3.891   3.075   4.746
 9575SOL     OW29623   5.323   0.635   0.565
 9575SOL    HW129624   5.411   0.593   0.544
 9575SOL    HW229625   5.323   0.730   0.535
 9576SOL     OW29626   3.196   1.757   3.093
 9576SOL    HW129627   3.295   1.767   3.082
 9576SOL    HW229628   3.154   1.848   3.100
 9577SOL     OW29629   1.381   0.349   2.445
 9577SOL    HW129630   1.407   0.332   2.350
 9577SOL    HW229631   1.415   0.438   2.474
 9578SOL     OW29632   6.202   3.422   2.972
 9578SOL    HW129633   6.301   3.424   2.984
 9578SOL    HW229634   6.164   3.343   3.021
 9579SOL     OW29635   1.134   6.206   2.608
 9579SOL    HW129636   1.110   6.291   2.562
 9579SOL    HW229637   1.119   6.217   2.706
 9580SOL     OW29638   5.199   3.574   0.332
 9580SOL    HW129639   5.158   3.594   0.422
 9580SOL    HW229640   5.187   3.476   0.312
 9581SOL     OW29641   2.424   4.848   6.168
 9581SOL    HW129642   2.387   4.776   6.108
 9581SOL    HW229643   2.389   4.937   6.139
 9582SOL     OW29644   4.288   4.687   4.267
 9582SOL    HW129645   4.293   4.732   4.357
 9582SOL    HW229646   4.205   4.714   4.220
 9583SOL     OW29647   2.139   3.235   1.864
 9583SOL    HW129648   2.126   3.253   1.767
 9583SOL    HW229649   2.186   3.312   1.907
 9584SOL     OW29650   5.717   5.757   6.753
 9584SOL    HW129651   5.678   5.733   6.842
 9584SOL    HW229652   5.810   5.791   6.765
 9585SOL     OW29653   6.523   0.586   2.716
 9585SOL    HW129654   6.441   0.643   2.722
 9585SOL    HW229655   6.543   0.548   2.807
 9586SOL     OW29656   6.118   3.596   3.161
 9586SOL    HW129657   6.151   3.551   3.078
 9586SOL    HW229658   6.033   3.552   3.191
 9587SOL     OW29659   6.465   0.340   2.213
 9587SOL    HW129660   6.403   0.296   2.148
 9587SOL    HW229661   6.486   0.276   2.287
 9588SOL     OW29662   0.347   1.358   1.760
 9588SOL    HW129663   0.384   1.449   1.780
 9588SOL    HW229664   0.248   1.365   1.750
 9589SOL     OW29665   2.620   5.630   0.094
 9589SOL    HW129666   2.633   5.729   0.084
 9589SOL    HW229667   2.526   5.606   0.070
 9590SOL     OW29668   0.538   4.456   2.420
 9590SOL    HW129669   0.595   4.529   2.458
 9590SOL    HW229670   0.473   4.494   2.354
 9591SOL     OW29671   3.044   5.957   0.407
 9591SOL    HW129672   3.060   5.876   0.350
 9591SOL    HW229673   2.966   5.940   0.468
 9592SOL     OW29674   3.932   5.327   2.790
 9592SOL    HW129675   3.946   5.243   2.843
 9592SOL    HW229676   3.947   5.406   2.849
 9593SOL     OW29677   4.851   1.551   4.570
 9593SOL    HW129678   4.945   1.577   4.593
 9593SOL    HW229679   4.850   1.507   4.480
 9594SOL     OW29680   6.721   6.290   3.241
 9594SOL    HW129681   6.752   6.221   3.307
 9594SOL    HW229682   6.654   6.350   3.284
 9595SOL     OW29683   2.043   5.139   5.154
 9595SOL    HW129684   2.019   5.218   5.097
 9595SOL    HW229685   2.123   5.094   5.116
 9596SOL     OW29686   0.357   4.897   6.424
 9596SOL    HW129687   0.412   4.868   6.501
 9596SOL    HW229688   0.260   4.879   6.444
 9597SOL     OW29689   0.145   3.733   1.485
 9597SOL    HW129690   0.076   3.710   1.417
 9597SOL    HW229691   0.224   3.673   1.475
 9598SOL     OW29692   0.533   4.291   5.459
 9598SOL    HW129693   0.541   4.226   5.384
 9598SOL    HW229694   0.592   4.370   5.441
 9599SOL     OW29695   3.554   0.635   4.925
 9599SOL    HW129696   3.492   0.573   4.878
 9599SOL    HW229697   3.624   0.582   4.973
 9600SOL     OW29698   1.610   0.118   5.959
 9600SOL    HW129699   1.623   0.125   5.860
 9600SOL    HW229700   1.518   0.149   5.982
 9601SOL     OW29701   6.114   3.999   6.486
 9601SOL    HW129702   6.111   3.900   6.477
 9601SOL    HW229703   6.030   4.032   6.528
 9602SOL     OW29704   6.936   5.014   6.585
 9602SOL    HW129705   7.018   5.058   6.622
 9602SOL    HW229706   6.874   4.992   6.660
 9603SOL     OW29707   2.412   6.828   4.522
 9603SOL    HW129708   2.328   6.881   4.523
 9603SOL    HW229709   2.490   6.890   4.532
 9604SOL     OW29710   4.914   0.649   0.050
 9604SOL    HW129711   4.957   0.738   0.042
 9604SOL    HW229712   4.816   0.660   0.064
 9605SOL     OW29713   1.205   5.226   5.684
 9605SOL    HW129714   1.269   5.177   5.625
 9605SOL    HW229715   1.112   5.216   5.648
 9606SOL     OW29716   1.050   0.144   4.103
 9606SOL    HW129717   1.103   0.227   4.124
 9606SOL    HW229718   1.105   0.063   4.124
 9607SOL     OW29719   1.088   1.175   1.869
 9607SOL    HW129720   1.141   1.197   1.951
 9607SOL    HW229721   0.991   1.168   1.894
 9608SOL     OW29722   6.860   0.151   2.840
 9608SOL    HW129723   6.954   0.119   2.837
 9608SOL    HW229724   6.805   0.097   2.776
 9609SOL     OW29725   0.979   3.813   4.638
 9609SOL    HW129726   1.012   3.840   4.728
 9609SOL    HW229727   0.907   3.744   4.649
 9610SOL     OW29728   0.864   3.360   5.677
 9610SOL    HW129729   0.828   3.450   5.654
 9610SOL    HW229730   0.797   3.310   5.732
 9611SOL     OW29731   6.852   6.421   1.574
 9611SOL    HW129732   6.873   6.519   1.574
 9611SOL    HW229733   6.802   6.396   1.491
 9612SOL     OW29734   6.609   2.790   0.466
 9612SOL    HW129735   6.548   2.711   0.470
 9612SOL    HW229736   6.580   2.857   0.534
 9613SOL     OW29737   5.721   6.207   4.508
 9613SOL    HW129738   5.734   6.296   4.551
 9613SOL    HW229739   5.787   6.195   4.434
 9614SOL     OW29740   4.121   3.462   2.027
 9614SOL    HW129741   4.116   3.367   1.994
 9614SOL    HW229742   4.155   3.463   2.120
 9615SOL     OW29743   2.088   5.395   3.226
 9615SOL    HW129744   2.078   5.422   3.322
 9615SOL    HW229745   2.124   5.302   3.222
 9616SOL     OW29746   4.238   2.841   1.194
 9616SOL    HW129747   4.262   2.809   1.102
 9616SOL    HW229748   4.143   2.872   1.195
 9617SOL     OW29749   1.283   3.362   3.371
 9617SOL    HW129750   1.208   3.346   3.435
 9617SOL    HW229751   1.369   3.373   3.421
 9618SOL     OW29752   3.587   0.929   6.695
 9618SOL    HW129753   3.603   1.022   6.659
 9618SOL    HW229754   3.493   0.902   6.674
 9619SOL     OW29755   0.871   6.318   0.973
 9619SOL    HW129756   0.795   6.363   0.926
 9619SOL    HW229757   0.844   6.226   1.000
 9620SOL     OW29758   4.187   1.301   6.904
 9620SOL    HW129759   4.101   1.292   6.853
 9620SOL    HW229760   4.245   1.369   6.859
 9621SOL     OW29761   1.788   0.810   1.898
 9621SOL    HW129762   1.781   0.740   1.826
 9621SOL    HW229763   1.788   0.900   1.856
 9622SOL     OW29764   6.521   0.753   6.460
 9622SOL    HW129765   6.493   0.766   6.555
 9622SOL    HW229766   6.573   0.668   6.452
 9623SOL     OW29767   4.618   5.393   6.935
 9623SOL    HW129768   4.547   5.334   6.898
 9623SOL    HW229769   4.702   5.382   6.881
 9624SOL     OW29770   5.020   5.019   5.746
 9624SOL    HW129771   5.029   4.921   5.764
 9624SOL    HW229772   4.984   5.065   5.828
 9625SOL     OW29773   4.853   4.424   6.598
 9625SOL    HW129774   4.769   4.384   6.561
 9625SOL    HW229775   4.852   4.523   6.583
 9626SOL     OW29776   1.809   5.067   4.529
 9626SOL    HW129777   1.854   5.147   4.489
 9626SOL    HW229778   1.878   4.999   4.552
 9627SOL     OW29779   1.043   4.513   4.910
 9627SOL    HW129780   1.078   4.558   4.992
 9627SOL    HW229781   1.095   4.430   4.893
 9628SOL     OW29782   6.027   4.254   0.832
 9628SOL    HW129783   6.094   4.198   0.783
 9628SOL    HW229784   6.018   4.220   0.926
 9629SOL     OW29785   6.839   6.647   3.475
 9629SOL    HW129786   6.837   6.735   3.523
 9629SOL    HW229787   6.761   6.641   3.412
 9630SOL     OW29788   5.993   5.819   5.714
 9630SOL    HW129789   5.985   5.742   5.778
 9630SOL    HW229790   5.902   5.852   5.691
 9631SOL     OW29791   4.288   0.841   1.649
 9631SOL    HW129792   4.229   0.769   1.611
 9631SOL    HW229793   4.383   0.813   1.641
 9632SOL     OW29794   2.013   5.412   1.426
 9632SOL    HW129795   1.917   5.396   1.400
 9632SOL    HW229796   2.016   5.489   1.490
 9633SOL     OW29797   4.174   3.222   1.645
 9633SOL    HW129798   4.079   3.217   1.615
 9633SOL    HW229799   4.211   3.313   1.625
 9634SOL     OW29800   5.965   4.801   3.150
 9634SOL    HW129801   6.056   4.830   3.180
 9634SOL    HW229802   5.897   4.869   3.180
 9635SOL     OW29803   0.160   4.878   5.130
 9635SOL    HW129804   0.227   4.950   5.110
 9635SOL    HW229805   0.078   4.918   5.171
 9636SOL     OW29806   3.984   1.228   5.973
 9636SOL    HW129807   3.946   1.153   5.920
 9636SOL    HW229808   3.911   1.291   6.001
 9637SOL     OW29809   3.246   3.398   1.317
 9637SOL    HW129810   3.181   3.462   1.274
 9637SOL    HW229811   3.203   3.354   1.395
 9638SOL     OW29812   6.894   4.138   6.246
 9638SOL    HW129813   6.846   4.211   6.296
 9638SOL    HW229814   6.930   4.071   6.311
 9639SOL     OW29815   4.565   2.790   1.730
 9639SOL    HW129816   4.562   2.877   1.779
 9639SOL    HW229817   4.549   2.806   1.632
 9640SOL     OW29818   3.815   1.370   1.849
 9640SOL    HW129819   3.794   1.385   1.946
 9640SOL    HW229820   3.756   1.298   1.813
 9641SOL     OW29821   4.706   6.109   2.961
 9641SOL    HW129822   4.784   6.132   2.903
 9641SOL    HW229823   4.661   6.193   2.991
 9642SOL     OW29824   1.263   0.439   4.237
 9642SOL    HW129825   1.351   0.420   4.279
 9642SOL    HW229826   1.191   0.432   4.306
 9643SOL     OW29827   5.012   4.170   3.585
 9643SOL    HW129828   5.108   4.141   3.584
 9643SOL    HW229829   4.993   4.224   3.502
 9644SOL     OW29830   2.121   5.958   4.965
 9644SOL    HW129831   2.186   5.995   5.031
 9644SOL    HW229832   2.095   5.865   4.992
 9645SOL     OW29833   0.970   4.313   5.305
 9645SOL    HW129834   0.945   4.242   5.239
 9645SOL    HW229835   1.012   4.271   5.385
 9646SOL     OW29836   2.350   6.130   3.167
 9646SOL    HW129837   2.275   6.112   3.103
 9646SOL    HW229838   2.350   6.227   3.192
 9647SOL     OW29839   6.882   6.379   3.029
 9647SOL    HW129840   6.840   6.357   3.117
 9647SOL    HW229841   6.924   6.470   3.034
 9648SOL     OW29842   5.386   3.261   1.005
 9648SOL    HW129843   5.353   3.279   1.098
 9648SOL    HW229844   5.373   3.164   0.983
 9649SOL     OW29845   2.753   3.683   6.255
 9649SOL    HW129846   2.847   3.652   6.244
 9649SOL    HW229847   2.709   3.629   6.327
 9650SOL     OW29848   5.359   4.906   3.599
 9650SOL    HW129849   5.310   4.833   3.648
 9650SOL    HW229850   5.305   4.990   3.601
 9651SOL     OW29851   3.992   1.641   1.542
 9651SOL    HW129852   3.903   1.596   1.555
 9651SOL    HW229853   4.062   1.590   1.593
 9652SOL     OW29854   0.766   4.763   1.055
 9652SOL    HW129855   0.829   4.698   1.011
 9652SOL    HW229856   0.809   4.854   1.058
 9653SOL     OW29857   4.571   4.344   6.132
 9653SOL    HW129858   4.485   4.293   6.135
 9653SOL    HW229859   4.633   4.310   6.201
 9654SOL     OW29860   3.336   3.541   2.393
 9654SOL    HW129861   3.309   3.598   2.316
 9654SOL    HW229862   3.426   3.500   2.375
 9655SOL     OW29863   0.324   1.731   0.616
 9655SOL    HW129864   0.423   1.718   0.621
 9655SOL    HW229865   0.293   1.716   0.522
 9656SOL     OW29866   4.814   2.196   0.809
 9656SOL    HW129867   4.794   2.278   0.756
 9656SOL    HW229868   4.759   2.196   0.893
 9657SOL     OW29869   5.467   4.172   3.724
 9657SOL    HW129870   5.427   4.081   3.730
 9657SOL    HW229871   5.506   4.197   3.813
 9658SOL     OW29872   5.777   2.069   2.263
 9658SOL    HW129873   5.700   2.040   2.320
 9658SOL    HW229874   5.793   2.167   2.277
 9659SOL     OW29875   1.536   2.406   0.391
 9659SOL    HW129876   1.502   2.402   0.485
 9659SOL    HW229877   1.575   2.497   0.374
 9660SOL     OW29878   0.489   0.473   1.495
 9660SOL    HW129879   0.390   0.480   1.486
 9660SOL    HW229880   0.512   0.444   1.588
 9661SOL     OW29881   4.324   5.900   1.206
 9661SOL    HW129882   4.257   5.826   1.219
 9661SOL    HW229883   4.401   5.885   1.267
 9662SOL     OW29884   5.199   3.577   0.817
 9662SOL    HW129885   5.150   3.495   0.847
 9662SOL    HW229886   5.289   3.550   0.782
 9663SOL     OW29887   0.446   4.853   2.724
 9663SOL    HW129888   0.521   4.918   2.736
 9663SOL    HW229889   0.398   4.872   2.639
 9664SOL     OW29890   5.262   3.816   5.097
 9664SOL    HW129891   5.184   3.820   5.158
 9664SOL    HW229892   5.345   3.797   5.149
 9665SOL     OW29893   6.391   6.013   6.014
 9665SOL    HW129894   6.438   6.011   5.925
 9665SOL    HW229895   6.445   6.066   6.079
 9666SOL     OW29896   5.878   3.998   2.151
 9666SOL    HW129897   5.935   4.073   2.118
 9666SOL    HW229898   5.928   3.912   2.143
 9667SOL     OW29899   4.508   3.866   1.279
 9667SOL    HW129900   4.603   3.883   1.255
 9667SOL    HW229901   4.449   3.922   1.221
 9668SOL     OW29902   1.485   1.036   6.059
 9668SOL    HW129903   1.407   0.992   6.015
 9668SOL    HW229904   1.453   1.091   6.136
 9669SOL     OW29905   2.146   6.949   1.171
 9669SOL    HW129906   2.143   6.994   1.082
 9669SOL    HW229907   2.168   6.852   1.159
 9670SOL     OW29908   0.334   5.588   5.271
 9670SOL    HW129909   0.277   5.547   5.342
 9670SOL    HW229910   0.414   5.630   5.313
 9671SOL     OW29911   6.857   4.857   0.413
 9671SOL    HW129912   6.773   4.908   0.399
 9671SOL    HW229913   6.913   4.862   0.330
 9672SOL     OW29914   1.903   4.526   3.445
 9672SOL    HW129915   1.964   4.452   3.473
 9672SOL    HW229916   1.871   4.575   3.526
 9673SOL     OW29917   3.838   3.729   1.188
 9673SOL    HW129918   3.909   3.798   1.173
 9673SOL    HW229919   3.804   3.696   1.100
 9674SOL     OW29920   3.921   6.563   3.233
 9674SOL    HW129921   3.848   6.495   3.238
 9674SOL    HW229922   3.914   6.625   3.311
 9675SOL     OW29923   4.857   3.115   6.645
 9675SOL    HW129924   4.897   3.024   6.629
 9675SOL    HW229925   4.781   3.107   6.710
 9676SOL     OW29926   1.572   3.436   5.128
 9676SOL    HW129927   1.620   3.456   5.042
 9676SOL    HW229928   1.619   3.361   5.175
 9677SOL     OW29929   6.968   5.266   6.314
 9677SOL    HW129930   6.934   5.241   6.405
 9677SOL    HW229931   0.029   5.311   6.322
 9678SOL     OW29932   3.199   3.802   4.395
 9678SOL    HW129933   3.200   3.894   4.354
 9678SOL    HW229934   3.109   3.784   4.433
 9679SOL     OW29935   2.728   0.878   4.277
 9679SOL    HW129936   2.765   0.929   4.355
 9679SOL    HW229937   2.765   0.786   4.277
 9680SOL     OW29938   4.490   0.163   5.567
 9680SOL    HW129939   4.397   0.162   5.602
 9680SOL    HW229940   4.550   0.211   5.632
 9681SOL     OW29941   3.304   1.993   0.779
 9681SOL    HW129942   3.274   2.030   0.691
 9681SOL    HW229943   3.327   2.069   0.840
 9682SOL     OW29944   4.771   4.067   3.958
 9682SOL    HW129945   4.784   3.971   3.981
 9682SOL    HW229946   4.734   4.116   4.037
 9683SOL     OW29947   3.569   6.082   0.492
 9683SOL    HW129948   3.617   6.165   0.521
 9683SOL    HW229949   3.474   6.087   0.523
 9684SOL     OW29950   0.503   4.102   5.266
 9684SOL    HW129951   0.416   4.056   5.249
 9684SOL    HW229952   0.554   4.109   5.180
 9685SOL     OW29953   4.805   3.466   0.631
 9685SOL    HW129954   4.754   3.543   0.669
 9685SOL    HW229955   4.802   3.390   0.695
 9686SOL     OW29956   0.586   2.890   6.897
 9686SOL    HW129957   0.608   2.930   6.986
 9686SOL    HW229958   0.666   2.843   6.861
 9687SOL     OW29959   6.407   0.988   2.401
 9687SOL    HW129960   6.339   0.943   2.344
 9687SOL    HW229961   6.370   1.075   2.435
 9688SOL     OW29962   0.860   3.240   0.523
 9688SOL    HW129963   0.776   3.254   0.576
 9688SOL    HW229964   0.870   3.315   0.456
 9689SOL     OW29965   0.571   4.438   6.799
 9689SOL    HW129966   0.615   4.434   6.888
 9689SOL    HW229967   0.472   4.435   6.811
 9690SOL     OW29968   4.904   6.407   5.573
 9690SOL    HW129969   5.004   6.407   5.573
 9690SOL    HW229970   4.870   6.494   5.538
 9691SOL     OW29971   3.250   3.847   1.862
 9691SOL    HW129972   3.286   3.755   1.873
 9691SOL    HW229973   3.150   3.845   1.862
 9692SOL     OW29974   4.684   6.055   1.039
 9692SOL    HW129975   4.584   6.057   1.036
 9692SOL    HW229976   4.715   5.965   1.069
 9693SOL     OW29977   5.884   4.266   3.647
 9693SOL    HW129978   5.791   4.295   3.671
 9693SOL    HW229979   5.911   4.309   3.561
 9694SOL     OW29980   3.532   1.185   2.133
 9694SOL    HW129981   3.436   1.173   2.107
 9694SOL    HW229982   3.540   1.261   2.196
 9695SOL     OW29983   6.793   2.845   3.198
 9695SOL    HW129984   6.759   2.937   3.183
 9695SOL    HW229985   6.771   2.787   3.120
 9696SOL     OW29986   5.943   2.871   1.893
 9696SOL    HW129987   5.849   2.852   1.863
 9696SOL    HW229988   5.988   2.929   1.825
 9697SOL     OW29989   0.526   6.114   0.861
 9697SOL    HW129990   0.526   6.130   0.959
 9697SOL    HW229991   0.568   6.192   0.814
 9698SOL     OW29992   5.113   2.887   5.920
 9698SOL    HW129993   5.187   2.954   5.922
 9698SOL    HW229994   5.041   2.915   5.984
 9699SOL     OW29995   0.406   5.486   0.186
 9699SOL    HW129996   0.434   5.582   0.195
 9699SOL    HW229997   0.403   5.444   0.277
 9700SOL     OW29998   6.448   5.393   4.601
 9700SOL    HW129999   6.417   5.311   4.651
 9700SOL    HW230000   6.394   5.472   4.629
 9701SOL     OW30001   4.436   3.940   5.721
 9701SOL    HW130002   4.351   3.991   5.736
 9701SOL    HW230003   4.418   3.842   5.734
 9702SOL     OW30004   4.093   1.936   0.401
 9702SOL    HW130005   4.026   1.951   0.328
 9702SOL    HW230006   4.164   1.874   0.369
 9703SOL     OW30007   4.871   3.813   3.977
 9703SOL    HW130008   4.859   3.806   3.878
 9703SOL    HW230009   4.873   3.721   4.017
 9704SOL     OW30010   3.395   5.860   2.276
 9704SOL    HW130011   3.330   5.936   2.266
 9704SOL    HW230012   3.390   5.824   2.369
 9705SOL     OW30013   5.586   4.490   6.146
 9705SOL    HW130014   5.626   4.528   6.063
 9705SOL    HW230015   5.658   4.453   6.205
 9706SOL     OW30016   3.033   2.094   1.545
 9706SOL    HW130017   3.053   2.127   1.637
 9706SOL    HW230018   2.950   2.137   1.511
 9707SOL     OW30019   5.260   5.227   2.392
 9707SOL    HW130020   5.325   5.272   2.453
 9707SOL    HW230021   5.199   5.169   2.446
 9708SOL     OW30022   1.059   1.388   3.121
 9708SOL    HW130023   1.027   1.422   3.033
 9708SOL    HW230024   0.989   1.329   3.161
 9709SOL     OW30025   5.420   4.746   2.259
 9709SOL    HW130026   5.431   4.681   2.184
 9709SOL    HW230027   5.327   4.741   2.295
 9710SOL     OW30028   6.334   1.016   1.141
 9710SOL    HW130029   6.364   1.097   1.191
 9710SOL    HW230030   6.410   0.980   1.087
 9711SOL     OW30031   3.838   5.637   6.404
 9711SOL    HW130032   3.899   5.577   6.353
 9711SOL    HW230033   3.768   5.582   6.450
 9712SOL     OW30034   6.044   3.364   0.088
 9712SOL    HW130035   6.128   3.366   0.033
 9712SOL    HW230036   5.989   3.445   0.068
 9713SOL     OW30037   2.716   5.067   3.457
 9713SOL    HW130038   2.624   5.063   3.496
 9713SOL    HW230039   2.783   5.056   3.530
 9714SOL     OW30040   4.172   6.539   6.453
 9714SOL    HW130041   4.117   6.543   6.369
 9714SOL    HW230042   4.223   6.453   6.455
 9715SOL     OW30043   5.713   4.088   0.170
 9715SOL    HW130044   5.648   4.016   0.146
 9715SOL    HW230045   5.663   4.169   0.200
 9716SOL     OW30046   3.941   4.335   0.170
 9716SOL    HW130047   3.983   4.276   0.101
 9716SOL    HW230048   3.965   4.303   0.261
 9717SOL     OW30049   4.818   6.197   6.151
 9717SOL    HW130050   4.893   6.170   6.212
 9717SOL    HW230051   4.854   6.214   6.059
 9718SOL     OW30052   4.930   3.007   1.285
 9718SOL    HW130053   5.017   2.958   1.287
 9718SOL    HW230054   4.924   3.059   1.200
 9719SOL     OW30055   5.562   6.943   5.881
 9719SOL    HW130056   5.533   6.883   5.956
 9719SOL    HW230057   5.508   7.027   5.884
 9720SOL     OW30058   1.066   3.772   2.322
 9720SOL    HW130059   1.128   3.766   2.244
 9720SOL    HW230060   0.979   3.810   2.291
 9721SOL     OW30061   6.921   0.910   6.842
 9721SOL    HW130062   6.846   0.925   6.777
 9721SOL    HW230063   6.938   0.994   6.893
 9722SOL     OW30064   3.460   0.810   5.163
 9722SOL    HW130065   3.550   0.813   5.207
 9722SOL    HW230066   3.460   0.739   5.092
 9723SOL     OW30067   4.417   5.596   4.225
 9723SOL    HW130068   4.491   5.648   4.183
 9723SOL    HW230069   4.450   5.553   4.309
 9724SOL     OW30070   1.529   4.587   0.298
 9724SOL    HW130071   1.592   4.651   0.343
 9724SOL    HW230072   1.522   4.610   0.201
 9725SOL     OW30073   4.066   6.715   6.251
 9725SOL    HW130074   4.060   6.664   6.165
 9725SOL    HW230075   4.162   6.730   6.274
 9726SOL     OW30076   4.635   1.585   4.282
 9726SOL    HW130077   4.734   1.596   4.286
 9726SOL    HW230078   4.607   1.509   4.341
 9727SOL     OW30079   1.049   2.118   6.420
 9727SOL    HW130080   0.999   2.081   6.342
 9727SOL    HW230081   0.998   2.195   6.459
 9728SOL     OW30082   0.570   1.522   4.909
 9728SOL    HW130083   0.617   1.438   4.936
 9728SOL    HW230084   0.475   1.518   4.940
 9729SOL     OW30085   1.350   4.396   3.925
 9729SOL    HW130086   1.321   4.446   4.007
 9729SOL    HW230087   1.407   4.454   3.868
 9730SOL     OW30088   1.108   4.298   3.756
 9730SOL    HW130089   1.192   4.334   3.797
 9730SOL    HW230090   1.129   4.217   3.701
 9731SOL     OW30091   5.037   5.436   1.758
 9731SOL    HW130092   5.005   5.522   1.797
 9731SOL    HW230093   5.084   5.383   1.829
 9732SOL     OW30094   1.399   3.928   2.212
 9732SOL    HW130095   1.386   3.830   2.224
 9732SOL    HW230096   1.382   3.976   2.298
 9733SOL     OW30097   5.364   5.484   6.961
 9733SOL    HW130098   5.332   5.422   0.005
 9733SOL    HW230099   5.299   5.483   6.885
 9734SOL     OW30100   6.561   0.087   0.278
 9734SOL    HW130101   6.485   0.051   0.332
 9734SOL    HW230102   6.540   0.078   0.181
 9735SOL     OW30103   1.710   3.009   3.431
 9735SOL    HW130104   1.647   2.959   3.491
 9735SOL    HW230105   1.773   2.944   3.388
 9736SOL     OW30106   5.761   2.092   6.168
 9736SOL    HW130107   5.673   2.045   6.173
 9736SOL    HW230108   5.809   2.063   6.085
 9737SOL     OW30109   5.048   2.222   2.902
 9737SOL    HW130110   5.130   2.211   2.958
 9737SOL    HW230111   5.069   2.199   2.807
 9738SOL     OW30112   1.963   6.618   0.630
 9738SOL    HW130113   2.053   6.650   0.658
 9738SOL    HW230114   1.915   6.691   0.581
 9739SOL     OW30115   5.248   5.654   0.471
 9739SOL    HW130116   5.298   5.680   0.388
 9739SOL    HW230117   5.155   5.692   0.467
 9740SOL     OW30118   0.620   1.360   2.962
 9740SOL    HW130119   0.614   1.432   2.892
 9740SOL    HW230120   0.706   1.311   2.953
 9741SOL     OW30121   2.445   1.044   3.220
 9741SOL    HW130122   2.435   1.140   3.194
 9741SOL    HW230123   2.456   0.987   3.139
 9742SOL     OW30124   4.185   1.230   0.471
 9742SOL    HW130125   4.122   1.205   0.397
 9742SOL    HW230126   4.238   1.310   0.444
 9743SOL     OW30127   6.585   4.288   3.103
 9743SOL    HW130128   6.518   4.273   3.176
 9743SOL    HW230129   6.642   4.367   3.126
 9744SOL     OW30130   1.670   0.095   2.342
 9744SOL    HW130131   1.646   0.012   2.393
 9744SOL    HW230132   1.591   0.128   2.291
 9745SOL     OW30133   4.638   3.203   6.266
 9745SOL    HW130134   4.593   3.204   6.355
 9745SOL    HW230135   4.597   3.132   6.208
 9746SOL     OW30136   5.583   6.832   5.627
 9746SOL    HW130137   5.558   6.888   5.706
 9746SOL    HW230138   5.677   6.851   5.600
 9747SOL     OW30139   3.086   2.204   1.808
 9747SOL    HW130140   3.157   2.266   1.774
 9747SOL    HW230141   3.040   2.245   1.886
 9748SOL     OW30142   6.589   6.632   3.380
 9748SOL    HW130143   6.546   6.542   3.370
 9748SOL    HW230144   6.547   6.680   3.457
 9749SOL     OW30145   0.870   0.821   3.776
 9749SOL    HW130146   0.796   0.864   3.828
 9749SOL    HW230147   0.915   0.753   3.834
 9750SOL     OW30148   5.447   5.326   3.283
 9750SOL    HW130149   5.431   5.364   3.374
 9750SOL    HW230150   5.429   5.228   3.284
 9751SOL     OW30151   2.522   7.021   0.829
 9751SOL    HW130152   2.587   0.032   0.764
 9751SOL    HW230153   2.431   7.020   0.788
 9752SOL     OW30154   4.576   1.470   5.211
 9752SOL    HW130155   4.634   1.543   5.174
 9752SOL    HW230156   4.609   1.381   5.178
 9753SOL     OW30157   0.690   5.539   5.763
 9753SOL    HW130158   0.771   5.536   5.704
 9753SOL    HW230159   0.719   5.544   5.859
 9754SOL     OW30160   2.507   1.100   0.577
 9754SOL    HW130161   2.522   1.184   0.524
 9754SOL    HW230162   2.590   1.045   0.577
 9755SOL     OW30163   2.920   3.724   4.405
 9755SOL    HW130164   2.823   3.751   4.404
 9755SOL    HW230165   2.947   3.702   4.499
 9756SOL     OW30166   6.035   2.577   6.310
 9756SOL    HW130167   6.118   2.633   6.304
 9756SOL    HW230168   6.011   2.564   6.406
 9757SOL     OW30169   5.982   4.769   4.909
 9757SOL    HW130170   5.884   4.783   4.922
 9757SOL    HW230171   6.013   4.817   4.827
 9758SOL     OW30172   1.820   1.540   0.515
 9758SOL    HW130173   1.751   1.507   0.579
 9758SOL    HW230174   1.836   1.470   0.445
 9759SOL     OW30175   1.556   1.117   0.353
 9759SOL    HW130176   1.546   1.131   0.452
 9759SOL    HW230177   1.619   1.042   0.336
 9760SOL     OW30178   4.781   3.143   5.372
 9760SOL    HW130179   4.800   3.241   5.379
 9760SOL    HW230180   4.739   3.110   5.456
 9761SOL     OW30181   0.372   2.512   2.054
 9761SOL    HW130182   0.329   2.571   2.122
 9761SOL    HW230183   0.469   2.500   2.077
 9762SOL     OW30184   3.673   1.964   4.952
 9762SOL    HW130185   3.610   1.889   4.930
 9762SOL    HW230186   3.719   1.994   4.868
 9763SOL     OW30187   5.123   1.374   3.508
 9763SOL    HW130188   5.140   1.384   3.607
 9763SOL    HW230189   5.029   1.343   3.494
 9764SOL     OW30190   6.823   2.294   2.789
 9764SOL    HW130191   6.899   2.336   2.738
 9764SOL    HW230192   6.785   2.362   2.853
 9765SOL     OW30193   6.465   6.181   2.982
 9765SOL    HW130194   6.446   6.089   3.016
 9765SOL    HW230195   6.549   6.215   3.024
 9766SOL     OW30196   2.201   6.347   1.802
 9766SOL    HW130197   2.155   6.336   1.890
 9766SOL    HW230198   2.288   6.393   1.816
 9767SOL     OW30199   2.502   2.447   5.691
 9767SOL    HW130200   2.509   2.348   5.701
 9767SOL    HW230201   2.536   2.475   5.602
 9768SOL     OW30202   4.765   1.287   1.358
 9768SOL    HW130203   4.846   1.339   1.382
 9768SOL    HW230204   4.701   1.286   1.436
 9769SOL     OW30205   3.331   1.236   4.457
 9769SOL    HW130206   3.345   1.200   4.550
 9769SOL    HW230207   3.398   1.308   4.439
 9770SOL     OW30208   3.629   1.058   5.496
 9770SOL    HW130209   3.650   0.984   5.560
 9770SOL    HW230210   3.550   1.109   5.528
 9771SOL     OW30211   2.546   5.508   0.857
 9771SOL    HW130212   2.590   5.513   0.946
 9771SOL    HW230213   2.605   5.460   0.792
 9772SOL     OW30214   1.640   6.199   1.834
 9772SOL    HW130215   1.655   6.226   1.739
 9772SOL    HW230216   1.727   6.178   1.878
 9773SOL     OW30217   4.877   5.704   3.949
 9773SOL    HW130218   4.975   5.682   3.951
 9773SOL    HW230219   4.831   5.645   3.883
 9774SOL     OW30220   0.238   4.766   2.527
 9774SOL    HW130221   0.257   4.737   2.621
 9774SOL    HW230222   0.197   4.857   2.528
 9775SOL     OW30223   3.367   0.183   3.668
 9775SOL    HW130224   3.283   0.152   3.623
 9775SOL    HW230225   3.387   0.122   3.745
 9776SOL     OW30226   0.887   5.058   5.982
 9776SOL    HW130227   0.902   5.096   5.891
 9776SOL    HW230228   0.802   5.006   5.984
 9777SOL     OW30229   6.161   4.997   0.914
 9777SOL    HW130230   6.208   5.021   0.998
 9777SOL    HW230231   6.118   4.907   0.924
 9778SOL     OW30232   0.185   1.332   4.712
 9778SOL    HW130233   0.261   1.313   4.775
 9778SOL    HW230234   0.215   1.315   4.618
 9779SOL     OW30235   0.767   1.716   3.938
 9779SOL    HW130236   0.821   1.734   3.856
 9779SOL    HW230237   0.741   1.620   3.942
 9780SOL     OW30238   2.088   2.293   0.255
 9780SOL    HW130239   2.144   2.373   0.274
 9780SOL    HW230240   2.142   2.225   0.205
 9781SOL     OW30241   1.881   2.808   4.781
 9781SOL    HW130242   1.843   2.873   4.847
 9781SOL    HW230243   1.846   2.829   4.690
 9782SOL     OW30244   0.399   1.977   0.290
 9782SOL    HW130245   0.436   2.018   0.207
 9782SOL    HW230246   0.361   2.049   0.348
 9783SOL     OW30247   4.470   2.526   3.168
 9783SOL    HW130248   4.447   2.473   3.086
 9783SOL    HW230249   4.453   2.470   3.249
 9784SOL     OW30250   3.447   0.957   6.217
 9784SOL    HW130251   3.464   0.872   6.266
 9784SOL    HW230252   3.531   1.011   6.213
 9785SOL     OW30253   0.132   2.263   5.534
 9785SOL    HW130254   0.201   2.269   5.606
 9785SOL    HW230255   0.085   2.351   5.526
 9786SOL     OW30256   2.505   3.904   0.604
 9786SOL    HW130257   2.432   3.842   0.577
 9786SOL    HW230258   2.478   3.998   0.585
 9787SOL     OW30259   3.473   2.904   2.757
 9787SOL    HW130260   3.486   2.999   2.729
 9787SOL    HW230261   3.497   2.894   2.854
 9788SOL     OW30262   0.709   6.787   2.418
 9788SOL    HW130263   0.759   6.770   2.503
 9788SOL    HW230264   0.625   6.838   2.439
 9789SOL     OW30265   1.720   5.575   0.277
 9789SOL    HW130266   1.782   5.654   0.271
 9789SOL    HW230267   1.625   5.607   0.272
 9790SOL     OW30268   6.325   4.367   6.518
 9790SOL    HW130269   6.245   4.318   6.482
 9790SOL    HW230270   6.337   4.344   6.615
 9791SOL     OW30271   0.565   6.852   6.617
 9791SOL    HW130272   0.499   6.818   6.550
 9791SOL    HW230273   0.657   6.820   6.593
 9792SOL     OW30274   3.024   4.345   0.762
 9792SOL    HW130275   2.932   4.341   0.801
 9792SOL    HW230276   3.019   4.332   0.663
 9793SOL     OW30277   4.107   0.316   2.353
 9793SOL    HW130278   4.104   0.280   2.446
 9793SOL    HW230279   4.136   0.412   2.356
 9794SOL     OW30280   6.292   4.173   6.131
 9794SOL    HW130281   6.282   4.271   6.144
 9794SOL    HW230282   6.385   4.145   6.153
 9795SOL     OW30283   1.495   1.953   4.718
 9795SOL    HW130284   1.432   2.023   4.750
 9795SOL    HW230285   1.446   1.866   4.710
 9796SOL     OW30286   4.174   3.512   2.295
 9796SOL    HW130287   4.242   3.530   2.366
 9796SOL    HW230288   4.131   3.598   2.267
 9797SOL     OW30289   2.192   5.691   0.384
 9797SOL    HW130290   2.160   5.644   0.302
 9797SOL    HW230291   2.223   5.624   0.452
 9798SOL     OW30292   2.992   1.157   2.184
 9798SOL    HW130293   2.960   1.110   2.102
 9798SOL    HW230294   2.993   1.255   2.168
 9799SOL     OW30295   2.949   4.450   5.730
 9799SOL    HW130296   2.925   4.485   5.821
 9799SOL    HW230297   2.955   4.350   5.734
 9800SOL     OW30298   5.228   5.214   5.225
 9800SOL    HW130299   5.290   5.287   5.256
 9800SOL    HW230300   5.276   5.155   5.161
 9801SOL     OW30301   4.308   4.120   6.782
 9801SOL    HW130302   4.399   4.111   6.742
 9801SOL    HW230303   4.267   4.029   6.793
 9802SOL     OW30304   6.220   4.640   1.183
 9802SOL    HW130305   6.188   4.583   1.108
 9802SOL    HW230306   6.314   4.669   1.166
 9803SOL     OW30307   1.938   2.657   6.483
 9803SOL    HW130308   1.859   2.683   6.538
 9803SOL    HW230309   1.968   2.735   6.429
 9804SOL     OW30310   0.719   6.351   2.906
 9804SOL    HW130311   0.798   6.391   2.861
 9804SOL    HW230312   0.749   6.282   2.972
 9805SOL     OW30313   0.432   6.769   2.546
 9805SOL    HW130314   0.413   6.734   2.455
 9805SOL    HW230315   0.383   6.855   2.560
 9806SOL     OW30316   1.383   1.938   6.635
 9806SOL    HW130317   1.461   1.898   6.586
 9806SOL    HW230318   1.334   1.866   6.684
 9807SOL     OW30319   3.038   3.570   1.241
 9807SOL    HW130320   3.009   3.557   1.335
 9807SOL    HW230321   2.958   3.585   1.183
 9808SOL     OW30322   4.119   6.184   5.233
 9808SOL    HW130323   4.203   6.205   5.183
 9808SOL    HW230324   4.066   6.116   5.182
 9809SOL     OW30325   0.848   3.348   6.809
 9809SOL    HW130326   0.924   3.284   6.795
 9809SOL    HW230327   0.799   3.361   6.724
 9810SOL     OW30328   3.198   2.199   4.522
 9810SOL    HW130329   3.125   2.220   4.456
 9810SOL    HW230330   3.157   2.185   4.612
 9811SOL     OW30331   5.605   4.813   3.742
 9811SOL    HW130332   5.519   4.814   3.692
 9811SOL    HW230333   5.667   4.746   3.700
 9812SOL     OW30334   3.867   1.535   5.179
 9812SOL    HW130335   3.918   1.487   5.108
 9812SOL    HW230336   3.825   1.469   5.241
 9813SOL     OW30337   5.249   1.835   0.738
 9813SOL    HW130338   5.270   1.819   0.641
 9813SOL    HW230339   5.255   1.749   0.788
 9814SOL     OW30340   6.934   0.085   6.600
 9814SOL    HW130341   6.953   0.145   6.677
 9814SOL    HW230342   6.989   0.113   6.521
 9815SOL     OW30343   4.909   3.381   4.491
 9815SOL    HW130344   4.890   3.291   4.529
 9815SOL    HW230345   4.953   3.438   4.560
 9816SOL     OW30346   0.579   0.904   5.738
 9816SOL    HW130347   0.676   0.924   5.748
 9816SOL    HW230348   0.526   0.987   5.754
 9817SOL     OW30349   2.019   6.474   3.229
 9817SOL    HW130350   1.989   6.403   3.292
 9817SOL    HW230351   1.958   6.478   3.150
 9818SOL     OW30352   6.751   0.735   4.030
 9818SOL    HW130353   6.785   0.694   3.945
 9818SOL    HW230354   6.685   0.673   4.073
 9819SOL     OW30355   5.358   3.607   3.627
 9819SOL    HW130356   5.422   3.654   3.567
 9819SOL    HW230357   5.407   3.542   3.684
 9820SOL     OW30358   3.307   2.999   6.539
 9820SOL    HW130359   3.278   3.014   6.445
 9820SOL    HW230360   3.390   3.052   6.558
 9821SOL     OW30361   5.621   1.468   6.399
 9821SOL    HW130362   5.718   1.469   6.421
 9821SOL    HW230363   5.570   1.510   6.475
 9822SOL     OW30364   1.903   0.587   3.190
 9822SOL    HW130365   1.808   0.577   3.160
 9822SOL    HW230366   1.917   0.533   3.273
 9823SOL     OW30367   2.424   0.497   0.210
 9823SOL    HW130368   2.351   0.506   0.143
 9823SOL    HW230369   2.436   0.583   0.259
 9824SOL     OW30370   2.075   5.026   4.762
 9824SOL    HW130371   2.009   5.034   4.838
 9824SOL    HW230372   2.152   4.969   4.790
 9825SOL     OW30373   4.236   4.981   6.017
 9825SOL    HW130374   4.245   4.918   5.940
 9825SOL    HW230375   4.243   5.075   5.985
 9826SOL     OW30376   5.255   5.447   6.146
 9826SOL    HW130377   5.256   5.422   6.049
 9826SOL    HW230378   5.308   5.531   6.159
 9827SOL     OW30379   2.149   3.777   3.741
 9827SOL    HW130380   2.083   3.717   3.784
 9827SOL    HW230381   2.152   3.759   3.642
 9828SOL     OW30382   2.270   3.029   5.901
 9828SOL    HW130383   2.303   3.079   5.821
 9828SOL    HW230384   2.200   3.083   5.947
 9829SOL     OW30385   3.793   5.224   0.200
 9829SOL    HW130386   3.787   5.312   0.152
 9829SOL    HW230387   3.702   5.183   0.205
 9830SOL     OW30388   6.108   2.756   2.104
 9830SOL    HW130389   6.063   2.805   2.029
 9830SOL    HW230390   6.165   2.683   2.066
 9831SOL     OW30391   2.138   5.081   1.303
 9831SOL    HW130392   2.210   5.139   1.341
 9831SOL    HW230393   2.101   5.021   1.375
 9832SOL     OW30394   4.580   5.577   2.913
 9832SOL    HW130395   4.547   5.631   2.990
 9832SOL    HW230396   4.588   5.634   2.832
 9833SOL     OW30397   3.734   3.602   5.228
 9833SOL    HW130398   3.741   3.553   5.141
 9833SOL    HW230399   3.814   3.583   5.284
 9834SOL     OW30400   3.008   4.812   5.244
 9834SOL    HW130401   2.973   4.745   5.179
 9834SOL    HW230402   3.035   4.766   5.329
 9835SOL     OW30403   3.434   2.906   5.793
 9835SOL    HW130404   3.352   2.963   5.796
 9835SOL    HW230405   3.462   2.893   5.698
 9836SOL     OW30406   6.184   4.685   3.949
 9836SOL    HW130407   6.225   4.604   3.908
 9836SOL    HW230408   6.088   4.692   3.921
 9837SOL     OW30409   3.070   0.128   3.048
 9837SOL    HW130410   3.050   0.189   2.972
 9837SOL    HW230411   3.147   0.164   3.101
 9838SOL     OW30412   1.527   6.981   6.475
 9838SOL    HW130413   1.524   0.051   6.456
 9838SOL    HW230414   1.620   6.955   6.501
 9839SOL     OW30415   5.851   0.974   3.498
 9839SOL    HW130416   5.851   0.987   3.399
 9839SOL    HW230417   5.903   1.048   3.541
 9840SOL     OW30418   6.694   1.706   0.962
 9840SOL    HW130419   6.640   1.787   0.940
 9840SOL    HW230420   6.771   1.732   1.019
 9841SOL     OW30421   1.666   4.077   4.822
 9841SOL    HW130422   1.696   3.987   4.852
 9841SOL    HW230423   1.619   4.124   4.897
 9842SOL     OW30424   4.045   3.274   2.490
 9842SOL    HW130425   4.018   3.179   2.475
 9842SOL    HW230426   4.118   3.299   2.426
 9843SOL     OW30427   5.464   0.735   0.960
 9843SOL    HW130428   5.514   0.818   0.987
 9843SOL    HW230429   5.369   0.743   0.988
 9844SOL     OW30430   6.207   0.855   1.948
 9844SOL    HW130431   6.139   0.821   1.883
 9844SOL    HW230432   6.226   0.952   1.928
 9845SOL     OW30433   2.805   2.346   4.181
 9845SOL    HW130434   2.745   2.422   4.207
 9845SOL    HW230435   2.797   2.330   4.083
 9846SOL     OW30436   3.854   3.389   1.891
 9846SOL    HW130437   3.812   3.319   1.948
 9846SOL    HW230438   3.926   3.348   1.835
 9847SOL     OW30439   3.695   2.956   4.236
 9847SOL    HW130440   3.697   2.882   4.304
 9847SOL    HW230441   3.629   3.025   4.264
 9848SOL     OW30442   3.231   3.499   5.427
 9848SOL    HW130443   3.191   3.581   5.386
 9848SOL    HW230444   3.187   3.418   5.388
 9849SOL     OW30445   0.501   6.938   6.886
 9849SOL    HW130446   0.519   6.924   6.789
 9849SOL    HW230447   0.583   6.916   6.939
 9850SOL     OW30448   5.815   0.149   3.870
 9850SOL    HW130449   5.733   0.134   3.925
 9850SOL    HW230450   5.790   0.165   3.775
 9851SOL     OW30451   5.277   0.673   5.068
 9851SOL    HW130452   5.269   0.597   5.131
 9851SOL    HW230453   5.373   0.689   5.047
 9852SOL     OW30454   4.044   2.116   2.891
 9852SOL    HW130455   4.109   2.136   2.817
 9852SOL    HW230456   3.981   2.193   2.902
 9853SOL     OW30457   5.142   4.096   4.791
 9853SOL    HW130458   5.158   4.001   4.819
 9853SOL    HW230459   5.048   4.122   4.810
 9854SOL     OW30460   0.192   6.027   4.437
 9854SOL    HW130461   0.190   5.928   4.452
 9854SOL    HW230462   0.173   6.046   4.340
 9855SOL     OW30463   2.322   2.818   0.761
 9855SOL    HW130464   2.229   2.854   0.772
 9855SOL    HW230465   2.320   2.741   0.698
 9856SOL     OW30466   5.163   4.783   5.319
 9856SOL    HW130467   5.126   4.852   5.381
 9856SOL    HW230468   5.226   4.724   5.368
 9857SOL     OW30469   4.645   2.264   3.425
 9857SOL    HW130470   4.688   2.354   3.431
 9857SOL    HW230471   4.643   2.222   3.515
 9858SOL     OW30472   6.690   1.155   0.903
 9858SOL    HW130473   6.654   1.073   0.946
 9858SOL    HW230474   6.786   1.167   0.927
 9859SOL     OW30475   6.351   0.060   2.188
 9859SOL    HW130476   6.356   0.108   2.100
 9859SOL    HW230477   6.256   0.040   2.209
 9860SOL     OW30478   0.921   1.291   3.722
 9860SOL    HW130479   0.823   1.301   3.742
 9860SOL    HW230480   0.933   1.256   3.629
 9861SOL     OW30481   3.248   0.221   3.268
 9861SOL    HW130482   3.339   0.215   3.311
 9861SOL    HW230483   3.179   0.231   3.340
 9862SOL     OW30484   4.060   3.761   0.301
 9862SOL    HW130485   3.968   3.755   0.339
 9862SOL    HW230486   4.091   3.856   0.303
 9863SOL     OW30487   3.079   0.250   2.238
 9863SOL    HW130488   3.129   0.279   2.156
 9863SOL    HW230489   3.134   0.184   2.289
 9864SOL     OW30490   3.759   6.658   4.109
 9864SOL    HW130491   3.790   6.687   4.018
 9864SOL    HW230492   3.811   6.577   4.138
 9865SOL     OW30493   1.299   1.278   4.393
 9865SOL    HW130494   1.310   1.328   4.478
 9865SOL    HW230495   1.302   1.179   4.412
 9866SOL     OW30496   4.680   5.053   6.332
 9866SOL    HW130497   4.718   4.971   6.374
 9866SOL    HW230498   4.688   5.047   6.233
 9867SOL     OW30499   6.376   0.949   0.772
 9867SOL    HW130500   6.364   0.862   0.723
 9867SOL    HW230501   6.296   0.965   0.830
 9868SOL     OW30502   0.442   3.648   6.307
 9868SOL    HW130503   0.431   3.566   6.251
 9868SOL    HW230504   0.392   3.638   6.393
 9869SOL     OW30505   1.864   3.205   2.199
 9869SOL    HW130506   1.856   3.220   2.298
 9869SOL    HW230507   1.807   3.271   2.151
 9870SOL     OW30508   3.798   5.675   2.234
 9870SOL    HW130509   3.753   5.675   2.323
 9870SOL    HW230510   3.748   5.734   2.171
 9871SOL     OW30511   0.456   5.632   5.645
 9871SOL    HW130512   0.365   5.595   5.664
 9871SOL    HW230513   0.521   5.601   5.715
 9872SOL     OW30514   2.152   5.053   4.097
 9872SOL    HW130515   2.094   5.120   4.049
 9872SOL    HW230516   2.247   5.083   4.094
 9873SOL     OW30517   2.771   2.546   0.175
 9873SOL    HW130518   2.817   2.612   0.115
 9873SOL    HW230519   2.767   2.584   0.268
 9874SOL     OW30520   6.767   3.302   5.064
 9874SOL    HW130521   6.817   3.243   5.127
 9874SOL    HW230522   6.786   3.274   4.970
 9875SOL     OW30523   6.290   5.757   2.276
 9875SOL    HW130524   6.310   5.705   2.193
 9875SOL    HW230525   6.303   5.699   2.356
 9876SOL     OW30526   6.514   0.297   3.075
 9876SOL    HW130527   6.548   0.372   3.132
 9876SOL    HW230528   6.451   0.334   3.006
 9877SOL     OW30529   7.020   6.280   4.053
 9877SOL    HW130530   6.922   6.271   4.037
 9877SOL    HW230531   0.010   6.365   4.103
 9878SOL     OW30532   2.679   4.702   5.212
 9878SOL    HW130533   2.756   4.652   5.173
 9878SOL    HW230534   2.699   4.800   5.214
 9879SOL     OW30535   5.692   5.239   4.954
 9879SOL    HW130536   5.629   5.291   5.011
 9879SOL    HW230537   5.642   5.195   4.880
 9880SOL     OW30538   3.102   0.887   5.913
 9880SOL    HW130539   3.066   0.881   6.006
 9880SOL    HW230540   3.093   0.799   5.868
 9881SOL     OW30541   0.949   0.657   4.857
 9881SOL    HW130542   0.863   0.613   4.832
 9881SOL    HW230543   0.953   0.748   4.816
 9882SOL     OW30544   1.350   3.435   3.651
 9882SOL    HW130545   1.281   3.508   3.651
 9882SOL    HW230546   1.307   3.348   3.674
 9883SOL     OW30547   1.265   6.784   0.197
 9883SOL    HW130548   1.185   6.843   0.207
 9883SOL    HW230549   1.317   6.784   0.282
 9884SOL     OW30550   5.234   2.068   2.072
 9884SOL    HW130551   5.144   2.107   2.052
 9884SOL    HW230552   5.261   2.092   2.165
 9885SOL     OW30553   6.570   2.174   4.820
 9885SOL    HW130554   6.626   2.256   4.835
 9885SOL    HW230555   6.474   2.201   4.814
 9886SOL     OW30556   1.080   4.856   2.899
 9886SOL    HW130557   1.074   4.869   2.998
 9886SOL    HW230558   1.153   4.791   2.879
 9887SOL     OW30559   4.282   0.413   6.255
 9887SOL    HW130560   4.336   0.468   6.192
 9887SOL    HW230561   4.277   0.459   6.344
 9888SOL     OW30562   5.562   4.717   3.102
 9888SOL    HW130563   5.600   4.784   3.039
 9888SOL    HW230564   5.547   4.760   3.191
 9889SOL     OW30565   6.565   5.193   1.672
 9889SOL    HW130566   6.566   5.112   1.730
 9889SOL    HW230567   6.593   5.273   1.725
 9890SOL     OW30568   1.403   2.427   0.653
 9890SOL    HW130569   1.383   2.524   0.649
 9890SOL    HW230570   1.333   2.381   0.709
 9891SOL     OW30571   5.563   3.707   2.023
 9891SOL    HW130572   5.536   3.800   2.046
 9891SOL    HW230573   5.535   3.644   2.095
 9892SOL     OW30574   0.282   4.699   1.120
 9892SOL    HW130575   0.372   4.657   1.113
 9892SOL    HW230576   0.253   4.730   1.030
 9893SOL     OW30577   0.894   1.026   1.150
 9893SOL    HW130578   0.821   1.075   1.102
 9893SOL    HW230579   0.981   1.039   1.101
 9894SOL     OW30580   3.503   2.958   0.467
 9894SOL    HW130581   3.441   2.888   0.430
 9894SOL    HW230582   3.550   2.920   0.547
 9895SOL     OW30583   5.828   5.004   5.082
 9895SOL    HW130584   5.786   5.075   5.025
 9895SOL    HW230585   5.919   5.034   5.109
 9896SOL     OW30586   6.018   1.076   7.008
 9896SOL    HW130587   6.017   1.154   0.043
 9896SOL    HW230588   6.042   1.108   6.917
 9897SOL     OW30589   5.513   6.415   2.204
 9897SOL    HW130590   5.442   6.467   2.252
 9897SOL    HW230591   5.539   6.336   2.260
 9898SOL     OW30592   1.532   5.380   4.906
 9898SOL    HW130593   1.468   5.411   4.976
 9898SOL    HW230594   1.518   5.283   4.888
 9899SOL     OW30595   1.771   5.929   0.534
 9899SOL    HW130596   1.823   6.001   0.487
 9899SOL    HW230597   1.817   5.906   0.620
 9900SOL     OW30598   1.679   2.615   3.129
 9900SOL    HW130599   1.707   2.578   3.041
 9900SOL    HW230600   1.581   2.598   3.143
 9901SOL     OW30601   2.902   0.572   6.951
 9901SOL    HW130602   2.843   0.611   7.022
 9901SOL    HW230603   2.881   0.475   6.939
 9902SOL     OW30604   3.098   5.086   1.448
 9902SOL    HW130605   3.041   5.062   1.369
 9902SOL    HW230606   3.195   5.075   1.423
 9903SOL     OW30607   5.809   2.368   2.044
 9903SOL    HW130608   5.871   2.296   2.015
 9903SOL    HW230609   5.782   2.353   2.139
 9904SOL     OW30610   0.777   3.948   0.135
 9904SOL    HW130611   0.732   3.882   0.075
 9904SOL    HW230612   0.824   4.017   0.081
 9905SOL     OW30613   1.974   0.905   5.772
 9905SOL    HW130614   2.011   0.907   5.864
 9905SOL    HW230615   2.043   0.941   5.708
 9906SOL     OW30616   1.812   3.127   0.803
 9906SOL    HW130617   1.747   3.071   0.751
 9906SOL    HW230618   1.874   3.173   0.740
 9907SOL     OW30619   0.965   0.220   1.022
 9907SOL    HW130620   1.041   0.155   1.019
 9907SOL    HW230621   0.996   0.307   1.058
 9908SOL     OW30622   6.527   1.582   5.503
 9908SOL    HW130623   6.551   1.513   5.572
 9908SOL    HW230624   6.430   1.573   5.481
 9909SOL     OW30625   4.541   1.462   3.071
 9909SOL    HW130626   4.614   1.520   3.037
 9909SOL    HW230627   4.500   1.504   3.152
 9910SOL     OW30628   1.525   4.939   1.594
 9910SOL    HW130629   1.488   4.914   1.505
 9910SOL    HW230630   1.472   4.894   1.666
 9911SOL     OW30631   3.126   6.286   2.099
 9911SOL    HW130632   3.198   6.351   2.125
 9911SOL    HW230633   3.053   6.335   2.051
 9912SOL     OW30634   3.630   0.931   0.997
 9912SOL    HW130635   3.708   0.991   0.979
 9912SOL    HW230636   3.561   0.943   0.926
 9913SOL     OW30637   6.556   4.023   0.740
 9913SOL    HW130638   6.478   3.963   0.723
 9913SOL    HW230639   6.549   4.105   0.683
 9914SOL     OW30640   6.061   1.020   4.859
 9914SOL    HW130641   6.055   1.095   4.793
 9914SOL    HW230642   6.150   0.974   4.848
 9915SOL     OW30643   6.572   1.004   3.606
 9915SOL    HW130644   6.480   0.996   3.569
 9915SOL    HW230645   6.618   0.915   3.601
 9916SOL     OW30646   2.138   2.568   2.976
 9916SOL    HW130647   2.230   2.572   3.016
 9916SOL    HW230648   2.140   2.600   2.882
 9917SOL     OW30649   4.196   3.769   6.266
 9917SOL    HW130650   4.176   3.803   6.358
 9917SOL    HW230651   4.289   3.734   6.263
 9918SOL     OW30652   2.177   2.118   2.918
 9918SOL    HW130653   2.232   2.186   2.868
 9918SOL    HW230654   2.172   2.144   3.015
 9919SOL     OW30655   1.059   5.297   1.218
 9919SOL    HW130656   1.059   5.231   1.292
 9919SOL    HW230657   1.117   5.264   1.144
 9920SOL     OW30658   5.068   0.605   2.325
 9920SOL    HW130659   5.106   0.513   2.325
 9920SOL    HW230660   4.970   0.601   2.342
 9921SOL     OW30661   4.104   6.345   4.557
 9921SOL    HW130662   4.154   6.271   4.512
 9921SOL    HW230663   4.116   6.338   4.656
 9922SOL     OW30664   2.897   4.044   0.648
 9922SOL    HW130665   2.822   4.098   0.610
 9922SOL    HW230666   2.889   4.041   0.748
 9923SOL     OW30667   5.779   4.502   6.984
 9923SOL    HW130668   5.839   4.580   6.961
 9923SOL    HW230669   5.773   4.441   6.904
 9924SOL     OW30670   6.060   1.537   3.248
 9924SOL    HW130671   6.090   1.588   3.328
 9924SOL    HW230672   6.028   1.446   3.276
 9925SOL     OW30673   0.248   4.940   4.037
 9925SOL    HW130674   0.196   5.017   4.000
 9925SOL    HW230675   0.232   4.933   4.135
 9926SOL     OW30676   4.381   2.955   1.399
 9926SOL    HW130677   4.314   2.911   1.338
 9926SOL    HW230678   4.446   2.887   1.432
 9927SOL     OW30679   1.561   0.090   0.553
 9927SOL    HW130680   1.554   0.189   0.539
 9927SOL    HW230681   1.526   0.043   0.473
 9928SOL     OW30682   5.043   5.048   2.941
 9928SOL    HW130683   5.001   4.977   2.884
 9928SOL    HW230684   5.142   5.035   2.942
 9929SOL     OW30685   3.203   4.019   4.777
 9929SOL    HW130686   3.118   3.967   4.774
 9929SOL    HW230687   3.256   4.001   4.694
 9930SOL     OW30688   0.076   6.416   5.342
 9930SOL    HW130689   0.173   6.441   5.344
 9930SOL    HW230690   0.067   6.317   5.354
 9931SOL     OW30691   0.311   5.796   3.858
 9931SOL    HW130692   0.409   5.777   3.854
 9931SOL    HW230693   0.264   5.741   3.789
 9932SOL     OW30694   2.681   3.143   6.052
 9932SOL    HW130695   2.597   3.132   6.105
 9932SOL    HW230696   2.717   3.235   6.065
 9933SOL     OW30697   1.570   0.123   3.762
 9933SOL    HW130698   1.518   0.208   3.766
 9933SOL    HW230699   1.560   0.074   3.849
 9934SOL     OW30700   6.334   2.217   5.638
 9934SOL    HW130701   6.351   2.315   5.625
 9934SOL    HW230702   6.399   2.181   5.705
 9935SOL     OW30703   2.850   6.892   0.861
 9935SOL    HW130704   2.757   6.868   0.891
 9935SOL    HW230705   2.887   6.962   0.921
 9936SOL     OW30706   6.562   4.546   0.927
 9936SOL    HW130707   6.511   4.512   0.848
 9936SOL    HW230708   6.651   4.501   0.931
 9937SOL     OW30709   0.557   2.177   1.723
 9937SOL    HW130710   0.557   2.104   1.655
 9937SOL    HW230711   0.636   2.237   1.708
 9938SOL     OW30712   6.155   5.107   3.992
 9938SOL    HW130713   6.057   5.100   4.010
 9938SOL    HW230714   6.181   5.037   3.925
 9939SOL     OW30715   4.814   2.755   1.235
 9939SOL    HW130716   4.733   2.788   1.186
 9939SOL    HW230717   4.874   2.832   1.255
 9940SOL     OW30718   0.998   0.945   1.718
 9940SOL    HW130719   0.901   0.950   1.695
 9940SOL    HW230720   1.028   1.032   1.756
 9941SOL     OW30721   3.286   2.900   4.872
 9941SOL    HW130722   3.253   2.976   4.817
 9941SOL    HW230723   3.383   2.886   4.855
 9942SOL     OW30724   2.609   5.612   2.617
 9942SOL    HW130725   2.602   5.514   2.597
 9942SOL    HW230726   2.536   5.661   2.570
 9943SOL     OW30727   0.559   4.048   6.346
 9943SOL    HW130728   0.518   4.110   6.280
 9943SOL    HW230729   0.597   4.102   6.422
 9944SOL     OW30730   0.929   4.474   6.691
 9944SOL    HW130731   0.961   4.505   6.601
 9944SOL    HW230732   0.830   4.489   6.697
 9945SOL     OW30733   4.611   5.796   0.045
 9945SOL    HW130734   4.666   5.810   6.990
 9945SOL    HW230735   4.667   5.812   0.126
 9946SOL     OW30736   5.933   0.705   3.584
 9946SOL    HW130737   5.930   0.796   3.544
 9946SOL    HW230738   5.956   0.711   3.681
 9947SOL     OW30739   3.015   2.191   4.776
 9947SOL    HW130740   2.923   2.221   4.800
 9947SOL    HW230741   3.078   2.214   4.850
 9948SOL     OW30742   6.394   4.606   6.385
 9948SOL    HW130743   6.382   4.524   6.440
 9948SOL    HW230744   6.475   4.598   6.328
 9949SOL     OW30745   6.596   4.838   3.932
 9949SOL    HW130746   6.552   4.795   3.854
 9949SOL    HW230747   6.651   4.915   3.901
 9950SOL     OW30748   5.656   6.158   5.740
 9950SOL    HW130749   5.649   6.136   5.837
 9950SOL    HW230750   5.719   6.234   5.727
 9951SOL     OW30751   1.228   1.757   3.729
 9951SOL    HW130752   1.218   1.754   3.829
 9951SOL    HW230753   1.189   1.674   3.689
 9952SOL     OW30754   1.245   4.499   0.391
 9952SOL    HW130755   1.203   4.576   0.344
 9952SOL    HW230756   1.306   4.450   0.329
 9953SOL     OW30757   5.976   2.382   4.848
 9953SOL    HW130758   5.962   2.339   4.759
 9953SOL    HW230759   6.009   2.314   4.913
 9954SOL     OW30760   0.539   0.561   5.729
 9954SOL    HW130761   0.497   0.626   5.792
 9954SOL    HW230762   0.475   0.487   5.711
 9955SOL     OW30763   5.711   3.987   6.136
 9955SOL    HW130764   5.632   3.953   6.086
 9955SOL    HW230765   5.682   4.016   6.228
 9956SOL     OW30766   0.285   5.913   2.833
 9956SOL    HW130767   0.372   5.950   2.802
 9956SOL    HW230768   0.253   5.963   2.913
 9957SOL     OW30769   5.777   6.933   1.997
 9957SOL    HW130770   5.764   0.003   2.017
 9957SOL    HW230771   5.739   6.879   2.072
 9958SOL     OW30772   2.134   5.273   6.696
 9958SOL    HW130773   2.206   5.208   6.719
 9958SOL    HW230774   2.136   5.292   6.598
 9959SOL     OW30775   3.984   3.748   4.537
 9959SOL    HW130776   4.030   3.701   4.462
 9959SOL    HW230777   4.035   3.734   4.622
 9960SOL     OW30778   6.973   0.319   2.383
 9960SOL    HW130779   0.040   0.348   2.386
 9960SOL    HW230780   6.919   0.386   2.332
 9961SOL     OW30781   1.686   5.531   4.389
 9961SOL    HW130782   1.687   5.444   4.438
 9961SOL    HW230783   1.659   5.604   4.451
 9962SOL     OW30784   4.852   6.772   1.678
 9962SOL    HW130785   4.842   6.775   1.579
 9962SOL    HW230786   4.935   6.821   1.705
 9963SOL     OW30787   2.409   2.890   6.348
 9963SOL    HW130788   2.329   2.877   6.406
 9963SOL    HW230789   2.400   2.836   6.265
 9964SOL     OW30790   4.677   3.732   5.668
 9964SOL    HW130791   4.600   3.677   5.699
 9964SOL    HW230792   4.682   3.729   5.568
 9965SOL     OW30793   3.711   4.959   6.530
 9965SOL    HW130794   3.780   5.003   6.588
 9965SOL    HW230795   3.624   4.956   6.579
 9966SOL     OW30796   2.383   5.522   1.875
 9966SOL    HW130797   2.344   5.614   1.880
 9966SOL    HW230798   2.315   5.459   1.837
 9967SOL     OW30799   6.002   0.002   2.435
 9967SOL    HW130800   6.037   6.971   2.508
 9967SOL    HW230801   5.907   7.007   2.415
 9968SOL     OW30802   3.406   3.652   6.768
 9968SOL    HW130803   3.419   3.742   6.809
 9968SOL    HW230804   3.325   3.653   6.710
 9969SOL     OW30805   1.927   2.825   4.078
 9969SOL    HW130806   1.914   2.858   3.985
 9969SOL    HW230807   2.007   2.765   4.082
 9970SOL     OW30808   5.228   3.829   3.004
 9970SOL    HW130809   5.282   3.800   2.926
 9970SOL    HW230810   5.144   3.874   2.972
 9971SOL     OW30811   2.743   3.793   0.433
 9971SOL    HW130812   2.727   3.697   0.411
 9971SOL    HW230813   2.655   3.837   0.453
 9972SOL     OW30814   3.895   4.417   0.898
 9972SOL    HW130815   3.799   4.390   0.884
 9972SOL    HW230816   3.934   4.362   0.972
 9973SOL     OW30817   3.936   1.933   4.417
 9973SOL    HW130818   3.983   1.965   4.499
 9973SOL    HW230819   3.916   2.010   4.357
 9974SOL     OW30820   6.308   4.090   3.626
 9974SOL    HW130821   6.363   4.025   3.575
 9974SOL    HW230822   6.360   4.123   3.705
 9975SOL     OW30823   6.809   4.456   0.422
 9975SOL    HW130824   6.723   4.503   0.403
 9975SOL    HW230825   6.873   4.519   0.465
 9976SOL     OW30826   0.592   5.661   5.414
 9976SOL    HW130827   0.650   5.743   5.414
 9976SOL    HW230828   0.545   5.654   5.502
 9977SOL     OW30829   6.976   5.411   5.826
 9977SOL    HW130830   6.918   5.395   5.905
 9977SOL    HW230831   0.017   5.338   5.820
 9978SOL     OW30832   6.327   3.028   3.214
 9978SOL    HW130833   6.332   2.943   3.161
 9978SOL    HW230834   6.328   3.006   3.311
 9979SOL     OW30835   6.268   4.677   5.714
 9979SOL    HW130836   6.181   4.655   5.670
 9979SOL    HW230837   6.342   4.674   5.646
 9980SOL     OW30838   1.564   1.899   5.936
 9980SOL    HW130839   1.496   1.849   5.989
 9980SOL    HW230840   1.655   1.881   5.973
 9981SOL     OW30841   2.828   2.097   1.822
 9981SOL    HW130842   2.911   2.150   1.839
 9981SOL    HW230843   2.799   2.052   1.906
 9982SOL     OW30844   0.383   1.049   3.262
 9982SOL    HW130845   0.435   1.125   3.224
 9982SOL    HW230846   0.438   0.966   3.259
 9983SOL     OW30847   0.911   2.826   3.486
 9983SOL    HW130848   0.870   2.899   3.431
 9983SOL    HW230849   0.982   2.780   3.433
 9984SOL     OW30850   1.790   1.179   0.041
 9984SOL    HW130851   1.816   1.111   0.110
 9984SOL    HW230852   1.859   1.250   0.036
 9985SOL     OW30853   1.949   1.059   1.907
 9985SOL    HW130854   2.032   1.115   1.907
 9985SOL    HW230855   1.924   1.036   1.813
 9986SOL     OW30856   4.396   3.825   6.627
 9986SOL    HW130857   4.371   3.873   6.711
 9986SOL    HW230858   4.482   3.862   6.592
 9987SOL     OW30859   6.182   2.009   3.475
 9987SOL    HW130860   6.138   2.004   3.386
 9987SOL    HW230861   6.275   1.974   3.469
 9988SOL     OW30862   0.652   5.790   4.296
 9988SOL    HW130863   0.732   5.786   4.236
 9988SOL    HW230864   0.654   5.874   4.350
 9989SOL     OW30865   6.197   4.226   3.972
 9989SOL    HW130866   6.217   4.279   4.055
 9989SOL    HW230867   6.112   4.259   3.931
 9990SOL     OW30868   2.763   6.566   2.184
 9990SOL    HW130869   2.754   6.649   2.130
 9990SOL    HW230870   2.727   6.582   2.276
 9991SOL     OW30871   1.830   3.333   4.092
 9991SOL    HW130872   1.757   3.266   4.108
 9991SOL    HW230873   1.790   3.424   4.083
 9992SOL     OW30874   5.162   4.487   0.629
 9992SOL    HW130875   5.109   4.404   0.614
 9992SOL    HW230876   5.105   4.567   0.608
 9993SOL     OW30877   3.701   0.393   1.899
 9993SOL    HW130878   3.625   0.331   1.879
 9993SOL    HW230879   3.684   0.482   1.856
 9994SOL     OW30880   6.951   4.730   3.944
 9994SOL    HW130881   6.914   4.750   3.854
 9994SOL    HW230882   0.013   4.686   3.935
 9995SOL     OW30883   3.710   0.935   3.119
 9995SOL    HW130884   3.646   0.860   3.136
 9995SOL    HW230885   3.788   0.902   3.066
 9996SOL     OW30886   2.473   3.281   1.688
 9996SOL    HW130887   2.439   3.351   1.750
 9996SOL    HW230888   2.573   3.288   1.681
 9997SOL     OW30889   3.660   1.808   1.106
 9997SOL    HW130890   3.601   1.766   1.174
 9997SOL    HW230891   3.649   1.907   1.108
 9998SOL     OW30892   5.903   4.380   1.068
 9998SOL    HW130893   5.873   4.413   0.978
 9998SOL    HW230894   5.846   4.421   1.139
 9999SOL     OW30895   6.507   2.862   4.977
 9999SOL    HW130896   6.463   2.786   5.025
 9999SOL    HW230897   6.549   2.924   5.044
10000SOL     OW30898   0.020   3.379   0.627
10000SOL    HW130899   0.050   3.362   0.721
10000SOL    HW230900   0.088   3.342   0.564
10001SOL     OW30901   4.648   0.621   1.829
10001SOL    HW130902   4.627   0.677   1.908
10001SOL    HW230903   4.642   0.524   1.853
10002SOL     OW30904   1.747   0.435   2.128
10002SOL    HW130905   1.809   0.358   2.142
10002SOL    HW230906   1.785   0.517   2.170
10003SOL     OW30907   3.558   1.686   3.790
10003SOL    HW130908   3.565   1.731   3.701
10003SOL    HW230909   3.646   1.692   3.837
10004SOL     OW30910   4.631   2.659   4.086
10004SOL    HW130911   4.636   2.696   4.179
10004SOL    HW230912   4.568   2.581   4.085
10005SOL     OW30913   4.097   0.384   3.493
10005SOL    HW130914   4.172   0.327   3.462
10005SOL    HW230915   4.056   0.344   3.575
10006SOL     OW30916   5.265   0.123   3.983
10006SOL    HW130917   5.287   0.171   3.898
10006SOL    HW230918   5.211   0.182   4.042
10007SOL     OW30919   0.629   5.328   4.903
10007SOL    HW130920   0.656   5.369   4.991
10007SOL    HW230921   0.587   5.397   4.846
10008SOL     OW30922   4.151   0.952   4.868
10008SOL    HW130923   4.231   0.917   4.820
10008SOL    HW230924   4.094   1.004   4.804
10009SOL     OW30925   1.987   3.900   1.736
10009SOL    HW130926   1.918   3.968   1.761
10009SOL    HW230927   2.073   3.922   1.780
10010SOL     OW30928   1.628   0.166   5.677
10010SOL    HW130929   1.608   0.075   5.640
10010SOL    HW230930   1.698   0.210   5.621
10011SOL     OW30931   6.106   1.633   4.632
10011SOL    HW130932   6.045   1.704   4.666
10011SOL    HW230933   6.201   1.659   4.648
10012SOL     OW30934   5.002   0.892   3.351
10012SOL    HW130935   4.976   0.929   3.440
10012SOL    HW230936   4.990   0.962   3.281
10013SOL     OW30937   1.145   1.637   3.405
10013SOL    HW130938   1.127   1.640   3.307
10013SOL    HW230939   1.186   1.548   3.428
10014SOL     OW30940   6.713   3.969   0.531
10014SOL    HW130941   6.677   3.972   0.625
10014SOL    HW230942   6.664   3.900   0.478
10015SOL     OW30943   1.714   3.757   0.339
10015SOL    HW130944   1.655   3.678   0.324
10015SOL    HW230945   1.722   3.776   0.436
10016SOL     OW30946   1.752   0.681   6.035
10016SOL    HW130947   1.665   0.642   6.005
10016SOL    HW230948   1.781   0.637   6.119
10017SOL     OW30949   2.955   2.195   3.117
10017SOL    HW130950   2.933   2.252   3.038
10017SOL    HW230951   2.915   2.235   3.200
10018SOL     OW30952   4.830   6.859   5.290
10018SOL    HW130953   4.802   6.859   5.194
10018SOL    HW230954   4.783   6.932   5.339
10019SOL     OW30955   0.058   1.831   2.884
10019SOL    HW130956   0.149   1.819   2.924
10019SOL    HW230957   0.057   1.914   2.828
10020SOL     OW30958   1.306   2.140   1.851
10020SOL    HW130959   1.354   2.223   1.879
10020SOL    HW230960   1.339   2.111   1.761
10021SOL     OW30961   0.489   2.399   1.211
10021SOL    HW130962   0.570   2.400   1.269
10021SOL    HW230963   0.423   2.333   1.247
10022SOL     OW30964   2.655   0.083   6.384
10022SOL    HW130965   2.726   0.012   6.383
10022SOL    HW230966   2.652   0.127   6.474
10023SOL     OW30967   1.339   5.285   6.550
10023SOL    HW130968   1.437   5.271   6.537
10023SOL    HW230969   1.296   5.198   6.577
10024SOL     OW30970   1.518   6.452   2.092
10024SOL    HW130971   1.472   6.382   2.038
10024SOL    HW230972   1.453   6.493   2.156
10025SOL     OW30973   1.907   1.319   1.015
10025SOL    HW130974   1.919   1.387   0.943
10025SOL    HW230975   1.951   1.351   1.099
10026SOL     OW30976   5.477   6.403   3.326
10026SOL    HW130977   5.428   6.487   3.302
10026SOL    HW230978   5.414   6.338   3.368
10027SOL     OW30979   6.565   3.908   5.267
10027SOL    HW130980   6.593   3.957   5.349
10027SOL    HW230981   6.636   3.916   5.197
10028SOL     OW30982   1.896   0.990   1.651
10028SOL    HW130983   1.916   0.946   1.563
10028SOL    HW230984   1.857   1.080   1.635
10029SOL     OW30985   4.451   2.095   4.639
10029SOL    HW130986   4.524   2.029   4.658
10029SOL    HW230987   4.490   2.182   4.609
10030SOL     OW30988   2.591   6.721   3.686
10030SOL    HW130989   2.582   6.622   3.675
10030SOL    HW230990   2.576   6.745   3.782
10031SOL     OW30991   6.422   5.139   4.770
10031SOL    HW130992   6.334   5.176   4.801
10031SOL    HW230993   6.418   5.039   4.774
10032SOL     OW30994   2.127   1.832   5.457
10032SOL    HW130995   2.162   1.820   5.364
10032SOL    HW230996   2.065   1.757   5.479
10033SOL     OW30997   5.531   2.537   4.352
10033SOL    HW130998   5.466   2.468   4.384
10033SOL    HW230999   5.598   2.556   4.423
10034SOL     OW31000   3.109   0.111   4.105
10034SOL    HW131001   3.010   0.114   4.121
10034SOL    HW231002   3.157   0.148   4.184
10035SOL     OW31003   6.272   4.207   1.869
10035SOL    HW131004   6.366   4.231   1.845
10035SOL    HW231005   6.209   4.270   1.824
10036SOL     OW31006   6.263   2.496   1.478
10036SOL    HW131007   6.341   2.467   1.423
10036SOL    HW231008   6.294   2.520   1.570
10037SOL     OW31009   6.661   1.298   0.471
10037SOL    HW131010   6.590   1.230   0.486
10037SOL    HW231011   6.633   1.385   0.511
10038SOL     OW31012   5.041   0.561   6.787
10038SOL    HW131013   5.117   0.563   6.722
10038SOL    HW231014   5.034   0.650   6.832
10039SOL     OW31015   2.954   0.757   3.564
10039SOL    HW131016   3.021   0.764   3.490
10039SOL    HW231017   2.995   0.788   3.649
10040SOL     OW31018   5.206   5.417   6.722
10040SOL    HW131019   5.175   5.327   6.693
10040SOL    HW231020   5.288   5.442   6.670
10041SOL     OW31021   4.178   5.813   0.194
10041SOL    HW131022   4.248   5.818   0.123
10041SOL    HW231023   4.198   5.734   0.254
10042SOL     OW31024   0.876   2.585   3.607
10042SOL    HW131025   0.791   2.567   3.557
10042SOL    HW231026   0.921   2.666   3.568
10043SOL     OW31027   6.683   1.168   5.080
10043SOL    HW131028   6.677   1.233   5.155
10043SOL    HW231029   6.620   1.195   5.007
10044SOL     OW31030   1.797   2.152   4.319
10044SOL    HW131031   1.706   2.122   4.345
10044SOL    HW231032   1.865   2.107   4.377
10045SOL     OW31033   4.210   0.101   2.223
10045SOL    HW131034   4.177   0.188   2.259
10045SOL    HW231035   4.293   0.117   2.169
10046SOL     OW31036   2.047   3.457   0.446
10046SOL    HW131037   2.095   3.511   0.377
10046SOL    HW231038   2.054   3.360   0.422
10047SOL     OW31039   1.048   2.896   4.656
10047SOL    HW131040   1.114   2.892   4.731
10047SOL    HW231041   1.034   2.805   4.619
10048SOL     OW31042   0.148   0.091   2.280
10048SOL    HW131043   0.189   0.005   2.249
10048SOL    HW231044   0.066   0.111   2.226
10049SOL     OW31045   1.735   1.576   5.705
10049SOL    HW131046   1.784   1.492   5.683
10049SOL    HW231047   1.668   1.558   5.777
10050SOL     OW31048   5.963   3.967   5.205
10050SOL    HW131049   6.043   4.004   5.252
10050SOL    HW231050   5.989   3.937   5.113
10051SOL     OW31051   0.574   4.236   4.669
10051SOL    HW131052   0.596   4.141   4.645
10051SOL    HW231053   0.642   4.270   4.734
10052SOL     OW31054   2.009   1.321   3.509
10052SOL    HW131055   2.000   1.229   3.547
10052SOL    HW231056   1.990   1.389   3.581
10053SOL     OW31057   4.321   5.831   4.544
10053SOL    HW131058   4.330   5.861   4.449
10053SOL    HW231059   4.225   5.813   4.564
10054SOL     OW31060   5.901   5.217   5.946
10054SOL    HW131061   5.809   5.194   5.915
10054SOL    HW231062   5.925   5.159   6.024
10055SOL     OW31063   6.175   1.980   5.228
10055SOL    HW131064   6.236   2.017   5.298
10055SOL    HW231065   6.094   1.940   5.272
10056SOL     OW31066   5.124   4.774   3.694
10056SOL    HW131067   5.160   4.682   3.708
10056SOL    HW231068   5.057   4.773   3.621
10057SOL     OW31069   5.315   4.159   5.396
10057SOL    HW131070   5.339   4.174   5.301
10057SOL    HW231071   5.289   4.063   5.409
10058SOL     OW31072   6.337   3.842   5.141
10058SOL    HW131073   6.427   3.859   5.182
10058SOL    HW231074   6.346   3.841   5.041
10059SOL     OW31075   6.832   1.348   0.232
10059SOL    HW131076   6.779   1.403   0.168
10059SOL    HW231077   6.772   1.312   0.304
10060SOL     OW31078   2.221   2.387   2.754
10060SOL    HW131079   2.126   2.373   2.782
10060SOL    HW231080   2.228   2.470   2.699
10061SOL     OW31081   4.644   1.042   3.884
10061SOL    HW131082   4.595   0.955   3.880
10061SOL    HW231083   4.583   1.114   3.917
10062SOL     OW31084   7.026   6.970   4.476
10062SOL    HW131085   0.042   6.916   4.404
10062SOL    HW231086   6.940   6.927   4.503
10063SOL     OW31087   3.172   1.343   4.782
10063SOL    HW131088   3.261   1.389   4.788
10063SOL    HW231089   3.113   1.393   4.718
10064SOL     OW31090   4.886   6.153   6.562
10064SOL    HW131091   4.864   6.208   6.642
10064SOL    HW231092   4.801   6.115   6.524
10065SOL     OW31093   2.023   1.403   1.292
10065SOL    HW131094   2.030   1.496   1.255
10065SOL    HW231095   2.088   1.392   1.367
10066SOL     OW31096   0.159   2.510   4.608
10066SOL    HW131097   0.136   2.607   4.605
10066SOL    HW231098   0.162   2.473   4.515
10067SOL     OW31099   6.982   2.931   6.430
10067SOL    HW131100   0.015   2.858   6.398
10067SOL    HW231101   6.940   2.976   6.352
10068SOL     OW31102   0.947   4.097   3.587
10068SOL    HW131103   0.853   4.097   3.553
10068SOL    HW231104   0.968   4.007   3.626
10069SOL     OW31105   3.125   4.988   1.696
10069SOL    HW131106   3.032   5.001   1.732
10069SOL    HW231107   3.124   5.004   1.597
10070SOL     OW31108   0.688   5.408   5.376
10070SOL    HW131109   0.636   5.492   5.361
10070SOL    HW231110   0.749   5.420   5.454
10071SOL     OW31111   0.971   0.039   3.874
10071SOL    HW131112   0.975   0.065   3.971
10071SOL    HW231113   1.057   7.023   3.847
10072SOL     OW31114   0.393   1.212   3.941
10072SOL    HW131115   0.360   1.256   4.025
10072SOL    HW231116   0.330   1.233   3.866
10073SOL     OW31117   6.970   3.799   3.893
10073SOL    HW131118   0.031   3.806   3.938
10073SOL    HW231119   6.984   3.784   3.795
10074SOL     OW31120   1.712   6.290   6.947
10074SOL    HW131121   1.744   6.224   6.879
10074SOL    HW231122   1.658   6.243   7.016
10075SOL     OW31123   1.977   0.623   2.707
10075SOL    HW131124   2.004   0.542   2.654
10075SOL    HW231125   1.885   0.652   2.678
10076SOL     OW31126   4.936   5.779   2.927
10076SOL    HW131127   4.838   5.781   2.945
10076SOL    HW231128   4.957   5.832   2.845
10077SOL     OW31129   5.181   2.833   1.290
10077SOL    HW131130   5.198   2.801   1.383
10077SOL    HW231131   5.172   2.755   1.228
10078SOL     OW31132   0.358   6.186   4.618
10078SOL    HW131133   0.302   6.114   4.577
10078SOL    HW231134   0.326   6.203   4.711
10079SOL     OW31135   5.664   2.171   2.607
10079SOL    HW131136   5.695   2.264   2.586
10079SOL    HW231137   5.743   2.113   2.625
10080SOL     OW31138   4.879   1.000   6.389
10080SOL    HW131139   4.871   1.099   6.402
10080SOL    HW231140   4.898   0.980   6.293
10081SOL     OW31141   0.422   1.280   0.014
10081SOL    HW131142   0.405   1.353   6.976
10081SOL    HW231143   0.462   1.201   6.995
10082SOL     OW31144   1.098   5.648   2.951
10082SOL    HW131145   1.127   5.717   3.017
10082SOL    HW231146   1.046   5.576   2.999
10083SOL     OW31147   3.106   0.069   3.619
10083SOL    HW131148   3.108   7.026   3.548
10083SOL    HW231149   3.055   0.148   3.585
10084SOL     OW31150   0.093   6.797   5.206
10084SOL    HW131151   0.065   6.835   5.294
10084SOL    HW231152   0.031   6.829   5.134
10085SOL     OW31153   4.084   0.239   0.583
10085SOL    HW131154   4.040   0.194   0.505
10085SOL    HW231155   4.044   0.330   0.596
10086SOL     OW31156   5.643   6.776   3.240
10086SOL    HW131157   5.596   6.786   3.327
10086SOL    HW231158   5.724   6.834   3.238
10087SOL     OW31159   6.774   6.343   4.569
10087SOL    HW131160   6.788   6.440   4.548
10087SOL    HW231161   6.859   6.293   4.553
10088SOL     OW31162   6.822   0.741   1.087
10088SOL    HW131163   6.893   0.680   1.050
10088SOL    HW231164   6.776   0.695   1.163
10089SOL     OW31165   3.252   1.718   3.369
10089SOL    HW131166   3.203   1.744   3.286
10089SOL    HW231167   3.257   1.618   3.375
10090SOL     OW31168   0.592   4.643   2.058
10090SOL    HW131169   0.569   4.664   1.962
10090SOL    HW231170   0.644   4.719   2.097
10091SOL     OW31171   6.323   6.179   7.008
10091SOL    HW131172   6.251   6.121   0.019
10091SOL    HW231173   6.393   6.194   0.050
10092SOL     OW31174   1.111   3.050   5.402
10092SOL    HW131175   1.110   2.951   5.396
10092SOL    HW231176   1.204   3.081   5.425
10093SOL     OW31177   4.971   3.592   4.718
10093SOL    HW131178   5.066   3.590   4.688
10093SOL    HW231179   4.964   3.560   4.812
10094SOL     OW31180   2.502   6.765   0.514
10094SOL    HW131181   2.462   6.852   0.543
10094SOL    HW231182   2.543   6.719   0.593
10095SOL     OW31183   5.401   1.454   4.667
10095SOL    HW131184   5.480   1.438   4.608
10095SOL    HW231185   5.423   1.426   4.760
10096SOL     OW31186   5.027   0.436   2.969
10096SOL    HW131187   4.965   0.498   3.017
10096SOL    HW231188   4.973   0.366   2.922
10097SOL     OW31189   1.922   2.215   5.936
10097SOL    HW131190   1.958   2.175   5.851
10097SOL    HW231191   1.970   2.301   5.955
10098SOL     OW31192   2.844   6.547   4.628
10098SOL    HW131193   2.762   6.536   4.685
10098SOL    HW231194   2.918   6.493   4.666
10099SOL     OW31195   6.378   4.322   2.193
10099SOL    HW131196   6.458   4.302   2.137
10099SOL    HW231197   6.359   4.244   2.253
10100SOL     OW31198   5.698   5.460   5.628
10100SOL    HW131199   5.631   5.392   5.658
10100SOL    HW231200   5.651   5.547   5.611
10101SOL     OW31201   6.804   2.845   2.010
10101SOL    HW131202   6.820   2.869   1.915
10101SOL    HW231203   6.869   2.773   2.037
10102SOL     OW31204   5.973   0.511   0.904
10102SOL    HW131205   5.948   0.564   0.824
10102SOL    HW231206   5.940   0.557   0.987
10103SOL     OW31207   1.651   0.781   4.897
10103SOL    HW131208   1.554   0.784   4.872
10103SOL    HW231209   1.706   0.774   4.814
10104SOL     OW31210   2.015   1.295   5.860
10104SOL    HW131211   1.951   1.256   5.927
10104SOL    HW231212   1.965   1.320   5.777
10105SOL     OW31213   2.234   1.335   6.043
10105SOL    HW131214   2.311   1.381   5.998
10105SOL    HW231215   2.178   1.289   5.974
10106SOL     OW31216   3.815   6.132   1.278
10106SOL    HW131217   3.800   6.169   1.186
10106SOL    HW231218   3.848   6.038   1.272
10107SOL     OW31219   4.854   2.592   6.520
10107SOL    HW131220   4.789   2.554   6.585
10107SOL    HW231221   4.914   2.520   6.487
10108SOL     OW31222   1.221   2.612   0.732
10108SOL    HW131223   1.233   2.687   0.796
10108SOL    HW231224   1.186   2.531   0.780
10109SOL     OW31225   0.615   0.896   0.090
10109SOL    HW131226   0.566   0.946   0.018
10109SOL    HW231227   0.587   0.930   0.179
10110SOL     OW31228   4.642   5.125   2.894
10110SOL    HW131229   4.555   5.120   2.944
10110SOL    HW231230   4.647   5.051   2.828
10111SOL     OW31231   0.910   2.985   2.516
10111SOL    HW131232   0.989   3.031   2.556
10111SOL    HW231233   0.828   3.040   2.532
10112SOL     OW31234   6.325   3.724   3.310
10112SOL    HW131235   6.258   3.701   3.239
10112SOL    HW231236   6.368   3.640   3.343
10113SOL     OW31237   4.041   0.946   6.899
10113SOL    HW131238   3.950   0.910   6.879
10113SOL    HW231239   4.066   1.012   6.828
10114SOL     OW31240   3.958   1.915   3.042
10114SOL    HW131241   3.992   1.984   2.978
10114SOL    HW231242   3.935   1.958   3.129
10115SOL     OW31243   3.868   1.531   4.204
10115SOL    HW131244   3.836   1.618   4.166
10115SOL    HW231245   3.830   1.455   4.150
10116SOL     OW31246   6.458   0.110   5.591
10116SOL    HW131247   6.423   0.166   5.516
10116SOL    HW231248   6.395   0.113   5.668
10117SOL     OW31249   7.026   5.794   5.620
10117SOL    HW131250   6.940   5.742   5.626
10117SOL    HW231251   0.037   5.803   5.712
10118SOL     OW31252   2.594   4.604   4.389
10118SOL    HW131253   2.558   4.510   4.391
10118SOL    HW231254   2.600   4.639   4.483
10119SOL     OW31255   6.903   5.781   3.990
10119SOL    HW131256   6.863   5.863   3.952
10119SOL    HW231257   6.918   5.714   3.917
10120SOL     OW31258   1.488   3.131   3.336
10120SOL    HW131259   1.493   3.182   3.250
10120SOL    HW231260   1.580   3.111   3.369
10121SOL     OW31261   6.091   4.520   0.940
10121SOL    HW131262   6.031   4.466   1.000
10121SOL    HW231263   6.092   4.480   0.849
10122SOL     OW31264   6.475   2.317   3.812
10122SOL    HW131265   6.496   2.223   3.837
10122SOL    HW231266   6.392   2.319   3.756
10123SOL     OW31267   6.342   6.335   0.622
10123SOL    HW131268   6.250   6.339   0.585
10123SOL    HW231269   6.388   6.253   0.587
10124SOL     OW31270   2.040   5.098   1.925
10124SOL    HW131271   1.953   5.136   1.958
10124SOL    HW231272   2.059   5.133   1.833
10125SOL     OW31273   2.289   1.086   1.601
10125SOL    HW131274   2.240   1.022   1.542
10125SOL    HW231275   2.341   1.151   1.544
10126SOL     OW31276   6.540   0.107   6.213
10126SOL    HW131277   6.440   0.118   6.214
10126SOL    HW231278   6.563   0.011   6.200
10127SOL     OW31279   1.600   4.374   5.903
10127SOL    HW131280   1.519   4.324   5.931
10127SOL    HW231281   1.656   4.316   5.843
10128SOL     OW31282   2.578   0.582   6.897
10128SOL    HW131283   2.624   0.636   6.966
10128SOL    HW231284   2.590   0.484   6.916
10129SOL     OW31285   0.041   1.397   1.708
10129SOL    HW131286   6.989   1.355   1.664
10129SOL    HW231287   0.020   1.415   1.804
10130SOL     OW31288   1.229   2.619   1.426
10130SOL    HW131289   1.280   2.655   1.348
10130SOL    HW231290   1.248   2.521   1.436
10131SOL     OW31291   1.824   0.716   4.030
10131SOL    HW131292   1.892   0.714   3.957
10131SOL    HW231293   1.853   0.779   4.101
10132SOL     OW31294   0.703   0.629   2.128
10132SOL    HW131295   0.664   0.696   2.191
10132SOL    HW231296   0.736   0.675   2.046
10133SOL     OW31297   4.172   6.258   1.200
10133SOL    HW131298   4.145   6.202   1.122
10133SOL    HW231299   4.179   6.201   1.282
10134SOL     OW31300   0.056   1.052   2.839
10134SOL    HW131301   0.117   1.039   2.917
10134SOL    HW231302   0.100   1.112   2.772
10135SOL     OW31303   5.941   0.921   3.797
10135SOL    HW131304   6.041   0.921   3.798
10135SOL    HW231305   5.908   1.009   3.830
10136SOL     OW31306   4.800   2.743   2.472
10136SOL    HW131307   4.882   2.709   2.519
10136SOL    HW231308   4.719   2.699   2.510
10137SOL     OW31309   0.652   4.922   6.034
10137SOL    HW131310   0.682   4.829   6.015
10137SOL    HW231311   0.570   4.920   6.092
10138SOL     OW31312   5.604   1.908   0.107
10138SOL    HW131313   5.703   1.922   0.093
10138SOL    HW231314   5.555   1.930   0.022
10139SOL     OW31315   3.746   2.953   5.014
10139SOL    HW131316   3.781   2.874   5.066
10139SOL    HW231317   3.651   2.969   5.038
10140SOL     OW31318   6.741   6.654   6.188
10140SOL    HW131319   6.685   6.675   6.268
10140SOL    HW231320   6.732   6.558   6.165
10141SOL     OW31321   4.033   0.655   3.421
10141SOL    HW131322   4.063   0.562   3.440
10141SOL    HW231323   4.049   0.713   3.501
10142SOL     OW31324   5.944   6.666   4.712
10142SOL    HW131325   5.950   6.587   4.773
10142SOL    HW231326   5.849   6.694   4.701
10143SOL     OW31327   6.141   2.861   0.020
10143SOL    HW131328   6.135   2.800   0.099
10143SOL    HW231329   6.159   2.954   0.050
10144SOL     OW31330   3.888   6.948   5.452
10144SOL    HW131331   3.886   6.999   5.539
10144SOL    HW231332   3.968   6.976   5.399
10145SOL     OW31333   4.086   6.353   2.633
10145SOL    HW131334   4.006   6.372   2.577
10145SOL    HW231335   4.144   6.434   2.637
10146SOL     OW31336   0.105   4.296   4.496
10146SOL    HW131337   0.161   4.226   4.540
10146SOL    HW231338   0.084   4.267   4.402
10147SOL     OW31339   4.442   4.746   0.191
10147SOL    HW131340   4.415   4.833   0.149
10147SOL    HW231341   4.463   4.761   0.288
10148SOL     OW31342   6.713   4.466   1.267
10148SOL    HW131343   6.644   4.530   1.300
10148SOL    HW231344   6.755   4.419   1.344
10149SOL     OW31345   4.779   4.736   1.408
10149SOL    HW131346   4.817   4.803   1.345
10149SOL    HW231347   4.852   4.682   1.449
10150SOL     OW31348   5.175   3.502   1.961
10150SOL    HW131349   5.081   3.507   1.928
10150SOL    HW231350   5.179   3.452   2.047
10151SOL     OW31351   0.290   6.957   5.409
10151SOL    HW131352   0.190   6.959   5.414
10151SOL    HW231353   0.318   6.895   5.336
10152SOL     OW31354   5.703   5.727   3.420
10152SOL    HW131355   5.750   5.794   3.362
10152SOL    HW231356   5.766   5.652   3.442
10153SOL     OW31357   4.313   5.976   3.550
10153SOL    HW131358   4.332   6.025   3.635
10153SOL    HW231359   4.280   5.884   3.571
10154SOL     OW31360   4.240   5.277   5.971
10154SOL    HW131361   4.201   5.359   5.928
10154SOL    HW231362   4.329   5.300   6.011
10155SOL     OW31363   5.008   2.106   5.943
10155SOL    HW131364   5.006   2.023   5.887
10155SOL    HW231365   5.103   2.132   5.962
10156SOL     OW31366   4.510   0.301   1.239
10156SOL    HW131367   4.449   0.237   1.193
10156SOL    HW231368   4.584   0.251   1.284
10157SOL     OW31369   6.980   2.061   0.416
10157SOL    HW131370   6.976   1.965   0.388
10157SOL    HW231371   6.921   2.115   0.357
10158SOL     OW31372   6.042   6.729   2.402
10158SOL    HW131373   5.944   6.713   2.386
10158SOL    HW231374   6.073   6.670   2.477
10159SOL     OW31375   3.160   2.958   2.678
10159SOL    HW131376   3.146   2.872   2.726
10159SOL    HW231377   3.177   3.031   2.744
10160SOL     OW31378   2.482   4.415   2.711
10160SOL    HW131379   2.539   4.470   2.649
10160SOL    HW231380   2.494   4.448   2.805
10161SOL     OW31381   3.531   4.560   6.730
10161SOL    HW131382   3.625   4.537   6.753
10161SOL    HW231383   3.476   4.564   6.814
10162SOL     OW31384   1.723   4.661   1.827
10162SOL    HW131385   1.624   4.647   1.831
10162SOL    HW231386   1.748   4.735   1.890
10163SOL     OW31387   1.096   5.764   5.764
10163SOL    HW131388   1.005   5.804   5.775
10163SOL    HW231389   1.102   5.718   5.676
10164SOL     OW31390   6.545   3.382   3.573
10164SOL    HW131391   6.609   3.321   3.527
10164SOL    HW231392   6.526   3.348   3.665
10165SOL     OW31393   5.534   2.851   3.995
10165SOL    HW131394   5.509   2.835   4.090
10165SOL    HW231395   5.467   2.806   3.935
10166SOL     OW31396   1.697   2.672   1.014
10166SOL    HW131397   1.714   2.659   1.111
10166SOL    HW231398   1.728   2.591   0.964
10167SOL     OW31399   0.129   5.103   6.993
10167SOL    HW131400   0.037   5.107   0.004
10167SOL    HW231401   0.176   5.189   7.012
10168SOL     OW31402   5.914   0.869   5.968
10168SOL    HW131403   5.963   0.896   6.051
10168SOL    HW231404   5.845   0.801   5.991
10169SOL     OW31405   0.018   4.011   2.749
10169SOL    HW131406   0.038   4.022   2.652
10169SOL    HW231407   0.083   4.064   2.803
10170SOL     OW31408   6.647   5.610   6.896
10170SOL    HW131409   6.721   5.673   6.870
10170SOL    HW231410   6.682   5.544   6.963
10171SOL     OW31411   0.857   2.820   5.625
10171SOL    HW131412   0.805   2.739   5.597
10171SOL    HW231413   0.906   2.857   5.546
10172SOL     OW31414   0.482   6.977   3.767
10172SOL    HW131415   0.498   6.879   3.770
10172SOL    HW231416   0.535   7.022   3.839
10173SOL     OW31417   2.991   4.565   0.185
10173SOL    HW131418   3.048   4.605   0.113
10173SOL    HW231419   2.955   4.477   0.154
10174SOL     OW31420   5.460   6.077   3.112
10174SOL    HW131421   5.436   6.166   3.072
10174SOL    HW231422   5.556   6.056   3.090
10175SOL     OW31423   6.543   1.736   3.300
10175SOL    HW131424   6.466   1.674   3.288
10175SOL    HW231425   6.605   1.728   3.222
10176SOL     OW31426   6.485   3.851   5.813
10176SOL    HW131427   6.551   3.808   5.875
10176SOL    HW231428   6.438   3.926   5.861
10177SOL     OW31429   2.108   0.246   0.936
10177SOL    HW131430   2.173   0.170   0.925
10177SOL    HW231431   2.095   0.264   1.033
10178SOL     OW31432   1.908   0.651   0.789
10178SOL    HW131433   1.930   0.737   0.834
10178SOL    HW231434   1.943   0.652   0.696
10179SOL     OW31435   0.195   4.154   0.194
10179SOL    HW131436   0.197   4.054   0.186
10179SOL    HW231437   0.245   4.194   0.117
10180SOL     OW31438   4.875   0.131   6.986
10180SOL    HW131439   4.835   0.058   6.932
10180SOL    HW231440   4.852   0.118   0.055
10181SOL     OW31441   6.539   3.197   1.235
10181SOL    HW131442   6.561   3.147   1.319
10181SOL    HW231443   6.480   3.140   1.177
10182SOL     OW31444   5.234   0.821   0.265
10182SOL    HW131445   5.157   0.843   0.325
10182SOL    HW231446   5.306   0.890   0.276
10183SOL     OW31447   5.657   2.913   5.650
10183SOL    HW131448   5.685   2.825   5.612
10183SOL    HW231449   5.730   2.949   5.708
10184SOL     OW31450   5.361   3.088   5.970
10184SOL    HW131451   5.361   3.167   5.907
10184SOL    HW231452   5.448   3.083   6.017
10185SOL     OW31453   4.533   6.062   2.686
10185SOL    HW131454   4.574   6.076   2.776
10185SOL    HW231455   4.459   5.995   2.694
10186SOL     OW31456   4.985   3.761   5.214
10186SOL    HW131457   4.967   3.709   5.131
10186SOL    HW231458   4.966   3.704   5.294
10187SOL     OW31459   2.179   4.013   5.435
10187SOL    HW131460   2.187   3.946   5.361
10187SOL    HW231461   2.177   4.105   5.397
10188SOL     OW31462   3.188   5.998   6.718
10188SOL    HW131463   3.247   6.076   6.741
10188SOL    HW231464   3.096   6.032   6.695
10189SOL     OW31465   1.688   0.701   0.182
10189SOL    HW131466   1.590   0.723   0.185
10189SOL    HW231467   1.709   0.653   0.096
10190SOL     OW31468   3.639   3.678   1.370
10190SOL    HW131469   3.589   3.606   1.322
10190SOL    HW231470   3.721   3.701   1.318
10191SOL     OW31471   5.824   5.834   1.473
10191SOL    HW131472   5.758   5.783   1.528
10191SOL    HW231473   5.873   5.899   1.531
10192SOL     OW31474   2.002   1.920   4.742
10192SOL    HW131475   1.970   1.973   4.820
10192SOL    HW231476   1.951   1.947   4.660
10193SOL     OW31477   3.580   3.802   2.125
10193SOL    HW131478   3.605   3.820   2.030
10193SOL    HW231479   3.502   3.859   2.150
10194SOL     OW31480   3.444   0.192   5.319
10194SOL    HW131481   3.503   0.196   5.400
10194SOL    HW231482   3.428   0.285   5.286
10195SOL     OW31483   6.616   0.093   1.353
10195SOL    HW131484   6.684   0.091   1.279
10195SOL    HW231485   6.532   0.135   1.320
10196SOL     OW31486   6.142   1.677   3.468
10196SOL    HW131487   6.218   1.648   3.526
10196SOL    HW231488   6.154   1.774   3.445
10197SOL     OW31489   5.972   0.660   4.130
10197SOL    HW131490   5.992   0.602   4.051
10197SOL    HW231491   5.872   0.667   4.140
10198SOL     OW31492   3.706   6.660   0.314
10198SOL    HW131493   3.775   6.686   0.382
10198SOL    HW231494   3.616   6.690   0.345
10199SOL     OW31495   0.658   1.254   6.744
10199SOL    HW131496   0.725   1.296   6.805
10199SOL    HW231497   0.577   1.311   6.739
10200SOL     OW31498   5.031   2.961   5.674
10200SOL    HW131499   5.010   3.055   5.701
10200SOL    HW231500   5.064   2.911   5.754
10201SOL     OW31501   0.537   5.999   1.543
10201SOL    HW131502   0.566   5.912   1.582
10201SOL    HW231503   0.457   5.985   1.485
10202SOL     OW31504   1.321   3.615   0.769
10202SOL    HW131505   1.351   3.520   0.771
10202SOL    HW231506   1.302   3.642   0.675
10203SOL     OW31507   1.463   2.500   2.171
10203SOL    HW131508   1.463   2.599   2.190
10203SOL    HW231509   1.548   2.460   2.205
10204SOL     OW31510   3.862   4.836   6.279
10204SOL    HW131511   3.908   4.922   6.301
10204SOL    HW231512   3.824   4.841   6.186
10205SOL     OW31513   4.257   1.131   3.188
10205SOL    HW131514   4.292   1.042   3.216
10205SOL    HW231515   4.169   1.119   3.141
10206SOL     OW31516   5.078   6.097   6.253
10206SOL    HW131517   5.112   6.069   6.343
10206SOL    HW231518   5.151   6.143   6.202
10207SOL     OW31519   1.593   0.330   1.064
10207SOL    HW131520   1.670   0.325   1.127
10207SOL    HW231521   1.517   0.378   1.107
10208SOL     OW31522   6.598   5.168   4.979
10208SOL    HW131523   6.622   5.263   4.958
10208SOL    HW231524   6.531   5.135   4.912
10209SOL     OW31525   0.160   0.831   5.719
10209SOL    HW131526   0.136   0.757   5.656
10209SOL    HW231527   0.083   0.894   5.728
10210SOL     OW31528   5.038   6.951   1.274
10210SOL    HW131529   4.971   6.996   1.333
10210SOL    HW231530   4.990   6.910   1.196
10211SOL     OW31531   4.074   6.380   5.723
10211SOL    HW131532   4.136   6.456   5.701
10211SOL    HW231533   4.128   6.300   5.750
10212SOL     OW31534   0.367   1.218   4.473
10212SOL    HW131535   0.353   1.140   4.412
10212SOL    HW231536   0.343   1.302   4.425
10213SOL     OW31537   6.135   1.772   2.711
10213SOL    HW131538   6.185   1.801   2.630
10213SOL    HW231539   6.187   1.700   2.759
10214SOL     OW31540   0.563   0.949   2.734
10214SOL    HW131541   0.496   1.023   2.721
10214SOL    HW231542   0.558   0.885   2.657
10215SOL     OW31543   3.478   2.842   5.284
10215SOL    HW131544   3.571   2.830   5.248
10215SOL    HW231545   3.428   2.756   5.276
10216SOL     OW31546   0.146   7.023   0.947
10216SOL    HW131547   0.212   0.010   1.021
10216SOL    HW231548   0.097   6.937   0.963
10217SOL     OW31549   2.387   1.412   3.772
10217SOL    HW131550   2.307   1.365   3.808
10217SOL    HW231551   2.458   1.344   3.750
10218SOL     OW31552   0.641   1.151   1.054
10218SOL    HW131553   0.626   1.053   1.041
10218SOL    HW231554   0.616   1.200   0.971
10219SOL     OW31555   0.476   2.971   1.903
10219SOL    HW131556   0.574   2.985   1.908
10219SOL    HW231557   0.440   2.960   1.996
10220SOL     OW31558   4.438   1.653   2.203
10220SOL    HW131559   4.467   1.691   2.115
10220SOL    HW231560   4.401   1.562   2.189
10221SOL     OW31561   1.556   1.771   3.906
10221SOL    HW131562   1.479   1.816   3.951
10221SOL    HW231563   1.538   1.673   3.899
10222SOL     OW31564   0.563   3.715   5.429
10222SOL    HW131565   0.554   3.805   5.473
10222SOL    HW231566   0.532   3.721   5.334
10223SOL     OW31567   2.283   5.611   6.487
10223SOL    HW131568   2.196   5.563   6.481
10223SOL    HW231569   2.301   5.659   6.401
10224SOL     OW31570   0.698   0.931   4.369
10224SOL    HW131571   0.716   1.027   4.348
10224SOL    HW231572   0.666   0.923   4.463
10225SOL     OW31573   1.671   6.394   5.304
10225SOL    HW131574   1.650   6.489   5.281
10225SOL    HW231575   1.588   6.347   5.333
10226SOL     OW31576   2.716   0.092   7.016
10226SOL    HW131577   2.657   0.147   0.047
10226SOL    HW231578   2.676   0.087   6.925
10227SOL     OW31579   4.721   5.037   1.059
10227SOL    HW131580   4.784   5.067   0.987
10227SOL    HW231581   4.628   5.032   1.023
10228SOL     OW31582   1.005   5.357   2.169
10228SOL    HW131583   0.931   5.378   2.106
10228SOL    HW231584   0.969   5.305   2.247
10229SOL     OW31585   0.997   1.238   3.995
10229SOL    HW131586   1.058   1.275   4.065
10229SOL    HW231587   1.021   1.279   3.906
10230SOL     OW31588   6.879   0.558   3.820
10230SOL    HW131589   6.953   0.506   3.863
10230SOL    HW231590   6.796   0.502   3.816
10231SOL     OW31591   0.164   6.185   5.653
10231SOL    HW131592   0.153   6.144   5.562
10231SOL    HW231593   0.077   6.185   5.700
10232SOL     OW31594   3.435   0.855   4.296
10232SOL    HW131595   3.481   0.837   4.208
10232SOL    HW231596   3.503   0.886   4.363
10233SOL     OW31597   5.250   2.917   5.129
10233SOL    HW131598   5.303   2.833   5.122
10233SOL    HW231599   5.158   2.896   5.160
10234SOL     OW31600   5.510   0.233   0.665
10234SOL    HW131601   5.465   0.182   0.592
10234SOL    HW231602   5.585   0.287   0.626
10235SOL     OW31603   4.506   1.674   0.484
10235SOL    HW131604   4.566   1.596   0.468
10235SOL    HW231605   4.502   1.694   0.582
10236SOL     OW31606   1.266   6.267   2.210
10236SOL    HW131607   1.188   6.324   2.234
10236SOL    HW231608   1.268   6.254   2.111
10237SOL     OW31609   6.231   3.878   1.192
10237SOL    HW131610   6.203   3.801   1.249
10237SOL    HW231611   6.330   3.891   1.199
10238SOL     OW31612   3.466   4.193   4.267
10238SOL    HW131613   3.509   4.160   4.351
10238SOL    HW231614   3.436   4.287   4.280
10239SOL     OW31615   1.492   4.107   5.102
10239SOL    HW131616   1.516   4.123   5.198
10239SOL    HW231617   1.415   4.166   5.077
10240SOL     OW31618   1.333   4.693   2.870
10240SOL    HW131619   1.394   4.619   2.840
10240SOL    HW231620   1.310   4.679   2.966
10241SOL     OW31621   0.119   1.016   1.815
10241SOL    HW131622   0.142   0.919   1.819
10241SOL    HW231623   0.191   1.069   1.859
10242SOL     OW31624   6.928   2.024   6.737
10242SOL    HW131625   6.902   1.948   6.797
10242SOL    HW231626   6.926   2.109   6.789
10243SOL     OW31627   0.368   5.144   1.157
10243SOL    HW131628   0.286   5.106   1.115
10243SOL    HW231629   0.441   5.075   1.156
10244SOL     OW31630   1.707   4.703   6.998
10244SOL    HW131631   1.775   4.632   7.018
10244SOL    HW231632   1.736   4.789   0.012
10245SOL     OW31633   2.659   4.085   0.300
10245SOL    HW131634   2.684   4.130   0.386
10245SOL    HW231635   2.741   4.061   0.249
10246SOL     OW31636   3.013   3.792   4.124
10246SOL    HW131637   2.996   3.775   4.222
10246SOL    HW231638   3.046   3.708   4.081
10247SOL     OW31639   0.642   5.533   4.374
10247SOL    HW131640   0.672   5.472   4.300
10247SOL    HW231641   0.628   5.625   4.338
10248SOL     OW31642   3.075   7.013   1.691
10248SOL    HW131643   3.003   6.946   1.707
10248SOL    HW231644   3.050   0.072   1.732
10249SOL     OW31645   2.543   0.726   5.781
10249SOL    HW131646   2.539   0.733   5.682
10249SOL    HW231647   2.474   0.661   5.814
10250SOL     OW31648   0.286   2.218   1.297
10250SOL    HW131649   0.277   2.273   1.381
10250SOL    HW231650   0.271   2.122   1.319
10251SOL     OW31651   2.235   2.547   4.985
10251SOL    HW131652   2.177   2.598   4.921
10251SOL    HW231653   2.219   2.580   5.078
10252SOL     OW31654   0.172   5.779   0.420
10252SOL    HW131655   0.096   5.743   0.475
10252SOL    HW231656   0.137   5.848   0.357
10253SOL     OW31657   5.597   6.324   0.686
10253SOL    HW131658   5.630   6.400   0.742
10253SOL    HW231659   5.582   6.244   0.744
10254SOL     OW31660   4.117   2.184   4.891
10254SOL    HW131661   4.038   2.137   4.932
10254SOL    HW231662   4.113   2.281   4.913
10255SOL     OW31663   2.588   5.304   1.662
10255SOL    HW131664   2.542   5.388   1.633
10255SOL    HW231665   2.649   5.273   1.589
10256SOL     OW31666   5.481   0.149   1.870
10256SOL    HW131667   5.396   0.195   1.894
10256SOL    HW231668   5.543   0.214   1.825
10257SOL     OW31669   2.068   4.974   4.363
10257SOL    HW131670   2.065   5.002   4.267
10257SOL    HW231671   2.159   4.995   4.401
10258SOL     OW31672   4.619   0.246   3.925
10258SOL    HW131673   4.649   0.182   3.854
10258SOL    HW231674   4.645   0.339   3.897
10259SOL     OW31675   0.915   5.761   3.183
10259SOL    HW131676   0.923   5.829   3.110
10259SOL    HW231677   0.901   5.671   3.143
10260SOL     OW31678   6.907   0.759   3.265
10260SOL    HW131679   6.984   0.706   3.299
10260SOL    HW231680   6.926   0.790   3.172
10261SOL     OW31681   6.835   6.453   2.235
10261SOL    HW131682   6.801   6.388   2.303
10261SOL    HW231683   6.805   6.425   2.144
10262SOL     OW31684   3.076   6.055   4.640
10262SOL    HW131685   3.116   6.081   4.728
10262SOL    HW231686   3.002   5.990   4.655
10263SOL     OW31687   4.808   1.468   6.199
10263SOL    HW131688   4.896   1.421   6.192
10263SOL    HW231689   4.736   1.401   6.216
10264SOL     OW31690   5.769   1.723   6.648
10264SOL    HW131691   5.826   1.664   6.591
10264SOL    HW231692   5.734   1.799   6.593
10265SOL     OW31693   3.952   1.744   2.688
10265SOL    HW131694   3.974   1.720   2.594
10265SOL    HW231695   3.900   1.829   2.690
10266SOL     OW31696   3.512   2.814   5.555
10266SOL    HW131697   3.492   2.847   5.463
10266SOL    HW231698   3.567   2.731   5.549
10267SOL     OW31699   6.446   1.865   6.021
10267SOL    HW131700   6.498   1.901   6.099
10267SOL    HW231701   6.508   1.848   5.944
10268SOL     OW31702   3.816   6.568   1.664
10268SOL    HW131703   3.867   6.583   1.749
10268SOL    HW231704   3.724   6.604   1.673
10269SOL     OW31705   1.562   1.899   5.429
10269SOL    HW131706   1.593   1.959   5.502
10269SOL    HW231707   1.477   1.934   5.390
10270SOL     OW31708   2.295   5.393   2.599
10270SOL    HW131709   2.339   5.401   2.509
10270SOL    HW231710   2.360   5.355   2.665
10271SOL     OW31711   3.944   3.364   0.518
10271SOL    HW131712   3.944   3.397   0.424
10271SOL    HW231713   3.861   3.311   0.536
10272SOL     OW31714   1.151   0.431   4.500
10272SOL    HW131715   1.188   0.339   4.514
10272SOL    HW231716   1.069   0.443   4.555
10273SOL     OW31717   4.718   5.580   3.786
10273SOL    HW131718   4.625   5.559   3.814
10273SOL    HW231719   4.755   5.503   3.733
10274SOL     OW31720   1.031   4.603   5.350
10274SOL    HW131721   1.054   4.635   5.258
10274SOL    HW231722   0.989   4.512   5.345
10275SOL     OW31723   0.951   6.874   1.995
10275SOL    HW131724   0.961   6.965   1.954
10275SOL    HW231725   0.882   6.879   2.067
10276SOL     OW31726   6.483   5.650   6.008
10276SOL    HW131727   6.567   5.618   6.051
10276SOL    HW231728   6.419   5.682   6.079
10277SOL     OW31729   2.428   6.070   3.867
10277SOL    HW131730   2.524   6.101   3.868
10277SOL    HW231731   2.419   5.987   3.922
10278SOL     OW31732   5.778   0.683   4.845
10278SOL    HW131733   5.756   0.594   4.807
10278SOL    HW231734   5.822   0.739   4.775
10279SOL     OW31735   2.911   6.929   4.180
10279SOL    HW131736   2.888   6.898   4.272
10279SOL    HW231737   2.978   6.867   4.140
10280SOL     OW31738   1.950   3.502   0.982
10280SOL    HW131739   1.888   3.566   1.027
10280SOL    HW231740   1.958   3.419   1.037
10281SOL     OW31741   6.354   2.458   2.666
10281SOL    HW131742   6.276   2.405   2.631
10281SOL    HW231743   6.437   2.402   2.661
10282SOL     OW31744   6.321   3.610   4.388
10282SOL    HW131745   6.391   3.661   4.339
10282SOL    HW231746   6.253   3.673   4.425
10283SOL     OW31747   0.994   2.842   0.508
10283SOL    HW131748   1.072   2.903   0.522
10283SOL    HW231749   0.920   2.892   0.463
10284SOL     OW31750   5.064   4.701   5.757
10284SOL    HW131751   4.978   4.668   5.797
10284SOL    HW231752   5.117   4.623   5.724
10285SOL     OW31753   4.852   0.213   1.121
10285SOL    HW131754   4.858   0.188   1.024
10285SOL    HW231755   4.764   0.182   1.158
10286SOL     OW31756   3.348   2.091   3.921
10286SOL    HW131757   3.252   2.120   3.924
10286SOL    HW231758   3.352   1.994   3.899
10287SOL     OW31759   1.519   6.459   1.495
10287SOL    HW131760   1.550   6.553   1.510
10287SOL    HW231761   1.586   6.395   1.532
10288SOL     OW31762   5.006   6.418   2.334
10288SOL    HW131763   5.036   6.332   2.292
10288SOL    HW231764   4.934   6.459   2.278
10289SOL     OW31765   3.075   0.769   2.150
10289SOL    HW131766   3.025   0.757   2.236
10289SOL    HW231767   3.051   0.857   2.109
10290SOL     OW31768   3.643   4.079   2.618
10290SOL    HW131769   3.692   4.098   2.533
10290SOL    HW231770   3.569   4.146   2.629
10291SOL     OW31771   3.926   0.599   4.075
10291SOL    HW131772   3.984   0.524   4.109
10291SOL    HW231773   3.891   0.575   3.985
10292SOL     OW31774   0.953   1.557   4.353
10292SOL    HW131775   0.950   1.608   4.439
10292SOL    HW231776   0.868   1.504   4.343
10293SOL     OW31777   1.652   6.170   2.628
10293SOL    HW131778   1.585   6.101   2.598
10293SOL    HW231779   1.737   6.125   2.655
10294SOL     OW31780   4.878   3.701   3.205
10294SOL    HW131781   4.839   3.750   3.127
10294SOL    HW231782   4.874   3.760   3.286
10295SOL     OW31783   6.544   4.885   6.222
10295SOL    HW131784   6.565   4.908   6.127
10295SOL    HW231785   6.618   4.830   6.261
10296SOL     OW31786   5.093   3.811   6.770
10296SOL    HW131787   5.049   3.901   6.776
10296SOL    HW231788   5.113   3.790   6.674
10297SOL     OW31789   2.166   6.707   4.857
10297SOL    HW131790   2.198   6.657   4.937
10297SOL    HW231791   2.211   6.671   4.775
10298SOL     OW31792   4.303   4.753   2.825
10298SOL    HW131793   4.290   4.732   2.922
10298SOL    HW231794   4.237   4.823   2.797
10299SOL     OW31795   4.520   4.519   2.136
10299SOL    HW131796   4.513   4.432   2.086
10299SOL    HW231797   4.569   4.505   2.221
10300SOL     OW31798   1.714   4.683   2.523
10300SOL    HW131799   1.737   4.597   2.569
10300SOL    HW231800   1.754   4.683   2.431
10301SOL     OW31801   5.928   1.948   2.704
10301SOL    HW131802   5.866   1.921   2.777
10301SOL    HW231803   6.009   1.889   2.704
10302SOL     OW31804   1.152   5.909   4.043
10302SOL    HW131805   1.194   5.953   4.122
10302SOL    HW231806   1.224   5.865   3.988
10303SOL     OW31807   3.323   5.082   1.119
10303SOL    HW131808   3.296   5.167   1.164
10303SOL    HW231809   3.309   5.005   1.181
10304SOL     OW31810   5.772   1.102   2.733
10304SOL    HW131811   5.714   1.059   2.663
10304SOL    HW231812   5.843   1.157   2.688
10305SOL     OW31813   0.293   5.443   6.623
10305SOL    HW131814   0.338   5.362   6.586
10305SOL    HW231815   0.205   5.418   6.662
10306SOL     OW31816   4.520   6.241   6.455
10306SOL    HW131817   4.498   6.261   6.551
10306SOL    HW231818   4.460   6.295   6.396
10307SOL     OW31819   2.496   2.155   4.630
10307SOL    HW131820   2.500   2.251   4.655
10307SOL    HW231821   2.499   2.146   4.530
10308SOL     OW31822   2.868   4.903   4.223
10308SOL    HW131823   2.823   4.819   4.194
10308SOL    HW231824   2.815   4.945   4.297
10309SOL     OW31825   6.256   0.206   3.872
10309SOL    HW131826   6.344   0.193   3.918
10309SOL    HW231827   6.183   0.211   3.940
10310SOL     OW31828   3.895   2.852   1.624
10310SOL    HW131829   3.808   2.819   1.662
10310SOL    HW231830   3.964   2.853   1.695
10311SOL     OW31831   0.486   5.474   0.861
10311SOL    HW131832   0.577   5.437   0.841
10311SOL    HW231833   0.485   5.572   0.845
10312SOL     OW31834   3.827   5.499   1.373
10312SOL    HW131835   3.842   5.412   1.421
10312SOL    HW231836   3.765   5.556   1.427
10313SOL     OW31837   3.658   6.726   2.362
10313SOL    HW131838   3.757   6.710   2.351
10313SOL    HW231839   3.638   6.822   2.345
10314SOL     OW31840   5.558   1.146   1.910
10314SOL    HW131841   5.488   1.161   1.980
10314SOL    HW231842   5.539   1.060   1.862
10315SOL     OW31843   6.422   6.514   4.391
10315SOL    HW131844   6.324   6.503   4.374
10315SOL    HW231845   6.473   6.458   4.327
10316SOL     OW31846   6.648   3.648   4.948
10316SOL    HW131847   6.620   3.571   5.006
10316SOL    HW231848   6.575   3.668   4.883
10317SOL     OW31849   3.441   4.844   6.735
10317SOL    HW131850   3.365   4.862   6.673
10317SOL    HW231851   3.486   4.758   6.708
10318SOL     OW31852   6.371   5.461   1.378
10318SOL    HW131853   6.389   5.556   1.400
10318SOL    HW231854   6.317   5.419   1.451
10319SOL     OW31855   1.299   3.955   5.287
10319SOL    HW131856   1.379   3.913   5.329
10319SOL    HW231857   1.322   3.983   5.193
10320SOL     OW31858   0.320   0.836   0.428
10320SOL    HW131859   0.243   0.799   0.375
10320SOL    HW231860   0.377   0.760   0.459
10321SOL     OW31861   3.933   0.144   5.037
10321SOL    HW131862   3.899   0.065   4.987
10321SOL    HW231863   4.026   0.127   5.067
10322SOL     OW31864   6.471   5.904   0.163
10322SOL    HW131865   6.411   5.870   0.235
10322SOL    HW231866   6.431   5.886   0.074
10323SOL     OW31867   6.592   3.622   6.144
10323SOL    HW131868   6.610   3.630   6.242
10323SOL    HW231869   6.648   3.549   6.106
10324SOL     OW31870   3.289   3.102   3.506
10324SOL    HW131871   3.309   3.171   3.576
10324SOL    HW231872   3.226   3.034   3.542
10325SOL     OW31873   6.538   4.467   4.141
10325SOL    HW131874   6.553   4.565   4.140
10325SOL    HW231875   6.580   4.428   4.223
10326SOL     OW31876   4.852   2.699   6.813
10326SOL    HW131877   4.803   2.649   6.742
10326SOL    HW231878   4.787   2.744   6.874
10327SOL     OW31879   2.459   1.667   2.215
10327SOL    HW131880   2.454   1.756   2.261
10327SOL    HW231881   2.539   1.617   2.247
10328SOL     OW31882   6.049   3.472   1.762
10328SOL    HW131883   5.997   3.553   1.736
10328SOL    HW231884   5.988   3.405   1.803
10329SOL     OW31885   2.651   0.234   4.747
10329SOL    HW131886   2.574   0.263   4.803
10329SOL    HW231887   2.679   0.309   4.687
10330SOL     OW31888   3.269   5.223   2.802
10330SOL    HW131889   3.170   5.207   2.805
10330SOL    HW231890   3.317   5.145   2.841
10331SOL     OW31891   6.035   0.877   2.816
10331SOL    HW131892   6.025   0.938   2.895
10331SOL    HW231893   6.074   0.929   2.739
10332SOL     OW31894   6.620   1.570   0.122
10332SOL    HW131895   6.694   1.594   0.060
10332SOL    HW231896   6.533   1.599   0.083
10333SOL     OW31897   5.961   4.399   4.321
10333SOL    HW131898   5.889   4.429   4.383
10333SOL    HW231899   6.033   4.469   4.317
10334SOL     OW31900   2.188   5.802   3.887
10334SOL    HW131901   2.282   5.823   3.915
10334SOL    HW231902   2.188   5.720   3.829
10335SOL     OW31903   1.559   4.089   6.739
10335SOL    HW131904   1.460   4.077   6.751
10335SOL    HW231905   1.589   4.168   6.793
10336SOL     OW31906   5.124   6.473   2.777
10336SOL    HW131907   5.068   6.494   2.696
10336SOL    HW231908   5.201   6.416   2.750
10337SOL     OW31909   6.976   5.387   5.468
10337SOL    HW131910   6.984   5.411   5.371
10337SOL    HW231911   6.880   5.371   5.490
10338SOL     OW31912   3.444   6.311   1.242
10338SOL    HW131913   3.409   6.357   1.324
10338SOL    HW231914   3.383   6.235   1.218
10339SOL     OW31915   3.566   4.788   1.069
10339SOL    HW131916   3.474   4.789   1.029
10339SOL    HW231917   3.591   4.695   1.093
10340SOL     OW31918   1.828   5.590   6.571
10340SOL    HW131919   1.754   5.593   6.504
10340SOL    HW231920   1.791   5.565   6.661
10341SOL     OW31921   2.096   2.711   1.823
10341SOL    HW131922   2.030   2.778   1.787
10341SOL    HW231923   2.177   2.760   1.855
10342SOL     OW31924   2.226   5.938   5.743
10342SOL    HW131925   2.280   6.022   5.739
10342SOL    HW231926   2.129   5.960   5.739
10343SOL     OW31927   2.494   3.912   0.116
10343SOL    HW131928   2.502   3.984   0.185
10343SOL    HW231929   2.398   3.891   0.100
10344SOL     OW31930   4.047   3.841   3.394
10344SOL    HW131931   4.142   3.856   3.422
10344SOL    HW231932   4.044   3.770   3.324
10345SOL     OW31933   1.886   1.342   6.772
10345SOL    HW131934   1.838   1.293   6.845
10345SOL    HW231935   1.862   1.439   6.775
10346SOL     OW31936   5.768   0.327   1.176
10346SOL    HW131937   5.679   0.349   1.136
10346SOL    HW231938   5.795   0.400   1.239
10347SOL     OW31939   5.317   2.148   1.132
10347SOL    HW131940   5.330   2.118   1.038
10347SOL    HW231941   5.392   2.210   1.158
10348SOL     OW31942   6.742   0.649   6.214
10348SOL    HW131943   6.752   0.602   6.126
10348SOL    HW231944   6.761   0.746   6.201
10349SOL     OW31945   6.139   0.592   1.416
10349SOL    HW131946   6.183   0.545   1.340
10349SOL    HW231947   6.117   0.686   1.390
10350SOL     OW31948   3.821   6.357   4.597
10350SOL    HW131949   3.803   6.340   4.501
10350SOL    HW231950   3.912   6.399   4.608
10351SOL     OW31951   5.877   4.846   5.911
10351SOL    HW131952   5.799   4.862   5.851
10351SOL    HW231953   5.876   4.913   5.986
10352SOL     OW31954   5.330   2.107   6.521
10352SOL    HW131955   5.411   2.155   6.553
10352SOL    HW231956   5.249   2.143   6.567
10353SOL     OW31957   6.883   2.843   3.938
10353SOL    HW131958   6.841   2.789   3.865
10353SOL    HW231959   6.948   2.907   3.898
10354SOL     OW31960   0.347   3.799   1.194
10354SOL    HW131961   0.374   3.737   1.268
10354SOL    HW231962   0.314   3.885   1.234
10355SOL     OW31963   0.711   1.021   0.774
10355SOL    HW131964   0.663   0.951   0.827
10355SOL    HW231965   0.700   1.110   0.819
10356SOL     OW31966   0.323   3.284   6.738
10356SOL    HW131967   0.265   3.346   6.792
10356SOL    HW231968   0.311   3.303   6.641
10357SOL     OW31969   2.567   2.152   5.614
10357SOL    HW131970   2.633   2.174   5.542
10357SOL    HW231971   2.613   2.099   5.685
10358SOL     OW31972   1.454   3.694   2.817
10358SOL    HW131973   1.449   3.696   2.917
10358SOL    HW231974   1.546   3.720   2.788
10359SOL     OW31975   4.854   2.187   2.292
10359SOL    HW131976   4.786   2.114   2.298
10359SOL    HW231977   4.808   2.276   2.297
10360SOL     OW31978   4.941   4.917   2.446
10360SOL    HW131979   4.965   4.968   2.528
10360SOL    HW231980   5.017   4.858   2.420
10361SOL     OW31981   2.575   0.974   2.034
10361SOL    HW131982   2.631   0.916   2.094
10361SOL    HW231983   2.634   1.027   1.974
10362SOL     OW31984   0.746   4.630   2.942
10362SOL    HW131985   0.764   4.643   2.844
10362SOL    HW231986   0.661   4.579   2.953
10363SOL     OW31987   4.768   2.453   0.770
10363SOL    HW131988   4.697   2.522   0.758
10363SOL    HW231989   4.792   2.447   0.867
10364SOL     OW31990   5.447   4.809   1.792
10364SOL    HW131991   5.489   4.723   1.822
10364SOL    HW231992   5.361   4.790   1.746
10365SOL     OW31993   5.895   4.946   0.508
10365SOL    HW131994   5.889   5.041   0.537
10365SOL    HW231995   5.930   4.941   0.414
10366SOL     OW31996   4.577   6.878   3.468
10366SOL    HW131997   4.549   6.943   3.398
10366SOL    HW231998   4.556   6.915   3.558
10367SOL     OW31999   0.152   2.156   1.873
10367SOL    HW132000   0.086   2.123   1.805
10367SOL    HW232001   0.196   2.239   1.840
10368SOL     OW32002   2.164   1.136   2.827
10368SOL    HW132003   2.094   1.066   2.813
10368SOL    HW232004   2.245   1.111   2.774
10369SOL     OW32005   2.939   6.500   5.922
10369SOL    HW132006   2.964   6.465   5.832
10369SOL    HW232007   2.906   6.425   5.980
10370SOL     OW32008   6.335   1.510   4.822
10370SOL    HW132009   6.287   1.594   4.848
10370SOL    HW232010   6.269   1.435   4.813
10371SOL     OW32011   3.129   6.810   3.206
10371SOL    HW132012   3.200   6.877   3.185
10371SOL    HW232013   3.098   6.823   3.301
10372SOL     OW32014   2.524   0.633   1.471
10372SOL    HW132015   2.497   0.645   1.566
10372SOL    HW232016   2.581   0.710   1.442
10373SOL     OW32017   0.734   6.853   4.803
10373SOL    HW132018   0.771   6.945   4.804
10373SOL    HW232019   0.641   6.854   4.842
10374SOL     OW32020   2.950   6.804   4.792
10374SOL    HW132021   2.977   6.795   4.697
10374SOL    HW232022   2.951   6.715   4.836
10375SOL     OW32023   3.068   2.059   6.572
10375SOL    HW132024   3.038   2.044   6.478
10375SOL    HW232025   3.013   2.131   6.614
10376SOL     OW32026   1.340   5.865   3.790
10376SOL    HW132027   1.424   5.899   3.747
10376SOL    HW232028   1.268   5.933   3.779
10377SOL     OW32029   0.788   1.914   1.704
10377SOL    HW132030   0.734   1.863   1.637
10377SOL    HW232031   0.740   1.917   1.791
10378SOL     OW32032   6.842   5.412   6.067
10378SOL    HW132033   6.895   5.374   6.143
10378SOL    HW232034   6.815   5.506   6.089
10379SOL     OW32035   3.426   5.676   3.555
10379SOL    HW132036   3.489   5.726   3.614
10379SOL    HW232037   3.364   5.741   3.510
10380SOL     OW32038   1.216   2.149   5.044
10380SOL    HW132039   1.208   2.249   5.044
10380SOL    HW232040   1.152   2.111   5.111
10381SOL     OW32041   4.428   4.001   0.498
10381SOL    HW132042   4.372   4.075   0.462
10381SOL    HW232043   4.504   4.039   0.551
10382SOL     OW32044   3.091   6.444   1.756
10382SOL    HW132045   3.037   6.445   1.840
10382SOL    HW232046   3.040   6.395   1.685
10383SOL     OW32047   1.717   3.814   0.605
10383SOL    HW132048   1.740   3.725   0.643
10383SOL    HW232049   1.692   3.876   0.679
10384SOL     OW32050   6.700   6.455   0.699
10384SOL    HW132051   6.704   6.357   0.717
10384SOL    HW232052   6.662   6.502   0.778
10385SOL     OW32053   3.880   6.144   6.229
10385SOL    HW132054   3.814   6.189   6.169
10385SOL    HW232055   3.876   6.046   6.214
10386SOL     OW32056   0.836   0.988   5.690
10386SOL    HW132057   0.815   1.054   5.619
10386SOL    HW232058   0.863   0.901   5.647
10387SOL     OW32059   4.861   2.832   2.928
10387SOL    HW132060   4.884   2.793   2.839
10387SOL    HW232061   4.944   2.837   2.985
10388SOL     OW32062   2.554   6.780   0.930
10388SOL    HW132063   2.469   6.729   0.916
10388SOL    HW232064   2.548   6.868   0.882
10389SOL     OW32065   5.359   3.657   1.108
10389SOL    HW132066   5.367   3.592   1.033
10389SOL    HW232067   5.301   3.618   1.180
10390SOL     OW32068   1.482   2.633   6.783
10390SOL    HW132069   1.532   2.559   6.828
10390SOL    HW232070   1.441   2.692   6.852
10391SOL     OW32071   1.577   6.170   3.695
10391SOL    HW132072   1.583   6.112   3.776
10391SOL    HW232073   1.666   6.170   3.648
10392SOL     OW32074   5.819   5.371   5.408
10392SOL    HW132075   5.906   5.402   5.371
10392SOL    HW232076   5.792   5.428   5.485
10393SOL     OW32077   2.225   3.902   4.012
10393SOL    HW132078   2.248   3.999   4.005
10393SOL    HW232079   2.248   3.855   3.927
10394SOL     OW32080   2.267   5.586   4.603
10394SOL    HW132081   2.224   5.552   4.687
10394SOL    HW232082   2.365   5.565   4.605
10395SOL     OW32083   0.277   6.835   1.324
10395SOL    HW132084   0.376   6.820   1.335
10395SOL    HW232085   0.262   6.920   1.273
10396SOL     OW32086   4.053   1.903   3.635
10396SOL    HW132087   4.069   2.002   3.638
10396SOL    HW232088   4.135   1.855   3.664
10397SOL     OW32089   3.067   1.910   3.883
10397SOL    HW132090   2.980   1.862   3.893
10397SOL    HW232091   3.142   1.852   3.916
10398SOL     OW32092   6.320   2.571   1.185
10398SOL    HW132093   6.368   2.511   1.249
10398SOL    HW232094   6.229   2.593   1.222
10399SOL     OW32095   6.087   2.017   3.220
10399SOL    HW132096   6.082   2.114   3.198
10399SOL    HW232097   6.106   1.965   3.136
10400SOL     OW32098   4.539   5.750   0.651
10400SOL    HW132099   4.509   5.823   0.714
10400SOL    HW232100   4.548   5.788   0.559
10401SOL     OW32101   0.001   6.826   2.409
10401SOL    HW132102   6.948   6.769   2.397
10401SOL    HW232103   7.001   6.922   2.413
10402SOL     OW32104   6.743   1.877   5.342
10402SOL    HW132105   6.748   1.922   5.431
10402SOL    HW232106   6.690   1.933   5.279
10403SOL     OW32107   5.181   2.049   3.642
10403SOL    HW132108   5.229   1.977   3.691
10403SOL    HW232109   5.195   2.136   3.688
10404SOL     OW32110   6.052   5.904   4.589
10404SOL    HW132111   6.123   5.851   4.543
10404SOL    HW232112   5.966   5.896   4.539
10405SOL     OW32113   1.396   0.295   4.692
10405SOL    HW132114   1.482   0.249   4.714
10405SOL    HW232115   1.392   0.383   4.738
10406SOL     OW32116   2.345   4.731   3.317
10406SOL    HW132117   2.340   4.736   3.417
10406SOL    HW232118   2.386   4.815   3.282
10407SOL     OW32119   2.468   6.924   6.050
10407SOL    HW132120   2.453   6.964   5.959
10407SOL    HW232121   2.418   6.838   6.058
10408SOL     OW32122   4.408   6.713   1.429
10408SOL    HW132123   4.504   6.721   1.402
10408SOL    HW232124   4.379   6.798   1.473
10409SOL     OW32125   0.283   4.804   0.867
10409SOL    HW132126   0.377   4.831   0.845
10409SOL    HW232127   0.246   4.749   0.793
10410SOL     OW32128   5.454   2.176   1.882
10410SOL    HW132129   5.539   2.170   1.935
10410SOL    HW232130   5.376   2.153   1.941
10411SOL     OW32131   3.513   6.592   3.313
10411SOL    HW132132   3.559   6.640   3.238
10411SOL    HW232133   3.419   6.570   3.286
10412SOL     OW32134   0.489   1.014   6.919
10412SOL    HW132135   0.417   0.957   6.958
10412SOL    HW232136   0.462   1.043   6.827
10413SOL     OW32137   0.101   2.824   0.444
10413SOL    HW132138   0.200   2.830   0.429
10413SOL    HW232139   0.057   2.904   0.403
10414SOL     OW32140   3.959   5.258   5.776
10414SOL    HW132141   3.982   5.169   5.816
10414SOL    HW232142   4.020   5.276   5.699
10415SOL     OW32143   1.609   3.661   4.835
10415SOL    HW132144   1.537   3.637   4.769
10415SOL    HW232145   1.569   3.705   4.915
10416SOL     OW32146   6.269   0.598   5.052
10416SOL    HW132147   6.296   0.672   5.114
10416SOL    HW232148   6.183   0.558   5.085
10417SOL     OW32149   3.089   5.307   3.932
10417SOL    HW132150   3.178   5.262   3.946
10417SOL    HW232151   3.018   5.257   3.980
10418SOL     OW32152   6.886   3.735   6.919
10418SOL    HW132153   6.962   3.763   6.860
10418SOL    HW232154   6.921   3.702   7.006
10419SOL     OW32155   2.180   0.070   5.836
10419SOL    HW132156   2.271   0.035   5.816
10419SOL    HW232157   2.164   0.154   5.784
10420SOL     OW32158   0.665   4.048   4.035
10420SOL    HW132159   0.620   4.099   3.962
10420SOL    HW232160   0.747   4.004   3.999
10421SOL     OW32161   0.555   1.985   3.736
10421SOL    HW132162   0.570   1.893   3.700
10421SOL    HW232163   0.458   1.996   3.760
10422SOL     OW32164   6.098   3.182   5.344
10422SOL    HW132165   6.053   3.159   5.257
10422SOL    HW232166   6.091   3.104   5.406
10423SOL     OW32167   6.343   5.660   5.438
10423SOL    HW132168   6.401   5.650   5.518
10423SOL    HW232169   6.386   5.616   5.359
10424SOL     OW32170   5.046   2.714   0.164
10424SOL    HW132171   5.065   2.695   0.067
10424SOL    HW232172   4.994   2.799   0.172
10425SOL     OW32173   0.933   0.348   1.742
10425SOL    HW132174   0.957   0.436   1.782
10425SOL    HW232175   1.000   0.323   1.672
10426SOL     OW32176   5.709   5.091   0.842
10426SOL    HW132177   5.796   5.130   0.875
10426SOL    HW232178   5.726   5.002   0.801
10427SOL     OW32179   3.937   1.057   6.341
10427SOL    HW132180   4.010   1.125   6.337
10427SOL    HW232181   3.850   1.100   6.315
10428SOL     OW32182   3.729   1.432   3.645
10428SOL    HW132183   3.770   1.490   3.716
10428SOL    HW232184   3.634   1.412   3.669
10429SOL     OW32185   0.018   4.275   1.323
10429SOL    HW132186   7.018   4.371   1.320
10429SOL    HW232187   0.079   4.255   1.246
10430SOL     OW32188   4.874   0.266   4.293
10430SOL    HW132189   4.889   0.325   4.372
10430SOL    HW232190   4.954   0.269   4.233
10431SOL     OW32191   3.056   6.207   4.399
10431SOL    HW132192   3.049   6.192   4.498
10431SOL    HW232193   2.965   6.200   4.358
10432SOL     OW32194   5.531   6.788   5.016
10432SOL    HW132195   5.463   6.758   4.948
10432SOL    HW232196   5.606   6.722   5.018
10433SOL     OW32197   1.162   5.741   1.507
10433SOL    HW132198   1.172   5.650   1.549
10433SOL    HW232199   1.065   5.762   1.496
10434SOL     OW32200   4.155   6.437   3.194
10434SOL    HW132201   4.074   6.494   3.205
10434SOL    HW232202   4.236   6.496   3.189
10435SOL     OW32203   6.756   0.916   4.998
10435SOL    HW132204   6.734   0.857   5.075
10435SOL    HW232205   6.723   1.009   5.017
10436SOL     OW32206   0.750   5.084   5.711
10436SOL    HW132207   0.829   5.087   5.650
10436SOL    HW232208   0.705   4.995   5.703
10437SOL     OW32209   4.828   4.295   5.502
10437SOL    HW132210   4.894   4.245   5.558
10437SOL    HW232211   4.786   4.233   5.436
10438SOL     OW32212   6.264   6.514   0.265
10438SOL    HW132213   6.209   6.440   0.225
10438SOL    HW232214   6.331   6.475   0.328
10439SOL     OW32215   3.952   0.852   5.409
10439SOL    HW132216   4.020   0.903   5.461
10439SOL    HW232217   3.894   0.800   5.472
10440SOL     OW32218   1.339   0.082   0.184
10440SOL    HW132219   1.437   0.091   0.167
10440SOL    HW232220   1.324   0.071   0.282
10441SOL     OW32221   2.927   0.406   1.463
10441SOL    HW132222   3.008   0.387   1.407
10441SOL    HW232223   2.948   0.478   1.529
10442SOL     OW32224   3.120   6.649   6.080
10442SOL    HW132225   3.080   6.604   6.000
10442SOL    HW232226   3.056   6.644   6.157
10443SOL     OW32227   4.729   4.315   4.511
10443SOL    HW132228   4.703   4.300   4.606
10443SOL    HW232229   4.673   4.389   4.472
10444SOL     OW32230   4.070   6.535   4.373
10444SOL    HW132231   4.008   6.595   4.424
10444SOL    HW232232   4.112   6.470   4.436
10445SOL     OW32233   0.802   4.998   4.702
10445SOL    HW132234   0.813   4.917   4.644
10445SOL    HW232235   0.727   5.054   4.668
10446SOL     OW32236   1.764   2.935   5.270
10446SOL    HW132237   1.672   2.970   5.289
10446SOL    HW232238   1.771   2.840   5.301
10447SOL     OW32239   0.655   0.716   1.739
10447SOL    HW132240   0.724   0.696   1.669
10447SOL    HW232241   0.602   0.796   1.711
10448SOL     OW32242   3.638   0.911   2.455
10448SOL    HW132243   3.601   0.861   2.377
10448SOL    HW232244   3.711   0.972   2.424
10449SOL     OW32245   2.453   5.389   4.834
10449SOL    HW132246   2.413   5.456   4.897
10449SOL    HW232247   2.418   5.298   4.855
10450SOL     OW32248   0.592   1.729   0.636
10450SOL    HW132249   0.691   1.736   0.621
10450SOL    HW232250   0.564   1.795   0.706
10451SOL     OW32251   1.035   5.805   2.184
10451SOL    HW132252   1.076   5.715   2.172
10451SOL    HW232253   0.935   5.795   2.192
10452SOL     OW32254   6.590   3.708   2.433
10452SOL    HW132255   6.558   3.800   2.410
10452SOL    HW232256   6.575   3.647   2.356
10453SOL     OW32257   3.617   6.206   1.438
10453SOL    HW132258   3.703   6.183   1.394
10453SOL    HW232259   3.563   6.264   1.377
10454SOL     OW32260   4.564   3.488   0.817
10454SOL    HW132261   4.636   3.534   0.869
10454SOL    HW232262   4.475   3.511   0.855
10455SOL     OW32263   6.418   6.142   3.462
10455SOL    HW132264   6.351   6.103   3.399
10455SOL    HW232265   6.489   6.075   3.482
10456SOL     OW32266   3.411   6.568   1.074
10456SOL    HW132267   3.312   6.562   1.088
10456SOL    HW232268   3.453   6.480   1.095
10457SOL     OW32269   3.132   3.533   1.808
10457SOL    HW132270   3.080   3.467   1.862
10457SOL    HW232271   3.215   3.489   1.774
10458SOL     OW32272   0.464   1.288   6.160
10458SOL    HW132273   0.560   1.271   6.138
10458SOL    HW232274   0.448   1.387   6.165
10459SOL     OW32275   4.519   5.852   1.376
10459SOL    HW132276   4.545   5.946   1.398
10459SOL    HW232277   4.522   5.797   1.459
10460SOL     OW32278   1.383   4.440   1.556
10460SOL    HW132279   1.335   4.528   1.558
10460SOL    HW232280   1.481   4.455   1.570
10461SOL     OW32281   1.003   5.123   5.520
10461SOL    HW132282   1.002   5.163   5.428
10461SOL    HW232283   1.021   5.025   5.512
10462SOL     OW32284   6.275   2.227   3.674
10462SOL    HW132285   6.195   2.226   3.613
10462SOL    HW232286   6.296   2.133   3.702
10463SOL     OW32287   3.731   3.007   5.595
10463SOL    HW132288   3.653   2.956   5.559
10463SOL    HW232289   3.791   2.946   5.646
10464SOL     OW32290   6.519   6.772   1.296
10464SOL    HW132291   6.513   6.804   1.391
10464SOL    HW232292   6.615   6.773   1.267
10465SOL     OW32293   6.893   5.881   1.507
10465SOL    HW132294   6.887   5.802   1.446
10465SOL    HW232295   6.897   5.850   1.602
10466SOL     OW32296   4.509   5.307   6.053
10466SOL    HW132297   4.519   5.227   5.994
10466SOL    HW232298   4.569   5.298   6.132
10467SOL     OW32299   1.561   2.303   5.818
10467SOL    HW132300   1.581   2.401   5.812
10467SOL    HW232301   1.567   2.274   5.913
10468SOL     OW32302   3.905   4.803   2.693
10468SOL    HW132303   3.970   4.872   2.665
10468SOL    HW232304   3.925   4.775   2.787
10469SOL     OW32305   3.968   3.483   5.901
10469SOL    HW132306   3.925   3.443   5.982
10469SOL    HW232307   4.031   3.555   5.929
10470SOL     OW32308   2.822   2.319   3.910
10470SOL    HW132309   2.845   2.385   3.839
10470SOL    HW232310   2.800   2.231   3.869
10471SOL     OW32311   2.560   2.338   1.149
10471SOL    HW132312   2.518   2.294   1.068
10471SOL    HW232313   2.563   2.437   1.135
10472SOL     OW32314   3.177   5.411   0.603
10472SOL    HW132315   3.230   5.421   0.519
10472SOL    HW232316   3.106   5.481   0.607
10473SOL     OW32317   6.137   0.943   0.243
10473SOL    HW132318   6.236   0.932   0.256
10473SOL    HW232319   6.119   0.982   0.153
10474SOL     OW32320   4.211   1.627   4.480
10474SOL    HW132321   4.244   1.704   4.424
10474SOL    HW232322   4.171   1.558   4.420
10475SOL     OW32323   5.156   6.875   2.793
10475SOL    HW132324   5.187   6.794   2.844
10475SOL    HW232325   5.132   6.948   2.857
10476SOL     OW32326   0.267   6.246   6.790
10476SOL    HW132327   0.303   6.180   6.724
10476SOL    HW232328   0.232   6.326   6.741
10477SOL     OW32329   6.291   1.392   4.383
10477SOL    HW132330   6.299   1.292   4.382
10477SOL    HW232331   6.352   1.429   4.452
10478SOL     OW32332   0.338   0.831   0.899
10478SOL    HW132333   0.305   0.880   0.819
10478SOL    HW232334   0.275   0.757   0.921
10479SOL     OW32335   0.493   2.683   1.850
10479SOL    HW132336   0.493   2.782   1.854
10479SOL    HW232337   0.480   2.646   1.943
10480SOL     OW32338   6.376   0.668   1.717
10480SOL    HW132339   6.469   0.676   1.681
10480SOL    HW232340   6.380   0.644   1.814
10481SOL     OW32341   2.579   7.024   4.626
10481SOL    HW132342   2.603   0.093   4.625
10481SOL    HW232343   2.590   6.987   4.718
10482SOL     OW32344   0.198   5.752   4.451
10482SOL    HW132345   0.272   5.721   4.511
10482SOL    HW232346   0.167   5.676   4.393
10483SOL     OW32347   0.160   5.587   0.702
10483SOL    HW132348   0.231   5.552   0.640
10483SOL    HW232349   0.112   5.663   0.657
10484SOL     OW32350   5.905   1.107   1.496
10484SOL    HW132351   5.889   1.092   1.594
10484SOL    HW232352   5.985   1.165   1.484
10485SOL     OW32353   3.238   3.616   2.128
10485SOL    HW132354   3.310   3.577   2.070
10485SOL    HW232355   3.151   3.572   2.107
10486SOL     OW32356   6.457   0.504   5.828
10486SOL    HW132357   6.457   0.404   5.833
10486SOL    HW232358   6.418   0.532   5.740
10487SOL     OW32359   4.245   2.015   1.776
10487SOL    HW132360   4.147   2.031   1.771
10487SOL    HW232361   4.294   2.099   1.749
10488SOL     OW32362   2.023   1.824   6.343
10488SOL    HW132363   2.041   1.866   6.253
10488SOL    HW232364   2.071   1.736   6.348
10489SOL     OW32365   5.986   6.667   3.684
10489SOL    HW132366   6.001   6.620   3.597
10489SOL    HW232367   6.057   6.737   3.697
10490SOL     OW32368   5.912   1.889   0.435
10490SOL    HW132369   5.886   1.962   0.498
10490SOL    HW232370   5.830   1.841   0.404
10491SOL     OW32371   2.113   2.124   5.212
10491SOL    HW132372   2.133   2.190   5.140
10491SOL    HW232373   2.146   2.034   5.185
10492SOL     OW32374   4.853   6.219   1.153
10492SOL    HW132375   4.813   6.258   1.236
10492SOL    HW232376   4.783   6.169   1.102
10493SOL     OW32377   2.472   6.421   1.771
10493SOL    HW132378   2.561   6.385   1.743
10493SOL    HW232379   2.463   6.516   1.740
10494SOL     OW32380   6.012   4.646   6.027
10494SOL    HW132381   5.972   4.717   5.970
10494SOL    HW232382   6.080   4.687   6.089
10495SOL     OW32383   0.128   0.277   0.915
10495SOL    HW132384   0.112   0.302   0.819
10495SOL    HW232385   0.145   0.179   0.922
10496SOL     OW32386   6.261   4.804   6.208
10496SOL    HW132387   6.301   4.743   6.276
10496SOL    HW232388   6.333   4.853   6.159
10497SOL     OW32389   0.993   6.705   2.326
10497SOL    HW132390   0.902   6.709   2.286
10497SOL    HW232391   1.023   6.798   2.350
10498SOL     OW32392   5.786   5.838   0.785
10498SOL    HW132393   5.867   5.875   0.830
10498SOL    HW232394   5.766   5.890   0.703
10499SOL     OW32395   4.347   0.214   1.891
10499SOL    HW132396   4.369   0.127   1.847
10499SOL    HW232397   4.248   0.225   1.896
10500SOL     OW32398   5.920   2.002   5.955
10500SOL    HW132399   5.904   1.938   5.880
10500SOL    HW232400   5.932   2.094   5.918
10501SOL     OW32401   2.402   5.766   2.038
10501SOL    HW132402   2.306   5.790   2.051
10501SOL    HW232403   2.441   5.822   1.964
10502SOL     OW32404   2.677   3.521   0.771
10502SOL    HW132405   2.688   3.615   0.806
10502SOL    HW232406   2.601   3.477   0.818
10503SOL     OW32407   5.899   3.648   0.655
10503SOL    HW132408   5.865   3.575   0.596
10503SOL    HW232409   5.825   3.682   0.713
10504SOL     OW32410   0.409   2.926   5.377
10504SOL    HW132411   0.434   2.970   5.291
10504SOL    HW232412   0.337   2.859   5.360
10505SOL     OW32413   5.710   6.371   1.470
10505SOL    HW132414   5.621   6.411   1.450
10505SOL    HW232415   5.753   6.421   1.546
10506SOL     OW32416   0.570   3.619   6.755
10506SOL    HW132417   0.551   3.692   6.689
10506SOL    HW232418   0.497   3.616   6.823
10507SOL     OW32419   2.679   5.265   0.172
10507SOL    HW132420   2.641   5.326   0.242
10507SOL    HW232421   2.749   5.315   0.120
10508SOL     OW32422   0.665   6.011   3.943
10508SOL    HW132423   0.603   6.039   4.016
10508SOL    HW232424   0.667   6.081   3.872
10509SOL     OW32425   6.380   4.873   4.861
10509SOL    HW132426   6.343   4.937   4.929
10509SOL    HW232427   6.384   4.781   4.901
10510SOL     OW32428   4.340   6.332   0.446
10510SOL    HW132429   4.266   6.378   0.495
10510SOL    HW232430   4.337   6.234   0.464
10511SOL     OW32431   3.086   1.450   2.237
10511SOL    HW132432   3.065   1.425   2.332
10511SOL    HW232433   3.041   1.536   2.214
10512SOL     OW32434   3.653   0.216   6.090
10512SOL    HW132435   3.605   0.163   6.159
10512SOL    HW232436   3.613   0.200   6.000
10513SOL     OW32437   6.498   3.076   2.928
10513SOL    HW132438   6.405   3.083   2.965
10513SOL    HW232439   6.495   3.028   2.840
10514SOL     OW32440   1.415   2.022   1.640
10514SOL    HW132441   1.496   1.963   1.647
10514SOL    HW232442   1.347   1.978   1.581
10515SOL     OW32443   1.516   3.410   4.365
10515SOL    HW132444   1.498   3.312   4.373
10515SOL    HW232445   1.513   3.437   4.269
10516SOL     OW32446   2.716   1.759   0.184
10516SOL    HW132447   2.714   1.849   0.227
10516SOL    HW232448   2.655   1.758   0.105
10517SOL     OW32449   1.518   3.789   1.567
10517SOL    HW132450   1.422   3.806   1.589
10517SOL    HW232451   1.569   3.776   1.652
10518SOL     OW32452   6.929   6.130   1.786
10518SOL    HW132453   6.953   6.131   1.884
10518SOL    HW232454   6.914   6.224   1.755
10519SOL     OW32455   2.848   4.319   0.326
10519SOL    HW132456   2.779   4.372   0.376
10519SOL    HW232457   2.810   4.291   0.238
10520SOL     OW32458   0.011   2.497   5.754
10520SOL    HW132459   6.963   2.461   5.809
10520SOL    HW232460   7.005   2.521   5.663
10521SOL     OW32461   0.285   5.655   1.487
10521SOL    HW132462   0.312   5.599   1.565
10521SOL    HW232463   0.189   5.638   1.465
10522SOL     OW32464   0.061   2.865   3.546
10522SOL    HW132465   0.134   2.894   3.484
10522SOL    HW232466   0.083   2.776   3.584
10523SOL     OW32467   0.468   4.364   3.794
10523SOL    HW132468   0.394   4.365   3.726
10523SOL    HW232469   0.492   4.457   3.818
10524SOL     OW32470   0.521   6.120   4.160
10524SOL    HW132471   0.449   6.050   4.152
10524SOL    HW232472   0.498   6.182   4.235
10525SOL     OW32473   4.080   0.111   5.340
10525SOL    HW132474   4.114   0.069   5.256
10525SOL    HW232475   3.998   0.164   5.319
10526SOL     OW32476   0.885   6.793   1.338
10526SOL    HW132477   0.862   6.804   1.241
10526SOL    HW232478   0.921   6.879   1.374
10527SOL     OW32479   1.189   0.892   5.977
10527SOL    HW132480   1.175   0.809   6.031
10527SOL    HW232481   1.100   0.934   5.957
10528SOL     OW32482   1.125   4.196   6.247
10528SOL    HW132483   1.215   4.226   6.277
10528SOL    HW232484   1.126   4.098   6.229
10529SOL     OW32485   2.182   6.013   4.396
10529SOL    HW132486   2.196   5.921   4.360
10529SOL    HW232487   2.181   6.079   4.321
10530SOL     OW32488   1.007   6.752   6.099
10530SOL    HW132489   1.061   6.670   6.114
10530SOL    HW232490   1.051   6.808   6.028
10531SOL     OW32491   2.996   2.240   4.363
10531SOL    HW132492   2.954   2.302   4.297
10531SOL    HW232493   2.928   2.214   4.432
10532SOL     OW32494   0.007   6.653   6.356
10532SOL    HW132495   6.968   6.722   6.383
10532SOL    HW232496   0.036   6.601   6.437
10533SOL     OW32497   3.278   5.950   3.710
10533SOL    HW132498   3.202   5.888   3.733
10533SOL    HW232499   3.300   5.940   3.613
10534SOL     OW32500   6.603   5.235   2.247
10534SOL    HW132501   6.545   5.179   2.188
10534SOL    HW232502   6.698   5.232   2.214
10535SOL     OW32503   1.982   1.826   1.999
10535SOL    HW132504   1.977   1.767   1.919
10535SOL    HW232505   2.055   1.794   2.060
10536SOL     OW32506   4.654   0.755   4.120
10536SOL    HW132507   4.567   0.798   4.142
10536SOL    HW232508   4.645   0.656   4.126
10537SOL     OW32509   5.030   6.435   3.962
10537SOL    HW132510   5.123   6.463   3.937
10537SOL    HW232511   5.023   6.429   4.061
10538SOL     OW32512   6.436   3.245   0.743
10538SOL    HW132513   6.503   3.286   0.805
10538SOL    HW232514   6.401   3.315   0.681
10539SOL     OW32515   6.224   5.340   1.164
10539SOL    HW132516   6.238   5.364   1.068
10539SOL    HW232517   6.303   5.370   1.217
10540SOL     OW32518   2.155   2.828   5.415
10540SOL    HW132519   2.121   2.908   5.366
10540SOL    HW232520   2.249   2.844   5.445
10541SOL     OW32521   4.020   3.415   3.476
10541SOL    HW132522   3.942   3.476   3.461
10541SOL    HW232523   4.103   3.458   3.441
10542SOL     OW32524   6.546   0.489   5.129
10542SOL    HW132525   6.547   0.396   5.092
10542SOL    HW232526   6.457   0.532   5.110
10543SOL     OW32527   0.888   1.882   4.208
10543SOL    HW132528   0.909   1.891   4.110
10543SOL    HW232529   0.929   1.797   4.242
10544SOL     OW32530   2.146   5.815   1.965
10544SOL    HW132531   2.172   5.813   1.869
10544SOL    HW232532   2.046   5.812   1.974
10545SOL     OW32533   2.050   2.331   1.772
10545SOL    HW132534   2.006   2.252   1.730
10545SOL    HW232535   1.981   2.398   1.800
10546SOL     OW32536   3.130   6.566   1.069
10546SOL    HW132537   3.083   6.601   1.150
10546SOL    HW232538   3.106   6.622   0.990
10547SOL     OW32539   5.256   2.647   4.012
10547SOL    HW132540   5.276   2.698   4.096
10547SOL    HW232541   5.319   2.677   3.939
10548SOL     OW32542   0.307   4.464   4.098
10548SOL    HW132543   0.333   4.472   4.194
10548SOL    HW232544   0.296   4.368   4.074
10549SOL     OW32545   0.470   1.479   0.381
10549SOL    HW132546   0.534   1.425   0.436
10549SOL    HW232547   0.398   1.419   0.346
10550SOL     OW32548   4.729   6.405   3.747
10550SOL    HW132549   4.673   6.358   3.679
10550SOL    HW232550   4.793   6.340   3.788
10551SOL     OW32551   1.557   2.078   6.815
10551SOL    HW132552   1.458   2.081   6.800
10551SOL    HW232553   1.595   2.170   6.799
10552SOL     OW32554   1.956   0.975   5.228
10552SOL    HW132555   1.977   1.068   5.197
10552SOL    HW232556   1.862   0.952   5.202
10553SOL     OW32557   0.549   4.631   1.128
10553SOL    HW132558   0.628   4.679   1.089
10553SOL    HW232559   0.577   4.540   1.158
10554SOL     OW32560   5.174   5.309   1.981
10554SOL    HW132561   5.118   5.328   2.062
10554SOL    HW232562   5.206   5.214   1.985
10555SOL     OW32563   2.561   2.611   1.128
10555SOL    HW132564   2.571   2.601   1.029
10555SOL    HW232565   2.559   2.708   1.151
10556SOL     OW32566   3.068   0.857   3.767
10556SOL    HW132567   3.027   0.901   3.847
10556SOL    HW232568   3.146   0.802   3.795
10557SOL     OW32569   1.573   3.203   3.758
10557SOL    HW132570   1.632   3.281   3.739
10557SOL    HW232571   1.622   3.138   3.816
10558SOL     OW32572   3.706   5.598   6.068
10558SOL    HW132573   3.725   5.686   6.025
10558SOL    HW232574   3.762   5.528   6.025
10559SOL     OW32575   3.777   7.006   1.826
10559SOL    HW132576   3.822   6.930   1.873
10559SOL    HW232577   3.693   6.973   1.783
10560SOL     OW32578   4.900   0.200   2.882
10560SOL    HW132579   4.853   0.150   2.955
10560SOL    HW232580   4.860   0.176   2.794
10561SOL     OW32581   3.897   4.307   1.491
10561SOL    HW132582   3.991   4.284   1.467
10561SOL    HW232583   3.841   4.313   1.408
10562SOL     OW32584   4.572   5.392   0.513
10562SOL    HW132585   4.625   5.465   0.468
10562SOL    HW232586   4.632   5.341   0.574
10563SOL     OW32587   0.933   0.726   1.536
10563SOL    HW132588   0.990   0.655   1.496
10563SOL    HW232589   0.983   0.771   1.610
10564SOL     OW32590   5.412   6.577   3.573
10564SOL    HW132591   5.436   6.639   3.499
10564SOL    HW232592   5.432   6.483   3.546
10565SOL     OW32593   6.730   6.299   5.311
10565SOL    HW132594   6.790   6.379   5.309
10565SOL    HW232595   6.636   6.327   5.291
10566SOL     OW32596   3.316   1.738   6.385
10566SOL    HW132597   3.287   1.647   6.414
10566SOL    HW232598   3.343   1.792   6.464
10567SOL     OW32599   1.956   2.906   5.710
10567SOL    HW132600   2.035   2.854   5.676
10567SOL    HW232601   1.877   2.887   5.652
10568SOL     OW32602   6.050   2.774   0.984
10568SOL    HW132603   6.072   2.739   1.074
10568SOL    HW232604   6.014   2.867   0.993
10569SOL     OW32605   5.837   0.568   1.956
10569SOL    HW132606   5.905   0.569   2.030
10569SOL    HW232607   5.830   0.660   1.916
10570SOL     OW32608   1.527   4.532   3.742
10570SOL    HW132609   1.479   4.619   3.727
10570SOL    HW232610   1.609   4.529   3.685
10571SOL     OW32611   6.898   4.232   5.118
10571SOL    HW132612   6.984   4.272   5.150
10571SOL    HW232613   6.827   4.302   5.119
10572SOL     OW32614   0.034   4.837   2.788
10572SOL    HW132615   7.008   4.801   2.712
10572SOL    HW232616   0.042   4.767   2.859
10573SOL     OW32617   4.996   0.447   4.750
10573SOL    HW132618   4.902   0.455   4.784
10573SOL    HW232619   5.006   0.501   4.666
10574SOL     OW32620   0.202   1.777   4.306
10574SOL    HW132621   0.214   1.876   4.319
10574SOL    HW232622   0.172   1.736   4.392
10575SOL     OW32623   6.956   1.016   3.389
10575SOL    HW132624   6.903   1.075   3.327
10575SOL    HW232625   6.912   0.927   3.395
10576SOL     OW32626   0.502   6.101   3.149
10576SOL    HW132627   0.460   6.188   3.173
10576SOL    HW232628   0.553   6.066   3.228
10577SOL     OW32629   1.783   4.446   0.271
10577SOL    HW132630   1.845   4.467   0.195
10577SOL    HW232631   1.715   4.519   0.279
10578SOL     OW32632   4.503   1.185   3.081
10578SOL    HW132633   4.420   1.187   3.137
10578SOL    HW232634   4.533   1.279   3.063
10579SOL     OW32635   3.695   3.152   1.728
10579SOL    HW132636   3.738   3.071   1.768
10579SOL    HW232637   3.691   3.225   1.796
10580SOL     OW32638   6.258   6.258   6.015
10580SOL    HW132639   6.307   6.170   6.012
10580SOL    HW232640   6.198   6.264   5.935
10581SOL     OW32641   5.724   0.752   2.383
10581SOL    HW132642   5.667   0.761   2.464
10581SOL    HW232643   5.676   0.790   2.304
10582SOL     OW32644   4.642   4.792   6.395
10582SOL    HW132645   4.651   4.723   6.323
10582SOL    HW232646   4.545   4.812   6.410
10583SOL     OW32647   4.593   0.498   4.171
10583SOL    HW132648   4.507   0.494   4.121
10583SOL    HW232649   4.586   0.443   4.254
10584SOL     OW32650   6.400   0.327   6.954
10584SOL    HW132651   6.449   0.391   6.895
10584SOL    HW232652   6.454   0.244   6.966
10585SOL     OW32653   2.431   1.873   5.608
10585SOL    HW132654   2.343   1.872   5.656
10585SOL    HW232655   2.473   1.963   5.619
10586SOL     OW32656   4.986   5.398   6.010
10586SOL    HW132657   5.023   5.305   6.013
10586SOL    HW232658   5.032   5.455   6.078
10587SOL     OW32659   6.699   4.739   6.987
10587SOL    HW132660   6.686   4.647   7.026
10587SOL    HW232661   6.653   4.806   0.016
10588SOL     OW32662   1.646   1.877   4.944
10588SOL    HW132663   1.598   1.869   4.857
10588SOL    HW232664   1.620   1.962   4.989
10589SOL     OW32665   5.254   0.384   4.695
10589SOL    HW132666   5.157   0.394   4.715
10589SOL    HW232667   5.307   0.450   4.748
10590SOL     OW32668   0.317   0.016   1.156
10590SOL    HW132669   0.417   0.019   1.159
10590SOL    HW232670   0.280   0.087   1.215
10591SOL     OW32671   2.086   2.191   0.582
10591SOL    HW132672   2.173   2.178   0.535
10591SOL    HW232673   2.100   2.251   0.661
10592SOL     OW32674   5.551   3.503   4.463
10592SOL    HW132675   5.468   3.519   4.516
10592SOL    HW232676   5.528   3.490   4.367
10593SOL     OW32677   2.949   5.913   0.783
10593SOL    HW132678   2.932   5.981   0.854
10593SOL    HW232679   2.889   5.931   0.705
10594SOL     OW32680   4.857   1.662   2.878
10594SOL    HW132681   4.862   1.684   2.975
10594SOL    HW232682   4.871   1.746   2.825
10595SOL     OW32683   5.986   6.986   0.006
10595SOL    HW132684   5.891   7.016   7.020
10595SOL    HW232685   6.032   0.021   0.069
10596SOL     OW32686   4.472   0.846   0.052
10596SOL    HW132687   4.467   0.942   0.077
10596SOL    HW232688   4.379   0.811   0.035
10597SOL     OW32689   3.045   1.358   5.909
10597SOL    HW132690   3.060   1.288   5.979
10597SOL    HW232691   3.133   1.392   5.875
10598SOL     OW32692   3.293   2.607   6.902
10598SOL    HW132693   3.246   2.685   6.860
10598SOL    HW232694   3.230   2.560   6.964
10599SOL     OW32695   6.233   3.574   6.960
10599SOL    HW132696   6.202   3.668   6.950
10599SOL    HW232697   6.199   3.520   6.882
10600SOL     OW32698   3.398   2.659   1.700
10600SOL    HW132699   3.361   2.643   1.609
10600SOL    HW232700   3.422   2.572   1.742
10601SOL     OW32701   1.893   4.757   5.819
10601SOL    HW132702   1.980   4.774   5.772
10601SOL    HW232703   1.870   4.836   5.876
10602SOL     OW32704   1.161   1.054   1.016
10602SOL    HW132705   1.225   1.071   1.091
10602SOL    HW232706   1.195   0.981   0.958
10603SOL     OW32707   4.442   0.152   3.196
10603SOL    HW132708   4.453   0.170   3.098
10603SOL    HW232709   4.531   0.133   3.237
10604SOL     OW32710   6.593   5.426   4.860
10604SOL    HW132711   6.524   5.435   4.788
10604SOL    HW232712   6.610   5.516   4.900
10605SOL     OW32713   2.139   6.396   6.642
10605SOL    HW132714   2.147   6.331   6.566
10605SOL    HW232715   2.163   6.488   6.610
10606SOL     OW32716   7.001   0.928   1.383
10606SOL    HW132717   6.981   0.989   1.306
10606SOL    HW232718   0.062   0.951   1.422
10607SOL     OW32719   3.967   4.777   0.461
10607SOL    HW132720   3.958   4.749   0.557
10607SOL    HW232721   4.035   4.719   0.416
10608SOL     OW32722   6.941   3.487   4.273
10608SOL    HW132723   6.930   3.573   4.322
10608SOL    HW232724   7.018   3.493   4.210
10609SOL     OW32725   2.993   6.948   6.724
10609SOL    HW132726   2.959   6.878   6.661
10609SOL    HW232727   3.092   6.935   6.736
10610SOL     OW32728   0.526   2.146   4.012
10610SOL    HW132729   0.490   2.238   4.027
10610SOL    HW232730   0.596   2.148   3.940
10611SOL     OW32731   2.736   4.775   6.662
10611SOL    HW132732   2.683   4.828   6.728
10611SOL    HW232733   2.740   4.825   6.576
10612SOL     OW32734   4.977   2.028   4.231
10612SOL    HW132735   4.945   2.108   4.179
10612SOL    HW232736   4.992   2.055   4.326
10613SOL     OW32737   6.726   5.923   5.547
10613SOL    HW132738   6.764   5.869   5.472
10613SOL    HW232739   6.739   5.874   5.634
10614SOL     OW32740   5.085   1.107   4.229
10614SOL    HW132741   5.162   1.091   4.291
10614SOL    HW232742   5.030   1.023   4.222
10615SOL     OW32743   3.148   1.056   5.702
10615SOL    HW132744   3.144   0.988   5.775
10615SOL    HW232745   3.064   1.110   5.701
10616SOL     OW32746   3.225   6.267   0.054
10616SOL    HW132747   3.288   6.341   0.031
10616SOL    HW232748   3.136   6.305   0.077
10617SOL     OW32749   2.979   4.024   1.399
10617SOL    HW132750   3.009   4.119   1.411
10617SOL    HW232751   3.010   3.990   1.310
10618SOL     OW32752   1.609   4.632   5.817
10618SOL    HW132753   1.706   4.656   5.807
10618SOL    HW232754   1.601   4.540   5.855
10619SOL     OW32755   0.503   2.826   3.390
10619SOL    HW132756   0.562   2.802   3.313
10619SOL    HW232757   0.409   2.837   3.358
10620SOL     OW32758   1.259   0.022   4.825
10620SOL    HW132759   1.212   0.007   4.739
10620SOL    HW232760   1.251   0.119   4.850
10621SOL     OW32761   0.784   4.435   2.116
10621SOL    HW132762   0.702   4.491   2.113
10621SOL    HW232763   0.767   4.353   2.170
10622SOL     OW32764   4.560   2.380   2.186
10622SOL    HW132765   4.602   2.470   2.182
10622SOL    HW232766   4.482   2.376   2.123
10623SOL     OW32767   6.713   5.387   5.569
10623SOL    HW132768   6.770   5.464   5.599
10623SOL    HW232769   6.617   5.414   5.571
10624SOL     OW32770   0.423   2.733   5.781
10624SOL    HW132771   0.446   2.806   5.718
10624SOL    HW232772   0.451   2.759   5.874
10625SOL     OW32773   0.625   4.028   1.359
10625SOL    HW132774   0.657   3.989   1.445
10625SOL    HW232775   0.652   4.124   1.354
10626SOL     OW32776   3.528   2.974   0.943
10626SOL    HW132777   3.578   2.924   1.013
10626SOL    HW232778   3.510   3.067   0.975
10627SOL     OW32779   5.605   1.550   0.022
10627SOL    HW132780   5.635   1.463   7.010
10627SOL    HW232781   5.647   1.625   7.000
10628SOL     OW32782   4.388   6.787   1.065
10628SOL    HW132783   4.318   6.748   1.124
10628SOL    HW232784   4.397   6.731   0.983
10629SOL     OW32785   2.686   5.248   4.264
10629SOL    HW132786   2.594   5.283   4.281
10629SOL    HW232787   2.689   5.150   4.286
10630SOL     OW32788   6.291   1.839   2.477
10630SOL    HW132789   6.230   1.798   2.410
10630SOL    HW232790   6.383   1.804   2.466
10631SOL     OW32791   4.100   4.553   5.379
10631SOL    HW132792   4.104   4.518   5.472
10631SOL    HW232793   4.096   4.477   5.314
10632SOL     OW32794   5.135   6.652   3.673
10632SOL    HW132795   5.119   6.683   3.767
10632SOL    HW232796   5.229   6.672   3.646
10633SOL     OW32797   2.527   2.739   1.485
10633SOL    HW132798   2.504   2.723   1.581
10633SOL    HW232799   2.446   2.722   1.429
10634SOL     OW32800   2.279   4.798   0.510
10634SOL    HW132801   2.201   4.855   0.483
10634SOL    HW232802   2.364   4.845   0.485
10635SOL     OW32803   1.882   3.284   6.495
10635SOL    HW132804   1.940   3.343   6.439
10635SOL    HW232805   1.879   3.320   6.588
10636SOL     OW32806   0.752   2.153   1.483
10636SOL    HW132807   0.783   2.159   1.578
10636SOL    HW232808   0.754   2.058   1.453
10637SOL     OW32809   1.102   4.932   6.104
10637SOL    HW132810   1.100   4.988   6.187
10637SOL    HW232811   1.016   4.943   6.054
10638SOL     OW32812   5.469   6.607   2.778
10638SOL    HW132813   5.414   6.600   2.862
10638SOL    HW232814   5.480   6.703   2.753
10639SOL     OW32815   0.826   3.837   2.574
10639SOL    HW132816   0.905   3.899   2.565
10639SOL    HW232817   0.751   3.871   2.518
10640SOL     OW32818   4.531   0.381   3.565
10640SOL    HW132819   4.464   0.372   3.492
10640SOL    HW232820   4.624   0.370   3.528
10641SOL     OW32821   2.436   1.706   2.701
10641SOL    HW132822   2.502   1.632   2.698
10641SOL    HW232823   2.406   1.722   2.795
10642SOL     OW32824   6.642   1.565   0.604
10642SOL    HW132825   6.587   1.574   0.687
10642SOL    HW232826   6.734   1.600   0.621
10643SOL     OW32827   2.419   5.596   5.022
10643SOL    HW132828   2.327   5.622   5.053
10643SOL    HW232829   2.456   5.669   4.964
10644SOL     OW32830   5.270   3.000   0.975
10644SOL    HW132831   5.330   2.969   1.049
10644SOL    HW232832   5.222   2.922   0.935
10645SOL     OW32833   1.525   3.087   4.398
10645SOL    HW132834   1.456   3.019   4.375
10645SOL    HW232835   1.591   3.095   4.323
10646SOL     OW32836   0.278   0.329   5.713
10646SOL    HW132837   0.327   0.309   5.627
10646SOL    HW232838   0.195   0.380   5.693
10647SOL     OW32839   2.924   5.354   4.434
10647SOL    HW132840   2.851   5.314   4.379
10647SOL    HW232841   3.011   5.343   4.387
10648SOL     OW32842   6.061   4.672   6.578
10648SOL    HW132843   6.155   4.655   6.605
10648SOL    HW232844   6.059   4.715   6.487
10649SOL     OW32845   0.514   4.074   3.251
10649SOL    HW132846   0.501   3.975   3.243
10649SOL    HW232847   0.425   4.118   3.261
10650SOL     OW32848   0.729   0.560   3.837
10650SOL    HW132849   0.658   0.525   3.898
10650SOL    HW232850   0.697   0.556   3.743
10651SOL     OW32851   6.581   6.448   6.634
10651SOL    HW132852   6.488   6.447   6.669
10651SOL    HW232853   6.629   6.365   6.662
10652SOL     OW32854   2.643   6.162   6.135
10652SOL    HW132855   2.705   6.214   6.076
10652SOL    HW232856   2.696   6.097   6.190
10653SOL     OW32857   4.159   5.659   4.239
10653SOL    HW132858   4.256   5.636   4.248
10653SOL    HW232859   4.148   5.758   4.233
10654SOL     OW32860   5.400   0.128   6.676
10654SOL    HW132861   5.328   0.096   6.737
10654SOL    HW232862   5.435   0.051   6.623
10655SOL     OW32863   2.088   5.600   0.109
10655SOL    HW132864   2.067   5.583   0.013
10655SOL    HW232865   2.039   5.682   0.140
10656SOL     OW32866   6.900   1.984   2.480
10656SOL    HW132867   6.906   1.995   2.580
10656SOL    HW232868   6.871   2.070   2.439
10657SOL     OW32869   5.960   0.598   5.054
10657SOL    HW132870   5.944   0.676   4.993
10657SOL    HW232871   5.934   0.514   5.008
10658SOL     OW32872   6.848   4.677   4.659
10658SOL    HW132873   6.893   4.732   4.589
10658SOL    HW232874   6.901   4.594   4.676
10659SOL     OW32875   0.835   5.605   0.636
10659SOL    HW132876   0.736   5.613   0.619
10659SOL    HW232877   0.851   5.536   0.706
10660SOL     OW32878   5.631   3.957   6.421
10660SOL    HW132879   5.598   4.051   6.428
10660SOL    HW232880   5.595   3.904   6.498
10661SOL     OW32881   1.035   6.670   0.910
10661SOL    HW132882   1.058   6.672   0.812
10661SOL    HW232883   1.072   6.586   0.951
10662SOL     OW32884   4.465   0.350   2.414
10662SOL    HW132885   4.416   0.438   2.408
10662SOL    HW232886   4.474   0.310   2.323
10663SOL     OW32887   0.637   1.545   2.281
10663SOL    HW132888   0.538   1.536   2.276
10663SOL    HW232889   0.672   1.492   2.359
10664SOL     OW32890   6.214   4.277   5.190
10664SOL    HW132891   6.208   4.183   5.223
10664SOL    HW232892   6.123   4.318   5.190
10665SOL     OW32893   0.962   1.545   0.047
10665SOL    HW132894   0.882   1.584   0.091
10665SOL    HW232895   0.958   1.445   0.052
10666SOL     OW32896   3.420   3.882   1.325
10666SOL    HW132897   3.475   3.799   1.335
10666SOL    HW232898   3.446   3.948   1.396
10667SOL     OW32899   4.885   2.401   4.279
10667SOL    HW132900   4.796   2.385   4.320
10667SOL    HW232901   4.882   2.373   4.183
10668SOL     OW32902   2.676   1.365   4.927
10668SOL    HW132903   2.721   1.295   4.981
10668SOL    HW232904   2.639   1.436   4.987
10669SOL     OW32905   5.242   0.410   1.878
10669SOL    HW132906   5.319   0.452   1.830
10669SOL    HW232907   5.159   0.422   1.824
10670SOL     OW32908   5.600   4.995   5.245
10670SOL    HW132909   5.680   5.011   5.188
10670SOL    HW232910   5.588   5.073   5.308
10671SOL     OW32911   1.859   2.131   4.021
10671SOL    HW132912   1.838   2.123   4.118
10671SOL    HW232913   1.803   2.066   3.969
10672SOL     OW32914   6.759   3.936   1.871
10672SOL    HW132915   6.852   3.924   1.904
10672SOL    HW232916   6.700   3.866   1.911
10673SOL     OW32917   0.201   1.331   6.577
10673SOL    HW132918   0.119   1.290   6.537
10673SOL    HW232919   0.275   1.264   6.579
10674SOL     OW32920   4.076   3.620   3.228
10674SOL    HW132921   4.110   3.585   3.140
10674SOL    HW232922   3.982   3.590   3.242
10675SOL     OW32923   1.899   6.621   6.777
10675SOL    HW132924   1.826   6.567   6.735
10675SOL    HW232925   1.915   6.587   6.870
10676SOL     OW32926   6.404   6.318   5.340
10676SOL    HW132927   6.428   6.260   5.418
10676SOL    HW232928   6.345   6.267   5.277
10677SOL     OW32929   1.597   0.818   1.452
10677SOL    HW132930   1.518   0.830   1.392
10677SOL    HW232931   1.668   0.767   1.404
10678SOL     OW32932   4.647   5.758   4.184
10678SOL    HW132933   4.721   5.823   4.201
10678SOL    HW232934   4.666   5.707   4.100
10679SOL     OW32935   4.476   5.471   6.647
10679SOL    HW132936   4.429   5.544   6.697
10679SOL    HW232937   4.563   5.450   6.693
10680SOL     OW32938   3.825   2.145   4.028
10680SOL    HW132939   3.759   2.108   3.963
10680SOL    HW232940   3.787   2.138   4.121
10681SOL     OW32941   0.887   3.463   0.343
10681SOL    HW132942   0.797   3.498   0.368
10681SOL    HW232943   0.934   3.528   0.283
10682SOL     OW32944   0.630   1.408   5.257
10682SOL    HW132945   0.711   1.440   5.307
10682SOL    HW232946   0.656   1.383   5.164
10683SOL     OW32947   5.085   1.642   3.722
10683SOL    HW132948   5.004   1.584   3.734
10683SOL    HW232949   5.057   1.736   3.702
10684SOL     OW32950   5.086   5.316   3.281
10684SOL    HW132951   5.014   5.302   3.213
10684SOL    HW232952   5.048   5.359   3.362
10685SOL     OW32953   0.900   5.367   1.622
10685SOL    HW132954   0.844   5.338   1.544
10685SOL    HW232955   0.880   5.462   1.644
10686SOL     OW32956   0.926   4.472   5.847
10686SOL    HW132957   0.851   4.425   5.894
10686SOL    HW232958   0.968   4.538   5.909
10687SOL     OW32959   6.122   5.714   3.534
10687SOL    HW132960   6.109   5.730   3.632
10687SOL    HW232961   6.041   5.668   3.498
10688SOL     OW32962   6.960   3.735   2.486
10688SOL    HW132963   6.903   3.738   2.568
10688SOL    HW232964   6.904   3.755   2.406
10689SOL     OW32965   0.338   6.934   3.542
10689SOL    HW132966   0.390   6.953   3.626
10689SOL    HW232967   0.340   7.014   3.483
10690SOL     OW32968   7.017   5.984   3.741
10690SOL    HW132969   7.008   5.981   3.642
10690SOL    HW232970   7.027   6.079   3.771
10691SOL     OW32971   0.363   2.429   2.601
10691SOL    HW132972   0.398   2.520   2.577
10691SOL    HW232973   0.437   2.374   2.639
10692SOL     OW32974   3.208   6.490   3.572
10692SOL    HW132975   3.174   6.397   3.587
10692SOL    HW232976   3.154   6.554   3.627
10693SOL     OW32977   1.912   6.153   0.465
10693SOL    HW132978   1.960   6.150   0.377
10693SOL    HW232979   1.885   6.247   0.485
10694SOL     OW32980   5.343   6.862   1.044
10694SOL    HW132981   5.395   6.809   0.978
10694SOL    HW232982   5.264   6.808   1.074
10695SOL     OW32983   0.150   2.289   2.975
10695SOL    HW132984   0.083   2.260   2.906
10695SOL    HW232985   0.103   2.313   3.059
10696SOL     OW32986   0.046   4.145   3.623
10696SOL    HW132987   6.996   4.084   3.608
10696SOL    HW232988   0.042   4.185   3.714
10697SOL     OW32989   6.640   6.096   4.616
10697SOL    HW132990   6.673   6.177   4.567
10697SOL    HW232991   6.682   6.093   4.706
10698SOL     OW32992   5.402   4.281   6.128
10698SOL    HW132993   5.386   4.268   6.226
10698SOL    HW232994   5.459   4.362   6.114
10699SOL     OW32995   3.716   4.192   1.663
10699SOL    HW132996   3.656   4.269   1.686
10699SOL    HW232997   3.791   4.225   1.605
10700SOL     OW32998   6.380   6.846   1.020
10700SOL    HW132999   6.334   6.760   1.042
10700SOL    HW233000   6.419   6.885   1.103
10701SOL     OW33001   2.952   6.704   6.594
10701SOL    HW133002   3.021   6.635   6.615
10701SOL    HW233003   2.912   6.685   6.504
10702SOL     OW33004   5.714   3.174   1.520
10702SOL    HW133005   5.642   3.228   1.476
10702SOL    HW233006   5.765   3.232   1.584
10703SOL     OW33007   3.217   2.871   5.125
10703SOL    HW133008   3.218   2.882   5.025
10703SOL    HW233009   3.221   2.774   5.147
10704SOL     OW33010   6.108   5.843   1.631
10704SOL    HW133011   6.169   5.905   1.581
10704SOL    HW233012   6.023   5.890   1.653
10705SOL     OW33013   5.352   4.984   2.725
10705SOL    HW133014   5.430   4.935   2.687
10705SOL    HW233015   5.380   5.074   2.755
10706SOL     OW33016   5.410   0.120   2.379
10706SOL    HW133017   5.373   0.212   2.394
10706SOL    HW233018   5.428   0.107   2.282
10707SOL     OW33019   0.018   6.809   4.260
10707SOL    HW133020   6.997   6.792   4.175
10707SOL    HW233021   0.116   6.795   4.246
10708SOL     OW33022   4.130   0.586   2.074
10708SOL    HW133023   4.154   0.524   1.999
10708SOL    HW233024   4.075   0.661   2.038
10709SOL     OW33025   6.076   5.521   5.574
10709SOL    HW133026   5.991   5.548   5.620
10709SOL    HW233027   6.133   5.602   5.561
10710SOL     OW33028   0.402   7.015   4.399
10710SOL    HW133029   0.334   0.039   4.451
10710SOL    HW233030   0.465   0.050   4.354
10711SOL     OW33031   1.700   6.906   4.422
10711SOL    HW133032   1.733   6.832   4.364
10711SOL    HW233033   1.745   6.992   4.395
10712SOL     OW33034   3.273   0.951   1.771
10712SOL    HW133035   3.362   0.970   1.813
10712SOL    HW233036   3.211   1.028   1.787
10713SOL     OW33037   0.747   3.406   1.507
10713SOL    HW133038   0.726   3.399   1.410
10713SOL    HW233039   0.736   3.317   1.551
10714SOL     OW33040   6.023   3.834   4.967
10714SOL    HW133041   5.989   3.759   4.911
10714SOL    HW233042   6.121   3.847   4.950
10715SOL     OW33043   4.910   0.698   2.814
10715SOL    HW133044   4.886   0.707   2.911
10715SOL    HW233045   4.998   0.650   2.806
10716SOL     OW33046   5.818   2.045   4.457
10716SOL    HW133047   5.742   2.027   4.394
10716SOL    HW233048   5.891   1.979   4.440
10717SOL     OW33049   1.337   1.986   1.166
10717SOL    HW133050   1.371   1.893   1.185
10717SOL    HW233051   1.259   1.981   1.104
10718SOL     OW33052   1.153   2.958   6.305
10718SOL    HW133053   1.147   2.878   6.364
10718SOL    HW233054   1.114   3.037   6.351
10719SOL     OW33055   6.584   5.556   2.102
10719SOL    HW133056   6.486   5.559   2.081
10719SOL    HW233057   6.597   5.550   2.201
10720SOL     OW33058   0.780   4.275   4.850
10720SOL    HW133059   0.874   4.282   4.816
10720SOL    HW233060   0.763   4.347   4.917
10721SOL     OW33061   5.594   4.410   5.104
10721SOL    HW133062   5.648   4.442   5.026
10721SOL    HW233063   5.646   4.422   5.188
10722SOL     OW33064   1.129   5.046   0.521
10722SOL    HW133065   1.124   5.135   0.566
10722SOL    HW233066   1.218   5.037   0.476
10723SOL     OW33067   0.145   3.660   6.121
10723SOL    HW133068   0.218   3.690   6.183
10723SOL    HW233069   0.155   3.707   6.034
10724SOL     OW33070   5.663   1.007   6.614
10724SOL    HW133071   5.640   1.088   6.668
10724SOL    HW233072   5.666   0.927   6.674
10725SOL     OW33073   0.854   5.311   4.593
10725SOL    HW133074   0.862   5.225   4.644
10725SOL    HW233075   0.766   5.313   4.546
10726SOL     OW33076   5.248   6.820   5.870
10726SOL    HW133077   5.163   6.795   5.916
10726SOL    HW233078   5.316   6.749   5.885
10727SOL     OW33079   0.561   4.925   4.914
10727SOL    HW133080   0.631   4.959   4.851
10727SOL    HW233081   0.602   4.861   4.979
10728SOL     OW33082   0.237   6.139   0.406
10728SOL    HW133083   0.268   6.231   0.430
10728SOL    HW233084   0.220   6.086   0.489
10729SOL     OW33085   5.315   1.186   1.567
10729SOL    HW133086   5.339   1.270   1.615
10729SOL    HW233087   5.227   1.153   1.600
10730SOL     OW33088   1.780   0.295   1.667
10730SOL    HW133089   1.725   0.334   1.741
10730SOL    HW233090   1.754   0.200   1.651
10731SOL     OW33091   3.250   5.906   0.726
10731SOL    HW133092   3.154   5.905   0.754
10731SOL    HW233093   3.262   5.969   0.649
10732SOL     OW33094   5.582   5.150   3.680
10732SOL    HW133095   5.498   5.109   3.642
10732SOL    HW233096   5.583   5.139   3.779
10733SOL     OW33097   6.415   1.822   1.043
10733SOL    HW133098   6.468   1.905   1.059
10733SOL    HW233099   6.378   1.823   0.950
10734SOL     OW33100   0.528   0.579   6.564
10734SOL    HW133101   0.612   0.558   6.615
10734SOL    HW233102   0.472   0.497   6.557
10735SOL     OW33103   1.726   3.480   3.306
10735SOL    HW133104   1.646   3.439   3.263
10735SOL    HW233105   1.738   3.442   3.398
10736SOL     OW33106   1.571   0.396   3.262
10736SOL    HW133107   1.605   0.489   3.248
10736SOL    HW233108   1.633   0.346   3.322
10737SOL     OW33109   1.828   1.965   0.257
10737SOL    HW133110   1.872   2.030   0.318
10737SOL    HW233111   1.770   1.903   0.310
10738SOL     OW33112   3.114   0.384   4.011
10738SOL    HW133113   3.145   0.292   3.989
10738SOL    HW233114   3.123   0.400   4.110
10739SOL     OW33115   0.222   1.452   0.936
10739SOL    HW133116   0.253   1.375   0.880
10739SOL    HW233117   0.296   1.484   0.995
10740SOL     OW33118   0.370   4.666   5.570
10740SOL    HW133119   0.352   4.762   5.594
10740SOL    HW233120   0.298   4.633   5.510
10741SOL     OW33121   6.723   6.886   1.854
10741SOL    HW133122   6.749   6.975   1.816
10741SOL    HW233123   6.650   6.898   1.921
10742SOL     OW33124   5.994   0.590   1.655
10742SOL    HW133125   6.031   0.572   1.564
10742SOL    HW233126   5.901   0.554   1.661
10743SOL     OW33127   2.993   1.951   5.350
10743SOL    HW133128   3.055   1.888   5.305
10743SOL    HW233129   2.975   2.029   5.290
10744SOL     OW33130   3.549   1.131   1.447
10744SOL    HW133131   3.563   1.034   1.426
10744SOL    HW233132   3.534   1.181   1.362
10745SOL     OW33133   0.228   5.226   0.277
10745SOL    HW133134   0.268   5.297   0.334
10745SOL    HW233135   0.148   5.263   0.229
10746SOL     OW33136   2.072   4.044   1.289
10746SOL    HW133137   2.006   4.061   1.363
10746SOL    HW233138   2.105   4.131   1.253
10747SOL     OW33139   4.360   0.890   3.322
10747SOL    HW133140   4.414   0.952   3.379
10747SOL    HW233141   4.402   0.800   3.321
10748SOL     OW33142   3.765   0.942   1.657
10748SOL    HW133143   3.809   0.981   1.576
10748SOL    HW233144   3.805   0.853   1.678
10749SOL     OW33145   0.186   5.624   3.358
10749SOL    HW133146   0.182   5.642   3.456
10749SOL    HW233147   0.149   5.702   3.307
10750SOL     OW33148   4.307   6.246   5.012
10750SOL    HW133149   4.364   6.165   5.002
10750SOL    HW233150   4.358   6.318   5.059
10751SOL     OW33151   1.623   4.679   4.161
10751SOL    HW133152   1.700   4.616   4.176
10751SOL    HW233153   1.651   4.771   4.187
10752SOL     OW33154   5.964   4.376   6.140
10752SOL    HW133155   5.955   4.459   6.086
10752SOL    HW233156   5.970   4.297   6.079
10753SOL     OW33157   4.237   6.926   4.363
10753SOL    HW133158   4.211   6.869   4.441
10753SOL    HW233159   4.288   6.872   4.297
10754SOL     OW33160   1.291   1.321   3.211
10754SOL    HW133161   1.312   1.223   3.207
10754SOL    HW233162   1.210   1.339   3.155
10755SOL     OW33163   7.002   1.215   6.441
10755SOL    HW133164   6.902   1.221   6.445
10755SOL    HW233165   0.001   1.120   6.425
10756SOL     OW33166   6.850   4.168   0.400
10756SOL    HW133167   6.792   4.249   0.408
10756SOL    HW233168   6.809   4.092   0.450
10757SOL     OW33169   1.239   2.756   0.199
10757SOL    HW133170   1.229   2.717   0.291
10757SOL    HW233171   1.327   2.729   0.161
10758SOL     OW33172   0.922   6.644   4.469
10758SOL    HW133173   0.847   6.612   4.526
10758SOL    HW233174   0.971   6.565   4.431
10759SOL     OW33175   1.226   3.010   0.590
10759SOL    HW133176   1.318   2.989   0.557
10759SOL    HW233177   1.214   3.109   0.591
10760SOL     OW33178   6.497   1.351   1.468
10760SOL    HW133179   6.495   1.331   1.566
10760SOL    HW233180   6.589   1.382   1.442
10761SOL     OW33181   0.719   1.175   6.154
10761SOL    HW133182   0.772   1.129   6.226
10761SOL    HW233183   0.675   1.106   6.097
10762SOL     OW33184   4.082   2.021   4.622
10762SOL    HW133185   4.160   1.962   4.601
10762SOL    HW233186   4.114   2.105   4.665
10763SOL     OW33187   4.689   6.135   2.065
10763SOL    HW133188   4.707   6.188   2.149
10763SOL    HW233189   4.672   6.198   1.990
10764SOL     OW33190   5.679   2.305   5.996
10764SOL    HW133191   5.700   2.280   6.091
10764SOL    HW233192   5.757   2.282   5.938
10765SOL     OW33193   5.418   2.241   0.580
10765SOL    HW133194   5.329   2.207   0.550
10765SOL    HW233195   5.490   2.200   0.524
10766SOL     OW33196   5.201   3.271   1.310
10766SOL    HW133197   5.129   3.262   1.379
10766SOL    HW233198   5.209   3.366   1.281
10767SOL     OW33199   1.065   0.507   0.048
10767SOL    HW133200   1.142   0.445   0.062
10767SOL    HW233201   1.097   0.602   0.051
10768SOL     OW33202   4.647   4.546   1.249
10768SOL    HW133203   4.702   4.479   1.199
10768SOL    HW233204   4.708   4.602   1.306
10769SOL     OW33205   2.723   4.712   4.587
10769SOL    HW133206   2.813   4.677   4.614
10769SOL    HW233207   2.734   4.788   4.524
10770SOL     OW33208   5.558   0.679   5.040
10770SOL    HW133209   5.641   0.717   5.001
10770SOL    HW233210   5.579   0.637   5.129
10771SOL     OW33211   5.381   1.238   3.115
10771SOL    HW133212   5.319   1.206   3.187
10771SOL    HW233213   5.364   1.335   3.097
10772SOL     OW33214   7.028   6.880   4.778
10772SOL    HW133215   7.024   6.921   4.686
10772SOL    HW233216   0.028   6.785   4.771
10773SOL     OW33217   6.912   5.590   0.201
10773SOL    HW133218   6.854   5.664   0.167
10773SOL    HW233219   7.002   5.597   0.159
10774SOL     OW33220   1.390   1.111   6.319
10774SOL    HW133221   1.318   1.041   6.323
10774SOL    HW233222   1.381   1.173   6.397
10775SOL     OW33223   0.354   4.064   1.332
10775SOL    HW133224   0.326   4.068   1.428
10775SOL    HW233225   0.453   4.050   1.326
10776SOL     OW33226   1.043   6.423   6.720
10776SOL    HW133227   1.018   6.327   6.726
10776SOL    HW233228   0.989   6.466   6.647
10777SOL     OW33229   3.787   6.083   3.008
10777SOL    HW133230   3.717   6.154   3.003
10777SOL    HW233231   3.835   6.089   3.095
10778SOL     OW33232   5.816   6.900   4.465
10778SOL    HW133233   5.757   6.949   4.400
10778SOL    HW233234   5.864   6.966   4.523
10779SOL     OW33235   6.474   4.907   3.491
10779SOL    HW133236   6.532   4.893   3.411
10779SOL    HW233237   6.412   4.984   3.474
10780SOL     OW33238   2.152   0.761   3.826
10780SOL    HW133239   2.238   0.726   3.861
10780SOL    HW233240   2.139   0.730   3.731
10781SOL     OW33241   4.374   0.383   3.337
10781SOL    HW133242   4.348   0.459   3.278
10781SOL    HW233243   4.401   0.304   3.281
10782SOL     OW33244   5.615   1.799   2.589
10782SOL    HW133245   5.695   1.778   2.533
10782SOL    HW233246   5.645   1.830   2.679
10783SOL     OW33247   0.885   3.674   3.660
10783SOL    HW133248   0.829   3.713   3.588
10783SOL    HW233249   0.870   3.724   3.745
10784SOL     OW33250   3.687   0.666   4.289
10784SOL    HW133251   3.717   0.666   4.385
10784SOL    HW233252   3.767   0.657   4.230
10785SOL     OW33253   0.200   4.988   2.243
10785SOL    HW133254   0.278   4.993   2.304
10785SOL    HW233255   0.225   5.024   2.153
10786SOL     OW33256   5.266   5.106   3.237
10786SOL    HW133257   5.212   5.024   3.253
10786SOL    HW233258   5.210   5.187   3.257
10787SOL     OW33259   1.996   1.585   4.683
10787SOL    HW133260   2.059   1.628   4.748
10787SOL    HW233261   1.940   1.655   4.639
10788SOL     OW33262   2.059   4.731   6.234
10788SOL    HW133263   2.082   4.821   6.195
10788SOL    HW233264   2.136   4.698   6.289
10789SOL     OW33265   6.879   2.590   6.266
10789SOL    HW133266   6.918   2.635   6.347
10789SOL    HW233267   6.904   2.494   6.266
10790SOL     OW33268   1.516   0.989   2.146
10790SOL    HW133269   1.590   1.016   2.209
10790SOL    HW233270   1.532   0.895   2.115
10791SOL     OW33271   0.823   7.005   0.852
10791SOL    HW133272   0.860   0.053   0.906
10791SOL    HW233273   0.894   6.971   0.790
10792SOL     OW33274   3.385   3.642   3.668
10792SOL    HW133275   3.384   3.611   3.763
10792SOL    HW233276   3.459   3.708   3.655
10793SOL     OW33277   6.142   3.375   4.331
10793SOL    HW133278   6.158   3.307   4.259
10793SOL    HW233279   6.219   3.438   4.336
10794SOL     OW33280   3.061   3.877   3.537
10794SOL    HW133281   3.071   3.944   3.610
10794SOL    HW233282   3.056   3.924   3.449
10795SOL     OW33283   6.683   4.340   2.713
10795SOL    HW133284   6.679   4.427   2.665
10795SOL    HW233285   6.730   4.352   2.801
10796SOL     OW33286   5.657   6.777   0.459
10796SOL    HW133287   5.568   6.735   0.445
10796SOL    HW233288   5.659   6.821   0.549
10797SOL     OW33289   4.333   2.554   1.472
10797SOL    HW133290   4.376   2.478   1.422
10797SOL    HW233291   4.243   2.574   1.433
10798SOL     OW33292   3.257   6.064   0.529
10798SOL    HW133293   3.183   6.027   0.473
10798SOL    HW233294   3.235   6.158   0.557
10799SOL     OW33295   3.690   0.657   1.889
10799SOL    HW133296   3.781   0.697   1.886
10799SOL    HW233297   3.624   0.725   1.920
10800SOL     OW33298   0.355   6.745   6.429
10800SOL    HW133299   0.354   6.747   6.329
10800SOL    HW233300   0.277   6.799   6.464
10801SOL     OW33301   0.585   5.803   5.980
10801SOL    HW133302   0.530   5.720   5.984
10801SOL    HW233303   0.645   5.808   6.059
10802SOL     OW33304   0.476   1.913   3.405
10802SOL    HW133305   0.406   1.863   3.456
10802SOL    HW233306   0.561   1.859   3.403
10803SOL     OW33307   3.188   4.295   5.933
10803SOL    HW133308   3.120   4.268   5.866
10803SOL    HW233309   3.278   4.301   5.890
10804SOL     OW33310   5.799   3.540   1.917
10804SOL    HW133311   5.737   3.607   1.958
10804SOL    HW233312   5.805   3.460   1.976
10805SOL     OW33313   4.008   0.172   0.096
10805SOL    HW133314   4.068   0.205   0.023
10805SOL    HW233315   4.019   0.231   0.176
10806SOL     OW33316   4.798   3.872   6.243
10806SOL    HW133317   4.882   3.918   6.269
10806SOL    HW233318   4.770   3.809   6.316
10807SOL     OW33319   1.226   0.234   1.779
10807SOL    HW133320   1.141   0.206   1.825
10807SOL    HW233321   1.300   0.171   1.803
10808SOL     OW33322   6.875   3.062   6.217
10808SOL    HW133323   6.812   3.133   6.249
10808SOL    HW233324   6.871   3.056   6.117
10809SOL     OW33325   3.069   5.152   3.366
10809SOL    HW133326   3.066   5.223   3.437
10809SOL    HW233327   3.065   5.195   3.276
10810SOL     OW33328   1.929   0.453   4.078
10810SOL    HW133329   2.026   0.465   4.056
10810SOL    HW233330   1.888   0.543   4.097
10811SOL     OW33331   4.087   4.441   5.900
10811SOL    HW133332   4.150   4.423   5.976
10811SOL    HW233333   4.030   4.361   5.883
10812SOL     OW33334   0.892   4.082   0.879
10812SOL    HW133335   0.831   4.026   0.823
10812SOL    HW233336   0.985   4.078   0.842
10813SOL     OW33337   2.019   4.710   6.872
10813SOL    HW133338   1.937   4.745   6.827
10813SOL    HW233339   2.080   4.669   6.804
10814SOL     OW33340   1.477   6.355   6.279
10814SOL    HW133341   1.575   6.342   6.261
10814SOL    HW233342   1.445   6.436   6.231
10815SOL     OW33343   4.524   4.508   3.329
10815SOL    HW133344   4.613   4.472   3.301
10815SOL    HW233345   4.466   4.521   3.249
10816SOL     OW33346   2.954   3.363   2.030
10816SOL    HW133347   2.962   3.295   2.103
10816SOL    HW233348   2.939   3.453   2.070
10817SOL     OW33349   4.305   6.921   3.256
10817SOL    HW133350   4.232   6.956   3.315
10817SOL    HW233351   4.370   6.994   3.236
10818SOL     OW33352   4.473   4.491   5.416
10818SOL    HW133353   4.450   4.394   5.404
10818SOL    HW233354   4.511   4.505   5.508
10819SOL     OW33355   6.607   4.640   6.725
10819SOL    HW133356   6.627   4.666   6.819
10819SOL    HW233357   6.590   4.723   6.671
10820SOL     OW33358   6.511   5.957   3.807
10820SOL    HW133359   6.516   5.949   3.708
10820SOL    HW233360   6.595   5.921   3.848
10821SOL     OW33361   5.938   0.114   2.103
10821SOL    HW133362   5.974   0.144   2.014
10821SOL    HW233363   5.999   0.045   2.142
10822SOL     OW33364   0.043   3.234   3.073
10822SOL    HW133365   6.979   3.254   3.038
10822SOL    HW233366   0.111   3.258   3.003
10823SOL     OW33367   1.672   6.118   1.313
10823SOL    HW133368   1.577   6.087   1.314
10823SOL    HW233369   1.727   6.053   1.260
10824SOL     OW33370   6.650   1.207   3.141
10824SOL    HW133371   6.665   1.306   3.140
10824SOL    HW233372   6.732   1.161   3.107
10825SOL     OW33373   2.394   1.394   6.268
10825SOL    HW133374   2.306   1.374   6.223
10825SOL    HW233375   2.445   1.308   6.279
10826SOL     OW33376   1.572   2.968   3.938
10826SOL    HW133377   1.497   2.964   4.005
10826SOL    HW233378   1.569   2.886   3.881
10827SOL     OW33379   6.713   3.433   4.387
10827SOL    HW133380   6.681   3.520   4.423
10827SOL    HW233381   6.800   3.446   4.339
10828SOL     OW33382   0.976   5.098   0.816
10828SOL    HW133383   1.005   5.171   0.754
10828SOL    HW233384   0.884   5.067   0.790
10829SOL     OW33385   4.190   2.447   0.708
10829SOL    HW133386   4.164   2.498   0.626
10829SOL    HW233387   4.213   2.353   0.683
10830SOL     OW33388   5.402   2.081   2.758
10830SOL    HW133389   5.410   2.001   2.817
10830SOL    HW233390   5.493   2.107   2.725
10831SOL     OW33391   2.610   5.994   2.388
10831SOL    HW133392   2.510   5.989   2.388
10831SOL    HW233393   2.639   6.086   2.358
10832SOL     OW33394   0.686   2.851   6.240
10832SOL    HW133395   0.776   2.831   6.201
10832SOL    HW233396   0.681   2.814   6.332
10833SOL     OW33397   1.116   0.704   2.351
10833SOL    HW133398   1.144   0.800   2.357
10833SOL    HW233399   1.021   0.695   2.381
10834SOL     OW33400   0.562   1.729   0.311
10834SOL    HW133401   0.513   1.655   0.356
10834SOL    HW233402   0.530   1.817   0.347
10835SOL     OW33403   5.887   2.191   6.946
10835SOL    HW133404   5.931   2.218   0.004
10835SOL    HW233405   5.817   2.258   6.922
10836SOL     OW33406   6.385   1.362   5.127
10836SOL    HW133407   6.364   1.332   5.034
10836SOL    HW233408   6.482   1.385   5.134
10837SOL     OW33409   6.990   5.332   1.594
10837SOL    HW133410   6.956   5.238   1.595
10837SOL    HW233411   0.002   5.354   1.683
10838SOL     OW33412   5.773   5.851   4.843
10838SOL    HW133413   5.750   5.902   4.759
10838SOL    HW233414   5.869   5.825   4.840
10839SOL     OW33415   4.358   3.033   1.719
10839SOL    HW133416   4.297   3.101   1.677
10839SOL    HW233417   4.425   3.080   1.777
10840SOL     OW33418   2.532   5.865   2.816
10840SOL    HW133419   2.607   5.927   2.842
10840SOL    HW233420   2.568   5.792   2.758
10841SOL     OW33421   5.568   5.254   6.183
10841SOL    HW133422   5.578   5.352   6.169
10841SOL    HW233423   5.503   5.237   6.258
10842SOL     OW33424   4.902   2.446   2.184
10842SOL    HW133425   4.825   2.508   2.199
10842SOL    HW233426   4.979   2.497   2.145
10843SOL     OW33427   1.394   2.416   1.460
10843SOL    HW133428   1.430   2.327   1.490
10843SOL    HW233429   1.386   2.476   1.540
10844SOL     OW33430   0.046   0.023   3.533
10844SOL    HW133431   0.031   0.120   3.551
10844SOL    HW233432   0.141   7.027   3.553
10845SOL     OW33433   3.052   0.230   5.351
10845SOL    HW133434   3.116   0.161   5.386
10845SOL    HW233435   3.063   0.314   5.403
10846SOL     OW33436   4.647   1.436   0.419
10846SOL    HW133437   4.709   1.439   0.340
10846SOL    HW233438   4.661   1.351   0.469
10847SOL     OW33439   3.775   3.271   6.897
10847SOL    HW133440   3.831   3.200   6.855
10847SOL    HW233441   3.705   3.301   6.832
10848SOL     OW33442   3.168   3.205   6.912
10848SOL    HW133443   3.124   3.260   6.983
10848SOL    HW233444   3.167   3.109   6.938
10849SOL     OW33445   2.129   5.723   3.314
10849SOL    HW133446   2.163   5.699   3.223
10849SOL    HW233447   2.097   5.641   3.361
10850SOL     OW33448   2.745   5.571   6.878
10850SOL    HW133449   2.840   5.574   6.908
10850SOL    HW233450   2.684   5.573   6.958
10851SOL     OW33451   1.902   3.234   6.789
10851SOL    HW133452   1.814   3.279   6.804
10851SOL    HW233453   1.891   3.135   6.804
10852SOL     OW33454   1.231   0.275   6.866
10852SOL    HW133455   1.241   0.302   6.962
10852SOL    HW233456   1.321   0.262   6.826
10853SOL     OW33457   1.766   2.435   5.351
10853SOL    HW133458   1.776   2.338   5.329
10853SOL    HW233459   1.764   2.447   5.450
10854SOL     OW33460   4.217   5.208   5.147
10854SOL    HW133461   4.189   5.295   5.106
10854SOL    HW233462   4.245   5.144   5.075
10855SOL     OW33463   3.323   6.956   0.565
10855SOL    HW133464   3.330   6.863   0.601
10855SOL    HW233465   3.298   6.953   0.468
10856SOL     OW33466   5.475   1.280   0.422
10856SOL    HW133467   5.425   1.232   0.495
10856SOL    HW233468   5.426   1.269   0.336
10857SOL     OW33469   6.546   2.952   2.698
10857SOL    HW133470   6.570   2.965   2.601
10857SOL    HW233471   6.576   2.861   2.728
10858SOL     OW33472   0.943   1.821   6.368
10858SOL    HW133473   1.026   1.768   6.383
10858SOL    HW233474   0.895   1.786   6.288
10859SOL     OW33475   1.748   4.156   4.372
10859SOL    HW133476   1.654   4.187   4.359
10859SOL    HW233477   1.788   4.203   4.451
10860SOL     OW33478   6.793   1.617   5.730
10860SOL    HW133479   6.808   1.701   5.679
10860SOL    HW233480   6.825   1.628   5.825
10861SOL     OW33481   3.415   3.446   2.841
10861SOL    HW133482   3.422   3.439   2.941
10861SOL    HW233483   3.470   3.523   2.810
10862SOL     OW33484   2.246   1.837   6.900
10862SOL    HW133485   2.258   1.846   6.801
10862SOL    HW233486   2.214   1.923   6.938
10863SOL     OW33487   3.648   0.894   3.435
10863SOL    HW133488   3.624   0.989   3.453
10863SOL    HW233489   3.584   0.856   3.369
10864SOL     OW33490   2.747   5.344   0.700
10864SOL    HW133491   2.771   5.264   0.756
10864SOL    HW233492   2.756   5.320   0.603
10865SOL     OW33493   6.784   1.306   2.119
10865SOL    HW133494   6.723   1.374   2.077
10865SOL    HW233495   6.843   1.267   2.048
10866SOL     OW33496   5.409   4.558   0.626
10866SOL    HW133497   5.426   4.578   0.530
10866SOL    HW233498   5.311   4.543   0.640
10867SOL     OW33499   3.578   3.573   0.270
10867SOL    HW133500   3.585   3.573   0.170
10867SOL    HW233501   3.532   3.490   0.299
10868SOL     OW33502   3.894   2.165   3.590
10868SOL    HW133503   3.798   2.139   3.603
10868SOL    HW233504   3.911   2.181   3.492
10869NA      NA33505   0.101   2.139   5.324
10870NA      NA33506   4.433   4.615   5.228
10871NA      NA33507   2.056   4.018   2.457
10872NA      NA33508   4.905   4.147   4.452
10873NA      NA33509   4.417   2.479   5.177
10874NA      NA33510   3.225   4.747   1.734
10875NA      NA33511   0.075   4.216   0.624
10876NA      NA33512   3.221   3.678   3.510
10877NA      NA33513   5.382   5.669   0.671
10878NA      NA33514   3.089   6.704   5.552
10879NA      NA33515   5.850   5.479   1.727
10880NA      NA33516   2.095   0.900   4.539
10881NA      NA33517   3.852   5.157   2.233
10882NA      NA33518   3.941   3.598   1.962
   7.02775   7.02775   7.02775
