Generated by trjconv : CNT in water t= 599.00000
33518
    1C        C    1   2.841   2.769   4.749
    1C        C    2   2.901   2.723   4.868
    1C        C    3   2.844   2.772   4.987
    1C        C    4   2.848   2.775   4.262
    1C        C    5   2.900   2.729   4.386
    1C        C    6   2.845   2.775   4.508
    1C        C    7   3.018   2.648   4.629
    1C        C    8   2.898   2.724   4.628
    1C        C    9   3.080   2.610   4.750
    1C        C   10   3.010   2.634   4.870
    1C        C   11   3.186   2.496   4.980
    1C        C   12   3.069   2.573   4.982
    1C        C   13   2.843   2.769   3.774
    1C        C   14   2.899   2.726   3.897
    1C        C   15   2.846   2.775   4.019
    1C        C   16   3.023   2.655   4.143
    1C        C   17   2.902   2.729   4.140
    1C        C   18   3.086   2.625   4.265
    1C        C   19   3.017   2.651   4.386
    1C        C   20   3.213   2.567   4.506
    1C        C   21   3.081   2.616   4.507
    1C        C   22   3.280   2.541   4.627
    1C        C   23   3.210   2.551   4.749
    1C        C   24   3.416   2.485   4.869
    1C        C   25   3.274   2.505   4.868
    1C        C   26   3.491   2.489   4.987
    1C        C   27   2.850   2.773   3.283
    1C        C   28   2.902   2.725   3.405
    1C        C   29   2.850   2.768   3.530
    1C        C   30   3.018   2.643   3.652
    1C        C   31   2.902   2.724   3.654
    1C        C   32   3.082   2.616   3.775
    1C        C   33   3.020   2.653   3.896
    1C        C   34   3.211   2.565   4.019
    1C        C   35   3.080   2.618   4.019
    1C        C   36   3.280   2.547   4.141
    1C        C   37   3.217   2.571   4.265
    1C        C   38   3.424   2.517   4.383
    1C        C   39   3.285   2.546   4.386
    1C        C   40   3.492   2.507   4.507
    1C        C   41   3.418   2.511   4.627
    1C        C   42   3.631   2.485   4.749
    1C        C   43   3.489   2.488   4.747
    1C        C   44   3.708   2.491   4.867
    1C        C   45   3.630   2.490   4.983
    1C        C   46   2.834   2.750   2.794
    1C        C   47   2.893   2.712   2.917
    1C        C   48   2.841   2.760   3.039
    1C        C   49   3.015   2.640   3.166
    1C        C   50   2.899   2.720   3.162
    1C        C   51   3.079   2.605   3.287
    1C        C   52   3.016   2.642   3.408
    1C        C   53   3.211   2.557   3.530
    1C        C   54   3.079   2.608   3.530
    1C        C   55   3.279   2.537   3.652
    1C        C   56   3.213   2.562   3.774
    1C        C   57   3.417   2.518   3.896
    1C        C   58   3.278   2.542   3.897
    1C        C   59   3.489   2.512   4.017
    1C        C   60   3.417   2.513   4.139
    1C        C   61   3.631   2.504   4.259
    1C        C   62   3.490   2.503   4.259
    1C        C   63   3.702   2.505   4.382
    1C        C   64   3.633   2.502   4.505
    1C        C   65   3.838   2.544   4.623
    1C        C   66   3.702   2.507   4.628
    1C        C   67   3.907   2.563   4.745
    1C        C   68   3.844   2.528   4.866
    1C        C   69   4.053   2.589   4.978
    1C        C   70   3.926   2.532   4.981
    1C        C   71   2.827   2.736   2.308
    1C        C   72   2.886   2.698   2.430
    1C        C   73   2.836   2.752   2.551
    1C        C   74   3.013   2.634   2.675
    1C        C   75   2.893   2.709   2.673
    1C        C   76   3.076   2.602   2.798
    1C        C   77   3.013   2.637   2.919
    1C        C   78   3.206   2.554   3.039
    1C        C   79   3.075   2.607   3.042
    1C        C   80   3.277   2.537   3.160
    1C        C   81   3.210   2.553   3.284
    1C        C   82   3.416   2.509   3.405
    1C        C   83   3.277   2.533   3.407
    1C        C   84   3.486   2.504   3.528
    1C        C   85   3.418   2.509   3.652
    1C        C   86   3.629   2.502   3.771
    1C        C   87   3.488   2.502   3.774
    1C        C   88   3.700   2.514   3.893
    1C        C   89   3.630   2.505   4.016
    1C        C   90   3.840   2.542   4.137
    1C        C   91   3.702   2.513   4.137
    1C        C   92   3.907   2.565   4.259
    1C        C   93   3.840   2.537   4.380
    1C        C   94   4.029   2.636   4.501
    1C        C   95   3.905   2.570   4.501
    1C        C   96   4.089   2.674   4.623
    1C        C   97   4.031   2.632   4.745
    1C        C   98   4.196   2.769   4.866
    1C        C   99   4.103   2.660   4.864
    1C        C  100   4.215   2.845   4.981
    1C        C  101   2.824   2.734   2.072
    1C        C  102   2.987   2.587   2.194
    1C        C  103   2.874   2.675   2.189
    1C        C  104   3.066   2.577   2.312
    1C        C  105   3.002   2.617   2.431
    1C        C  106   3.201   2.542   2.553
    1C        C  107   3.070   2.593   2.552
    1C        C  108   3.272   2.525   2.674
    1C        C  109   3.206   2.547   2.797
    1C        C  110   3.413   2.503   2.917
    1C        C  111   3.274   2.525   2.919
    1C        C  112   3.485   2.501   3.039
    1C        C  113   3.416   2.513   3.162
    1C        C  114   3.629   2.503   3.281
    1C        C  115   3.487   2.503   3.284
    1C        C  116   3.697   2.511   3.404
    1C        C  117   3.627   2.508   3.527
    1C        C  118   3.837   2.545   3.647
    1C        C  119   3.699   2.514   3.649
    1C        C  120   3.905   2.565   3.770
    1C        C  121   3.837   2.547   3.892
    1C        C  122   4.029   2.636   4.017
    1C        C  123   3.904   2.569   4.014
    1C        C  124   4.093   2.670   4.138
    1C        C  125   4.032   2.631   4.259
    1C        C  126   4.202   2.761   4.377
    1C        C  127   4.093   2.672   4.380
    1C        C  128   4.252   2.813   4.499
    1C        C  129   4.198   2.764   4.620
    1C        C  130   4.325   2.936   4.741
    1C        C  131   4.247   2.817   4.742
    1C        C  132   4.360   3.002   4.860
    1C        C  133   4.290   2.962   4.975
    1C        C  134   3.176   2.467   2.084
    1C        C  135   3.042   2.507   2.088
    1C        C  136   3.261   2.477   2.194
    1C        C  137   3.198   2.524   2.311
    1C        C  138   3.408   2.486   2.432
    1C        C  139   3.269   2.511   2.433
    1C        C  140   3.483   2.487   2.551
    1C        C  141   3.411   2.499   2.673
    1C        C  142   3.624   2.497   2.791
    1C        C  143   3.483   2.496   2.794
    1C        C  144   3.694   2.510   2.914
    1C        C  145   3.626   2.503   3.037
    1C        C  146   3.836   2.541   3.157
    1C        C  147   3.699   2.506   3.158
    1C        C  148   3.901   2.565   3.280
    1C        C  149   3.835   2.542   3.403
    1C        C  150   4.031   2.626   3.526
    1C        C  151   3.903   2.566   3.524
    1C        C  152   4.093   2.662   3.648
    1C        C  153   4.030   2.630   3.770
    1C        C  154   4.193   2.766   3.890
    1C        C  155   4.084   2.675   3.893
    1C        C  156   4.246   2.814   4.011
    1C        C  157   4.200   2.762   4.135
    1C        C  158   4.339   2.924   4.255
    1C        C  159   4.254   2.811   4.256
    1C        C  160   4.374   2.987   4.376
    1C        C  161   4.331   2.930   4.498
    1C        C  162   4.433   3.118   4.616
    1C        C  163   4.364   2.995   4.619
    1C        C  164   4.465   3.185   4.736
    1C        C  165   4.433   3.124   4.859
    1C        C  166   4.519   3.320   4.974
    1C        C  167   4.473   3.189   4.976
    1C        C  168   3.477   2.431   2.077
    1C        C  169   3.401   2.458   2.191
    1C        C  170   3.619   2.465   2.312
    1C        C  171   3.477   2.466   2.310
    1C        C  172   3.698   2.485   2.428
    1C        C  173   3.624   2.487   2.548
    1C        C  174   3.832   2.538   2.668
    1C        C  175   3.696   2.501   2.669
    1C        C  176   3.898   2.562   2.790
    1C        C  177   3.831   2.543   2.913
    1C        C  178   4.030   2.622   3.035
    1C        C  179   3.901   2.564   3.034
    1C        C  180   4.090   2.659   3.157
    1C        C  181   4.029   2.624   3.279
    1C        C  182   4.196   2.754   3.401
    1C        C  183   4.089   2.662   3.402
    1C        C  184   4.245   2.804   3.524
    1C        C  185   4.200   2.753   3.648
    1C        C  186   4.339   2.919   3.764
    1C        C  187   4.248   2.811   3.768
    1C        C  188   4.373   2.980   3.887
    1C        C  189   4.335   2.924   4.011
    1C        C  190   4.442   3.107   4.130
    1C        C  191   4.378   2.982   4.132
    1C        C  192   4.472   3.172   4.252
    1C        C  193   4.443   3.110   4.376
    1C        C  194   4.504   3.319   4.495
    1C        C  195   4.465   3.183   4.495
    1C        C  196   4.525   3.391   4.614
    1C        C  197   4.510   3.320   4.735
    1C        C  198   4.554   3.534   4.853
    1C        C  199   4.536   3.392   4.855
    1C        C  200   4.580   3.619   4.966
    1C        C  201   3.617   2.416   2.080
    1C        C  202   3.828   2.513   2.184
    1C        C  203   3.695   2.460   2.192
    1C        C  204   3.903   2.542   2.301
    1C        C  205   3.833   2.525   2.422
    1C        C  206   4.025   2.615   2.543
    1C        C  207   3.899   2.552   2.544
    1C        C  208   4.085   2.657   2.664
    1C        C  209   4.026   2.623   2.788
    1C        C  210   4.198   2.746   2.909
    1C        C  211   4.086   2.660   2.910
    1C        C  212   4.252   2.795   3.030
    1C        C  213   4.198   2.750   3.153
    1C        C  214   4.333   2.911   3.274
    1C        C  215   4.247   2.799   3.277
    1C        C  216   4.368   2.973   3.396
    1C        C  217   4.331   2.916   3.519
    1C        C  218   4.431   3.105   3.640
    1C        C  219   4.371   2.978   3.640
    1C        C  220   4.459   3.172   3.762
    1C        C  221   4.436   3.106   3.885
    1C        C  222   4.504   3.308   4.005
    1C        C  223   4.467   3.171   4.006
    1C        C  224   4.514   3.379   4.127
    1C        C  225   4.506   3.309   4.249
    1C        C  226   4.524   3.524   4.368
    1C        C  227   4.516   3.383   4.369
    1C        C  228   4.524   3.598   4.488
    1C        C  229   4.533   3.532   4.613
    1C        C  230   4.503   3.745   4.730
    1C        C  231   4.534   3.607   4.733
    1C        C  232   4.495   3.820   4.850
    1C        C  233   4.546   3.755   4.963
    1C        C  234   4.022   2.609   2.064
    1C        C  235   3.898   2.546   2.067
    1C        C  236   4.090   2.650   2.179
    1C        C  237   4.029   2.609   2.300
    1C        C  238   4.197   2.741   2.420
    1C        C  239   4.088   2.650   2.422
    1C        C  240   4.251   2.789   2.541
    1C        C  241   4.197   2.743   2.663
    1C        C  242   4.332   2.906   2.784
    1C        C  243   4.249   2.792   2.786
    1C        C  244   4.374   2.964   2.906
    1C        C  245   4.341   2.905   3.029
    1C        C  246   4.434   3.096   3.149
    1C        C  247   4.374   2.968   3.151
    1C        C  248   4.455   3.165   3.271
    1C        C  249   4.429   3.101   3.394
    1C        C  250   4.492   3.304   3.515
    1C        C  251   4.452   3.169   3.515
    1C        C  252   4.507   3.374   3.637
    1C        C  253   4.496   3.308   3.762
    1C        C  254   4.518   3.520   3.881
    1C        C  255   4.511   3.378   3.883
    1C        C  256   4.518   3.590   4.003
    1C        C  257   4.520   3.520   4.126
    1C        C  258   4.492   3.734   4.244
    1C        C  259   4.519   3.595   4.246
    1C        C  260   4.475   3.806   4.365
    1C        C  261   4.492   3.736   4.486
    1C        C  262   4.428   3.940   4.609
    1C        C  263   4.478   3.808   4.606
    1C        C  264   4.397   4.009   4.728
    1C        C  265   4.430   3.945   4.850
    1C        C  266   4.318   4.128   4.962
    1C        C  267   4.390   4.010   4.967
    1C        C  268   4.268   2.779   2.061
    1C        C  269   4.201   2.737   2.177
    1C        C  270   4.346   2.894   2.300
    1C        C  271   4.252   2.786   2.298
    1C        C  272   4.385   2.956   2.420
    1C        C  273   4.340   2.899   2.542
    1C        C  274   4.441   3.088   2.663
    1C        C  275   4.374   2.964   2.663
    1C        C  276   4.467   3.155   2.784
    1C        C  277   4.441   3.089   2.906
    1C        C  278   4.507   3.293   3.027
    1C        C  279   4.468   3.158   3.027
    1C        C  280   4.510   3.367   3.147
    1C        C  281   4.495   3.300   3.271
    1C        C  282   4.519   3.513   3.392
    1C        C  283   4.508   3.372   3.392
    1C        C  284   4.512   3.585   3.514
    1C        C  285   4.514   3.515   3.637
    1C        C  286   4.490   3.728   3.756
    1C        C  287   4.514   3.589   3.757
    1C        C  288   4.475   3.796   3.879
    1C        C  289   4.492   3.729   4.002
    1C        C  290   4.432   3.936   4.120
    1C        C  291   4.476   3.802   4.122
    1C        C  292   4.403   4.002   4.242
    1C        C  293   4.431   3.940   4.366
    1C        C  294   4.330   4.128   4.483
    1C        C  295   4.402   4.007   4.487
    1C        C  296   4.287   4.188   4.603
    1C        C  297   4.326   4.132   4.726
    1C        C  298   4.199   4.313   4.844
    1C        C  299   4.284   4.198   4.845
    1C        C  300   4.169   4.403   4.951
    1C        C  301   4.354   2.888   2.063
    1C        C  302   4.476   3.071   2.180
    1C        C  303   4.399   2.950   2.180
    1C        C  304   4.483   3.148   2.299
    1C        C  305   4.445   3.083   2.419
    1C        C  306   4.504   3.289   2.536
    1C        C  307   4.467   3.152   2.540
    1C        C  308   4.508   3.359   2.658
    1C        C  309   4.498   3.293   2.782
    1C        C  310   4.522   3.503   2.902
    1C        C  311   4.518   3.362   2.904
    1C        C  312   4.519   3.575   3.024
    1C        C  313   4.516   3.508   3.148
    1C        C  314   4.494   3.721   3.267
    1C        C  315   4.516   3.582   3.269
    1C        C  316   4.478   3.793   3.388
    1C        C  317   4.492   3.724   3.511
    1C        C  318   4.428   3.928   3.630
    1C        C  319   4.473   3.794   3.632
    1C        C  320   4.399   3.992   3.753
    1C        C  321   4.429   3.930   3.876
    1C        C  322   4.324   4.117   3.994
    1C        C  323   4.397   3.996   3.997
    1C        C  324   4.282   4.176   4.115
    1C        C  325   4.326   4.121   4.238
    1C        C  326   4.184   4.278   4.358
    1C        C  327   4.286   4.181   4.359
    1C        C  328   4.132   4.332   4.478
    1C        C  329   4.191   4.292   4.601
    1C        C  330   4.028   4.436   4.717
    1C        C  331   4.139   4.348   4.720
    1C        C  332   3.972   4.494   4.833
    1C        C  333   4.056   4.485   4.945
    1C        C  334   4.549   3.274   2.059
    1C        C  335   4.537   3.135   2.068
    1C        C  336   4.538   3.357   2.172
    1C        C  337   4.514   3.287   2.292
    1C        C  338   4.522   3.499   2.412
    1C        C  339   4.525   3.358   2.414
    1C        C  340   4.519   3.569   2.535
    1C        C  341   4.522   3.500   2.658
    1C        C  342   4.493   3.711   2.775
    1C        C  343   4.519   3.572   2.779
    1C        C  344   4.474   3.779   2.898
    1C        C  345   4.492   3.713   3.022
    1C        C  346   4.425   3.916   3.139
    1C        C  347   4.476   3.785   3.143
    1C        C  348   4.393   3.983   3.259
    1C        C  349   4.430   3.926   3.383
    1C        C  350   4.327   4.110   3.505
    1C        C  351   4.402   3.990   3.506
    1C        C  352   4.281   4.169   3.626
    1C        C  353   4.324   4.111   3.747
    1C        C  354   4.179   4.266   3.870
    1C        C  355   4.283   4.170   3.869
    1C        C  356   4.128   4.318   3.990
    1C        C  357   4.181   4.274   4.114
    1C        C  358   4.011   4.400   4.231
    1C        C  359   4.130   4.323   4.236
    1C        C  360   3.952   4.440   4.353
    1C        C  361   4.020   4.418   4.475
    1C        C  362   3.831   4.516   4.593
    1C        C  363   3.961   4.462   4.595
    1C        C  364   3.765   4.551   4.713
    1C        C  365   3.841   4.547   4.832
    1C        C  366   3.633   4.604   4.948
    1C        C  367   3.770   4.580   4.948
    1C        C  368   4.511   3.570   2.054
    1C        C  369   4.533   3.498   2.172
    1C        C  370   4.503   3.712   2.289
    1C        C  371   4.520   3.572   2.292
    1C        C  372   4.489   3.781   2.412
    1C        C  373   4.507   3.710   2.533
    1C        C  374   4.435   3.914   2.653
    1C        C  375   4.481   3.780   2.653
    1C        C  376   4.399   3.978   2.774
    1C        C  377   4.428   3.912   2.895
    1C        C  378   4.322   4.099   3.015
    1C        C  379   4.398   3.980   3.015
    1C        C  380   4.275   4.156   3.136
    1C        C  381   4.315   4.101   3.259
    1C        C  382   4.176   4.256   3.382
    1C        C  383   4.280   4.161   3.382
    1C        C  384   4.124   4.307   3.503
    1C        C  385   4.181   4.268   3.626
    1C        C  386   4.004   4.387   3.747
    1C        C  387   4.121   4.309   3.748
    1C        C  388   3.944   4.427   3.868
    1C        C  389   4.011   4.397   3.989
    1C        C  390   3.820   4.493   4.109
    1C        C  391   3.951   4.441   4.109
    1C        C  392   3.753   4.513   4.232
    1C        C  393   3.823   4.497   4.354
    1C        C  394   3.616   4.550   4.476
    1C        C  395   3.756   4.528   4.474
    1C        C  396   3.548   4.564   4.598
    1C        C  397   3.625   4.566   4.717
    1C        C  398   3.413   4.553   4.840
    1C        C  399   3.551   4.583   4.836
    1C        C  400   3.346   4.511   4.955
    1C        C  401   4.504   3.709   2.052
    1C        C  402   4.463   3.923   2.168
    1C        C  403   4.499   3.786   2.169
    1C        C  404   4.422   3.983   2.289
    1C        C  405   4.445   3.915   2.410
    1C        C  406   4.324   4.094   2.529
    1C        C  407   4.404   3.977   2.530
    1C        C  408   4.278   4.150   2.650
    1C        C  409   4.316   4.092   2.773
    1C        C  410   4.177   4.256   2.891
    1C        C  411   4.276   4.155   2.893
    1C        C  412   4.120   4.299   3.012
    1C        C  413   4.173   4.254   3.135
    1C        C  414   4.000   4.371   3.257
    1C        C  415   4.118   4.295   3.258
    1C        C  416   3.941   4.411   3.379
    1C        C  417   4.005   4.383   3.502
    1C        C  418   3.814   4.477   3.621
    1C        C  419   3.944   4.422   3.624
    1C        C  420   3.748   4.501   3.743
    1C        C  421   3.814   4.482   3.867
    1C        C  422   3.610   4.541   3.993
    1C        C  423   3.747   4.508   3.989
    1C        C  424   3.541   4.549   4.116
    1C        C  425   3.614   4.539   4.237
    1C        C  426   3.400   4.554   4.357
    1C        C  427   3.541   4.555   4.356
    1C        C  428   3.331   4.548   4.480
    1C        C  429   3.407   4.557   4.599
    1C        C  430   3.197   4.523   4.725
    1C        C  431   3.336   4.548   4.721
    1C        C  432   3.127   4.498   4.847
    1C        C  433   3.208   4.494   4.961
    1C        C  434   4.382   4.128   2.051
    1C        C  435   4.448   4.004   2.055
    1C        C  436   4.307   4.167   2.166
    1C        C  437   4.339   4.099   2.286
    1C        C  438   4.186   4.251   2.405
    1C        C  439   4.284   4.149   2.406
    1C        C  440   4.129   4.300   2.524
    1C        C  441   4.180   4.251   2.647
    1C        C  442   4.005   4.375   2.767
    1C        C  443   4.125   4.300   2.767
    1C        C  444   3.944   4.412   2.889
    1C        C  445   4.004   4.379   3.013
    1C        C  446   3.810   4.467   3.133
    1C        C  447   3.939   4.410   3.135
    1C        C  448   3.749   4.495   3.257
    1C        C  449   3.814   4.472   3.380
    1C        C  450   3.606   4.529   3.500
    1C        C  451   3.745   4.500   3.500
    1C        C  452   3.541   4.542   3.625
    1C        C  453   3.611   4.536   3.747
    1C        C  454   3.400   4.549   3.868
    1C        C  455   3.542   4.549   3.870
    1C        C  456   3.330   4.540   3.990
    1C        C  457   3.400   4.550   4.113
    1C        C  458   3.193   4.508   4.240
    1C        C  459   3.329   4.547   4.235
    1C        C  460   3.127   4.487   4.362
    1C        C  461   3.193   4.519   4.483
    1C        C  462   2.998   4.438   4.607
    1C        C  463   3.125   4.501   4.606
    1C        C  464   2.932   4.405   4.728
    1C        C  465   2.993   4.448   4.849
    1C        C  466   2.812   4.332   4.965
    1C        C  467   2.914   4.428   4.966
    1C        C  468   4.124   4.289   2.046
    1C        C  469   4.192   4.253   2.163
    1C        C  470   4.011   4.374   2.284
    1C        C  471   4.130   4.296   2.283
    1C        C  472   3.945   4.409   2.404
    1C        C  473   4.009   4.374   2.525
    1C        C  474   3.814   4.466   2.644
    1C        C  475   3.943   4.410   2.645
    1C        C  476   3.747   4.491   2.766
    1C        C  477   3.815   4.470   2.888
    1C        C  478   3.608   4.523   3.010
    1C        C  479   3.746   4.491   3.010
    1C        C  480   3.540   4.526   3.134
    1C        C  481   3.610   4.524   3.256
    1C        C  482   3.397   4.539   3.379
    1C        C  483   3.538   4.535   3.377
    1C        C  484   3.329   4.532   3.503
    1C        C  485   3.400   4.542   3.625
    1C        C  486   3.191   4.508   3.748
    1C        C  487   3.328   4.544   3.746
    1C        C  488   3.126   4.483   3.871
    1C        C  489   3.194   4.504   3.993
    1C        C  490   3.001   4.424   4.119
    1C        C  491   3.128   4.485   4.117
    1C        C  492   2.944   4.386   4.242
    1C        C  493   2.998   4.429   4.366
    1C        C  494   2.829   4.305   4.486
    1C        C  495   2.933   4.400   4.488
    1C        C  496   2.773   4.260   4.608
    1C        C  497   2.821   4.317   4.728
    1C        C  498   2.672   4.164   4.849
    1C        C  499   2.759   4.276   4.848
    1C        C  500   2.602   4.115   4.959
    1C        C  501   4.001   4.353   2.045
    1C        C  502   3.816   4.462   2.159
    1C        C  503   3.944   4.403   2.163
    1C        C  504   3.744   4.482   2.279
    1C        C  505   3.812   4.456   2.400
    1C        C  506   3.605   4.505   2.521
    1C        C  507   3.744   4.479   2.522
    1C        C  508   3.537   4.518   2.644
    1C        C  509   3.609   4.519   2.766
    1C        C  510   3.397   4.527   2.888
    1C        C  511   3.538   4.530   2.888
    1C        C  512   3.327   4.520   3.011
    1C        C  513   3.398   4.526   3.133
    1C        C  514   3.191   4.496   3.256
    1C        C  515   3.328   4.528   3.256
    1C        C  516   3.126   4.473   3.379
    1C        C  517   3.191   4.499   3.502
    1C        C  518   3.000   4.418   3.627
    1C        C  519   3.126   4.480   3.626
    1C        C  520   2.943   4.380   3.750
    1C        C  521   3.002   4.415   3.874
    1C        C  522   2.836   4.288   3.997
    1C        C  523   2.942   4.381   3.997
    1C        C  524   2.788   4.239   4.121
    1C        C  525   2.837   4.293   4.242
    1C        C  526   2.698   4.136   4.367
    1C        C  527   2.784   4.248   4.364
    1C        C  528   2.656   4.082   4.490
    1C        C  529   2.688   4.148   4.611
    1C        C  530   2.589   3.958   4.734
    1C        C  531   2.648   4.088   4.732
    1C        C  532   2.544   3.901   4.856
    1C        C  533   2.526   3.998   4.959
    1C        C  534   3.620   4.555   2.044
    1C        C  535   3.755   4.517   2.045
    1C        C  536   3.535   4.536   2.158
    1C        C  537   3.606   4.517   2.279
    1C        C  538   3.392   4.521   2.402
    1C        C  539   3.533   4.519   2.400
    1C        C  540   3.323   4.513   2.525
    1C        C  541   3.396   4.515   2.646
    1C        C  542   3.187   4.485   2.767
    1C        C  543   3.324   4.518   2.768
    1C        C  544   3.121   4.466   2.891
    1C        C  545   3.189   4.491   3.012
    1C        C  546   2.996   4.407   3.137
    1C        C  547   3.122   4.471   3.135
    1C        C  548   2.938   4.371   3.261
    1C        C  549   2.999   4.411   3.382
    1C        C  550   2.834   4.282   3.507
    1C        C  551   2.938   4.378   3.506
    1C        C  552   2.783   4.236   3.631
    1C        C  553   2.834   4.290   3.751
    1C        C  554   2.704   4.124   3.877
    1C        C  555   2.791   4.236   3.874
    1C        C  556   2.669   4.063   3.999
    1C        C  557   2.707   4.124   4.121
    1C        C  558   2.603   3.945   4.249
    1C        C  559   2.669   4.069   4.246
    1C        C  560   2.580   3.879   4.372
    1C        C  561   2.601   3.951   4.491
    1C        C  562   2.538   3.751   4.617
    1C        C  563   2.567   3.889   4.613
    1C        C  564   2.517   3.681   4.738
    1C        C  565   2.520   3.760   4.857
    1C        C  566   2.522   3.546   4.979
    1C        C  567   2.522   3.685   4.975
    1C        C  568   3.330   4.475   2.042
    1C        C  569   3.394   4.519   2.159
    1C        C  570   3.185   4.471   2.281
    1C        C  571   3.321   4.512   2.280
    1C        C  572   3.119   4.456   2.405
    1C        C  573   3.185   4.487   2.526
    1C        C  574   2.986   4.407   2.650
    1C        C  575   3.115   4.465   2.647
    1C        C  576   2.928   4.372   2.774
    1C        C  577   2.992   4.409   2.894
    1C        C  578   2.832   4.270   3.018
    1C        C  579   2.937   4.364   3.016
    1C        C  580   2.783   4.225   3.143
    1C        C  581   2.833   4.278   3.264
    1C        C  582   2.701   4.114   3.385
    1C        C  583   2.785   4.227   3.387
    1C        C  584   2.669   4.056   3.510
    1C        C  585   2.703   4.120   3.632
    1C        C  586   2.605   3.935   3.757
    1C        C  587   2.669   4.061   3.756
    1C        C  588   2.580   3.872   3.881
    1C        C  589   2.612   3.934   4.004
    1C        C  590   2.543   3.738   4.129
    1C        C  591   2.578   3.875   4.128
    1C        C  592   2.530   3.670   4.252
    1C        C  593   2.546   3.742   4.373
    1C        C  594   2.518   3.536   4.500
    1C        C  595   2.527   3.677   4.497
    1C        C  596   2.517   3.462   4.621
    1C        C  597   2.520   3.539   4.740
    1C        C  598   2.532   3.328   4.866
    1C        C  599   2.524   3.469   4.862
    1C        C  600   2.531   3.247   4.980
    1C        C  601   3.197   4.440   2.043
    1C        C  602   2.983   4.396   2.160
    1C        C  603   3.119   4.443   2.159
    1C        C  604   2.923   4.365   2.285
    1C        C  605   2.989   4.400   2.404
    1C        C  606   2.821   4.275   2.528
    1C        C  607   2.928   4.368   2.528
    1C        C  608   2.776   4.224   2.652
    1C        C  609   2.824   4.276   2.774
    1C        C  610   2.693   4.110   2.895
    1C        C  611   2.778   4.222   2.896
    1C        C  612   2.658   4.053   3.020
    1C        C  613   2.698   4.112   3.142
    1C        C  614   2.596   3.926   3.268
    1C        C  615   2.659   4.053   3.264
    1C        C  616   2.576   3.863   3.393
    1C        C  617   2.611   3.928   3.514
    1C        C  618   2.541   3.730   3.640
    1C        C  619   2.579   3.866   3.637
    1C        C  620   2.527   3.666   3.765
    1C        C  621   2.541   3.736   3.887
    1C        C  622   2.514   3.525   4.011
    1C        C  623   2.533   3.665   4.008
    1C        C  624   2.510   3.457   4.134
    1C        C  625   2.516   3.530   4.255
    1C        C  626   2.537   3.323   4.383
    1C        C  627   2.518   3.463   4.379
    1C        C  628   2.553   3.252   4.504
    1C        C  629   2.533   3.322   4.625
    1C        C  630   2.589   3.118   4.746
    1C        C  631   2.541   3.252   4.747
    1C        C  632   2.618   3.051   4.869
    1C        C  633   2.561   3.111   4.985
    1C        C  634   2.781   4.305   2.054
    1C        C  635   2.892   4.389   2.049
    1C        C  636   2.745   4.238   2.172
    1C        C  637   2.812   4.276   2.290
    1C        C  638   2.674   4.113   2.411
    1C        C  639   2.764   4.221   2.411
    1C        C  640   2.640   4.053   2.535
    1C        C  641   2.688   4.113   2.653
    1C        C  642   2.592   3.922   2.778
    1C        C  643   2.654   4.049   2.774
    1C        C  644   2.568   3.858   2.901
    1C        C  645   2.598   3.925   3.021
    1C        C  646   2.535   3.725   3.150
    1C        C  647   2.575   3.861   3.145
    1C        C  648   2.517   3.659   3.273
    1C        C  649   2.534   3.728   3.395
    1C        C  650   2.512   3.519   3.522
    1C        C  651   2.526   3.660   3.518
    1C        C  652   2.516   3.452   3.646
    1C        C  653   2.518   3.525   3.767
    1C        C  654   2.529   3.313   3.893
    1C        C  655   2.514   3.453   3.889
    1C        C  656   2.549   3.246   4.016
    1C        C  657   2.532   3.317   4.137
    1C        C  658   2.602   3.121   4.260
    1C        C  659   2.550   3.252   4.261
    1C        C  660   2.629   3.052   4.381
    1C        C  661   2.594   3.116   4.502
    1C        C  662   2.707   2.940   4.629
    1C        C  663   2.625   3.056   4.625
    1C        C  664   2.751   2.879   4.748
    1C        C  665   2.698   2.932   4.869
    1C        C  666   2.744   2.868   4.985
    1C        C  667   2.680   4.030   2.058
    1C        C  668   2.678   4.113   2.171
    1C        C  669   2.586   3.917   2.292
    1C        C  670   2.638   4.049   2.290
    1C        C  671   2.562   3.850   2.414
    1C        C  672   2.589   3.921   2.533
    1C        C  673   2.524   3.720   2.660
    1C        C  674   2.564   3.856   2.656
    1C        C  675   2.513   3.652   2.783
    1C        C  676   2.537   3.720   2.905
    1C        C  677   2.511   3.513   3.033
    1C        C  678   2.524   3.653   3.029
    1C        C  679   2.516   3.445   3.157
    1C        C  680   2.511   3.517   3.278
    1C        C  681   2.533   3.308   3.404
    1C        C  682   2.512   3.448   3.400
    1C        C  683   2.551   3.243   3.528
    1C        C  684   2.531   3.311   3.650
    1C        C  685   2.593   3.109   3.771
    1C        C  686   2.541   3.240   3.772
    1C        C  687   2.634   3.052   3.894
    1C        C  688   2.603   3.116   4.016
    1C        C  689   2.706   2.933   4.142
    1C        C  690   2.632   3.053   4.140
    1C        C  691   2.753   2.879   4.264
    1C        C  692   2.709   2.935   4.385
    1C        C  693   2.753   2.882   4.509
    1C        C  694   2.628   3.900   2.058
    1C        C  695   2.538   3.704   2.176
    1C        C  696   2.580   3.839   2.174
    1C        C  697   2.513   3.639   2.299
    1C        C  698   2.525   3.714   2.419
    1C        C  699   2.499   3.505   2.544
    1C        C  700   2.511   3.645   2.541
    1C        C  701   2.511   3.437   2.668
    1C        C  702   2.506   3.511   2.788
    1C        C  703   2.532   3.302   2.913
    1C        C  704   2.508   3.441   2.911
    1C        C  705   2.550   3.234   3.036
    1C        C  706   2.537   3.305   3.157
    1C        C  707   2.596   3.106   3.282
    1C        C  708   2.549   3.239   3.282
    1C        C  709   2.630   3.046   3.406
    1C        C  710   2.601   3.110   3.528
    1C        C  711   2.708   2.928   3.649
    1C        C  712   2.626   3.044   3.650
    1C        C  713   2.750   2.875   3.773
    1C        C  714   2.709   2.933   3.895
    1C        C  715   2.750   2.878   4.019
    1C        C  716   2.446   3.502   2.066
    1C        C  717   2.491   3.635   2.064
    1C        C  718   2.464   3.422   2.183
    1C        C  719   2.486   3.500   2.301
    1C        C  720   2.515   3.293   2.427
    1C        C  721   2.487   3.431   2.424
    1C        C  722   2.538   3.224   2.549
    1C        C  723   2.529   3.297   2.669
    1C        C  724   2.594   3.097   2.794
    1C        C  725   2.548   3.231   2.792
    1C        C  726   2.619   3.032   2.917
    1C        C  727   2.592   3.099   3.038
    1C        C  728   2.701   2.920   3.160
    1C        C  729   2.623   3.038   3.162
    1C        C  730   2.752   2.875   3.284
    1C        C  731   2.710   2.929   3.407
    1C        C  732   2.750   2.868   3.528
    1C        C  733   2.491   3.198   2.075
    1C        C  734   2.493   3.282   2.187
    1C        C  735   2.590   3.089   2.306
    1C        C  736   2.532   3.219   2.308
    1C        C  737   2.616   3.025   2.429
    1C        C  738   2.587   3.092   2.550
    1C        C  739   2.694   2.910   2.674
    1C        C  740   2.618   3.029   2.672
    1C        C  741   2.736   2.852   2.795
    1C        C  742   2.691   2.911   2.916
    1C        C  743   2.742   2.861   3.038
    1C        C  744   2.550   3.072   2.074
    1C        C  745   2.685   2.896   2.188
    1C        C  746   2.609   3.015   2.188
    1C        C  747   2.729   2.839   2.310
    1C        C  748   2.685   2.901   2.429
    1C        C  749   2.736   2.852   2.551
    1C        C  750   2.739   2.844   2.070
    1C        C  751   3.663   2.304   1.995
    1C        O  752   3.630   2.184   2.013
    1C        O  753   3.683   2.346   1.863
    1C        C  754   4.604   3.054   1.964
    1C        O  755   4.564   3.045   1.844
    1C        O  756   4.740   3.023   1.973
    1C        C  757   4.457   4.222   1.965
    1C        O  758   4.530   4.310   2.019
    1C        O  759   4.483   4.193   1.830
    1C        C  760   3.600   4.669   1.952
    1C        O  761   3.604   4.784   2.002
    1C        O  762   3.629   4.667   1.815
    1C        C  763   2.884   4.480   1.933
    1C        O  764   2.953   4.468   1.828
    1C        O  765   2.836   4.610   1.951
    1C        C  766   2.330   3.467   1.981
    1C        O  767   2.350   3.431   1.862
    1C        O  768   2.206   3.531   1.993
    1C        C  769   4.680   3.587   5.070
    1C        O  770   4.648   3.537   5.181
    1C        O  771   4.809   3.555   5.028
    1C        C  772   4.278   4.464   5.031
    1C        O  773   4.272   4.494   5.153
    1C        O  774   4.380   4.544   4.977
    1C        C  775   4.152   2.523   5.066
    1C        O  776   4.167   2.398   5.070
    1C        O  777   4.222   2.595   5.164
    1C        C  778   2.882   4.544   5.052
    1C        O  779   2.779   4.616   5.047
    1C        O  780   2.905   4.527   5.190
    1C        C  781   2.453   3.034   5.052
    1C        O  782   2.368   2.968   4.987
    1C        O  783   2.455   3.012   5.190
    1C        C  784   2.387   4.019   5.007
    1C        O  785   2.293   4.066   4.938
    1C        O  786   2.344   3.994   5.138
    1C        C  787   2.955   2.421   2.004
    1C        O  788   2.936   2.436   1.880
    1C        O  789   2.919   2.290   2.033
    1C        C  790   3.181   2.376   5.068
    1C        O  791   3.160   2.260   5.024
    1C        O  792   3.216   2.380   5.203
    1C        H  793   4.299   3.017   5.066
    1C        H  794   4.143   2.838   5.060
    1C        H  795   4.493   3.128   5.062
    1C        H  796   4.515   3.376   5.065
    1C        H  797   4.583   3.819   5.041
    1C        H  798   4.369   3.951   5.055
    1C        H  799   4.315   4.187   5.051
    1C        H  800   4.055   4.574   5.004
    1C        H  801   3.823   4.583   5.041
    1C        H  802   3.587   4.655   5.031
    1C        H  803   3.403   4.475   5.039
    1C        H  804   3.173   4.426   5.036
    1C        H  805   3.891   2.482   5.069
    1C        H  806   3.679   2.465   5.074
    1C        H  807   3.047   2.611   5.079
    1C        H  808   3.443   2.503   5.082
    1C        H  809   2.868   2.726   5.081
    1C        H  810   2.681   2.871   5.072
    1C        H  811   2.512   3.291   5.076
    1C        H  812   2.487   3.504   5.071
    1C        H  813   2.577   3.732   5.054
    1C        H  814   2.577   4.185   5.036
    1C        H  815   2.764   4.313   5.059
    1C        H  816   2.734   2.907   1.983
    1C        H  817   2.830   2.676   1.982
    1C        H  818   3.209   2.404   2.004
    1C        H  819   3.428   2.422   1.982
    1C        H  820   3.832   2.581   1.990
    1C        H  821   4.080   2.579   1.979
    1C        H  822   4.286   2.708   1.982
    1C        H  823   4.344   2.954   1.979
    1C        H  824   4.578   3.317   1.966
    1C        H  825   4.473   3.517   1.969
    1C        H  826   4.528   3.762   1.962
    1C        H  827   3.823   4.579   1.990
    1C        H  828   3.933   4.322   1.968
    1C        H  829   4.183   4.312   1.960
    1C        H  830   4.477   3.963   1.961
    1C        H  831   2.596   3.863   1.963
    1C        H  832   2.767   4.039   1.997
    1C        H  833   2.718   4.295   1.967
    1C        H  834   3.387   4.429   1.964
    1C        H  835   3.176   4.353   1.984
    1C        H  836   2.508   3.002   2.004
    1C        H  837   2.415   3.217   2.002
    1C        H  838   2.462   3.690   1.977
    2V3OU   H29  839   2.799   3.554   6.587
    2V3OU   C27  840   2.782   3.504   6.685
    2V3OU   H27  841   2.718   3.570   6.750
    2V3OU   H28  842   2.729   3.408   6.661
    2V3OU   O11  843   2.911   3.468   6.736
    2V3OU   C15  844   2.923   3.396   6.854
    2V3OU   C13  845   3.053   3.381   6.907
    2V3OU   C14  846   3.075   3.269   6.988
    2V3OU   C16  847   2.972   3.191   0.013
    2V3OU    H6  848   2.993   3.112   0.087
    2V3OU   C12  849   3.217   3.232   7.009
    2V3OU    O2  850   3.247   3.129   0.046
    2V3OU   C10  851   3.327   3.317   6.961
    2V3OU    C8  852   3.459   3.279   6.982
    2V3OU   O10  853   3.488   3.158   0.008
    2V3OU   H26  854   3.404   3.121   0.037
    2V3OU    C6  855   3.565   3.351   6.919
    2V3OU    C5  856   3.540   3.467   6.846
    2V3OU    C4  857   3.704   3.296   6.920
    2V3OU    H4  858   3.724   3.229   7.008
    2V3OU    H5  859   3.713   3.234   6.826
    2V3OU    C2  860   3.817   3.399   6.922
    2V3OU    O6  861   3.810   3.474   0.016
    2V3OU   H21  862   3.769   3.561   7.025
    2V3OU    C3  863   3.785   3.499   6.811
    2V3OU    H2  864   3.862   3.580   6.806
    2V3OU    H3  865   3.792   3.442   6.714
    2V3OU   C25  866   3.951   3.326   6.913
    2V3OU    O7  867   4.001   3.287   6.808
    2V3OU   C26  868   4.033   3.290   0.009
    2V3OU   H22  869   4.071   3.386   0.052
    2V3OU   H23  870   4.119   3.224   7.007
    2V3OU    O8  871   3.962   3.213   0.104
    2V3OU   H24  872   3.931   3.268   0.178
    2V3OU    C1  873   3.649   3.566   6.817
    2V3OU    H1  874   3.628   3.621   6.720
    2V3OU    O3  875   3.661   3.657   6.927
    2V3OU   C19  876   3.614   3.791   6.910
    2V3OU    H9  877   3.518   3.803   6.852
    2V3OU    O4  878   3.712   3.845   6.824
    2V3OU   C20  879   3.845   3.872   6.869
    2V3OU   H10  880   3.902   3.774   6.876
    2V3OU   C24  881   3.610   3.862   0.018
    2V3OU   H16  882   3.542   3.802   0.085
    2V3OU   H17  883   3.566   3.963   0.001
    2V3OU   C23  884   3.752   3.875   0.075
    2V3OU   H15  885   3.794   3.771   0.098
    2V3OU    N1  886   3.741   3.955   0.195
    2V3OU   H19  887   3.812   3.922   0.258
    2V3OU   H20  888   3.651   3.938   0.236
    2V3OU   C21  889   3.847   3.948   7.002
    2V3OU   H11  890   3.945   3.930   0.029
    2V3OU    O5  891   3.830   4.088   6.993
    2V3OU   H18  892   3.780   4.111   0.046
    2V3OU   C22  893   3.913   3.954   6.761
    2V3OU   H12  894   3.856   4.049   6.745
    2V3OU   H13  895   3.907   3.898   6.664
    2V3OU   H14  896   4.023   3.965   6.778
    2V3OU   C11  897   3.161   3.474   6.869
    2V3OU    O1  898   3.135   3.591   6.835
    2V3OU    C9  899   3.301   3.428   6.877
    2V3OU    C7  900   3.404   3.511   6.834
    2V3OU    O9  901   3.385   3.622   6.754
    2V3OU   H25  902   3.288   3.631   6.755
    2V3OU   C17  903   2.820   3.317   6.908
    2V3OU    H7  904   2.720   3.344   6.875
    2V3OU   C18  905   2.842   3.212   6.996
    2V3OU    H8  906   2.756   3.148   7.020
    3SOL     OW  907   2.512   3.480   5.450
    3SOL    HW1  908   2.514   3.399   5.508
    3SOL    HW2  909   2.436   3.473   5.386
    4SOL     OW  910   1.169   0.494   0.978
    4SOL    HW1  911   1.253   0.443   0.961
    4SOL    HW2  912   1.091   0.431   0.973
    5SOL     OW  913   3.466   1.752   0.240
    5SOL    HW1  914   3.481   1.841   0.282
    5SOL    HW2  915   3.531   1.686   0.277
    6SOL     OW  916   2.829   2.166   1.822
    6SOL    HW1  917   2.876   2.222   1.890
    6SOL    HW2  918   2.860   2.191   1.730
    7SOL     OW  919   1.855   2.796   4.586
    7SOL    HW1  920   1.902   2.854   4.653
    7SOL    HW2  921   1.847   2.846   4.500
    8SOL     OW  922   1.003   1.607   6.125
    8SOL    HW1  923   1.016   1.517   6.168
    8SOL    HW2  924   1.077   1.668   6.153
    9SOL     OW  925   1.762   2.640   5.553
    9SOL    HW1  926   1.724   2.674   5.639
    9SOL    HW2  927   1.853   2.679   5.539
   10SOL     OW  928   6.063   5.076   0.670
   10SOL    HW1  929   6.096   4.989   0.633
   10SOL    HW2  930   6.133   5.115   0.730
   11SOL     OW  931   3.409   0.704   0.794
   11SOL    HW1  932   3.375   0.735   0.706
   11SOL    HW2  933   3.348   0.735   0.867
   12SOL     OW  934   5.920   4.874   1.110
   12SOL    HW1  935   5.865   4.956   1.098
   12SOL    HW2  936   5.861   4.794   1.108
   13SOL     OW  937   4.762   6.210   1.778
   13SOL    HW1  938   4.719   6.289   1.823
   13SOL    HW2  939   4.692   6.139   1.762
   14SOL     OW  940   4.665   5.583   1.633
   14SOL    HW1  941   4.736   5.582   1.562
   14SOL    HW2  942   4.665   5.496   1.682
   15SOL     OW  943   0.629   0.148   7.025
   15SOL    HW1  944   0.660   0.054   0.013
   15SOL    HW2  945   0.585   0.155   6.936
   16SOL     OW  946   1.928   4.675   5.323
   16SOL    HW1  947   2.011   4.717   5.287
   16SOL    HW2  948   1.877   4.632   5.248
   17SOL     OW  949   0.341   2.110   4.204
   17SOL    HW1  950   0.425   2.056   4.220
   17SOL    HW2  951   0.286   2.109   4.288
   18SOL     OW  952   2.845   6.884   4.976
   18SOL    HW1  953   2.790   6.897   5.058
   18SOL    HW2  954   2.937   6.919   4.991
   19SOL     OW  955   4.400   5.917   3.608
   19SOL    HW1  956   4.450   6.001   3.587
   19SOL    HW2  957   4.392   5.862   3.525
   20SOL     OW  958   0.024   1.825   4.631
   20SOL    HW1  959   0.097   1.757   4.640
   20SOL    HW2  960   0.021   1.882   4.714
   21SOL     OW  961   2.021   3.205   2.009
   21SOL    HW1  962   2.102   3.209   2.068
   21SOL    HW2  963   1.978   3.115   2.018
   22SOL     OW  964   0.225   0.198   0.349
   22SOL    HW1  965   0.213   0.264   0.424
   22SOL    HW2  966   0.311   0.216   0.302
   23SOL     OW  967   0.553   5.340   0.674
   23SOL    HW1  968   0.457   5.337   0.705
   23SOL    HW2  969   0.610   5.294   0.742
   24SOL     OW  970   4.899   1.060   5.665
   24SOL    HW1  971   4.815   1.019   5.701
   24SOL    HW2  972   4.931   1.007   5.587
   25SOL     OW  973   1.958   0.086   5.475
   25SOL    HW1  974   2.053   0.106   5.450
   25SOL    HW2  975   1.897   0.146   5.423
   26SOL     OW  976   2.570   6.608   5.647
   26SOL    HW1  977   2.489   6.653   5.685
   26SOL    HW2  978   2.551   6.510   5.635
   27SOL     OW  979   0.295   0.113   1.966
   27SOL    HW1  980   0.245   0.121   1.880
   27SOL    HW2  981   0.261   0.034   2.018
   28SOL     OW  982   2.315   0.289   5.176
   28SOL    HW1  983   2.398   0.339   5.199
   28SOL    HW2  984   2.235   0.338   5.211
   29SOL     OW  985   4.994   1.118   1.960
   29SOL    HW1  986   4.946   1.091   2.044
   29SOL    HW2  987   4.964   1.061   1.884
   30SOL     OW  988   4.350   6.712   4.877
   30SOL    HW1  989   4.273   6.773   4.860
   30SOL    HW2  990   4.316   6.620   4.895
   31SOL     OW  991   5.717   4.061   4.188
   31SOL    HW1  992   5.755   4.023   4.103
   31SOL    HW2  993   5.791   4.101   4.242
   32SOL     OW  994   4.031   0.975   1.637
   32SOL    HW1  995   4.063   1.018   1.553
   32SOL    HW2  996   3.931   0.971   1.636
   33SOL     OW  997   1.743   4.859   5.330
   33SOL    HW1  998   1.680   4.839   5.255
   33SOL    HW2  999   1.821   4.797   5.325
   34SOL     OW 1000   2.651   6.918   5.182
   34SOL    HW1 1001   2.618   6.965   5.264
   34SOL    HW2 1002   2.584   6.930   5.108
   35SOL     OW 1003   1.127   3.497   4.901
   35SOL    HW1 1004   1.213   3.518   4.854
   35SOL    HW2 1005   1.098   3.404   4.877
   36SOL     OW 1006   5.701   1.100   4.566
   36SOL    HW1 1007   5.789   1.057   4.545
   36SOL    HW2 1008   5.697   1.191   4.524
   37SOL     OW 1009   1.229   5.829   3.700
   37SOL    HW1 1010   1.196   5.783   3.618
   37SOL    HW2 1011   1.153   5.875   3.746
   38SOL     OW 1012   0.679   3.371   1.683
   38SOL    HW1 1013   0.654   3.399   1.591
   38SOL    HW2 1014   0.773   3.337   1.684
   39SOL     OW 1015   6.316   5.615   1.526
   39SOL    HW1 1016   6.300   5.517   1.522
   39SOL    HW2 1017   6.310   5.654   1.434
   40SOL     OW 1018   4.360   0.249   5.507
   40SOL    HW1 1019   4.306   0.169   5.536
   40SOL    HW2 1020   4.456   0.222   5.498
   41SOL     OW 1021   0.446   3.622   1.010
   41SOL    HW1 1022   0.489   3.571   0.936
   41SOL    HW2 1023   0.364   3.574   1.040
   42SOL     OW 1024   2.483   3.644   0.951
   42SOL    HW1 1025   2.428   3.666   1.032
   42SOL    HW2 1026   2.534   3.559   0.967
   43SOL     OW 1027   5.098   0.878   2.832
   43SOL    HW1 1028   5.132   0.803   2.888
   43SOL    HW2 1029   5.122   0.862   2.737
   44SOL     OW 1030   0.091   0.652   6.620
   44SOL    HW1 1031   0.074   0.751   6.612
   44SOL    HW2 1032   0.069   0.607   6.534
   45SOL     OW 1033   2.110   3.718   4.913
   45SOL    HW1 1034   2.090   3.757   4.823
   45SOL    HW2 1035   2.143   3.624   4.902
   46SOL     OW 1036   0.755   6.023   4.775
   46SOL    HW1 1037   0.825   6.048   4.708
   46SOL    HW2 1038   0.664   6.030   4.732
   47SOL     OW 1039   0.782   4.286   6.561
   47SOL    HW1 1040   0.832   4.200   6.573
   47SOL    HW2 1041   0.842   4.353   6.518
   48SOL     OW 1042   0.941   4.123   0.268
   48SOL    HW1 1043   1.016   4.167   0.219
   48SOL    HW2 1044   0.861   4.118   0.209
   49SOL     OW 1045   3.987   6.744   6.851
   49SOL    HW1 1046   3.887   6.736   6.847
   49SOL    HW2 1047   4.012   6.839   6.872
   50SOL     OW 1048   4.933   2.011   5.983
   50SOL    HW1 1049   4.876   2.069   6.041
   50SOL    HW2 1050   4.931   1.918   6.018
   51SOL     OW 1051   1.131   6.841   1.251
   51SOL    HW1 1052   1.125   6.754   1.300
   51SOL    HW2 1053   1.179   6.908   1.307
   52SOL     OW 1054   4.878   3.255   2.630
   52SOL    HW1 1055   4.865   3.231   2.534
   52SOL    HW2 1056   4.876   3.355   2.640
   53SOL     OW 1057   4.190   6.731   1.011
   53SOL    HW1 1058   4.238   6.816   0.988
   53SOL    HW2 1059   4.149   6.738   1.102
   54SOL     OW 1060   0.522   1.097   6.170
   54SOL    HW1 1061   0.544   1.042   6.090
   54SOL    HW2 1062   0.423   1.097   6.184
   55SOL     OW 1063   2.767   3.659   6.253
   55SOL    HW1 1064   2.673   3.624   6.260
   55SOL    HW2 1065   2.830   3.596   6.299
   56SOL     OW 1066   1.512   2.011   0.347
   56SOL    HW1 1067   1.548   1.937   0.291
   56SOL    HW2 1068   1.423   2.039   0.313
   57SOL     OW 1069   4.105   6.497   1.579
   57SOL    HW1 1070   4.104   6.418   1.518
   57SOL    HW2 1071   4.068   6.471   1.668
   58SOL     OW 1072   0.936   0.355   0.640
   58SOL    HW1 1073   1.032   0.336   0.662
   58SOL    HW2 1074   0.904   0.287   0.574
   59SOL     OW 1075   4.698   3.908   6.802
   59SOL    HW1 1076   4.662   3.863   6.884
   59SOL    HW2 1077   4.624   3.956   6.755
   60SOL     OW 1078   6.276   2.465   2.167
   60SOL    HW1 1079   6.248   2.486   2.261
   60SOL    HW2 1080   6.368   2.501   2.152
   61SOL     OW 1081   0.692   4.510   2.636
   61SOL    HW1 1082   0.698   4.519   2.736
   61SOL    HW2 1083   0.703   4.600   2.594
   62SOL     OW 1084   5.086   4.022   3.150
   62SOL    HW1 1085   4.986   4.027   3.156
   62SOL    HW2 1086   5.116   4.062   3.063
   63SOL     OW 1087   4.708   0.052   5.882
   63SOL    HW1 1088   4.780   0.066   5.815
   63SOL    HW2 1089   4.710   0.126   5.950
   64SOL     OW 1090   2.141   1.618   6.565
   64SOL    HW1 1091   2.176   1.562   6.640
   64SOL    HW2 1092   2.127   1.712   6.597
   65SOL     OW 1093   0.811   5.334   5.219
   65SOL    HW1 1094   0.785   5.430   5.212
   65SOL    HW2 1095   0.867   5.308   5.140
   66SOL     OW 1096   4.447   1.704   1.626
   66SOL    HW1 1097   4.413   1.763   1.554
   66SOL    HW2 1098   4.541   1.730   1.649
   67SOL     OW 1099   0.218   2.744   3.004
   67SOL    HW1 1100   0.139   2.692   2.973
   67SOL    HW2 1101   0.202   2.777   3.097
   68SOL     OW 1102   6.989   0.965   5.407
   68SOL    HW1 1103   6.913   0.908   5.438
   68SOL    HW2 1104   0.044   0.909   5.400
   69SOL     OW 1105   2.012   0.880   5.999
   69SOL    HW1 1106   1.965   0.924   6.075
   69SOL    HW2 1107   2.082   0.817   6.034
   70SOL     OW 1108   5.289   5.114   2.795
   70SOL    HW1 1109   5.240   5.200   2.814
   70SOL    HW2 1110   5.375   5.135   2.748
   71SOL     OW 1111   5.651   1.437   5.446
   71SOL    HW1 1112   5.627   1.517   5.391
   71SOL    HW2 1113   5.570   1.400   5.489
   72SOL     OW 1114   6.241   2.193   2.198
   72SOL    HW1 1115   6.267   2.281   2.159
   72SOL    HW2 1116   6.200   2.207   2.288
   73SOL     OW 1117   2.076   1.401   0.407
   73SOL    HW1 1118   2.081   1.312   0.453
   73SOL    HW2 1119   2.133   1.467   0.454
   74SOL     OW 1120   2.658   0.575   0.302
   74SOL    HW1 1121   2.639   0.637   0.226
   74SOL    HW2 1122   2.742   0.605   0.348
   75SOL     OW 1123   2.980   3.303   1.119
   75SOL    HW1 1124   2.899   3.345   1.077
   75SOL    HW2 1125   3.025   3.370   1.179
   76SOL     OW 1126   3.041   5.098   6.040
   76SOL    HW1 1127   2.971   5.122   5.973
   76SOL    HW2 1128   3.025   5.151   6.124
   77SOL     OW 1129   0.374   4.743   5.614
   77SOL    HW1 1130   0.297   4.680   5.603
   77SOL    HW2 1131   0.454   4.706   5.567
   78SOL     OW 1132   4.621   1.631   0.806
   78SOL    HW1 1133   4.551   1.660   0.741
   78SOL    HW2 1134   4.705   1.681   0.788
   79SOL     OW 1135   2.439   4.916   4.522
   79SOL    HW1 1136   2.528   4.909   4.478
   79SOL    HW2 1137   2.405   5.010   4.515
   80SOL     OW 1138   4.450   2.146   5.102
   80SOL    HW1 1139   4.458   2.218   5.033
   80SOL    HW2 1140   4.393   2.072   5.066
   81SOL     OW 1141   1.738   5.194   2.759
   81SOL    HW1 1142   1.795   5.274   2.777
   81SOL    HW2 1143   1.677   5.214   2.682
   82SOL     OW 1144   2.566   0.164   1.410
   82SOL    HW1 1145   2.662   0.186   1.391
   82SOL    HW2 1146   2.510   0.184   1.329
   83SOL     OW 1147   6.314   2.525   3.932
   83SOL    HW1 1148   6.228   2.499   3.888
   83SOL    HW2 1149   6.327   2.471   4.015
   84SOL     OW 1150   5.208   2.112   3.126
   84SOL    HW1 1151   5.173   2.204   3.146
   84SOL    HW2 1152   5.193   2.053   3.205
   85SOL     OW 1153   2.254   5.225   2.927
   85SOL    HW1 1154   2.163   5.185   2.914
   85SOL    HW2 1155   2.286   5.204   3.019
   86SOL     OW 1156   5.176   1.220   5.392
   86SOL    HW1 1157   5.108   1.214   5.319
   86SOL    HW2 1158   5.219   1.131   5.406
   87SOL     OW 1159   2.930   1.878   6.615
   87SOL    HW1 1160   2.954   1.819   6.538
   87SOL    HW2 1161   2.876   1.826   6.681
   88SOL     OW 1162   0.791   1.817   0.181
   88SOL    HW1 1163   0.790   1.916   0.193
   88SOL    HW2 1164   0.835   1.774   0.259
   89SOL     OW 1165   4.440   4.345   6.162
   89SOL    HW1 1166   4.538   4.363   6.169
   89SOL    HW2 1167   4.421   4.252   6.194
   90SOL     OW 1168   7.009   3.755   1.969
   90SOL    HW1 1169   6.933   3.714   1.918
   90SOL    HW2 1170   0.063   3.697   1.959
   91SOL     OW 1171   5.332   4.829   0.946
   91SOL    HW1 1172   5.431   4.839   0.958
   91SOL    HW2 1173   5.311   4.817   0.849
   92SOL     OW 1174   0.034   6.296   6.969
   92SOL    HW1 1175   0.069   6.387   6.990
   92SOL    HW2 1176   6.977   6.305   6.915
   93SOL     OW 1177   2.986   3.538   2.375
   93SOL    HW1 1178   2.922   3.514   2.302
   93SOL    HW2 1179   2.947   3.513   2.464
   94SOL     OW 1180   4.043   0.905   4.279
   94SOL    HW1 1181   4.071   0.902   4.183
   94SOL    HW2 1182   4.124   0.910   4.337
   95SOL     OW 1183   0.694   6.824   3.857
   95SOL    HW1 1184   0.631   6.770   3.803
   95SOL    HW2 1185   0.668   6.921   3.853
   96SOL     OW 1186   0.805   6.971   0.693
   96SOL    HW1 1187   0.863   7.007   0.620
   96SOL    HW2 1188   0.712   7.007   0.683
   97SOL     OW 1189   3.929   5.094   5.382
   97SOL    HW1 1190   3.926   5.193   5.372
   97SOL    HW2 1191   3.858   5.053   5.324
   98SOL     OW 1192   6.785   2.039   5.354
   98SOL    HW1 1193   6.753   1.972   5.286
   98SOL    HW2 1194   6.786   1.997   5.444
   99SOL     OW 1195   5.435   5.041   4.778
   99SOL    HW1 1196   5.484   5.085   4.853
   99SOL    HW2 1197   5.500   5.019   4.705
  100SOL     OW 1198   1.788   1.856   5.742
  100SOL    HW1 1199   1.705   1.893   5.784
  100SOL    HW2 1200   1.860   1.849   5.811
  101SOL     OW 1201   5.293   2.806   2.508
  101SOL    HW1 1202   5.255   2.883   2.457
  101SOL    HW2 1203   5.246   2.722   2.482
  102SOL     OW 1204   5.356   6.508   0.848
  102SOL    HW1 1205   5.311   6.564   0.778
  102SOL    HW2 1206   5.455   6.521   0.842
  103SOL     OW 1207   2.077   2.456   0.983
  103SOL    HW1 1208   2.044   2.377   1.035
  103SOL    HW2 1209   2.117   2.523   1.045
  104SOL     OW 1210   0.949   4.056   1.701
  104SOL    HW1 1211   0.969   4.153   1.688
  104SOL    HW2 1212   1.029   4.001   1.678
  105SOL     OW 1213   0.616   1.582   4.304
  105SOL    HW1 1214   0.637   1.501   4.358
  105SOL    HW2 1215   0.539   1.631   4.345
  106SOL     OW 1216   5.672   2.766   1.596
  106SOL    HW1 1217   5.573   2.753   1.584
  106SOL    HW2 1218   5.720   2.730   1.516
  107SOL     OW 1219   4.955   0.347   2.083
  107SOL    HW1 1220   4.894   0.421   2.053
  107SOL    HW2 1221   4.900   0.266   2.107
  108SOL     OW 1222   4.295   1.079   4.858
  108SOL    HW1 1223   4.343   1.000   4.818
  108SOL    HW2 1224   4.196   1.066   4.848
  109SOL     OW 1225   2.578   1.601   3.732
  109SOL    HW1 1226   2.669   1.611   3.692
  109SOL    HW2 1227   2.588   1.572   3.828
  110SOL     OW 1228   4.501   4.759   5.316
  110SOL    HW1 1229   4.482   4.839   5.260
  110SOL    HW2 1230   4.467   4.774   5.409
  111SOL     OW 1231   6.820   3.647   7.025
  111SOL    HW1 1232   6.803   3.616   6.931
  111SOL    HW2 1233   6.913   3.623   0.025
  112SOL     OW 1234   3.654   6.030   5.356
  112SOL    HW1 1235   3.568   6.035   5.304
  112SOL    HW2 1236   3.712   6.108   5.332
  113SOL     OW 1237   1.305   4.507   2.496
  113SOL    HW1 1238   1.233   4.542   2.437
  113SOL    HW2 1239   1.278   4.517   2.592
  114SOL     OW 1240   6.339   1.858   1.706
  114SOL    HW1 1241   6.343   1.822   1.799
  114SOL    HW2 1242   6.270   1.808   1.653
  115SOL     OW 1243   4.525   0.174   3.259
  115SOL    HW1 1244   4.477   0.140   3.340
  115SOL    HW2 1245   4.522   0.105   3.187
  116SOL     OW 1246   5.924   5.774   6.523
  116SOL    HW1 1247   5.997   5.754   6.589
  116SOL    HW2 1248   5.875   5.690   6.501
  117SOL     OW 1249   1.328   1.630   0.388
  117SOL    HW1 1250   1.314   1.722   0.424
  117SOL    HW2 1251   1.328   1.633   0.288
  118SOL     OW 1252   1.051   2.804   1.581
  118SOL    HW1 1253   1.047   2.706   1.600
  118SOL    HW2 1254   0.959   2.838   1.560
  119SOL     OW 1255   5.035   5.072   3.973
  119SOL    HW1 1256   4.979   5.142   4.019
  119SOL    HW2 1257   5.088   5.022   4.041
  120SOL     OW 1258   5.052   1.026   4.108
  120SOL    HW1 1259   5.088   1.115   4.138
  120SOL    HW2 1260   5.093   1.002   4.020
  121SOL     OW 1261   6.489   5.213   6.042
  121SOL    HW1 1262   6.585   5.230   6.067
  121SOL    HW2 1263   6.479   5.221   5.943
  122SOL     OW 1264   0.543   5.607   5.548
  122SOL    HW1 1265   0.606   5.677   5.515
  122SOL    HW2 1266   0.457   5.612   5.497
  123SOL     OW 1267   0.991   1.917   1.060
  123SOL    HW1 1268   0.951   1.953   0.976
  123SOL    HW2 1269   0.924   1.921   1.134
  124SOL     OW 1270   1.737   3.447   0.055
  124SOL    HW1 1271   1.752   3.540   0.020
  124SOL    HW2 1272   1.653   3.410   0.016
  125SOL     OW 1273   4.179   3.270   2.163
  125SOL    HW1 1274   4.260   3.229   2.204
  125SOL    HW2 1275   4.187   3.266   2.063
  126SOL     OW 1276   3.506   3.406   5.376
  126SOL    HW1 1277   3.472   3.356   5.456
  126SOL    HW2 1278   3.428   3.435   5.320
  127SOL     OW 1279   0.371   4.743   6.310
  127SOL    HW1 1280   0.408   4.730   6.218
  127SOL    HW2 1281   0.436   4.705   6.377
  128SOL     OW 1282   4.712   4.362   6.253
  128SOL    HW1 1283   4.720   4.263   6.266
  128SOL    HW2 1284   4.705   4.407   6.342
  129SOL     OW 1285   1.170   5.026   2.975
  129SOL    HW1 1286   1.083   5.028   2.924
  129SOL    HW2 1287   1.235   4.968   2.927
  130SOL     OW 1288   6.470   4.363   5.127
  130SOL    HW1 1289   6.410   4.395   5.201
  130SOL    HW2 1290   6.532   4.293   5.162
  131SOL     OW 1291   0.276   2.779   1.485
  131SOL    HW1 1292   0.360   2.748   1.441
  131SOL    HW2 1293   0.283   2.761   1.584
  132SOL     OW 1294   3.649   3.784   1.883
  132SOL    HW1 1295   3.619   3.801   1.977
  132SOL    HW2 1296   3.667   3.687   1.871
  133SOL     OW 1297   4.707   4.601   6.128
  133SOL    HW1 1298   4.701   4.505   6.157
  133SOL    HW2 1299   4.773   4.649   6.186
  134SOL     OW 1300   0.626   2.034   6.848
  134SOL    HW1 1301   0.567   2.053   6.927
  134SOL    HW2 1302   0.665   1.943   6.856
  135SOL     OW 1303   4.356   5.102   3.959
  135SOL    HW1 1304   4.401   5.045   3.889
  135SOL    HW2 1305   4.344   5.049   4.043
  136SOL     OW 1306   3.334   6.704   6.875
  136SOL    HW1 1307   3.292   6.787   6.911
  136SOL    HW2 1308   3.284   6.624   6.908
  137SOL     OW 1309   1.581   4.388   0.360
  137SOL    HW1 1310   1.657   4.424   0.413
  137SOL    HW2 1311   1.505   4.365   0.421
  138SOL     OW 1312   0.181   6.805   1.903
  138SOL    HW1 1313   0.220   6.842   1.987
  138SOL    HW2 1314   0.176   6.705   1.908
  139SOL     OW 1315   1.361   0.303   0.978
  139SOL    HW1 1316   1.335   0.232   0.912
  139SOL    HW2 1317   1.308   0.292   1.062
  140SOL     OW 1318   2.563   0.290   3.255
  140SOL    HW1 1319   2.522   0.299   3.164
  140SOL    HW2 1320   2.662   0.299   3.249
  141SOL     OW 1321   2.385   2.692   0.914
  141SOL    HW1 1322   2.449   2.618   0.936
  141SOL    HW2 1323   2.335   2.719   0.996
  142SOL     OW 1324   1.333   4.634   6.250
  142SOL    HW1 1325   1.251   4.628   6.193
  142SOL    HW2 1326   1.319   4.703   6.321
  143SOL     OW 1327   4.130   6.087   2.175
  143SOL    HW1 1328   4.205   6.129   2.124
  143SOL    HW2 1329   4.058   6.060   2.111
  144SOL     OW 1330   2.479   4.873   3.129
  144SOL    HW1 1331   2.536   4.822   3.194
  144SOL    HW2 1332   2.396   4.821   3.109
  145SOL     OW 1333   6.220   6.746   2.262
  145SOL    HW1 1334   6.140   6.788   2.304
  145SOL    HW2 1335   6.220   6.764   2.164
  146SOL     OW 1336   6.197   1.294   4.704
  146SOL    HW1 1337   6.226   1.267   4.612
  146SOL    HW2 1338   6.254   1.249   4.772
  147SOL     OW 1339   5.982   6.385   5.634
  147SOL    HW1 1340   6.056   6.439   5.674
  147SOL    HW2 1341   6.015   6.337   5.553
  148SOL     OW 1342   2.744   0.266   3.847
  148SOL    HW1 1343   2.727   0.359   3.881
  148SOL    HW2 1344   2.705   0.256   3.755
  149SOL     OW 1345   2.183   1.835   5.477
  149SOL    HW1 1346   2.106   1.773   5.460
  149SOL    HW2 1347   2.154   1.908   5.539
  150SOL     OW 1348   5.245   3.403   3.877
  150SOL    HW1 1349   5.282   3.405   3.970
  150SOL    HW2 1350   5.145   3.406   3.881
  151SOL     OW 1351   6.313   2.702   1.810
  151SOL    HW1 1352   6.371   2.645   1.751
  151SOL    HW2 1353   6.327   2.798   1.787
  152SOL     OW 1354   6.309   1.372   0.245
  152SOL    HW1 1355   6.326   1.385   0.147
  152SOL    HW2 1356   6.217   1.402   0.267
  153SOL     OW 1357   1.790   1.636   3.691
  153SOL    HW1 1358   1.709   1.668   3.738
  153SOL    HW2 1359   1.764   1.592   3.605
  154SOL     OW 1360   0.142   1.852   3.390
  154SOL    HW1 1361   0.230   1.884   3.354
  154SOL    HW2 1362   0.071   1.918   3.368
  155SOL     OW 1363   6.108   5.552   3.451
  155SOL    HW1 1364   6.199   5.570   3.488
  155SOL    HW2 1365   6.117   5.510   3.360
  156SOL     OW 1366   4.032   6.865   0.621
  156SOL    HW1 1367   4.015   6.769   0.644
  156SOL    HW2 1368   4.068   6.912   0.701
  157SOL     OW 1369   5.726   1.761   0.686
  157SOL    HW1 1370   5.792   1.723   0.621
  157SOL    HW2 1371   5.635   1.726   0.664
  158SOL     OW 1372   1.011   2.545   5.512
  158SOL    HW1 1373   0.920   2.530   5.552
  158SOL    HW2 1374   1.046   2.634   5.542
  159SOL     OW 1375   0.356   4.733   6.933
  159SOL    HW1 1376   0.318   4.797   7.000
  159SOL    HW2 1377   0.378   4.647   6.979
  160SOL     OW 1378   4.317   0.297   1.672
  160SOL    HW1 1379   4.259   0.258   1.743
  160SOL    HW2 1380   4.271   0.290   1.584
  161SOL     OW 1381   5.508   6.472   1.165
  161SOL    HW1 1382   5.528   6.560   1.207
  161SOL    HW2 1383   5.413   6.470   1.136
  162SOL     OW 1384   4.240   0.247   5.228
  162SOL    HW1 1385   4.313   0.254   5.295
  162SOL    HW2 1386   4.157   0.214   5.273
  163SOL     OW 1387   1.680   4.233   3.273
  163SOL    HW1 1388   1.638   4.321   3.295
  163SOL    HW2 1389   1.771   4.228   3.313
  164SOL     OW 1390   2.118   3.090   2.242
  164SOL    HW1 1391   2.130   3.021   2.170
  164SOL    HW2 1392   2.108   3.044   2.330
  165SOL     OW 1393   6.935   6.106   4.688
  165SOL    HW1 1394   6.854   6.052   4.713
  165SOL    HW2 1395   6.907   6.191   4.643
  166SOL     OW 1396   0.652   5.494   4.385
  166SOL    HW1 1397   0.720   5.426   4.359
  166SOL    HW2 1398   0.683   5.543   4.466
  167SOL     OW 1399   0.290   1.295   3.199
  167SOL    HW1 1400   0.303   1.306   3.298
  167SOL    HW2 1401   0.306   1.199   3.174
  168SOL     OW 1402   3.358   4.106   4.951
  168SOL    HW1 1403   3.260   4.118   4.967
  168SOL    HW2 1404   3.374   4.083   4.855
  169SOL     OW 1405   4.705   2.849   6.206
  169SOL    HW1 1406   4.644   2.791   6.260
  169SOL    HW2 1407   4.717   2.809   6.115
  170SOL     OW 1408   6.090   5.138   3.109
  170SOL    HW1 1409   5.998   5.158   3.144
  170SOL    HW2 1410   6.084   5.077   3.030
  171SOL     OW 1411   3.377   3.054   1.042
  171SOL    HW1 1412   3.413   2.984   1.103
  171SOL    HW2 1413   3.277   3.048   1.041
  172SOL     OW 1414   1.824   0.491   0.335
  172SOL    HW1 1415   1.919   0.460   0.328
  172SOL    HW2 1416   1.790   0.473   0.427
  173SOL     OW 1417   5.586   0.980   4.804
  173SOL    HW1 1418   5.651   0.975   4.728
  173SOL    HW2 1419   5.525   0.900   4.801
  174SOL     OW 1420   6.469   5.488   3.758
  174SOL    HW1 1421   6.439   5.552   3.829
  174SOL    HW2 1422   6.563   5.459   3.777
  175SOL     OW 1423   0.417   5.566   1.762
  175SOL    HW1 1424   0.474   5.635   1.805
  175SOL    HW2 1425   0.379   5.602   1.677
  176SOL     OW 1426   5.415   3.536   0.930
  176SOL    HW1 1427   5.447   3.564   0.839
  176SOL    HW2 1428   5.369   3.613   0.974
  177SOL     OW 1429   5.328   2.697   4.093
  177SOL    HW1 1430   5.414   2.709   4.043
  177SOL    HW2 1431   5.266   2.639   4.039
  178SOL     OW 1432   0.963   5.117   4.505
  178SOL    HW1 1433   0.895   5.053   4.469
  178SOL    HW2 1434   1.023   5.147   4.430
  179SOL     OW 1435   3.150   4.064   1.804
  179SOL    HW1 1436   3.161   3.995   1.732
  179SOL    HW2 1437   3.145   4.155   1.762
  180SOL     OW 1438   5.591   0.328   5.478
  180SOL    HW1 1439   5.577   0.365   5.386
  180SOL    HW2 1440   5.628   0.235   5.470
  181SOL     OW 1441   2.849   5.621   5.671
  181SOL    HW1 1442   2.755   5.619   5.636
  181SOL    HW2 1443   2.858   5.696   5.738
  182SOL     OW 1444   3.252   2.631   5.332
  182SOL    HW1 1445   3.178   2.637   5.399
  182SOL    HW2 1446   3.252   2.539   5.292
  183SOL     OW 1447   1.977   0.661   2.524
  183SOL    HW1 1448   2.061   0.621   2.561
  183SOL    HW2 1449   2.001   0.735   2.461
  184SOL     OW 1450   5.752   6.631   3.747
  184SOL    HW1 1451   5.828   6.696   3.741
  184SOL    HW2 1452   5.722   6.623   3.842
  185SOL     OW 1453   0.273   6.052   5.025
  185SOL    HW1 1454   0.277   6.151   5.041
  185SOL    HW2 1455   0.208   6.033   4.951
  186SOL     OW 1456   3.315   4.790   0.167
  186SOL    HW1 1457   3.301   4.734   0.249
  186SOL    HW2 1458   3.295   4.886   0.188
  187SOL     OW 1459   3.556   5.505   0.092
  187SOL    HW1 1460   3.652   5.485   0.070
  187SOL    HW2 1461   3.533   5.596   0.059
  188SOL     OW 1462   1.247   4.161   3.405
  188SOL    HW1 1463   1.256   4.102   3.485
  188SOL    HW2 1464   1.290   4.118   3.326
  189SOL     OW 1465   6.671   3.577   5.735
  189SOL    HW1 1466   6.614   3.515   5.682
  189SOL    HW2 1467   6.639   3.671   5.721
  190SOL     OW 1468   6.194   6.334   6.984
  190SOL    HW1 1469   6.195   6.280   0.041
  190SOL    HW2 1470   6.112   6.390   6.981
  191SOL     OW 1471   1.829   3.908   6.499
  191SOL    HW1 1472   1.891   3.977   6.538
  191SOL    HW2 1473   1.745   3.905   6.553
  192SOL     OW 1474   0.939   6.308   0.261
  192SOL    HW1 1475   0.904   6.379   0.322
  192SOL    HW2 1476   0.914   6.329   0.167
  193SOL     OW 1477   2.954   0.269   2.070
  193SOL    HW1 1478   2.968   0.367   2.078
  193SOL    HW2 1479   3.004   0.222   2.144
  194SOL     OW 1480   4.491   6.895   3.092
  194SOL    HW1 1481   4.420   6.828   3.072
  194SOL    HW2 1482   4.505   6.900   3.191
  195SOL     OW 1483   3.378   0.700   1.401
  195SOL    HW1 1484   3.341   0.786   1.436
  195SOL    HW2 1485   3.465   0.681   1.446
  196SOL     OW 1486   3.625   2.910   1.453
  196SOL    HW1 1487   3.532   2.876   1.470
  196SOL    HW2 1488   3.661   2.952   1.536
  197SOL     OW 1489   0.628   6.315   1.124
  197SOL    HW1 1490   0.642   6.413   1.135
  197SOL    HW2 1491   0.659   6.286   1.033
  198SOL     OW 1492   6.544   0.990   5.128
  198SOL    HW1 1493   6.576   0.900   5.098
  198SOL    HW2 1494   6.621   1.044   5.161
  199SOL     OW 1495   1.236   6.901   3.169
  199SOL    HW1 1496   1.184   6.985   3.185
  199SOL    HW2 1497   1.313   6.920   3.108
  200SOL     OW 1498   2.217   3.187   3.140
  200SOL    HW1 1499   2.167   3.256   3.089
  200SOL    HW2 1500   2.220   3.213   3.237
  201SOL     OW 1501   5.306   0.897   6.999
  201SOL    HW1 1502   5.218   0.940   6.979
  201SOL    HW2 1503   5.373   0.968   7.024
  202SOL     OW 1504   3.605   0.517   2.551
  202SOL    HW1 1505   3.588   0.600   2.604
  202SOL    HW2 1506   3.698   0.520   2.514
  203SOL     OW 1507   5.501   2.282   1.814
  203SOL    HW1 1508   5.444   2.211   1.854
  203SOL    HW2 1509   5.513   2.265   1.716
  204SOL     OW 1510   2.565   6.030   0.940
  204SOL    HW1 1511   2.527   6.122   0.930
  204SOL    HW2 1512   2.600   5.999   0.852
  205SOL     OW 1513   5.072   0.782   6.812
  205SOL    HW1 1514   5.095   0.855   6.876
  205SOL    HW2 1515   5.073   0.818   6.718
  206SOL     OW 1516   0.393   5.446   2.015
  206SOL    HW1 1517   0.305   5.399   2.025
  206SOL    HW2 1518   0.402   5.479   1.921
  207SOL     OW 1519   6.679   2.907   5.949
  207SOL    HW1 1520   6.766   2.903   5.997
  207SOL    HW2 1521   6.666   2.999   5.911
  208SOL     OW 1522   4.907   3.892   1.084
  208SOL    HW1 1523   4.828   3.953   1.094
  208SOL    HW2 1524   4.877   3.804   1.047
  209SOL     OW 1525   6.278   1.023   3.971
  209SOL    HW1 1526   6.292   1.051   3.876
  209SOL    HW2 1527   6.184   1.044   3.999
  210SOL     OW 1528   5.315   3.122   0.357
  210SOL    HW1 1529   5.381   3.049   0.377
  210SOL    HW2 1530   5.355   3.211   0.380
  211SOL     OW 1531   0.233   4.867   2.318
  211SOL    HW1 1532   0.242   4.789   2.380
  211SOL    HW2 1533   0.267   4.949   2.363
  212SOL     OW 1534   0.647   5.201   5.598
  212SOL    HW1 1535   0.725   5.221   5.539
  212SOL    HW2 1536   0.562   5.231   5.553
  213SOL     OW 1537   4.771   2.301   1.579
  213SOL    HW1 1538   4.752   2.203   1.575
  213SOL    HW2 1539   4.783   2.329   1.674
  214SOL     OW 1540   6.845   5.653   3.560
  214SOL    HW1 1541   6.764   5.711   3.552
  214SOL    HW2 1542   6.816   5.558   3.576
  215SOL     OW 1543   3.515   2.894   3.513
  215SOL    HW1 1544   3.539   2.991   3.509
  215SOL    HW2 1545   3.449   2.874   3.441
  216SOL     OW 1546   4.434   6.846   4.483
  216SOL    HW1 1547   4.430   6.915   4.555
  216SOL    HW2 1548   4.457   6.757   4.522
  217SOL     OW 1549   6.319   2.161   4.722
  217SOL    HW1 1550   6.335   2.185   4.818
  217SOL    HW2 1551   6.231   2.115   4.713
  218SOL     OW 1552   2.500   4.915   5.393
  218SOL    HW1 1553   2.576   4.958   5.345
  218SOL    HW2 1554   2.504   4.816   5.382
  219SOL     OW 1555   3.373   6.951   0.015
  219SOL    HW1 1556   3.335   0.015   0.005
  219SOL    HW2 1557   3.334   6.906   0.096
  220SOL     OW 1558   1.371   4.280   0.512
  220SOL    HW1 1559   1.356   4.247   0.605
  220SOL    HW2 1560   1.290   4.329   0.480
  221SOL     OW 1561   6.068   4.315   4.435
  221SOL    HW1 1562   6.044   4.237   4.377
  221SOL    HW2 1563   6.063   4.399   4.380
  222SOL     OW 1564   1.004   0.569   4.843
  222SOL    HW1 1565   0.998   0.479   4.884
  222SOL    HW2 1566   1.055   0.563   4.757
  223SOL     OW 1567   5.555   6.131   1.928
  223SOL    HW1 1568   5.552   6.218   1.878
  223SOL    HW2 1569   5.625   6.137   2.000
  224SOL     OW 1570   5.444   4.219   2.086
  224SOL    HW1 1571   5.467   4.291   2.020
  224SOL    HW2 1572   5.494   4.235   2.171
  225SOL     OW 1573   4.441   6.020   0.763
  225SOL    HW1 1574   4.500   5.992   0.839
  225SOL    HW2 1575   4.352   5.975   0.772
  226SOL     OW 1576   1.325   5.592   3.200
  226SOL    HW1 1577   1.396   5.523   3.190
  226SOL    HW2 1578   1.272   5.599   3.116
  227SOL     OW 1579   1.449   3.684   3.224
  227SOL    HW1 1580   1.478   3.672   3.129
  227SOL    HW2 1581   1.499   3.620   3.283
  228SOL     OW 1582   3.698   5.436   3.375
  228SOL    HW1 1583   3.626   5.398   3.316
  228SOL    HW2 1584   3.770   5.368   3.388
  229SOL     OW 1585   5.728   0.071   2.066
  229SOL    HW1 1586   5.662   0.147   2.068
  229SOL    HW2 1587   5.703   0.004   2.135
  230SOL     OW 1588   1.240   4.757   4.716
  230SOL    HW1 1589   1.304   4.833   4.724
  230SOL    HW2 1590   1.251   4.696   4.794
  231SOL     OW 1591   6.953   2.546   6.713
  231SOL    HW1 1592   7.016   2.499   6.652
  231SOL    HW2 1593   7.003   2.613   6.767
  232SOL     OW 1594   2.303   3.210   0.244
  232SOL    HW1 1595   2.314   3.111   0.240
  232SOL    HW2 1596   2.224   3.233   0.302
  233SOL     OW 1597   3.390   0.238   0.611
  233SOL    HW1 1598   3.307   0.290   0.591
  233SOL    HW2 1599   3.458   0.297   0.653
  234SOL     OW 1600   2.003   5.506   0.560
  234SOL    HW1 1601   1.976   5.506   0.464
  234SOL    HW2 1602   1.933   5.552   0.614
  235SOL     OW 1603   4.384   3.060   5.335
  235SOL    HW1 1604   4.455   3.043   5.403
  235SOL    HW2 1605   4.352   2.973   5.297
  236SOL     OW 1606   0.162   6.530   6.719
  236SOL    HW1 1607   0.135   6.475   6.798
  236SOL    HW2 1608   0.185   6.469   6.643
  237SOL     OW 1609   5.767   0.621   2.860
  237SOL    HW1 1610   5.714   0.700   2.829
  237SOL    HW2 1611   5.810   0.576   2.781
  238SOL     OW 1612   0.552   1.671   3.309
  238SOL    HW1 1613   0.515   1.764   3.318
  238SOL    HW2 1614   0.515   1.628   3.226
  239SOL     OW 1615   6.656   4.772   6.164
  239SOL    HW1 1616   6.571   4.794   6.116
  239SOL    HW2 1617   6.639   4.768   6.262
  240SOL     OW 1618   0.299   3.154   4.227
  240SOL    HW1 1619   0.379   3.111   4.185
  240SOL    HW2 1620   0.219   3.139   4.168
  241SOL     OW 1621   6.297   2.520   4.327
  241SOL    HW1 1622   6.357   2.599   4.341
  241SOL    HW2 1623   6.202   2.546   4.344
  242SOL     OW 1624   1.846   2.147   2.764
  242SOL    HW1 1625   1.935   2.186   2.787
  242SOL    HW2 1626   1.854   2.047   2.758
  243SOL     OW 1627   5.383   1.315   6.722
  243SOL    HW1 1628   5.337   1.276   6.642
  243SOL    HW2 1629   5.446   1.247   6.761
  244SOL     OW 1630   1.832   0.647   5.986
  244SOL    HW1 1631   1.859   0.678   5.895
  244SOL    HW2 1632   1.911   0.608   6.033
  245SOL     OW 1633   4.636   1.841   4.915
  245SOL    HW1 1634   4.664   1.882   4.828
  245SOL    HW2 1635   4.639   1.742   4.908
  246SOL     OW 1636   5.049   4.179   4.502
  246SOL    HW1 1637   4.984   4.113   4.466
  246SOL    HW2 1638   5.054   4.259   4.442
  247SOL     OW 1639   1.376   0.264   2.625
  247SOL    HW1 1640   1.393   0.271   2.723
  247SOL    HW2 1641   1.437   0.327   2.577
  248SOL     OW 1642   6.755   3.246   3.206
  248SOL    HW1 1643   6.773   3.148   3.198
  248SOL    HW2 1644   6.729   3.267   3.300
  249SOL     OW 1645   1.762   6.443   4.777
  249SOL    HW1 1646   1.804   6.520   4.728
  249SOL    HW2 1647   1.700   6.395   4.715
  250SOL     OW 1648   5.890   2.471   0.638
  250SOL    HW1 1649   5.922   2.562   0.612
  250SOL    HW2 1650   5.945   2.402   0.591
  251SOL     OW 1651   2.260   0.018   2.630
  251SOL    HW1 1652   2.162   0.026   2.617
  251SOL    HW2 1653   2.305   7.023   2.544
  252SOL     OW 1654   6.572   3.393   6.674
  252SOL    HW1 1655   6.495   3.442   6.633
  252SOL    HW2 1656   6.548   3.296   6.683
  253SOL     OW 1657   1.846   4.646   5.628
  253SOL    HW1 1658   1.876   4.652   5.532
  253SOL    HW2 1659   1.924   4.662   5.688
  254SOL     OW 1660   5.079   3.542   6.988
  254SOL    HW1 1661   4.999   3.598   6.967
  254SOL    HW2 1662   5.162   3.595   6.969
  255SOL     OW 1663   4.380   2.398   2.315
  255SOL    HW1 1664   4.386   2.350   2.402
  255SOL    HW2 1665   4.296   2.372   2.268
  256SOL     OW 1666   0.387   6.437   0.813
  256SOL    HW1 1667   0.328   6.401   0.885
  256SOL    HW2 1668   0.333   6.454   0.731
  257SOL     OW 1669   2.437   6.250   6.679
  257SOL    HW1 1670   2.420   6.203   6.765
  257SOL    HW2 1671   2.351   6.287   6.644
  258SOL     OW 1672   5.083   5.020   3.709
  258SOL    HW1 1673   5.088   5.054   3.803
  258SOL    HW2 1674   4.992   5.038   3.671
  259SOL     OW 1675   6.084   1.604   1.938
  259SOL    HW1 1676   6.161   1.666   1.956
  259SOL    HW2 1677   6.015   1.614   2.010
  260SOL     OW 1678   6.399   6.857   6.254
  260SOL    HW1 1679   6.315   6.841   6.306
  260SOL    HW2 1680   6.471   6.796   6.288
  261SOL     OW 1681   6.535   1.044   2.946
  261SOL    HW1 1682   6.536   1.041   2.846
  261SOL    HW2 1683   6.441   1.046   2.979
  262SOL     OW 1684   1.512   5.681   0.827
  262SOL    HW1 1685   1.456   5.762   0.847
  262SOL    HW2 1686   1.452   5.604   0.803
  263SOL     OW 1687   0.828   4.519   5.136
  263SOL    HW1 1688   0.841   4.616   5.153
  263SOL    HW2 1689   0.731   4.502   5.117
  264SOL     OW 1690   4.444   4.503   0.439
  264SOL    HW1 1691   4.417   4.568   0.368
  264SOL    HW2 1692   4.543   4.502   0.446
  265SOL     OW 1693   4.000   5.113   4.544
  265SOL    HW1 1694   4.026   5.198   4.499
  265SOL    HW2 1695   3.907   5.088   4.518
  266SOL     OW 1696   4.983   3.447   6.592
  266SOL    HW1 1697   4.999   3.492   6.505
  266SOL    HW2 1698   4.911   3.495   6.642
  267SOL     OW 1699   3.060   1.692   6.418
  267SOL    HW1 1700   2.987   1.651   6.362
  267SOL    HW2 1701   3.091   1.777   6.375
  268SOL     OW 1702   1.642   4.238   2.994
  268SOL    HW1 1703   1.623   4.333   2.971
  268SOL    HW2 1704   1.643   4.227   3.094
  269SOL     OW 1705   3.396   1.212   5.290
  269SOL    HW1 1706   3.478   1.158   5.270
  269SOL    HW2 1707   3.371   1.265   5.210
  270SOL     OW 1708   4.962   5.853   4.748
  270SOL    HW1 1709   4.907   5.934   4.730
  270SOL    HW2 1710   5.006   5.862   4.838
  271SOL     OW 1711   2.527   0.910   0.263
  271SOL    HW1 1712   2.590   0.886   0.189
  271SOL    HW2 1713   2.455   0.969   0.227
  272SOL     OW 1714   5.678   4.185   6.687
  272SOL    HW1 1715   5.731   4.129   6.623
  272SOL    HW2 1716   5.739   4.230   6.751
  273SOL     OW 1717   0.649   5.740   4.246
  273SOL    HW1 1718   0.675   5.742   4.150
  273SOL    HW2 1719   0.653   5.645   4.280
  274SOL     OW 1720   5.202   3.050   2.428
  274SOL    HW1 1721   5.216   3.099   2.342
  274SOL    HW2 1722   5.212   3.114   2.504
  275SOL     OW 1723   5.529   5.048   5.869
  275SOL    HW1 1724   5.576   5.136   5.869
  275SOL    HW2 1725   5.431   5.063   5.881
  276SOL     OW 1726   0.365   0.099   4.865
  276SOL    HW1 1727   0.317   0.017   4.835
  276SOL    HW2 1728   0.371   0.164   4.789
  277SOL     OW 1729   3.927   3.473   6.184
  277SOL    HW1 1730   3.926   3.568   6.216
  277SOL    HW2 1731   3.880   3.467   6.097
  278SOL     OW 1732   6.062   5.175   2.026
  278SOL    HW1 1733   6.017   5.123   2.099
  278SOL    HW2 1734   6.002   5.248   1.996
  279SOL     OW 1735   6.809   3.311   4.181
  279SOL    HW1 1736   6.775   3.377   4.114
  279SOL    HW2 1737   6.907   3.327   4.196
  280SOL     OW 1738   4.257   0.773   2.325
  280SOL    HW1 1739   4.252   0.856   2.269
  280SOL    HW2 1740   4.234   0.796   2.420
  281SOL     OW 1741   5.110   5.310   6.256
  281SOL    HW1 1742   5.050   5.336   6.331
  281SOL    HW2 1743   5.072   5.229   6.210
  282SOL     OW 1744   0.492   1.128   0.023
  282SOL    HW1 1745   0.569   1.147   0.083
  282SOL    HW2 1746   0.504   1.179   6.964
  283SOL     OW 1747   6.378   3.946   3.092
  283SOL    HW1 1748   6.373   3.849   3.114
  283SOL    HW2 1749   6.382   3.958   2.993
  284SOL     OW 1750   5.708   0.109   2.604
  284SOL    HW1 1751   5.689   0.031   2.664
  284SOL    HW2 1752   5.776   0.168   2.646
  285SOL     OW 1753   5.464   5.935   6.447
  285SOL    HW1 1754   5.464   6.035   6.445
  285SOL    HW2 1755   5.484   5.904   6.540
  286SOL     OW 1756   3.142   5.991   5.574
  286SOL    HW1 1757   3.162   6.063   5.641
  286SOL    HW2 1758   3.225   5.939   5.555
  287SOL     OW 1759   4.797   6.926   0.535
  287SOL    HW1 1760   4.829   6.891   0.447
  287SOL    HW2 1761   4.714   6.877   0.562
  288SOL     OW 1762   3.532   0.513   7.012
  288SOL    HW1 1763   3.621   0.522   0.028
  288SOL    HW2 1764   3.461   0.501   0.055
  289SOL     OW 1765   5.970   5.019   4.786
  289SOL    HW1 1766   5.962   5.046   4.883
  289SOL    HW2 1767   6.064   4.992   4.767
  290SOL     OW 1768   2.860   1.368   4.904
  290SOL    HW1 1769   2.832   1.428   4.979
  290SOL    HW2 1770   2.845   1.416   4.817
  291SOL     OW 1771   6.012   1.399   4.882
  291SOL    HW1 1772   6.081   1.358   4.823
  291SOL    HW2 1773   5.942   1.444   4.826
  292SOL     OW 1774   2.762   0.676   4.837
  292SOL    HW1 1775   2.855   0.640   4.836
  292SOL    HW2 1776   2.761   0.767   4.797
  293SOL     OW 1777   5.657   0.874   3.020
  293SOL    HW1 1778   5.567   0.917   3.016
  293SOL    HW2 1779   5.708   0.896   2.937
  294SOL     OW 1780   6.616   0.943   5.957
  294SOL    HW1 1781   6.543   0.998   5.918
  294SOL    HW2 1782   6.674   0.907   5.884
  295SOL     OW 1783   0.404   0.525   5.384
  295SOL    HW1 1784   0.487   0.471   5.375
  295SOL    HW2 1785   0.427   0.622   5.383
  296SOL     OW 1786   6.873   1.515   6.620
  296SOL    HW1 1787   6.957   1.567   6.635
  296SOL    HW2 1788   6.841   1.530   6.527
  297SOL     OW 1789   4.961   4.303   3.013
  297SOL    HW1 1790   4.946   4.271   3.107
  297SOL    HW2 1791   5.030   4.246   2.969
  298SOL     OW 1792   4.373   5.992   5.109
  298SOL    HW1 1793   4.281   6.011   5.143
  298SOL    HW2 1794   4.438   5.995   5.185
  299SOL     OW 1795   6.761   1.604   6.391
  299SOL    HW1 1796   6.778   1.701   6.408
  299SOL    HW2 1797   6.782   1.583   6.295
  300SOL     OW 1798   4.517   6.623   4.620
  300SOL    HW1 1799   4.602   6.571   4.630
  300SOL    HW2 1800   4.477   6.641   4.710
  301SOL     OW 1801   0.048   6.431   5.869
  301SOL    HW1 1802   0.022   6.481   5.786
  301SOL    HW2 1803   0.147   6.424   5.874
  302SOL     OW 1804   0.814   5.825   2.465
  302SOL    HW1 1805   0.866   5.799   2.383
  302SOL    HW2 1806   0.716   5.822   2.444
  303SOL     OW 1807   4.265   5.309   2.342
  303SOL    HW1 1808   4.338   5.353   2.289
  303SOL    HW2 1809   4.234   5.227   2.294
  304SOL     OW 1810   1.599   1.248   5.305
  304SOL    HW1 1811   1.618   1.332   5.253
  304SOL    HW2 1812   1.515   1.261   5.358
  305SOL     OW 1813   3.610   1.247   0.957
  305SOL    HW1 1814   3.513   1.231   0.937
  305SOL    HW2 1815   3.630   1.345   0.950
  306SOL     OW 1816   0.266   6.318   2.098
  306SOL    HW1 1817   0.248   6.408   2.138
  306SOL    HW2 1818   0.306   6.330   2.007
  307SOL     OW 1819   3.697   2.915   4.491
  307SOL    HW1 1820   3.702   2.816   4.504
  307SOL    HW2 1821   3.645   2.935   4.407
  308SOL     OW 1822   6.480   2.759   0.214
  308SOL    HW1 1823   6.409   2.827   0.195
  308SOL    HW2 1824   6.569   2.803   0.213
  309SOL     OW 1825   1.899   5.456   0.325
  309SOL    HW1 1826   1.888   5.358   0.310
  309SOL    HW2 1827   1.815   5.503   0.300
  310SOL     OW 1828   4.213   6.297   5.448
  310SOL    HW1 1829   4.302   6.266   5.414
  310SOL    HW2 1830   4.169   6.223   5.498
  311SOL     OW 1831   1.699   5.831   2.162
  311SOL    HW1 1832   1.641   5.750   2.154
  311SOL    HW2 1833   1.692   5.885   2.078
  312SOL     OW 1834   3.257   0.204   4.889
  312SOL    HW1 1835   3.340   0.166   4.929
  312SOL    HW2 1836   3.177   0.163   4.934
  313SOL     OW 1837   3.344   4.094   3.469
  313SOL    HW1 1838   3.359   4.067   3.374
  313SOL    HW2 1839   3.246   4.089   3.490
  314SOL     OW 1840   1.798   4.452   6.306
  314SOL    HW1 1841   1.781   4.363   6.264
  314SOL    HW2 1842   1.810   4.521   6.235
  315SOL     OW 1843   6.012   0.654   3.963
  315SOL    HW1 1844   6.029   0.629   3.867
  315SOL    HW2 1845   5.993   0.752   3.969
  316SOL     OW 1846   4.041   0.977   4.785
  316SOL    HW1 1847   3.991   0.956   4.869
  316SOL    HW2 1848   3.986   0.949   4.706
  317SOL     OW 1849   0.094   1.313   1.870
  317SOL    HW1 1850   0.120   1.409   1.882
  317SOL    HW2 1851   7.023   1.307   1.848
  318SOL     OW 1852   0.905   1.600   3.637
  318SOL    HW1 1853   0.989   1.547   3.652
  318SOL    HW2 1854   0.900   1.673   3.704
  319SOL     OW 1855   6.860   1.380   1.807
  319SOL    HW1 1856   6.854   1.465   1.860
  319SOL    HW2 1857   6.768   1.340   1.797
  320SOL     OW 1858   5.009   0.665   6.444
  320SOL    HW1 1859   4.962   0.669   6.356
  320SOL    HW2 1860   5.017   0.758   6.481
  321SOL     OW 1861   4.336   3.740   0.812
  321SOL    HW1 1862   4.317   3.828   0.854
  321SOL    HW2 1863   4.272   3.672   0.846
  322SOL     OW 1864   2.849   1.041   0.383
  322SOL    HW1 1865   2.792   0.970   0.424
  322SOL    HW2 1866   2.795   1.095   0.319
  323SOL     OW 1867   0.302   4.000   2.232
  323SOL    HW1 1868   0.262   4.091   2.243
  323SOL    HW2 1869   0.362   3.999   2.152
  324SOL     OW 1870   7.007   0.901   3.704
  324SOL    HW1 1871   7.015   0.963   3.626
  324SOL    HW2 1872   6.934   0.834   3.687
  325SOL     OW 1873   0.194   2.589   0.172
  325SOL    HW1 1874   0.234   2.623   0.257
  325SOL    HW2 1875   0.125   2.520   0.193
  326SOL     OW 1876   6.273   5.663   5.776
  326SOL    HW1 1877   6.314   5.595   5.714
  326SOL    HW2 1878   6.346   5.716   5.819
  327SOL     OW 1879   3.727   6.155   6.423
  327SOL    HW1 1880   3.816   6.113   6.443
  327SOL    HW2 1881   3.698   6.209   6.502
  328SOL     OW 1882   2.474   5.310   3.685
  328SOL    HW1 1883   2.526   5.395   3.688
  328SOL    HW2 1884   2.494   5.256   3.767
  329SOL     OW 1885   2.957   3.765   2.808
  329SOL    HW1 1886   2.885   3.826   2.841
  329SOL    HW2 1887   2.958   3.766   2.708
  330SOL     OW 1888   2.143   3.393   6.690
  330SOL    HW1 1889   2.060   3.350   6.725
  330SOL    HW2 1890   2.135   3.408   6.592
  331SOL     OW 1891   4.612   6.045   4.941
  331SOL    HW1 1892   4.538   6.037   5.007
  331SOL    HW2 1893   4.590   5.992   4.859
  332SOL     OW 1894   5.980   2.322   2.872
  332SOL    HW1 1895   6.045   2.282   2.937
  332SOL    HW2 1896   5.903   2.260   2.859
  333SOL     OW 1897   3.006   6.406   4.055
  333SOL    HW1 1898   3.067   6.478   4.023
  333SOL    HW2 1899   3.057   6.342   4.112
  334SOL     OW 1900   3.515   3.594   4.153
  334SOL    HW1 1901   3.507   3.668   4.220
  334SOL    HW2 1902   3.601   3.546   4.166
  335SOL     OW 1903   4.772   1.137   6.420
  335SOL    HW1 1904   4.764   1.222   6.473
  335SOL    HW2 1905   4.744   1.060   6.477
  336SOL     OW 1906   3.653   1.368   4.421
  336SOL    HW1 1907   3.746   1.388   4.390
  336SOL    HW2 1908   3.657   1.301   4.495
  337SOL     OW 1909   1.121   1.627   5.535
  337SOL    HW1 1910   1.170   1.710   5.509
  337SOL    HW2 1911   1.023   1.647   5.540
  338SOL     OW 1912   4.620   1.956   1.298
  338SOL    HW1 1913   4.583   2.014   1.226
  338SOL    HW2 1914   4.602   1.998   1.387
  339SOL     OW 1915   3.658   4.431   5.799
  339SOL    HW1 1916   3.638   4.342   5.758
  339SOL    HW2 1917   3.591   4.451   5.870
  340SOL     OW 1918   5.412   4.635   4.587
  340SOL    HW1 1919   5.342   4.576   4.545
  340SOL    HW2 1920   5.429   4.605   4.681
  341SOL     OW 1921   6.029   0.563   1.471
  341SOL    HW1 1922   5.982   0.481   1.437
  341SOL    HW2 1923   6.118   0.571   1.426
  342SOL     OW 1924   4.466   0.327   1.213
  342SOL    HW1 1925   4.384   0.379   1.236
  342SOL    HW2 1926   4.522   0.381   1.150
  343SOL     OW 1927   5.587   0.557   1.961
  343SOL    HW1 1928   5.677   0.537   1.924
  343SOL    HW2 1929   5.518   0.500   1.915
  344SOL     OW 1930   6.415   3.167   1.400
  344SOL    HW1 1931   6.484   3.125   1.460
  344SOL    HW2 1932   6.459   3.197   1.315
  345SOL     OW 1933   0.046   3.464   3.356
  345SOL    HW1 1934   7.004   3.450   3.427
  345SOL    HW2 1935   0.031   3.399   3.281
  346SOL     OW 1936   0.548   0.607   3.440
  346SOL    HW1 1937   0.611   0.628   3.515
  346SOL    HW2 1938   0.552   0.509   3.420
  347SOL     OW 1939   1.763   4.033   1.398
  347SOL    HW1 1940   1.668   4.056   1.376
  347SOL    HW2 1941   1.776   4.036   1.497
  348SOL     OW 1942   6.372   4.467   1.223
  348SOL    HW1 1943   6.299   4.531   1.202
  348SOL    HW2 1944   6.375   4.450   1.322
  349SOL     OW 1945   6.059   5.393   7.013
  349SOL    HW1 1946   6.073   5.339   6.930
  349SOL    HW2 1947   6.024   5.483   6.988
  350SOL     OW 1948   2.157   0.836   0.442
  350SOL    HW1 1949   2.083   0.817   0.506
  350SOL    HW2 1950   2.132   0.914   0.384
  351SOL     OW 1951   4.212   4.441   0.777
  351SOL    HW1 1952   4.266   4.433   0.861
  351SOL    HW2 1953   4.248   4.378   0.709
  352SOL     OW 1954   3.713   0.789   2.963
  352SOL    HW1 1955   3.651   0.764   2.889
  352SOL    HW2 1956   3.689   0.738   3.045
  353SOL     OW 1957   2.381   6.276   0.933
  353SOL    HW1 1958   2.298   6.296   0.984
  353SOL    HW2 1959   2.461   6.309   0.984
  354SOL     OW 1960   3.189   2.469   0.751
  354SOL    HW1 1961   3.197   2.518   0.664
  354SOL    HW2 1962   3.279   2.439   0.781
  355SOL     OW 1963   6.546   2.386   2.492
  355SOL    HW1 1964   6.458   2.338   2.495
  355SOL    HW2 1965   6.617   2.327   2.529
  356SOL     OW 1966   2.819   6.938   5.756
  356SOL    HW1 1967   2.750   6.897   5.817
  356SOL    HW2 1968   2.812   6.896   5.666
  357SOL     OW 1969   6.173   5.695   4.362
  357SOL    HW1 1970   6.158   5.757   4.440
  357SOL    HW2 1971   6.098   5.705   4.297
  358SOL     OW 1972   3.370   6.235   6.969
  358SOL    HW1 1973   3.359   6.293   0.023
  358SOL    HW2 1974   3.287   6.181   6.956
  359SOL     OW 1975   2.091   2.079   1.087
  359SOL    HW1 1976   2.063   2.016   1.159
  359SOL    HW2 1977   2.094   2.031   1.000
  360SOL     OW 1978   1.612   5.038   2.385
  360SOL    HW1 1979   1.698   4.990   2.400
  360SOL    HW2 1980   1.593   5.042   2.287
  361SOL     OW 1981   6.024   2.900   3.012
  361SOL    HW1 1982   5.950   2.966   3.003
  361SOL    HW2 1983   6.111   2.949   3.025
  362SOL     OW 1984   3.685   2.947   3.241
  362SOL    HW1 1985   3.703   2.864   3.294
  362SOL    HW2 1986   3.597   2.939   3.195
  363SOL     OW 1987   4.903   5.754   2.007
  363SOL    HW1 1988   4.966   5.737   1.931
  363SOL    HW2 1989   4.896   5.853   2.022
  364SOL     OW 1990   1.204   0.956   6.899
  364SOL    HW1 1991   1.126   0.948   6.962
  364SOL    HW2 1992   1.195   1.040   6.846
  365SOL     OW 1993   4.893   0.210   3.518
  365SOL    HW1 1994   4.972   0.203   3.457
  365SOL    HW2 1995   4.853   0.301   3.509
  366SOL     OW 1996   5.516   0.577   0.359
  366SOL    HW1 1997   5.446   0.569   0.430
  366SOL    HW2 1998   5.602   0.608   0.400
  367SOL     OW 1999   6.381   6.156   6.945
  367SOL    HW1 2000   6.420   6.162   0.010
  367SOL    HW2 2001   6.298   6.212   6.940
  368SOL     OW 2002   2.703   1.046   5.063
  368SOL    HW1 2003   2.669   1.110   4.994
  368SOL    HW2 2004   2.802   1.039   5.057
  369SOL     OW 2005   5.160   3.542   6.195
  369SOL    HW1 2006   5.212   3.493   6.265
  369SOL    HW2 2007   5.197   3.635   6.184
  370SOL     OW 2008   1.586   1.685   4.038
  370SOL    HW1 2009   1.578   1.700   3.940
  370SOL    HW2 2010   1.633   1.763   4.080
  371SOL     OW 2011   2.781   5.076   1.053
  371SOL    HW1 2012   2.846   5.093   1.128
  371SOL    HW2 2013   2.821   5.013   0.987
  372SOL     OW 2014   2.391   5.794   5.776
  372SOL    HW1 2015   2.331   5.874   5.777
  372SOL    HW2 2016   2.336   5.711   5.781
  373SOL     OW 2017   5.628   4.723   2.258
  373SOL    HW1 2018   5.691   4.788   2.217
  373SOL    HW2 2019   5.679   4.659   2.316
  374SOL     OW 2020   2.338   2.806   2.402
  374SOL    HW1 2021   2.335   2.730   2.337
  374SOL    HW2 2022   2.433   2.830   2.422
  375SOL     OW 2023   0.399   5.071   4.231
  375SOL    HW1 2024   0.318   5.048   4.285
  375SOL    HW2 2025   0.413   5.170   4.232
  376SOL     OW 2026   5.283   6.785   3.708
  376SOL    HW1 2027   5.294   6.803   3.805
  376SOL    HW2 2028   5.365   6.740   3.673
  377SOL     OW 2029   2.522   3.557   6.259
  377SOL    HW1 2030   2.540   3.476   6.203
  377SOL    HW2 2031   2.484   3.529   6.347
  378SOL     OW 2032   4.553   1.169   1.074
  378SOL    HW1 2033   4.598   1.081   1.057
  378SOL    HW2 2034   4.513   1.203   0.989
  379SOL     OW 2035   3.037   3.728   0.912
  379SOL    HW1 2036   3.060   3.735   1.009
  379SOL    HW2 2037   3.110   3.681   0.864
  380SOL     OW 2038   5.619   1.751   0.218
  380SOL    HW1 2039   5.628   1.816   0.142
  380SOL    HW2 2040   5.598   1.802   0.302
  381SOL     OW 2041   0.350   3.212   2.258
  381SOL    HW1 2042   0.403   3.148   2.314
  381SOL    HW2 2043   0.413   3.272   2.208
  382SOL     OW 2044   5.836   0.388   0.748
  382SOL    HW1 2045   5.851   0.315   0.682
  382SOL    HW2 2046   5.919   0.444   0.755
  383SOL     OW 2047   5.178   3.057   1.521
  383SOL    HW1 2048   5.249   3.083   1.587
  383SOL    HW2 2049   5.134   2.973   1.552
  384SOL     OW 2050   1.530   2.877   4.290
  384SOL    HW1 2051   1.545   2.820   4.210
  384SOL    HW2 2052   1.506   2.970   4.261
  385SOL     OW 2053   4.435   3.227   6.968
  385SOL    HW1 2054   4.390   3.166   0.007
  385SOL    HW2 2055   4.520   3.185   6.937
  386SOL     OW 2056   2.735   6.364   5.817
  386SOL    HW1 2057   2.743   6.383   5.720
  386SOL    HW2 2058   2.730   6.265   5.832
  387SOL     OW 2059   1.799   6.530   3.527
  387SOL    HW1 2060   1.869   6.543   3.597
  387SOL    HW2 2061   1.829   6.460   3.462
  388SOL     OW 2062   2.188   5.599   5.828
  388SOL    HW1 2063   2.095   5.632   5.842
  388SOL    HW2 2064   2.187   5.522   5.763
  389SOL     OW 2065   4.153   1.629   7.023
  389SOL    HW1 2066   4.153   1.624   6.923
  389SOL    HW2 2067   4.139   1.537   0.033
  390SOL     OW 2068   3.815   1.279   3.421
  390SOL    HW1 2069   3.895   1.236   3.463
  390SOL    HW2 2070   3.747   1.208   3.399
  391SOL     OW 2071   0.477   0.967   0.399
  391SOL    HW1 2072   0.459   0.872   0.425
  391SOL    HW2 2073   0.476   1.025   0.480
  392SOL     OW 2074   4.344   5.376   4.400
  392SOL    HW1 2075   4.339   5.441   4.323
  392SOL    HW2 2076   4.268   5.311   4.393
  393SOL     OW 2077   5.405   2.503   5.658
  393SOL    HW1 2078   5.418   2.480   5.562
  393SOL    HW2 2079   5.467   2.449   5.715
  394SOL     OW 2080   2.355   1.366   0.027
  394SOL    HW1 2081   2.428   1.359   6.986
  394SOL    HW2 2082   2.302   1.449   0.010
  395SOL     OW 2083   0.074   2.944   0.891
  395SOL    HW1 2084   0.109   2.868   0.836
  395SOL    HW2 2085   0.137   2.962   0.967
  396SOL     OW 2086   4.092   2.506   5.627
  396SOL    HW1 2087   4.009   2.526   5.678
  396SOL    HW2 2088   4.129   2.417   5.655
  397SOL     OW 2089   5.071   6.618   6.887
  397SOL    HW1 2090   5.017   6.677   6.827
  397SOL    HW2 2091   5.033   6.525   6.886
  398SOL     OW 2092   5.671   4.198   2.478
  398SOL    HW1 2093   5.693   4.285   2.434
  398SOL    HW2 2094   5.699   4.201   2.574
  399SOL     OW 2095   2.047   5.760   1.466
  399SOL    HW1 2096   2.139   5.729   1.443
  399SOL    HW2 2097   2.053   5.839   1.528
  400SOL     OW 2098   2.217   4.545   6.112
  400SOL    HW1 2099   2.137   4.595   6.080
  400SOL    HW2 2100   2.210   4.449   6.083
  401SOL     OW 2101   6.551   1.501   1.380
  401SOL    HW1 2102   6.453   1.504   1.359
  401SOL    HW2 2103   6.573   1.572   1.447
  402SOL     OW 2104   0.786   5.647   0.778
  402SOL    HW1 2105   0.791   5.648   0.678
  402SOL    HW2 2106   0.697   5.681   0.808
  403SOL     OW 2107   5.453   4.479   0.259
  403SOL    HW1 2108   5.450   4.391   0.212
  403SOL    HW2 2109   5.401   4.474   0.344
  404SOL     OW 2110   6.613   5.868   4.316
  404SOL    HW1 2111   6.594   5.779   4.276
  404SOL    HW2 2112   6.711   5.875   4.336
  405SOL     OW 2113   1.394   1.606   1.428
  405SOL    HW1 2114   1.433   1.653   1.349
  405SOL    HW2 2115   1.294   1.602   1.418
  406SOL     OW 2116   0.669   2.785   3.851
  406SOL    HW1 2117   0.703   2.879   3.860
  406SOL    HW2 2118   0.615   2.761   3.931
  407SOL     OW 2119   3.126   2.041   3.740
  407SOL    HW1 2120   3.079   1.962   3.779
  407SOL    HW2 2121   3.209   2.060   3.793
  408SOL     OW 2122   2.568   0.349   4.189
  408SOL    HW1 2123   2.520   0.391   4.266
  408SOL    HW2 2124   2.663   0.381   4.188
  409SOL     OW 2125   0.483   5.165   4.976
  409SOL    HW1 2126   0.474   5.084   4.918
  409SOL    HW2 2127   0.548   5.229   4.936
  410SOL     OW 2128   2.739   6.854   6.717
  410SOL    HW1 2129   2.766   6.868   6.622
  410SOL    HW2 2130   2.727   6.757   6.735
  411SOL     OW 2131   0.513   4.377   6.062
  411SOL    HW1 2132   0.557   4.452   6.111
  411SOL    HW2 2133   0.456   4.326   6.125
  412SOL     OW 2134   3.772   5.651   3.217
  412SOL    HW1 2135   3.685   5.690   3.188
  412SOL    HW2 2136   3.756   5.565   3.265
  413SOL     OW 2137   2.096   0.710   1.528
  413SOL    HW1 2138   2.184   0.663   1.535
  413SOL    HW2 2139   2.110   0.803   1.494
  414SOL     OW 2140   4.454   4.875   0.570
  414SOL    HW1 2141   4.461   4.882   0.471
  414SOL    HW2 2142   4.546   4.882   0.611
  415SOL     OW 2143   3.737   6.184   3.081
  415SOL    HW1 2144   3.665   6.180   3.150
  415SOL    HW2 2145   3.770   6.278   3.073
  416SOL     OW 2146   3.875   5.758   0.092
  416SOL    HW1 2147   3.862   5.748   7.021
  416SOL    HW2 2148   3.972   5.745   0.114
  417SOL     OW 2149   5.892   5.141   1.688
  417SOL    HW1 2150   5.966   5.202   1.660
  417SOL    HW2 2151   5.805   5.176   1.652
  418SOL     OW 2152   0.139   5.206   6.392
  418SOL    HW1 2153   0.189   5.127   6.356
  418SOL    HW2 2154   0.085   5.178   6.472
  419SOL     OW 2155   5.461   5.271   6.582
  419SOL    HW1 2156   5.475   5.367   6.603
  419SOL    HW2 2157   5.519   5.245   6.505
  420SOL     OW 2158   5.785   3.528   0.033
  420SOL    HW1 2159   5.755   3.545   6.966
  420SOL    HW2 2160   5.867   3.583   0.052
  421SOL     OW 2161   1.618   6.245   5.946
  421SOL    HW1 2162   1.627   6.324   5.885
  421SOL    HW2 2163   1.663   6.166   5.905
  422SOL     OW 2164   6.327   3.731   0.618
  422SOL    HW1 2165   6.342   3.751   0.522
  422SOL    HW2 2166   6.245   3.674   0.628
  423SOL     OW 2167   1.466   3.060   6.246
  423SOL    HW1 2168   1.485   2.988   6.312
  423SOL    HW2 2169   1.367   3.073   6.239
  424SOL     OW 2170   2.128   4.398   5.784
  424SOL    HW1 2171   2.228   4.394   5.787
  424SOL    HW2 2172   2.090   4.353   5.865
  425SOL     OW 2173   2.273   0.320   0.046
  425SOL    HW1 2174   2.349   0.333   0.110
  425SOL    HW2 2175   2.212   0.248   0.079
  426SOL     OW 2176   1.168   3.222   6.855
  426SOL    HW1 2177   1.100   3.279   6.807
  426SOL    HW2 2178   1.150   3.126   6.834
  427SOL     OW 2179   4.028   2.996   0.371
  427SOL    HW1 2180   3.962   2.970   0.442
  427SOL    HW2 2181   4.103   3.047   0.412
  428SOL     OW 2182   3.545   0.796   4.546
  428SOL    HW1 2183   3.481   0.810   4.470
  428SOL    HW2 2184   3.607   0.875   4.551
  429SOL     OW 2185   3.863   5.826   6.843
  429SOL    HW1 2186   3.952   5.819   6.798
  429SOL    HW2 2187   3.791   5.834   6.774
  430SOL     OW 2188   3.016   1.049   4.569
  430SOL    HW1 2189   3.026   1.148   4.560
  430SOL    HW2 2190   3.053   1.005   4.487
  431SOL     OW 2191   3.493   0.812   6.161
  431SOL    HW1 2192   3.569   0.756   6.196
  431SOL    HW2 2193   3.433   0.837   6.237
  432SOL     OW 2194   6.774   0.800   1.168
  432SOL    HW1 2195   6.760   0.898   1.178
  432SOL    HW2 2196   6.808   0.779   1.077
  433SOL     OW 2197   4.029   6.371   4.843
  433SOL    HW1 2198   3.945   6.408   4.881
  433SOL    HW2 2199   4.009   6.324   4.757
  434SOL     OW 2200   6.617   3.452   0.811
  434SOL    HW1 2201   6.645   3.373   0.757
  434SOL    HW2 2202   6.665   3.533   0.777
  435SOL     OW 2203   3.764   3.700   0.916
  435SOL    HW1 2204   3.711   3.745   0.844
  435SOL    HW2 2205   3.806   3.617   0.879
  436SOL     OW 2206   2.757   1.380   1.010
  436SOL    HW1 2207   2.674   1.386   1.066
  436SOL    HW2 2208   2.755   1.296   0.956
  437SOL     OW 2209   6.222   6.532   6.294
  437SOL    HW1 2210   6.287   6.573   6.230
  437SOL    HW2 2211   6.151   6.599   6.317
  438SOL     OW 2212   1.087   3.627   1.270
  438SOL    HW1 2213   1.127   3.680   1.194
  438SOL    HW2 2214   1.116   3.532   1.263
  439SOL     OW 2215   6.195   4.983   1.868
  439SOL    HW1 2216   6.281   4.958   1.911
  439SOL    HW2 2217   6.160   5.068   1.908
  440SOL     OW 2218   1.150   3.061   2.451
  440SOL    HW1 2219   1.080   3.127   2.476
  440SOL    HW2 2220   1.211   3.046   2.529
  441SOL     OW 2221   6.630   1.753   3.002
  441SOL    HW1 2222   6.542   1.733   2.957
  441SOL    HW2 2223   6.665   1.840   2.969
  442SOL     OW 2224   1.353   5.060   6.669
  442SOL    HW1 2225   1.253   5.065   6.665
  442SOL    HW2 2226   1.392   5.113   6.594
  443SOL     OW 2227   0.149   6.059   5.716
  443SOL    HW1 2228   0.179   5.981   5.772
  443SOL    HW2 2229   0.201   6.140   5.742
  444SOL     OW 2230   5.446   3.078   6.605
  444SOL    HW1 2231   5.416   3.107   6.514
  444SOL    HW2 2232   5.474   3.158   6.658
  445SOL     OW 2233   1.785   4.185   2.762
  445SOL    HW1 2234   1.839   4.110   2.799
  445SOL    HW2 2235   1.725   4.221   2.833
  446SOL     OW 2236   1.484   5.362   4.706
  446SOL    HW1 2237   1.519   5.373   4.799
  446SOL    HW2 2238   1.412   5.429   4.690
  447SOL     OW 2239   1.187   5.862   0.515
  447SOL    HW1 2240   1.107   5.883   0.571
  447SOL    HW2 2241   1.159   5.853   0.419
  448SOL     OW 2242   4.994   0.864   5.450
  448SOL    HW1 2243   5.037   0.782   5.411
  448SOL    HW2 2244   4.962   0.923   5.375
  449SOL     OW 2245   6.571   0.895   4.303
  449SOL    HW1 2246   6.554   0.824   4.372
  449SOL    HW2 2247   6.516   0.875   4.221
  450SOL     OW 2248   0.132   5.890   2.703
  450SOL    HW1 2249   0.118   5.792   2.689
  450SOL    HW2 2250   0.183   5.927   2.625
  451SOL     OW 2251   5.911   3.969   4.000
  451SOL    HW1 2252   5.937   3.908   3.925
  451SOL    HW2 2253   5.916   4.064   3.969
  452SOL     OW 2254   5.990   4.745   5.922
  452SOL    HW1 2255   5.943   4.763   6.009
  452SOL    HW2 2256   5.927   4.763   5.846
  453SOL     OW 2257   4.297   1.731   5.954
  453SOL    HW1 2258   4.367   1.803   5.958
  453SOL    HW2 2259   4.327   1.659   5.892
  454SOL     OW 2260   0.798   5.696   0.096
  454SOL    HW1 2261   0.889   5.737   0.099
  454SOL    HW2 2262   0.748   5.721   0.180
  455SOL     OW 2263   5.215   2.229   5.115
  455SOL    HW1 2264   5.281   2.295   5.152
  455SOL    HW2 2265   5.149   2.277   5.058
  456SOL     OW 2266   4.168   5.919   0.840
  456SOL    HW1 2267   4.133   6.011   0.857
  456SOL    HW2 2268   4.095   5.860   0.807
  457SOL     OW 2269   0.412   4.014   1.799
  457SOL    HW1 2270   0.442   4.059   1.715
  457SOL    HW2 2271   0.358   4.078   1.853
  458SOL     OW 2272   1.128   0.261   5.207
  458SOL    HW1 2273   1.168   0.203   5.136
  458SOL    HW2 2274   1.044   0.218   5.242
  459SOL     OW 2275   1.589   0.704   3.378
  459SOL    HW1 2276   1.628   0.723   3.468
  459SOL    HW2 2277   1.538   0.784   3.347
  460SOL     OW 2278   6.350   2.558   2.970
  460SOL    HW1 2279   6.412   2.553   2.892
  460SOL    HW2 2280   6.272   2.617   2.947
  461SOL     OW 2281   5.702   4.269   5.630
  461SOL    HW1 2282   5.714   4.354   5.578
  461SOL    HW2 2283   5.755   4.196   5.587
  462SOL     OW 2284   3.450   2.527   7.020
  462SOL    HW1 2285   3.427   2.431   7.001
  462SOL    HW2 2286   3.530   2.531   0.053
  463SOL     OW 2287   6.319   6.709   1.323
  463SOL    HW1 2288   6.345   6.728   1.228
  463SOL    HW2 2289   6.271   6.621   1.327
  464SOL     OW 2290   1.611   1.687   6.171
  464SOL    HW1 2291   1.615   1.613   6.104
  464SOL    HW2 2292   1.701   1.699   6.213
  465SOL     OW 2293   0.816   3.555   5.725
  465SOL    HW1 2294   0.837   3.488   5.797
  465SOL    HW2 2295   0.722   3.544   5.695
  466SOL     OW 2296   1.886   0.283   3.336
  466SOL    HW1 2297   1.844   0.290   3.246
  466SOL    HW2 2298   1.971   0.231   3.330
  467SOL     OW 2299   1.853   1.554   4.768
  467SOL    HW1 2300   1.790   1.488   4.810
  467SOL    HW2 2301   1.946   1.538   4.802
  468SOL     OW 2302   3.957   3.818   3.467
  468SOL    HW1 2303   3.883   3.758   3.500
  468SOL    HW2 2304   3.926   3.865   3.384
  469SOL     OW 2305   3.223   6.918   6.483
  469SOL    HW1 2306   3.260   6.826   6.498
  469SOL    HW2 2307   3.173   6.919   6.396
  470SOL     OW 2308   4.457   0.117   2.940
  470SOL    HW1 2309   4.535   0.165   2.902
  470SOL    HW2 2310   4.485   0.025   2.969
  471SOL     OW 2311   2.278   2.250   3.533
  471SOL    HW1 2312   2.234   2.329   3.490
  471SOL    HW2 2313   2.276   2.172   3.470
  472SOL     OW 2314   3.379   4.132   5.334
  472SOL    HW1 2315   3.419   4.223   5.321
  472SOL    HW2 2316   3.447   4.063   5.311
  473SOL     OW 2317   0.614   4.930   4.146
  473SOL    HW1 2318   0.606   4.831   4.160
  473SOL    HW2 2319   0.540   4.976   4.196
  474SOL     OW 2320   5.198   5.340   5.300
  474SOL    HW1 2321   5.122   5.329   5.235
  474SOL    HW2 2322   5.283   5.352   5.249
  475SOL     OW 2323   2.971   6.734   6.934
  475SOL    HW1 2324   2.930   6.766   7.019
  475SOL    HW2 2325   3.015   6.811   6.887
  476SOL     OW 2326   6.669   5.608   2.804
  476SOL    HW1 2327   6.629   5.547   2.872
  476SOL    HW2 2328   6.599   5.672   2.771
  477SOL     OW 2329   1.520   4.451   3.385
  477SOL    HW1 2330   1.597   4.457   3.448
  477SOL    HW2 2331   1.438   4.487   3.428
  478SOL     OW 2332   1.765   4.274   3.904
  478SOL    HW1 2333   1.802   4.329   3.830
  478SOL    HW2 2334   1.768   4.177   3.879
  479SOL     OW 2335   4.172   1.855   2.255
  479SOL    HW1 2336   4.244   1.920   2.232
  479SOL    HW2 2337   4.094   1.868   2.194
  480SOL     OW 2338   1.994   6.627   3.939
  480SOL    HW1 2339   1.948   6.557   3.884
  480SOL    HW2 2340   2.082   6.591   3.971
  481SOL     OW 2341   2.266   0.416   0.590
  481SOL    HW1 2342   2.215   0.347   0.539
  481SOL    HW2 2343   2.212   0.444   0.670
  482SOL     OW 2344   5.814   5.583   1.241
  482SOL    HW1 2345   5.907   5.601   1.210
  482SOL    HW2 2346   5.750   5.638   1.189
  483SOL     OW 2347   4.579   1.872   3.165
  483SOL    HW1 2348   4.537   1.947   3.113
  483SOL    HW2 2349   4.527   1.857   3.249
  484SOL     OW 2350   6.166   1.799   3.543
  484SOL    HW1 2351   6.114   1.732   3.490
  484SOL    HW2 2352   6.258   1.807   3.505
  485SOL     OW 2353   2.641   5.900   0.722
  485SOL    HW1 2354   2.587   5.914   0.639
  485SOL    HW2 2355   2.738   5.905   0.701
  486SOL     OW 2356   6.068   0.513   5.656
  486SOL    HW1 2357   6.128   0.548   5.584
  486SOL    HW2 2358   5.973   0.529   5.630
  487SOL     OW 2359   6.730   2.193   6.707
  487SOL    HW1 2360   6.675   2.253   6.649
  487SOL    HW2 2361   6.764   2.245   6.785
  488SOL     OW 2362   1.109   4.722   3.670
  488SOL    HW1 2363   1.107   4.695   3.574
  488SOL    HW2 2364   1.131   4.820   3.677
  489SOL     OW 2365   3.464   5.212   6.058
  489SOL    HW1 2366   3.516   5.297   6.046
  489SOL    HW2 2367   3.507   5.156   6.129
  490SOL     OW 2368   5.360   1.141   4.351
  490SOL    HW1 2369   5.310   1.225   4.330
  490SOL    HW2 2370   5.448   1.164   4.392
  491SOL     OW 2371   0.461   2.857   3.660
  491SOL    HW1 2372   0.537   2.812   3.707
  491SOL    HW2 2373   0.380   2.799   3.664
  492SOL     OW 2374   1.477   1.773   4.801
  492SOL    HW1 2375   1.436   1.799   4.713
  492SOL    HW2 2376   1.576   1.770   4.792
  493SOL     OW 2377   5.471   3.868   5.025
  493SOL    HW1 2378   5.377   3.885   4.997
  493SOL    HW2 2379   5.531   3.873   4.946
  494SOL     OW 2380   5.907   0.859   6.452
  494SOL    HW1 2381   5.837   0.900   6.393
  494SOL    HW2 2382   5.960   0.793   6.399
  495SOL     OW 2383   5.910   4.561   0.154
  495SOL    HW1 2384   5.984   4.572   0.087
  495SOL    HW2 2385   5.937   4.602   0.241
  496SOL     OW 2386   6.118   3.668   2.762
  496SOL    HW1 2387   6.090   3.572   2.754
  496SOL    HW2 2388   6.122   3.709   2.671
  497SOL     OW 2389   4.430   0.221   4.026
  497SOL    HW1 2390   4.511   0.195   4.079
  497SOL    HW2 2391   4.428   0.168   3.941
  498SOL     OW 2392   2.065   3.344   1.204
  498SOL    HW1 2393   2.038   3.416   1.141
  498SOL    HW2 2394   2.012   3.261   1.185
  499SOL     OW 2395   3.795   1.984   5.617
  499SOL    HW1 2396   3.840   1.897   5.597
  499SOL    HW2 2397   3.798   2.043   5.536
  500SOL     OW 2398   1.210   4.697   3.104
  500SOL    HW1 2399   1.241   4.611   3.065
  500SOL    HW2 2400   1.289   4.752   3.131
  501SOL     OW 2401   0.895   5.110   6.016
  501SOL    HW1 2402   0.803   5.140   6.040
  501SOL    HW2 2403   0.899   5.088   5.919
  502SOL     OW 2404   2.224   4.975   5.893
  502SOL    HW1 2405   2.204   4.927   5.979
  502SOL    HW2 2406   2.139   4.989   5.842
  503SOL     OW 2407   6.936   5.319   4.282
  503SOL    HW1 2408   6.961   5.413   4.259
  503SOL    HW2 2409   6.980   5.257   4.217
  504SOL     OW 2410   1.440   5.194   3.936
  504SOL    HW1 2411   1.531   5.161   3.963
  504SOL    HW2 2412   1.371   5.130   3.969
  505SOL     OW 2413   3.561   6.345   4.633
  505SOL    HW1 2414   3.511   6.279   4.577
  505SOL    HW2 2415   3.524   6.347   4.725
  506SOL     OW 2416   2.381   3.194   0.687
  506SOL    HW1 2417   2.295   3.223   0.647
  506SOL    HW2 2418   2.420   3.120   0.632
  507SOL     OW 2419   3.789   1.782   4.262
  507SOL    HW1 2420   3.873   1.729   4.274
  507SOL    HW2 2421   3.793   1.830   4.174
  508SOL     OW 2422   5.436   5.240   4.539
  508SOL    HW1 2423   5.468   5.221   4.446
  508SOL    HW2 2424   5.337   5.222   4.545
  509SOL     OW 2425   4.543   3.342   1.530
  509SOL    HW1 2426   4.546   3.442   1.528
  509SOL    HW2 2427   4.608   3.305   1.464
  510SOL     OW 2428   1.336   3.721   4.214
  510SOL    HW1 2429   1.253   3.683   4.173
  510SOL    HW2 2430   1.413   3.707   4.153
  511SOL     OW 2431   0.182   6.172   1.622
  511SOL    HW1 2432   0.186   6.155   1.721
  511SOL    HW2 2433   0.272   6.199   1.589
  512SOL     OW 2434   2.003   4.302   6.063
  512SOL    HW1 2435   1.903   4.299   6.059
  512SOL    HW2 2436   2.034   4.284   6.156
  513SOL     OW 2437   0.845   5.528   4.822
  513SOL    HW1 2438   0.858   5.444   4.768
  513SOL    HW2 2439   0.797   5.596   4.766
  514SOL     OW 2440   5.415   2.061   3.490
  514SOL    HW1 2441   5.411   2.031   3.585
  514SOL    HW2 2442   5.386   2.157   3.484
  515SOL     OW 2443   3.089   6.118   6.943
  515SOL    HW1 2444   3.109   6.024   6.915
  515SOL    HW2 2445   2.990   6.133   6.944
  516SOL     OW 2446   1.825   4.609   3.355
  516SOL    HW1 2447   1.823   4.533   3.420
  516SOL    HW2 2448   1.848   4.694   3.403
  517SOL     OW 2449   4.885   0.128   5.691
  517SOL    HW1 2450   4.950   0.189   5.735
  517SOL    HW2 2451   4.904   0.124   5.593
  518SOL     OW 2452   2.201   1.586   6.941
  518SOL    HW1 2453   2.247   1.664   6.899
  518SOL    HW2 2454   2.193   1.512   6.874
  519SOL     OW 2455   0.982   6.442   0.567
  519SOL    HW1 2456   0.966   6.515   0.633
  519SOL    HW2 2457   0.916   6.449   0.492
  520SOL     OW 2458   6.626   4.222   5.323
  520SOL    HW1 2459   6.683   4.304   5.324
  520SOL    HW2 2460   6.590   4.205   5.415
  521SOL     OW 2461   6.348   0.908   0.404
  521SOL    HW1 2462   6.345   0.820   0.451
  521SOL    HW2 2463   6.372   0.894   0.308
  522SOL     OW 2464   3.171   4.348   5.591
  522SOL    HW1 2465   3.099   4.365   5.523
  522SOL    HW2 2466   3.153   4.261   5.637
  523SOL     OW 2467   6.398   0.129   3.107
  523SOL    HW1 2468   6.434   0.037   3.122
  523SOL    HW2 2469   6.340   0.128   3.025
  524SOL     OW 2470   4.311   0.459   4.150
  524SOL    HW1 2471   4.225   0.414   4.177
  524SOL    HW2 2472   4.366   0.396   4.097
  525SOL     OW 2473   3.414   3.061   6.564
  525SOL    HW1 2474   3.431   2.998   6.489
  525SOL    HW2 2475   3.347   3.129   6.536
  526SOL     OW 2476   4.841   0.394   4.233
  526SOL    HW1 2477   4.935   0.384   4.202
  526SOL    HW2 2478   4.840   0.419   4.329
  527SOL     OW 2479   0.945   1.238   6.989
  527SOL    HW1 2480   0.921   1.176   0.037
  527SOL    HW2 2481   0.914   1.330   7.010
  528SOL     OW 2482   1.395   2.137   6.136
  528SOL    HW1 2483   1.363   2.056   6.087
  528SOL    HW2 2484   1.405   2.115   6.233
  529SOL     OW 2485   0.474   4.972   4.788
  529SOL    HW1 2486   0.489   4.878   4.818
  529SOL    HW2 2487   0.454   4.973   4.690
  530SOL     OW 2488   0.054   3.475   5.394
  530SOL    HW1 2489   0.076   3.543   5.324
  530SOL    HW2 2490   0.131   3.412   5.406
  531SOL     OW 2491   0.219   6.806   0.490
  531SOL    HW1 2492   0.163   6.874   0.444
  531SOL    HW2 2493   0.280   6.763   0.424
  532SOL     OW 2494   1.804   1.473   5.846
  532SOL    HW1 2495   1.723   1.456   5.903
  532SOL    HW2 2496   1.869   1.529   5.896
  533SOL     OW 2497   4.746   0.756   5.417
  533SOL    HW1 2498   4.746   0.675   5.359
  533SOL    HW2 2499   4.841   0.783   5.437
  534SOL     OW 2500   2.159   5.317   3.668
  534SOL    HW1 2501   2.257   5.298   3.656
  534SOL    HW2 2502   2.126   5.368   3.589
  535SOL     OW 2503   6.927   3.800   2.400
  535SOL    HW1 2504   7.005   3.738   2.395
  535SOL    HW2 2505   6.910   3.841   2.310
  536SOL     OW 2506   1.929   5.979   1.921
  536SOL    HW1 2507   1.840   5.936   1.910
  536SOL    HW2 2508   1.921   6.059   1.981
  537SOL     OW 2509   2.434   0.417   3.045
  537SOL    HW1 2510   2.383   0.345   2.997
  537SOL    HW2 2511   2.398   0.506   3.019
  538SOL     OW 2512   1.638   5.510   3.885
  538SOL    HW1 2513   1.618   5.434   3.824
  538SOL    HW2 2514   1.559   5.572   3.888
  539SOL     OW 2515   1.762   5.641   0.719
  539SOL    HW1 2516   1.677   5.679   0.756
  539SOL    HW2 2517   1.839   5.677   0.771
  540SOL     OW 2518   2.633   2.553   0.719
  540SOL    HW1 2519   2.704   2.546   0.649
  540SOL    HW2 2520   2.628   2.648   0.752
  541SOL     OW 2521   5.376   5.838   4.918
  541SOL    HW1 2522   5.340   5.882   5.001
  541SOL    HW2 2523   5.368   5.901   4.841
  542SOL     OW 2524   6.039   0.063   6.070
  542SOL    HW1 2525   6.127   0.102   6.096
  542SOL    HW2 2526   6.054   7.013   6.008
  543SOL     OW 2527   6.334   0.647   2.400
  543SOL    HW1 2528   6.236   0.655   2.383
  543SOL    HW2 2529   6.351   0.572   2.464
  544SOL     OW 2530   0.676   4.892   0.846
  544SOL    HW1 2531   0.762   4.873   0.799
  544SOL    HW2 2532   0.684   4.864   0.942
  545SOL     OW 2533   2.863   1.909   4.085
  545SOL    HW1 2534   2.869   1.817   4.123
  545SOL    HW2 2535   2.766   1.934   4.075
  546SOL     OW 2536   1.030   2.378   0.095
  546SOL    HW1 2537   1.018   2.440   0.173
  546SOL    HW2 2538   0.977   2.295   0.111
  547SOL     OW 2539   3.235   1.865   0.577
  547SOL    HW1 2540   3.238   1.932   0.504
  547SOL    HW2 2541   3.259   1.908   0.664
  548SOL     OW 2542   3.006   3.851   5.820
  548SOL    HW1 2543   2.928   3.833   5.881
  548SOL    HW2 2544   3.078   3.898   5.871
  549SOL     OW 2545   6.656   4.492   1.552
  549SOL    HW1 2546   6.669   4.489   1.453
  549SOL    HW2 2547   6.675   4.401   1.590
  550SOL     OW 2548   6.622   4.312   1.308
  550SOL    HW1 2549   6.584   4.268   1.227
  550SOL    HW2 2550   6.694   4.376   1.280
  551SOL     OW 2551   0.690   0.201   0.263
  551SOL    HW1 2552   0.654   0.166   0.177
  551SOL    HW2 2553   0.623   0.184   0.336
  552SOL     OW 2554   4.403   5.432   0.243
  552SOL    HW1 2555   4.457   5.381   0.309
  552SOL    HW2 2556   4.455   5.442   0.158
  553SOL     OW 2557   0.738   2.648   1.358
  553SOL    HW1 2558   0.830   2.647   1.318
  553SOL    HW2 2559   0.737   2.709   1.438
  554SOL     OW 2560   4.794   5.103   5.449
  554SOL    HW1 2561   4.811   5.012   5.486
  554SOL    HW2 2562   4.771   5.165   5.523
  555SOL     OW 2563   1.892   4.030   5.763
  555SOL    HW1 2564   1.879   4.129   5.750
  555SOL    HW2 2565   1.979   4.014   5.810
  556SOL     OW 2566   6.358   4.125   3.303
  556SOL    HW1 2567   6.361   4.047   3.240
  556SOL    HW2 2568   6.265   4.161   3.307
  557SOL     OW 2569   6.381   5.486   5.614
  557SOL    HW1 2570   6.314   5.443   5.554
  557SOL    HW2 2571   6.437   5.549   5.561
  558SOL     OW 2572   3.594   3.895   6.164
  558SOL    HW1 2573   3.603   3.883   6.263
  558SOL    HW2 2574   3.589   3.806   6.119
  559SOL     OW 2575   4.993   4.584   6.021
  559SOL    HW1 2576   4.968   4.649   6.093
  559SOL    HW2 2577   4.959   4.617   5.933
  560SOL     OW 2578   4.859   6.568   0.582
  560SOL    HW1 2579   4.926   6.497   0.561
  560SOL    HW2 2580   4.871   6.599   0.676
  561SOL     OW 2581   4.521   6.889   2.467
  561SOL    HW1 2582   4.503   6.868   2.370
  561SOL    HW2 2583   4.502   6.986   2.484
  562SOL     OW 2584   5.166   0.350   1.121
  562SOL    HW1 2585   5.090   0.297   1.159
  562SOL    HW2 2586   5.173   0.438   1.169
  563SOL     OW 2587   3.003   0.576   5.175
  563SOL    HW1 2588   2.964   0.624   5.254
  563SOL    HW2 2589   3.032   0.643   5.106
  564SOL     OW 2590   0.463   1.536   5.431
  564SOL    HW1 2591   0.542   1.564   5.377
  564SOL    HW2 2592   0.388   1.600   5.415
  565SOL     OW 2593   4.179   3.646   5.584
  565SOL    HW1 2594   4.171   3.557   5.629
  565SOL    HW2 2595   4.228   3.636   5.498
  566SOL     OW 2596   6.826   4.344   2.322
  566SOL    HW1 2597   6.730   4.330   2.298
  566SOL    HW2 2598   6.851   4.439   2.306
  567SOL     OW 2599   3.908   3.744   6.264
  567SOL    HW1 2600   3.931   3.824   6.209
  567SOL    HW2 2601   3.811   3.745   6.287
  568SOL     OW 2602   2.876   1.614   6.206
  568SOL    HW1 2603   2.786   1.600   6.248
  568SOL    HW2 2604   2.864   1.646   6.112
  569SOL     OW 2605   2.066   4.842   0.046
  569SOL    HW1 2606   1.993   4.789   0.002
  569SOL    HW2 2607   2.149   4.787   0.050
  570SOL     OW 2608   0.538   5.280   6.506
  570SOL    HW1 2609   0.515   5.373   6.476
  570SOL    HW2 2610   0.627   5.281   6.551
  571SOL     OW 2611   4.640   5.976   2.280
  571SOL    HW1 2612   4.622   6.055   2.223
  571SOL    HW2 2613   4.719   5.994   2.339
  572SOL     OW 2614   1.751   4.423   4.128
  572SOL    HW1 2615   1.759   4.371   4.043
  572SOL    HW2 2616   1.839   4.421   4.176
  573SOL     OW 2617   4.259   2.319   6.955
  573SOL    HW1 2618   4.169   2.295   6.917
  573SOL    HW2 2619   4.331   2.276   6.899
  574SOL     OW 2620   2.492   2.082   3.210
  574SOL    HW1 2621   2.568   2.019   3.195
  574SOL    HW2 2622   2.449   2.062   3.298
  575SOL     OW 2623   4.374   2.547   5.933
  575SOL    HW1 2624   4.369   2.611   6.009
  575SOL    HW2 2625   4.301   2.479   5.941
  576SOL     OW 2626   0.241   3.571   3.496
  576SOL    HW1 2627   0.172   3.525   3.441
  576SOL    HW2 2628   0.197   3.614   3.575
  577SOL     OW 2629   3.867   1.391   3.150
  577SOL    HW1 2630   3.829   1.355   3.235
  577SOL    HW2 2631   3.809   1.365   3.073
  578SOL     OW 2632   0.232   3.774   4.421
  578SOL    HW1 2633   0.164   3.702   4.422
  578SOL    HW2 2634   0.289   3.768   4.503
  579SOL     OW 2635   4.244   3.757   1.335
  579SOL    HW1 2636   4.335   3.740   1.296
  579SOL    HW2 2637   4.175   3.712   1.279
  580SOL     OW 2638   0.103   6.999   6.851
  580SOL    HW1 2639   0.188   0.006   6.893
  580SOL    HW2 2640   0.043   0.049   6.831
  581SOL     OW 2641   3.761   3.457   4.155
  581SOL    HW1 2642   3.814   3.431   4.074
  581SOL    HW2 2643   3.710   3.378   4.188
  582SOL     OW 2644   0.050   3.343   0.348
  582SOL    HW1 2645   7.011   3.364   0.420
  582SOL    HW2 2646   0.006   3.287   0.278
  583SOL     OW 2647   2.679   0.039   6.890
  583SOL    HW1 2648   2.698   6.982   6.839
  583SOL    HW2 2649   2.765   0.088   6.907
  584SOL     OW 2650   2.402   5.268   4.397
  584SOL    HW1 2651   2.410   5.327   4.477
  584SOL    HW2 2652   2.312   5.225   4.396
  585SOL     OW 2653   5.617   2.006   5.548
  585SOL    HW1 2654   5.589   1.911   5.538
  585SOL    HW2 2655   5.633   2.027   5.644
  586SOL     OW 2656   3.368   4.733   1.135
  586SOL    HW1 2657   3.386   4.766   1.228
  586SOL    HW2 2658   3.297   4.662   1.138
  587SOL     OW 2659   2.537   3.126   6.025
  587SOL    HW1 2660   2.505   3.098   6.115
  587SOL    HW2 2661   2.488   3.209   5.997
  588SOL     OW 2662   2.203   0.564   1.975
  588SOL    HW1 2663   2.292   0.598   1.945
  588SOL    HW2 2664   2.170   0.494   1.911
  589SOL     OW 2665   4.840   5.360   1.944
  589SOL    HW1 2666   4.833   5.293   2.017
  589SOL    HW2 2667   4.798   5.446   1.974
  590SOL     OW 2668   0.467   4.610   1.751
  590SOL    HW1 2669   0.502   4.517   1.735
  590SOL    HW2 2670   0.383   4.623   1.698
  591SOL     OW 2671   2.417   0.697   2.982
  591SOL    HW1 2672   2.438   0.761   3.056
  591SOL    HW2 2673   2.496   0.686   2.923
  592SOL     OW 2674   5.447   0.254   6.452
  592SOL    HW1 2675   5.454   0.289   6.545
  592SOL    HW2 2676   5.357   0.276   6.414
  593SOL     OW 2677   0.269   0.726   4.407
  593SOL    HW1 2678   0.281   0.804   4.345
  593SOL    HW2 2679   0.309   0.747   4.496
  594SOL     OW 2680   4.793   2.614   1.374
  594SOL    HW1 2681   4.837   2.688   1.323
  594SOL    HW2 2682   4.783   2.640   1.470
  595SOL     OW 2683   2.752   6.638   4.259
  595SOL    HW1 2684   2.757   6.562   4.324
  595SOL    HW2 2685   2.770   6.724   4.307
  596SOL     OW 2686   0.697   4.711   2.913
  596SOL    HW1 2687   0.641   4.789   2.942
  596SOL    HW2 2688   0.787   4.717   2.956
  597SOL     OW 2689   4.579   2.199   5.339
  597SOL    HW1 2690   4.539   2.181   5.249
  597SOL    HW2 2691   4.585   2.113   5.390
  598SOL     OW 2692   3.624   3.514   1.835
  598SOL    HW1 2693   3.585   3.522   1.743
  598SOL    HW2 2694   3.552   3.491   1.900
  599SOL     OW 2695   6.139   5.888   3.481
  599SOL    HW1 2696   6.058   5.947   3.483
  599SOL    HW2 2697   6.110   5.792   3.479
  600SOL     OW 2698   2.981   1.786   0.301
  600SOL    HW1 2699   2.972   1.758   0.396
  600SOL    HW2 2700   2.891   1.812   0.265
  601SOL     OW 2701   1.420   4.934   1.438
  601SOL    HW1 2702   1.469   4.870   1.379
  601SOL    HW2 2703   1.326   4.904   1.449
  602SOL     OW 2704   6.795   1.108   2.967
  602SOL    HW1 2705   6.813   1.206   2.963
  602SOL    HW2 2706   6.696   1.092   2.962
  603SOL     OW 2707   4.354   1.980   2.991
  603SOL    HW1 2708   4.349   1.883   3.012
  603SOL    HW2 2709   4.406   1.993   2.906
  604SOL     OW 2710   2.258   3.021   5.791
  604SOL    HW1 2711   2.328   2.982   5.852
  604SOL    HW2 2712   2.289   3.012   5.696
  605SOL     OW 2713   5.218   0.121   4.683
  605SOL    HW1 2714   5.186   0.033   4.719
  605SOL    HW2 2715   5.146   0.189   4.694
  606SOL     OW 2716   2.457   6.997   2.146
  606SOL    HW1 2717   2.434   7.018   2.241
  606SOL    HW2 2718   2.376   7.009   2.088
  607SOL     OW 2719   3.784   0.042   4.219
  607SOL    HW1 2720   3.733   7.024   4.146
  607SOL    HW2 2721   3.723   0.057   4.298
  608SOL     OW 2722   6.248   2.762   0.782
  608SOL    HW1 2723   6.321   2.761   0.713
  608SOL    HW2 2724   6.161   2.737   0.739
  609SOL     OW 2725   3.541   3.982   5.112
  609SOL    HW1 2726   3.468   4.012   5.051
  609SOL    HW2 2727   3.624   4.035   5.093
  610SOL     OW 2728   6.912   2.271   5.411
  610SOL    HW1 2729   6.878   2.289   5.504
  610SOL    HW2 2730   6.887   2.178   5.385
  611SOL     OW 2731   6.843   6.967   0.552
  611SOL    HW1 2732   6.906   0.015   0.570
  611SOL    HW2 2733   6.832   6.954   0.454
  612SOL     OW 2734   1.540   4.534   6.438
  612SOL    HW1 2735   1.630   4.553   6.401
  612SOL    HW2 2736   1.470   4.577   6.382
  613SOL     OW 2737   3.738   1.413   6.570
  613SOL    HW1 2738   3.797   1.346   6.616
  613SOL    HW2 2739   3.683   1.460   6.639
  614SOL     OW 2740   5.182   3.010   0.565
  614SOL    HW1 2741   5.196   3.069   0.485
  614SOL    HW2 2742   5.268   3.002   0.615
  615SOL     OW 2743   5.861   5.131   1.036
  615SOL    HW1 2744   5.947   5.173   1.062
  615SOL    HW2 2745   5.843   5.149   0.939
  616SOL     OW 2746   5.688   1.472   4.714
  616SOL    HW1 2747   5.698   1.571   4.707
  616SOL    HW2 2748   5.771   1.428   4.680
  617SOL     OW 2749   6.332   0.182   4.977
  617SOL    HW1 2750   6.364   0.092   4.946
  617SOL    HW2 2751   6.302   0.235   4.898
  618SOL     OW 2752   5.367   4.492   0.928
  618SOL    HW1 2753   5.372   4.525   0.834
  618SOL    HW2 2754   5.282   4.522   0.970
  619SOL     OW 2755   1.036   6.987   0.288
  619SOL    HW1 2756   1.089   6.921   0.341
  619SOL    HW2 2757   1.078   6.999   0.198
  620SOL     OW 2758   4.064   2.027   1.100
  620SOL    HW1 2759   4.154   2.068   1.088
  620SOL    HW2 2760   4.034   2.037   1.195
  621SOL     OW 2761   2.006   6.771   6.221
  621SOL    HW1 2762   1.967   6.824   6.296
  621SOL    HW2 2763   2.105   6.770   6.229
  622SOL     OW 2764   0.579   2.749   5.819
  622SOL    HW1 2765   0.630   2.767   5.903
  622SOL    HW2 2766   0.487   2.786   5.828
  623SOL     OW 2767   5.682   1.339   2.621
  623SOL    HW1 2768   5.675   1.390   2.707
  623SOL    HW2 2769   5.616   1.264   2.621
  624SOL     OW 2770   6.150   0.567   5.933
  624SOL    HW1 2771   6.084   0.629   5.975
  624SOL    HW2 2772   6.124   0.550   5.838
  625SOL     OW 2773   3.423   0.918   1.129
  625SOL    HW1 2774   3.347   0.961   1.080
  625SOL    HW2 2775   3.388   0.838   1.179
  626SOL     OW 2776   0.063   6.834   3.753
  626SOL    HW1 2777   0.080   6.737   3.769
  626SOL    HW2 2778   6.993   6.848   3.733
  627SOL     OW 2779   6.571   4.373   5.862
  627SOL    HW1 2780   6.622   4.439   5.917
  627SOL    HW2 2781   6.475   4.402   5.855
  628SOL     OW 2782   3.483   4.517   6.998
  628SOL    HW1 2783   3.459   4.613   6.981
  628SOL    HW2 2784   3.412   4.458   6.959
  629SOL     OW 2785   2.202   6.895   0.509
  629SOL    HW1 2786   2.232   6.909   0.414
  629SOL    HW2 2787   2.221   6.977   0.562
  630SOL     OW 2788   6.600   2.166   0.008
  630SOL    HW1 2789   6.599   2.090   6.970
  630SOL    HW2 2790   6.544   2.142   0.088
  631SOL     OW 2791   1.819   4.299   2.056
  631SOL    HW1 2792   1.850   4.248   2.137
  631SOL    HW2 2793   1.866   4.264   1.975
  632SOL     OW 2794   4.128   5.006   0.985
  632SOL    HW1 2795   4.198   4.983   0.917
  632SOL    HW2 2796   4.040   4.969   0.957
  633SOL     OW 2797   1.434   5.719   6.813
  633SOL    HW1 2798   1.508   5.664   6.851
  633SOL    HW2 2799   1.390   5.771   6.887
  634SOL     OW 2800   1.831   3.574   5.499
  634SOL    HW1 2801   1.809   3.671   5.513
  634SOL    HW2 2802   1.839   3.556   5.401
  635SOL     OW 2803   0.413   6.065   6.432
  635SOL    HW1 2804   0.327   6.109   6.402
  635SOL    HW2 2805   0.447   6.111   6.514
  636SOL     OW 2806   1.306   2.127   4.687
  636SOL    HW1 2807   1.314   2.102   4.783
  636SOL    HW2 2808   1.394   2.162   4.654
  637SOL     OW 2809   5.967   1.215   1.018
  637SOL    HW1 2810   5.924   1.275   1.086
  637SOL    HW2 2811   5.981   1.265   0.933
  638SOL     OW 2812   7.024   3.874   5.282
  638SOL    HW1 2813   6.957   3.868   5.356
  638SOL    HW2 2814   6.978   3.866   5.194
  639SOL     OW 2815   6.141   3.104   1.139
  639SOL    HW1 2816   6.178   3.084   1.229
  639SOL    HW2 2817   6.074   3.177   1.145
  640SOL     OW 2818   6.125   4.285   2.529
  640SOL    HW1 2819   6.041   4.247   2.569
  640SOL    HW2 2820   6.162   4.354   2.591
  641SOL     OW 2821   2.844   6.065   4.288
  641SOL    HW1 2822   2.753   6.046   4.251
  641SOL    HW2 2823   2.911   6.006   4.244
  642SOL     OW 2824   0.743   5.455   4.080
  642SOL    HW1 2825   0.722   5.362   4.049
  642SOL    HW2 2826   0.799   5.451   4.162
  643SOL     OW 2827   3.732   4.692   0.246
  643SOL    HW1 2828   3.680   4.762   0.294
  643SOL    HW2 2829   3.706   4.692   0.149
  644SOL     OW 2830   5.880   0.538   4.303
  644SOL    HW1 2831   5.901   0.616   4.362
  644SOL    HW2 2832   5.909   0.558   4.210
  645SOL     OW 2833   3.925   5.670   2.663
  645SOL    HW1 2834   3.868   5.674   2.745
  645SOL    HW2 2835   3.983   5.752   2.658
  646SOL     OW 2836   3.545   0.922   5.482
  646SOL    HW1 2837   3.604   0.848   5.513
  646SOL    HW2 2838   3.494   0.959   5.560
  647SOL     OW 2839   1.368   2.156   6.786
  647SOL    HW1 2840   1.399   2.246   6.756
  647SOL    HW2 2841   1.275   2.140   6.753
  648SOL     OW 2842   4.749   2.436   3.685
  648SOL    HW1 2843   4.846   2.423   3.669
  648SOL    HW2 2844   4.715   2.365   3.747
  649SOL     OW 2845   4.211   6.533   1.257
  649SOL    HW1 2846   4.136   6.530   1.323
  649SOL    HW2 2847   4.180   6.496   1.169
  650SOL     OW 2848   2.341   3.744   1.646
  650SOL    HW1 2849   2.430   3.700   1.662
  650SOL    HW2 2850   2.296   3.761   1.734
  651SOL     OW 2851   0.032   1.675   3.183
  651SOL    HW1 2852   0.011   1.721   3.269
  651SOL    HW2 2853   0.103   1.606   3.198
  652SOL     OW 2854   3.890   6.390   0.636
  652SOL    HW1 2855   3.847   6.374   0.548
  652SOL    HW2 2856   3.984   6.355   0.636
  653SOL     OW 2857   1.403   0.322   3.236
  653SOL    HW1 2858   1.455   0.393   3.188
  653SOL    HW2 2859   1.442   0.233   3.214
  654SOL     OW 2860   1.443   0.350   6.698
  654SOL    HW1 2861   1.419   0.412   6.772
  654SOL    HW2 2862   1.414   0.257   6.721
  655SOL     OW 2863   1.239   4.158   1.638
  655SOL    HW1 2864   1.236   4.063   1.607
  655SOL    HW2 2865   1.319   4.172   1.697
  656SOL     OW 2866   2.067   0.299   6.851
  656SOL    HW1 2867   2.137   0.314   6.922
  656SOL    HW2 2868   1.977   0.293   6.894
  657SOL     OW 2869   3.679   3.230   4.315
  657SOL    HW1 2870   3.737   3.166   4.265
  657SOL    HW2 2871   3.712   3.239   4.409
  658SOL     OW 2872   2.743   0.224   5.110
  658SOL    HW1 2873   2.781   0.258   5.197
  658SOL    HW2 2874   2.702   0.134   5.125
  659SOL     OW 2875   1.671   4.599   0.036
  659SOL    HW1 2876   1.679   4.504   0.004
  659SOL    HW2 2877   1.591   4.641   7.021
  660SOL     OW 2878   5.744   3.489   2.194
  660SOL    HW1 2879   5.738   3.516   2.290
  660SOL    HW2 2880   5.686   3.409   2.179
  661SOL     OW 2881   4.997   5.715   3.864
  661SOL    HW1 2882   5.053   5.781   3.914
  661SOL    HW2 2883   4.900   5.733   3.884
  662SOL     OW 2884   6.723   3.165   0.113
  662SOL    HW1 2885   6.630   3.201   0.099
  662SOL    HW2 2886   6.749   3.109   0.035
  663SOL     OW 2887   1.500   4.616   6.042
  663SOL    HW1 2888   1.458   4.598   6.131
  663SOL    HW2 2889   1.461   4.555   5.973
  664SOL     OW 2890   2.297   0.128   5.819
  664SOL    HW1 2891   2.305   0.058   5.890
  664SOL    HW2 2892   2.201   0.134   5.790
  665SOL     OW 2893   2.385   4.442   3.284
  665SOL    HW1 2894   2.352   4.373   3.221
  665SOL    HW2 2895   2.333   4.527   3.271
  666SOL     OW 2896   3.013   0.470   0.199
  666SOL    HW1 2897   3.112   0.460   0.196
  666SOL    HW2 2898   2.976   0.460   0.107
  667SOL     OW 2899   2.009   2.838   2.761
  667SOL    HW1 2900   2.020   2.916   2.823
  667SOL    HW2 2901   1.913   2.829   2.735
  668SOL     OW 2902   5.229   0.086   0.713
  668SOL    HW1 2903   5.292   0.162   0.698
  668SOL    HW2 2904   5.252   0.040   0.799
  669SOL     OW 2905   6.106   6.181   2.132
  669SOL    HW1 2906   6.177   6.212   2.068
  669SOL    HW2 2907   6.089   6.253   2.199
  670SOL     OW 2908   3.827   3.806   3.158
  670SOL    HW1 2909   3.728   3.806   3.172
  670SOL    HW2 2910   3.851   3.878   3.092
  671SOL     OW 2911   0.913   0.240   7.011
  671SOL    HW1 2912   0.854   0.208   0.058
  671SOL    HW2 2913   1.002   0.266   0.021
  672SOL     OW 2914   0.058   2.483   2.601
  672SOL    HW1 2915   7.000   2.535   2.595
  672SOL    HW2 2916   0.086   2.455   2.509
  673SOL     OW 2917   4.738   0.370   6.322
  673SOL    HW1 2918   4.788   0.305   6.378
  673SOL    HW2 2919   4.799   0.444   6.294
  674SOL     OW 2920   0.068   3.143   4.051
  674SOL    HW1 2921   0.051   3.234   4.089
  674SOL    HW2 2922   0.005   3.127   3.976
  675SOL     OW 2923   6.334   6.952   3.398
  675SOL    HW1 2924   6.285   6.897   3.465
  675SOL    HW2 2925   6.406   6.898   3.355
  676SOL     OW 2926   3.279   4.569   6.155
  676SOL    HW1 2927   3.226   4.645   6.117
  676SOL    HW2 2928   3.226   4.485   6.148
  677SOL     OW 2929   5.138   6.393   0.607
  677SOL    HW1 2930   5.183   6.312   0.570
  677SOL    HW2 2931   5.200   6.471   0.602
  678SOL     OW 2932   2.043   0.435   6.607
  678SOL    HW1 2933   2.065   0.519   6.657
  678SOL    HW2 2934   2.021   0.362   6.673
  679SOL     OW 2935   0.286   0.274   2.742
  679SOL    HW1 2936   0.323   0.209   2.676
  679SOL    HW2 2937   0.292   0.236   2.834
  680SOL     OW 2938   6.040   3.520   4.055
  680SOL    HW1 2939   6.026   3.422   4.039
  680SOL    HW2 2940   6.047   3.537   4.153
  681SOL     OW 2941   0.649   5.313   3.329
  681SOL    HW1 2942   0.690   5.313   3.420
  681SOL    HW2 2943   0.618   5.405   3.306
  682SOL     OW 2944   0.839   6.701   5.217
  682SOL    HW1 2945   0.878   6.791   5.196
  682SOL    HW2 2946   0.912   6.640   5.247
  683SOL     OW 2947   4.922   1.629   1.868
  683SOL    HW1 2948   4.999   1.690   1.853
  683SOL    HW2 2949   4.949   1.555   1.931
  684SOL     OW 2950   7.006   5.391   6.640
  684SOL    HW1 2951   0.000   5.294   6.630
  684SOL    HW2 2952   6.993   5.413   6.737
  685SOL     OW 2953   6.359   1.092   4.947
  685SOL    HW1 2954   6.402   1.026   5.009
  685SOL    HW2 2955   6.425   1.118   4.876
  686SOL     OW 2956   5.295   4.365   0.422
  686SOL    HW1 2957   5.323   4.384   0.516
  686SOL    HW2 2958   5.323   4.273   0.396
  687SOL     OW 2959   5.203   3.135   0.120
  687SOL    HW1 2960   5.262   3.145   0.200
  687SOL    HW2 2961   5.114   3.176   0.139
  688SOL     OW 2962   0.531   2.932   5.062
  688SOL    HW1 2963   0.590   2.967   5.134
  688SOL    HW2 2964   0.535   2.832   5.061
  689SOL     OW 2965   5.506   4.827   4.041
  689SOL    HW1 2966   5.519   4.895   4.112
  689SOL    HW2 2967   5.595   4.787   4.017
  690SOL     OW 2968   0.206   2.765   4.740
  690SOL    HW1 2969   0.260   2.693   4.695
  690SOL    HW2 2970   0.139   2.801   4.675
  691SOL     OW 2971   1.237   2.550   6.660
  691SOL    HW1 2972   1.334   2.570   6.651
  691SOL    HW2 2973   1.220   2.499   6.744
  692SOL     OW 2974   2.768   0.514   4.122
  692SOL    HW1 2975   2.724   0.509   4.032
  692SOL    HW2 2976   2.742   0.599   4.167
  693SOL     OW 2977   5.734   1.800   2.979
  693SOL    HW1 2978   5.731   1.705   3.007
  693SOL    HW2 2979   5.823   1.840   3.004
  694SOL     OW 2980   1.043   0.589   2.348
  694SOL    HW1 2981   1.109   0.652   2.388
  694SOL    HW2 2982   1.088   0.537   2.275
  695SOL     OW 2983   4.318   6.293   6.453
  695SOL    HW1 2984   4.244   6.349   6.415
  695SOL    HW2 2985   4.292   6.196   6.448
  696SOL     OW 2986   5.534   5.976   2.452
  696SOL    HW1 2987   5.610   5.918   2.482
  696SOL    HW2 2988   5.483   6.008   2.532
  697SOL     OW 2989   1.288   4.202   3.006
  697SOL    HW1 2990   1.361   4.135   3.023
  697SOL    HW2 2991   1.228   4.168   2.933
  698SOL     OW 2992   4.875   0.050   3.753
  698SOL    HW1 2993   4.891   0.116   3.680
  698SOL    HW2 2994   4.908   0.087   3.840
  699SOL     OW 2995   2.186   5.849   6.148
  699SOL    HW1 2996   2.103   5.845   6.092
  699SOL    HW2 2997   2.229   5.759   6.150
  700SOL     OW 2998   1.535   2.415   4.662
  700SOL    HW1 2999   1.572   2.507   4.649
  700SOL    HW2 3000   1.581   2.352   4.601
  701SOL     OW 3001   0.768   5.311   6.612
  701SOL    HW1 3002   0.785   5.409   6.623
  701SOL    HW2 3003   0.836   5.272   6.549
  702SOL     OW 3004   5.865   5.934   5.805
  702SOL    HW1 3005   5.847   5.879   5.723
  702SOL    HW2 3006   5.963   5.930   5.826
  703SOL     OW 3007   5.850   4.371   5.845
  703SOL    HW1 3008   5.792   4.334   5.773
  703SOL    HW2 3009   5.886   4.460   5.817
  704SOL     OW 3010   2.429   0.278   2.290
  704SOL    HW1 3011   2.459   0.278   2.195
  704SOL    HW2 3012   2.420   0.373   2.322
  705SOL     OW 3013   1.368   2.246   4.294
  705SOL    HW1 3014   1.323   2.162   4.263
  705SOL    HW2 3015   1.306   2.297   4.353
  706SOL     OW 3016   5.916   3.608   3.080
  706SOL    HW1 3017   5.866   3.534   3.034
  706SOL    HW2 3018   5.936   3.580   3.174
  707SOL     OW 3019   5.012   3.266   2.873
  707SOL    HW1 3020   4.959   3.261   2.788
  707SOL    HW2 3021   5.035   3.173   2.903
  708SOL     OW 3022   5.393   0.998   1.648
  708SOL    HW1 3023   5.472   1.042   1.690
  708SOL    HW2 3024   5.399   1.007   1.548
  709SOL     OW 3025   1.761   3.472   6.612
  709SOL    HW1 3026   1.826   3.536   6.570
  709SOL    HW2 3027   1.668   3.497   6.587
  710SOL     OW 3028   2.940   3.438   3.999
  710SOL    HW1 3029   2.992   3.475   4.075
  710SOL    HW2 3030   2.865   3.501   3.977
  711SOL     OW 3031   1.705   1.281   3.677
  711SOL    HW1 3032   1.682   1.325   3.764
  711SOL    HW2 3033   1.661   1.331   3.602
  712SOL     OW 3034   0.294   4.973   3.987
  712SOL    HW1 3035   0.198   4.996   3.971
  712SOL    HW2 3036   0.315   4.982   4.084
  713SOL     OW 3037   2.152   4.053   5.909
  713SOL    HW1 3038   2.194   4.036   5.820
  713SOL    HW2 3039   2.220   4.093   5.971
  714SOL     OW 3040   5.110   4.777   4.629
  714SOL    HW1 3041   5.186   4.814   4.575
  714SOL    HW2 3042   5.031   4.839   4.621
  715SOL     OW 3043   6.706   0.513   5.502
  715SOL    HW1 3044   6.742   0.606   5.489
  715SOL    HW2 3045   6.673   0.502   5.595
  716SOL     OW 3046   6.183   5.903   0.164
  716SOL    HW1 3047   6.097   5.933   0.207
  716SOL    HW2 3048   6.183   5.804   0.156
  717SOL     OW 3049   5.989   2.977   5.461
  717SOL    HW1 3050   5.946   2.938   5.543
  717SOL    HW2 3051   6.050   3.051   5.488
  718SOL     OW 3052   3.542   3.213   1.212
  718SOL    HW1 3053   3.567   3.282   1.144
  718SOL    HW2 3054   3.460   3.164   1.181
  719SOL     OW 3055   6.998   4.425   0.737
  719SOL    HW1 3056   6.916   4.369   0.723
  719SOL    HW2 3057   7.002   4.497   0.668
  720SOL     OW 3058   4.435   0.891   5.823
  720SOL    HW1 3059   4.400   0.983   5.804
  720SOL    HW2 3060   4.366   0.823   5.796
  721SOL     OW 3061   2.247   0.619   5.029
  721SOL    HW1 3062   2.236   0.716   5.050
  721SOL    HW2 3063   2.314   0.608   4.955
  722SOL     OW 3064   4.518   1.612   5.304
  722SOL    HW1 3065   4.525   1.702   5.260
  722SOL    HW2 3066   4.453   1.617   5.380
  723SOL     OW 3067   0.073   3.577   1.644
  723SOL    HW1 3068   0.130   3.550   1.566
  723SOL    HW2 3069   0.124   3.641   1.701
  724SOL     OW 3070   0.416   2.678   4.494
  724SOL    HW1 3071   0.341   2.721   4.445
  724SOL    HW2 3072   0.382   2.599   4.545
  725SOL     OW 3073   2.600   5.534   2.399
  725SOL    HW1 3074   2.602   5.592   2.318
  725SOL    HW2 3075   2.693   5.514   2.428
  726SOL     OW 3076   5.587   5.483   0.312
  726SOL    HW1 3077   5.541   5.563   0.351
  726SOL    HW2 3078   5.618   5.505   0.219
  727SOL     OW 3079   1.303   5.033   4.365
  727SOL    HW1 3080   1.340   5.112   4.414
  727SOL    HW2 3081   1.371   5.000   4.300
  728SOL     OW 3082   6.114   2.385   6.686
  728SOL    HW1 3083   6.053   2.426   6.754
  728SOL    HW2 3084   6.149   2.298   6.720
  729SOL     OW 3085   4.078   1.188   0.607
  729SOL    HW1 3086   4.161   1.143   0.640
  729SOL    HW2 3087   4.000   1.155   0.661
  730SOL     OW 3088   5.987   1.095   3.648
  730SOL    HW1 3089   5.938   1.091   3.560
  730SOL    HW2 3090   6.032   1.184   3.657
  731SOL     OW 3091   6.909   1.973   3.390
  731SOL    HW1 3092   6.903   1.994   3.488
  731SOL    HW2 3093   6.929   2.057   3.339
  732SOL     OW 3094   0.427   4.263   3.914
  732SOL    HW1 3095   0.480   4.191   3.958
  732SOL    HW2 3096   0.431   4.252   3.815
  733SOL     OW 3097   5.521   4.496   4.809
  733SOL    HW1 3098   5.497   4.402   4.785
  733SOL    HW2 3099   5.480   4.520   4.897
  734SOL     OW 3100   0.839   0.445   0.347
  734SOL    HW1 3101   0.811   0.445   0.443
  734SOL    HW2 3102   0.790   0.372   0.299
  735SOL     OW 3103   3.179   4.737   6.929
  735SOL    HW1 3104   3.184   4.637   6.924
  735SOL    HW2 3105   3.206   4.767   7.021
  736SOL     OW 3106   5.519   1.443   1.772
  736SOL    HW1 3107   5.531   1.363   1.713
  736SOL    HW2 3108   5.534   1.526   1.718
  737SOL     OW 3109   5.387   4.080   0.376
  737SOL    HW1 3110   5.419   4.075   0.471
  737SOL    HW2 3111   5.320   4.008   0.360
  738SOL     OW 3112   0.003   3.614   4.003
  738SOL    HW1 3113   0.036   3.580   3.915
  738SOL    HW2 3114   0.060   3.690   4.034
  739SOL     OW 3115   4.837   5.467   6.140
  739SOL    HW1 3116   4.930   5.503   6.129
  739SOL    HW2 3117   4.826   5.386   6.084
  740SOL     OW 3118   5.887   6.779   0.619
  740SOL    HW1 3119   5.787   6.780   0.616
  740SOL    HW2 3120   5.920   6.685   0.614
  741SOL     OW 3121   1.475   0.762   3.796
  741SOL    HW1 3122   1.531   0.792   3.873
  741SOL    HW2 3123   1.404   0.831   3.779
  742SOL     OW 3124   1.207   6.237   2.452
  742SOL    HW1 3125   1.166   6.242   2.361
  742SOL    HW2 3126   1.164   6.163   2.504
  743SOL     OW 3127   1.573   3.143   2.232
  743SOL    HW1 3128   1.475   3.135   2.219
  743SOL    HW2 3129   1.620   3.082   2.167
  744SOL     OW 3130   6.813   4.968   1.354
  744SOL    HW1 3131   6.799   5.036   1.282
  744SOL    HW2 3132   6.822   5.015   1.442
  745SOL     OW 3133   1.355   6.318   1.810
  745SOL    HW1 3134   1.377   6.229   1.771
  745SOL    HW2 3135   1.439   6.370   1.824
  746SOL     OW 3136   2.914   6.971   3.741
  746SOL    HW1 3137   2.861   6.887   3.729
  746SOL    HW2 3138   3.003   6.960   3.699
  747SOL     OW 3139   0.254   3.951   0.590
  747SOL    HW1 3140   0.156   3.970   0.597
  747SOL    HW2 3141   0.303   4.007   0.656
  748SOL     OW 3142   4.056   3.840   4.029
  748SOL    HW1 3143   3.970   3.888   4.045
  748SOL    HW2 3144   4.079   3.844   3.931
  749SOL     OW 3145   4.610   2.996   5.493
  749SOL    HW1 3146   4.621   2.978   5.591
  749SOL    HW2 3147   4.687   3.051   5.460
  750SOL     OW 3148   3.047   3.043   1.898
  750SOL    HW1 3149   3.027   3.140   1.886
  750SOL    HW2 3150   3.044   3.021   1.996
  751SOL     OW 3151   5.313   1.000   0.679
  751SOL    HW1 3152   5.357   1.024   0.592
  751SOL    HW2 3153   5.263   1.080   0.713
  752SOL     OW 3154   4.396   0.394   2.349
  752SOL    HW1 3155   4.434   0.370   2.260
  752SOL    HW2 3156   4.321   0.331   2.371
  753SOL     OW 3157   2.866   1.711   1.766
  753SOL    HW1 3158   2.936   1.642   1.782
  753SOL    HW2 3159   2.868   1.779   1.839
  754SOL     OW 3160   5.121   5.225   6.935
  754SOL    HW1 3161   5.162   5.290   6.999
  754SOL    HW2 3162   5.190   5.157   6.908
  755SOL     OW 3163   5.847   5.150   2.265
  755SOL    HW1 3164   5.783   5.214   2.224
  755SOL    HW2 3165   5.797   5.084   2.322
  756SOL     OW 3166   2.639   6.244   4.736
  756SOL    HW1 3167   2.701   6.261   4.813
  756SOL    HW2 3168   2.590   6.158   4.751
  757SOL     OW 3169   0.098   1.123   4.198
  757SOL    HW1 3170   0.114   1.166   4.109
  757SOL    HW2 3171   0.013   1.158   4.237
  758SOL     OW 3172   3.973   1.679   0.305
  758SOL    HW1 3173   3.962   1.589   0.262
  758SOL    HW2 3174   3.973   1.750   0.235
  759SOL     OW 3175   2.099   0.469   1.178
  759SOL    HW1 3176   2.141   0.560   1.174
  759SOL    HW2 3177   2.122   0.418   1.095
  760SOL     OW 3178   5.177   1.312   5.635
  760SOL    HW1 3179   5.080   1.324   5.657
  760SOL    HW2 3180   5.185   1.275   5.542
  761SOL     OW 3181   4.974   0.933   6.577
  761SOL    HW1 3182   4.875   0.934   6.565
  761SOL    HW2 3183   5.011   1.025   6.562
  762SOL     OW 3184   2.254   4.582   4.966
  762SOL    HW1 3185   2.252   4.613   4.871
  762SOL    HW2 3186   2.348   4.569   4.995
  763SOL     OW 3187   0.845   4.569   1.069
  763SOL    HW1 3188   0.891   4.575   1.158
  763SOL    HW2 3189   0.801   4.657   1.049
  764SOL     OW 3190   5.824   1.335   2.257
  764SOL    HW1 3191   5.882   1.382   2.323
  764SOL    HW2 3192   5.881   1.293   2.186
  765SOL     OW 3193   0.741   6.126   2.689
  765SOL    HW1 3194   0.805   6.167   2.754
  765SOL    HW2 3195   0.782   6.126   2.598
  766SOL     OW 3196   0.620   6.061   0.287
  766SOL    HW1 3197   0.533   6.035   0.328
  766SOL    HW2 3198   0.644   6.154   0.317
  767SOL     OW 3199   5.567   6.348   1.763
  767SOL    HW1 3200   5.501   6.409   1.806
  767SOL    HW2 3201   5.608   6.393   1.684
  768SOL     OW 3202   3.084   6.069   5.035
  768SOL    HW1 3203   3.123   5.979   5.020
  768SOL    HW2 3204   2.993   6.060   5.074
  769SOL     OW 3205   3.406   0.614   0.381
  769SOL    HW1 3206   3.501   0.583   0.377
  769SOL    HW2 3207   3.346   0.536   0.365
  770SOL     OW 3208   4.132   4.730   5.237
  770SOL    HW1 3209   4.132   4.772   5.328
  770SOL    HW2 3210   4.117   4.631   5.246
  771SOL     OW 3211   0.297   6.918   4.673
  771SOL    HW1 3212   0.210   6.893   4.630
  771SOL    HW2 3213   0.373   6.883   4.618
  772SOL     OW 3214   0.876   3.020   6.646
  772SOL    HW1 3215   0.847   2.964   6.723
  772SOL    HW2 3216   0.929   3.098   6.679
  773SOL     OW 3217   0.076   3.228   1.768
  773SOL    HW1 3218   0.158   3.259   1.719
  773SOL    HW2 3219   0.095   3.228   1.867
  774SOL     OW 3220   1.229   1.551   1.907
  774SOL    HW1 3221   1.129   1.559   1.908
  774SOL    HW2 3222   1.263   1.584   1.819
  775SOL     OW 3223   1.971   2.597   4.283
  775SOL    HW1 3224   2.041   2.666   4.267
  775SOL    HW2 3225   1.939   2.602   4.377
  776SOL     OW 3226   2.309   1.194   5.283
  776SOL    HW1 3227   2.276   1.288   5.276
  776SOL    HW2 3228   2.326   1.157   5.192
  777SOL     OW 3229   4.754   0.630   6.679
  777SOL    HW1 3230   4.847   0.593   6.671
  777SOL    HW2 3231   4.700   0.601   6.601
  778SOL     OW 3232   5.006   6.229   5.333
  778SOL    HW1 3233   5.062   6.217   5.252
  778SOL    HW2 3234   4.970   6.323   5.335
  779SOL     OW 3235   0.850   0.143   2.345
  779SOL    HW1 3236   0.753   0.150   2.369
  779SOL    HW2 3237   0.901   0.216   2.392
  780SOL     OW 3238   5.840   2.661   5.546
  780SOL    HW1 3239   5.778   2.676   5.469
  780SOL    HW2 3240   5.844   2.744   5.601
  781SOL     OW 3241   1.236   3.760   0.152
  781SOL    HW1 3242   1.136   3.752   0.151
  781SOL    HW2 3243   1.273   3.726   0.066
  782SOL     OW 3244   0.433   5.072   0.547
  782SOL    HW1 3245   0.483   4.986   0.558
  782SOL    HW2 3246   0.424   5.118   0.635
  783SOL     OW 3247   1.525   5.696   0.489
  783SOL    HW1 3248   1.465   5.633   0.539
  783SOL    HW2 3249   1.536   5.780   0.542
  784SOL     OW 3250   5.371   5.481   2.916
  784SOL    HW1 3251   5.300   5.543   2.949
  784SOL    HW2 3252   5.456   5.497   2.966
  785SOL     OW 3253   6.750   3.004   3.092
  785SOL    HW1 3254   6.786   2.953   3.014
  785SOL    HW2 3255   6.665   3.050   3.065
  786SOL     OW 3256   5.777   0.052   1.400
  786SOL    HW1 3257   5.807   0.023   1.491
  786SOL    HW2 3258   5.830   0.004   1.330
  787SOL     OW 3259   4.890   1.056   5.250
  787SOL    HW1 3260   4.895   1.146   5.207
  787SOL    HW2 3261   4.820   1.059   5.322
  788SOL     OW 3262   6.581   5.262   3.255
  788SOL    HW1 3263   6.510   5.282   3.323
  788SOL    HW2 3264   6.645   5.194   3.292
  789SOL     OW 3265   5.828   2.755   0.310
  789SOL    HW1 3266   5.927   2.747   0.323
  789SOL    HW2 3267   5.793   2.674   0.264
  790SOL     OW 3268   2.840   0.688   4.513
  790SOL    HW1 3269   2.791   0.604   4.536
  790SOL    HW2 3270   2.937   0.668   4.500
  791SOL     OW 3271   3.236   1.335   3.678
  791SOL    HW1 3272   3.288   1.291   3.605
  791SOL    HW2 3273   3.288   1.411   3.715
  792SOL     OW 3274   4.873   0.784   3.759
  792SOL    HW1 3275   4.875   0.854   3.688
  792SOL    HW2 3276   4.779   0.753   3.774
  793SOL     OW 3277   0.713   6.252   6.487
  793SOL    HW1 3278   0.671   6.175   6.535
  793SOL    HW2 3279   0.641   6.310   6.448
  794SOL     OW 3280   3.676   5.236   5.151
  794SOL    HW1 3281   3.590   5.269   5.190
  794SOL    HW2 3282   3.684   5.138   5.167
  795SOL     OW 3283   4.881   5.523   0.006
  795SOL    HW1 3284   4.931   5.475   6.961
  795SOL    HW2 3285   4.817   5.588   6.992
  796SOL     OW 3286   1.336   1.823   6.516
  796SOL    HW1 3287   1.359   1.889   6.587
  796SOL    HW2 3288   1.409   1.755   6.509
  797SOL     OW 3289   6.192   3.099   5.648
  797SOL    HW1 3290   6.283   3.060   5.659
  797SOL    HW2 3291   6.157   3.127   5.737
  798SOL     OW 3292   6.149   0.365   4.309
  798SOL    HW1 3293   6.063   0.401   4.343
  798SOL    HW2 3294   6.133   0.322   4.219
  799SOL     OW 3295   6.768   4.512   3.915
  799SOL    HW1 3296   6.858   4.469   3.910
  799SOL    HW2 3297   6.779   4.609   3.935
  800SOL     OW 3298   0.299   2.372   2.268
  800SOL    HW1 3299   0.387   2.394   2.310
  800SOL    HW2 3300   0.276   2.276   2.286
  801SOL     OW 3301   0.061   3.760   3.650
  801SOL    HW1 3302   0.056   3.803   3.560
  801SOL    HW2 3303   0.116   3.817   3.711
  802SOL     OW 3304   6.892   0.736   0.907
  802SOL    HW1 3305   6.840   0.780   0.835
  802SOL    HW2 3306   6.987   0.768   0.904
  803SOL     OW 3307   2.636   6.190   4.481
  803SOL    HW1 3308   2.639   6.228   4.574
  803SOL    HW2 3309   2.541   6.169   4.457
  804SOL     OW 3310   5.633   5.738   0.770
  804SOL    HW1 3311   5.704   5.681   0.810
  804SOL    HW2 3312   5.544   5.694   0.782
  805SOL     OW 3313   2.399   2.187   6.387
  805SOL    HW1 3314   2.470   2.238   6.435
  805SOL    HW2 3315   2.313   2.237   6.391
  806SOL     OW 3316   3.923   6.502   0.046
  806SOL    HW1 3317   3.934   6.420   7.017
  806SOL    HW2 3318   3.826   6.524   0.055
  807SOL     OW 3319   6.537   1.050   3.272
  807SOL    HW1 3320   6.605   1.081   3.206
  807SOL    HW2 3321   6.477   0.981   3.230
  808SOL     OW 3322   5.933   3.923   5.130
  808SOL    HW1 3323   5.884   4.009   5.147
  808SOL    HW2 3324   5.992   3.903   5.208
  809SOL     OW 3325   6.942   5.876   5.550
  809SOL    HW1 3326   6.850   5.887   5.588
  809SOL    HW2 3327   7.005   5.935   5.600
  810SOL     OW 3328   5.324   4.833   6.051
  810SOL    HW1 3329   5.309   4.736   6.033
  810SOL    HW2 3330   5.418   4.847   6.080
  811SOL     OW 3331   2.741   4.881   2.444
  811SOL    HW1 3332   2.745   4.825   2.362
  811SOL    HW2 3333   2.834   4.905   2.473
  812SOL     OW 3334   6.931   0.234   2.984
  812SOL    HW1 3335   6.887   0.147   2.964
  812SOL    HW2 3336   6.927   0.294   2.904
  813SOL     OW 3337   4.490   4.751   1.932
  813SOL    HW1 3338   4.530   4.673   1.884
  813SOL    HW2 3339   4.554   4.829   1.927
  814SOL     OW 3340   4.896   5.205   1.462
  814SOL    HW1 3341   4.987   5.216   1.502
  814SOL    HW2 3342   4.878   5.108   1.444
  815SOL     OW 3343   0.679   1.290   1.384
  815SOL    HW1 3344   0.603   1.265   1.324
  815SOL    HW2 3345   0.721   1.207   1.420
  816SOL     OW 3346   6.460   0.695   0.921
  816SOL    HW1 3347   6.410   0.680   1.007
  816SOL    HW2 3348   6.476   0.792   0.908
  817SOL     OW 3349   6.797   1.691   2.392
  817SOL    HW1 3350   6.778   1.666   2.297
  817SOL    HW2 3351   6.879   1.643   2.423
  818SOL     OW 3352   5.521   1.937   3.274
  818SOL    HW1 3353   5.505   2.000   3.198
  818SOL    HW2 3354   5.487   1.977   3.359
  819SOL     OW 3355   0.499   4.917   2.942
  819SOL    HW1 3356   0.400   4.905   2.943
  819SOL    HW2 3357   0.521   5.015   2.951
  820SOL     OW 3358   2.876   3.267   6.065
  820SOL    HW1 3359   2.804   3.198   6.068
  820SOL    HW2 3360   2.837   3.357   6.046
  821SOL     OW 3361   1.379   4.069   0.334
  821SOL    HW1 3362   1.364   4.161   0.370
  821SOL    HW2 3363   1.309   4.049   0.264
  822SOL     OW 3364   0.893   2.967   5.675
  822SOL    HW1 3365   0.821   3.035   5.661
  822SOL    HW2 3366   0.982   3.009   5.657
  823SOL     OW 3367   4.949   4.243   1.742
  823SOL    HW1 3368   4.912   4.171   1.800
  823SOL    HW2 3369   4.879   4.275   1.678
  824SOL     OW 3370   6.105   3.892   6.831
  824SOL    HW1 3371   6.020   3.852   6.797
  824SOL    HW2 3372   6.160   3.925   6.754
  825SOL     OW 3373   2.170   3.045   1.722
  825SOL    HW1 3374   2.136   3.046   1.628
  825SOL    HW2 3375   2.172   3.139   1.757
  826SOL     OW 3376   1.054   1.364   6.591
  826SOL    HW1 3377   1.084   1.286   6.645
  826SOL    HW2 3378   1.082   1.449   6.636
  827SOL     OW 3379   3.872   4.514   0.925
  827SOL    HW1 3380   3.776   4.498   0.901
  827SOL    HW2 3381   3.907   4.590   0.870
  828SOL     OW 3382   5.827   1.590   5.558
  828SOL    HW1 3383   5.867   1.637   5.479
  828SOL    HW2 3384   5.766   1.517   5.525
  829SOL     OW 3385   4.472   4.595   6.005
  829SOL    HW1 3386   4.565   4.593   6.042
  829SOL    HW2 3387   4.416   4.526   6.052
  830SOL     OW 3388   4.170   3.593   6.688
  830SOL    HW1 3389   4.215   3.505   6.672
  830SOL    HW2 3390   4.099   3.607   6.618
  831SOL     OW 3391   5.203   1.710   5.813
  831SOL    HW1 3392   5.234   1.646   5.743
  831SOL    HW2 3393   5.200   1.803   5.774
  832SOL     OW 3394   3.531   1.339   5.743
  832SOL    HW1 3395   3.447   1.362   5.792
  832SOL    HW2 3396   3.552   1.411   5.676
  833SOL     OW 3397   1.386   0.854   5.169
  833SOL    HW1 3398   1.326   0.825   5.095
  833SOL    HW2 3399   1.343   0.836   5.257
  834SOL     OW 3400   2.642   4.554   5.757
  834SOL    HW1 3401   2.632   4.630   5.692
  834SOL    HW2 3402   2.562   4.552   5.817
  835SOL     OW 3403   4.010   1.796   2.500
  835SOL    HW1 3404   4.005   1.696   2.497
  835SOL    HW2 3405   4.042   1.830   2.412
  836SOL     OW 3406   1.940   1.025   5.598
  836SOL    HW1 3407   2.024   1.067   5.562
  836SOL    HW2 3408   1.870   1.095   5.610
  837SOL     OW 3409   3.919   1.473   4.451
  837SOL    HW1 3410   3.987   1.541   4.478
  837SOL    HW2 3411   3.934   1.446   4.356
  838SOL     OW 3412   0.456   6.185   2.280
  838SOL    HW1 3413   0.463   6.227   2.370
  838SOL    HW2 3414   0.404   6.246   2.219
  839SOL     OW 3415   1.924   1.612   2.024
  839SOL    HW1 3416   1.896   1.708   2.015
  839SOL    HW2 3417   1.940   1.574   1.933
  840SOL     OW 3418   2.266   0.782   4.454
  840SOL    HW1 3419   2.359   0.817   4.447
  840SOL    HW2 3420   2.240   0.777   4.550
  841SOL     OW 3421   6.530   3.055   0.406
  841SOL    HW1 3422   6.461   3.066   0.478
  841SOL    HW2 3423   6.497   3.097   0.322
  842SOL     OW 3424   3.940   5.007   4.257
  842SOL    HW1 3425   3.974   4.933   4.201
  842SOL    HW2 3426   3.878   4.970   4.327
  843SOL     OW 3427   6.745   3.073   0.930
  843SOL    HW1 3428   6.842   3.094   0.932
  843SOL    HW2 3429   6.730   2.989   0.878
  844SOL     OW 3430   5.577   4.504   6.433
  844SOL    HW1 3431   5.561   4.465   6.523
  844SOL    HW2 3432   5.562   4.603   6.435
  845SOL     OW 3433   1.959   5.032   5.791
  845SOL    HW1 3434   1.941   5.076   5.879
  845SOL    HW2 3435   1.877   5.035   5.734
  846SOL     OW 3436   5.198   1.960   0.079
  846SOL    HW1 3437   5.109   1.974   0.122
  846SOL    HW2 3438   5.200   1.870   0.035
  847SOL     OW 3439   4.815   3.449   1.440
  847SOL    HW1 3440   4.863   3.501   1.510
  847SOL    HW2 3441   4.878   3.385   1.396
  848SOL     OW 3442   6.165   6.614   5.608
  848SOL    HW1 3443   6.146   6.703   5.568
  848SOL    HW2 3444   6.204   6.553   5.538
  849SOL     OW 3445   1.021   0.045   3.319
  849SOL    HW1 3446   0.987   6.982   3.349
  849SOL    HW2 3447   0.981   0.116   3.377
  850SOL     OW 3448   3.155   0.634   2.950
  850SOL    HW1 3449   3.140   0.732   2.963
  850SOL    HW2 3450   3.208   0.598   3.026
  851SOL     OW 3451   6.406   1.515   5.977
  851SOL    HW1 3452   6.308   1.519   5.958
  851SOL    HW2 3453   6.429   1.427   6.017
  852SOL     OW 3454   3.771   4.943   4.851
  852SOL    HW1 3455   3.799   4.847   4.855
  852SOL    HW2 3456   3.848   5.002   4.876
  853SOL     OW 3457   1.194   3.723   1.005
  853SOL    HW1 3458   1.280   3.686   1.040
  853SOL    HW2 3459   1.173   3.679   0.917
  854SOL     OW 3460   6.616   4.732   1.388
  854SOL    HW1 3461   6.677   4.809   1.373
  854SOL    HW2 3462   6.609   4.713   1.486
  855SOL     OW 3463   4.944   0.215   0.353
  855SOL    HW1 3464   4.922   0.217   0.256
  855SOL    HW2 3465   4.862   0.195   0.406
  856SOL     OW 3466   1.925   1.342   5.386
  856SOL    HW1 3467   1.880   1.287   5.456
  856SOL    HW2 3468   1.964   1.282   5.316
  857SOL     OW 3469   6.974   4.782   2.479
  857SOL    HW1 3470   0.026   4.831   2.518
  857SOL    HW2 3471   6.897   4.845   2.472
  858SOL     OW 3472   3.972   3.417   2.198
  858SOL    HW1 3473   3.989   3.487   2.267
  858SOL    HW2 3474   4.054   3.361   2.187
  859SOL     OW 3475   6.445   4.063   1.602
  859SOL    HW1 3476   6.372   4.021   1.548
  859SOL    HW2 3477   6.532   4.054   1.554
  860SOL     OW 3478   1.483   4.232   6.084
  860SOL    HW1 3479   1.383   4.227   6.084
  860SOL    HW2 3480   1.518   4.193   5.999
  861SOL     OW 3481   4.134   4.732   0.010
  861SOL    HW1 3482   4.177   4.656   6.990
  861SOL    HW2 3483   4.035   4.715   0.017
  862SOL     OW 3484   4.259   4.748   3.636
  862SOL    HW1 3485   4.239   4.700   3.551
  862SOL    HW2 3486   4.309   4.687   3.697
  863SOL     OW 3487   6.552   3.026   1.130
  863SOL    HW1 3488   6.629   3.065   1.080
  863SOL    HW2 3489   6.481   2.997   1.066
  864SOL     OW 3490   1.457   6.667   1.512
  864SOL    HW1 3491   1.438   6.748   1.456
  864SOL    HW2 3492   1.448   6.691   1.609
  865SOL     OW 3493   0.691   1.115   3.759
  865SOL    HW1 3494   0.641   1.030   3.743
  865SOL    HW2 3495   0.752   1.103   3.838
  866SOL     OW 3496   3.552   0.740   2.142
  866SOL    HW1 3497   3.458   0.706   2.139
  866SOL    HW2 3498   3.556   0.830   2.099
  867SOL     OW 3499   3.450   1.657   6.520
  867SOL    HW1 3500   3.514   1.597   6.471
  867SOL    HW2 3501   3.356   1.626   6.503
  868SOL     OW 3502   4.700   2.189   3.503
  868SOL    HW1 3503   4.767   2.222   3.436
  868SOL    HW2 3504   4.619   2.248   3.501
  869SOL     OW 3505   6.166   3.218   0.692
  869SOL    HW1 3506   6.207   3.196   0.781
  869SOL    HW2 3507   6.181   3.314   0.672
  870SOL     OW 3508   6.103   1.864   0.328
  870SOL    HW1 3509   6.032   1.827   0.267
  870SOL    HW2 3510   6.121   1.798   0.401
  871SOL     OW 3511   0.103   4.329   0.986
  871SOL    HW1 3512   0.098   4.350   0.889
  871SOL    HW2 3513   0.019   4.360   1.031
  872SOL     OW 3514   5.866   1.822   1.810
  872SOL    HW1 3515   5.919   1.906   1.798
  872SOL    HW2 3516   5.867   1.795   1.906
  873SOL     OW 3517   4.218   0.106   3.709
  873SOL    HW1 3518   4.261   0.103   3.619
  873SOL    HW2 3519   4.234   0.020   3.757
  874SOL     OW 3520   1.111   3.457   6.261
  874SOL    HW1 3521   1.014   3.437   6.253
  874SOL    HW2 3522   1.159   3.379   6.301
  875SOL     OW 3523   6.407   5.895   6.866
  875SOL    HW1 3524   6.393   5.887   6.767
  875SOL    HW2 3525   6.378   5.986   6.896
  876SOL     OW 3526   2.675   2.459   1.794
  876SOL    HW1 3527   2.761   2.428   1.836
  876SOL    HW2 3528   2.609   2.483   1.866
  877SOL     OW 3529   6.005   5.508   5.952
  877SOL    HW1 3530   6.089   5.463   5.923
  877SOL    HW2 3531   6.015   5.538   6.047
  878SOL     OW 3532   4.142   3.093   1.503
  878SOL    HW1 3533   4.098   3.005   1.486
  878SOL    HW2 3534   4.217   3.080   1.567
  879SOL     OW 3535   5.540   3.301   2.775
  879SOL    HW1 3536   5.534   3.202   2.765
  879SOL    HW2 3537   5.486   3.331   2.854
  880SOL     OW 3538   3.950   7.010   1.035
  880SOL    HW1 3539   3.977   6.945   1.107
  880SOL    HW2 3540   3.889   6.965   0.971
  881SOL     OW 3541   4.614   5.765   2.981
  881SOL    HW1 3542   4.638   5.747   3.076
  881SOL    HW2 3543   4.635   5.684   2.926
  882SOL     OW 3544   1.188   2.229   5.173
  882SOL    HW1 3545   1.147   2.189   5.255
  882SOL    HW2 3546   1.160   2.324   5.164
  883SOL     OW 3547   2.469   5.322   0.128
  883SOL    HW1 3548   2.463   5.356   0.223
  883SOL    HW2 3549   2.438   5.394   0.066
  884SOL     OW 3550   4.700   4.425   1.356
  884SOL    HW1 3551   4.777   4.365   1.375
  884SOL    HW2 3552   4.716   4.515   1.397
  885SOL     OW 3553   3.854   5.530   6.665
  885SOL    HW1 3554   3.812   5.572   6.584
  885SOL    HW2 3555   3.782   5.507   6.731
  886SOL     OW 3556   3.899   2.707   6.545
  886SOL    HW1 3557   3.840   2.752   6.611
  886SOL    HW2 3558   3.940   2.776   6.485
  887SOL     OW 3559   6.577   6.257   5.104
  887SOL    HW1 3560   6.533   6.295   5.185
  887SOL    HW2 3561   6.653   6.199   5.131
  888SOL     OW 3562   6.387   1.413   3.960
  888SOL    HW1 3563   6.312   1.458   4.009
  888SOL    HW2 3564   6.406   1.463   3.875
  889SOL     OW 3565   0.723   0.155   4.818
  889SOL    HW1 3566   0.761   0.151   4.725
  889SOL    HW2 3567   0.685   0.246   4.834
  890SOL     OW 3568   2.802   3.592   0.676
  890SOL    HW1 3569   2.754   3.504   0.675
  890SOL    HW2 3570   2.901   3.576   0.673
  891SOL     OW 3571   6.829   3.308   5.648
  891SOL    HW1 3572   6.881   3.225   5.628
  891SOL    HW2 3573   6.872   3.358   5.723
  892SOL     OW 3574   2.301   4.324   1.958
  892SOL    HW1 3575   2.303   4.270   2.041
  892SOL    HW2 3576   2.307   4.421   1.981
  893SOL     OW 3577   2.024   0.757   1.815
  893SOL    HW1 3578   1.934   0.799   1.816
  893SOL    HW2 3579   2.035   0.702   1.732
  894SOL     OW 3580   1.290   5.356   3.779
  894SOL    HW1 3581   1.309   5.352   3.681
  894SOL    HW2 3582   1.352   5.294   3.828
  895SOL     OW 3583   2.982   1.295   4.450
  895SOL    HW1 3584   3.016   1.336   4.365
  895SOL    HW2 3585   2.884   1.279   4.442
  896SOL     OW 3586   4.542   6.698   2.669
  896SOL    HW1 3587   4.599   6.740   2.739
  896SOL    HW2 3588   4.512   6.768   2.603
  897SOL     OW 3589   6.563   0.619   6.796
  897SOL    HW1 3590   6.609   0.594   6.711
  897SOL    HW2 3591   6.538   0.716   6.794
  898SOL     OW 3592   5.614   5.883   3.557
  898SOL    HW1 3593   5.619   5.887   3.657
  898SOL    HW2 3594   5.535   5.936   3.526
  899SOL     OW 3595   1.726   4.731   0.289
  899SOL    HW1 3596   1.703   4.659   0.355
  899SOL    HW2 3597   1.691   4.704   0.198
  900SOL     OW 3598   0.056   5.424   3.501
  900SOL    HW1 3599   0.056   5.504   3.441
  900SOL    HW2 3600   0.109   5.445   3.583
  901SOL     OW 3601   6.281   2.512   3.451
  901SOL    HW1 3602   6.229   2.591   3.484
  901SOL    HW2 3603   6.343   2.541   3.379
  902SOL     OW 3604   1.675   6.059   0.001
  902SOL    HW1 3605   1.718   6.110   6.954
  902SOL    HW2 3606   1.702   6.098   0.089
  903SOL     OW 3607   1.228   5.079   0.181
  903SOL    HW1 3608   1.139   5.094   0.137
  903SOL    HW2 3609   1.298   5.132   0.135
  904SOL     OW 3610   0.955   2.231   3.879
  904SOL    HW1 3611   0.859   2.260   3.879
  904SOL    HW2 3612   0.963   2.143   3.832
  905SOL     OW 3613   6.278   4.413   3.426
  905SOL    HW1 3614   6.323   4.470   3.358
  905SOL    HW2 3615   6.320   4.322   3.427
  906SOL     OW 3616   0.175   3.785   5.756
  906SOL    HW1 3617   0.131   3.700   5.726
  906SOL    HW2 3618   0.264   3.794   5.711
  907SOL     OW 3619   6.761   4.631   3.047
  907SOL    HW1 3620   6.741   4.717   3.002
  907SOL    HW2 3621   6.699   4.560   3.013
  908SOL     OW 3622   2.401   1.079   3.033
  908SOL    HW1 3623   2.410   1.178   3.043
  908SOL    HW2 3624   2.337   1.058   2.959
  909SOL     OW 3625   3.001   6.611   2.461
  909SOL    HW1 3626   3.016   6.635   2.365
  909SOL    HW2 3627   2.934   6.674   2.501
  910SOL     OW 3628   1.290   0.724   1.962
  910SOL    HW1 3629   1.205   0.700   1.915
  910SOL    HW2 3630   1.273   0.800   2.025
  911SOL     OW 3631   1.003   2.676   1.225
  911SOL    HW1 3632   1.033   2.611   1.295
  911SOL    HW2 3633   1.082   2.727   1.191
  912SOL     OW 3634   2.630   0.634   1.235
  912SOL    HW1 3635   2.659   0.555   1.181
  912SOL    HW2 3636   2.657   0.620   1.331
  913SOL     OW 3637   2.351   1.321   1.861
  913SOL    HW1 3638   2.379   1.399   1.916
  913SOL    HW2 3639   2.270   1.279   1.902
  914SOL     OW 3640   3.400   4.957   2.512
  914SOL    HW1 3641   3.329   4.929   2.577
  914SOL    HW2 3642   3.490   4.944   2.553
  915SOL     OW 3643   3.201   2.103   1.750
  915SOL    HW1 3644   3.260   2.111   1.831
  915SOL    HW2 3645   3.257   2.089   1.669
  916SOL     OW 3646   6.695   4.042   2.760
  916SOL    HW1 3647   6.724   4.101   2.835
  916SOL    HW2 3648   6.740   4.070   2.675
  917SOL     OW 3649   4.048   0.336   5.041
  917SOL    HW1 3650   4.065   0.434   5.037
  917SOL    HW2 3651   4.110   0.294   5.107
  918SOL     OW 3652   0.253   2.706   5.246
  918SOL    HW1 3653   0.296   2.632   5.194
  918SOL    HW2 3654   0.214   2.670   5.330
  919SOL     OW 3655   0.976   0.610   1.336
  919SOL    HW1 3656   1.017   0.699   1.355
  919SOL    HW2 3657   1.048   0.541   1.327
  920SOL     OW 3658   1.017   1.573   2.676
  920SOL    HW1 3659   0.930   1.588   2.722
  920SOL    HW2 3660   1.061   1.661   2.657
  921SOL     OW 3661   4.118   4.304   0.342
  921SOL    HW1 3662   4.078   4.386   0.302
  921SOL    HW2 3663   4.137   4.237   0.270
  922SOL     OW 3664   2.721   5.715   6.456
  922SOL    HW1 3665   2.666   5.798   6.464
  922SOL    HW2 3666   2.797   5.719   6.522
  923SOL     OW 3667   3.653   1.572   0.312
  923SOL    HW1 3668   3.731   1.519   0.280
  923SOL    HW2 3669   3.673   1.609   0.402
  924SOL     OW 3670   4.907   5.166   1.054
  924SOL    HW1 3671   4.990   5.118   1.025
  924SOL    HW2 3672   4.930   5.234   1.123
  925SOL     OW 3673   5.749   2.075   1.229
  925SOL    HW1 3674   5.797   2.121   1.304
  925SOL    HW2 3675   5.763   2.127   1.144
  926SOL     OW 3676   4.331   5.853   1.660
  926SOL    HW1 3677   4.327   5.844   1.561
  926SOL    HW2 3678   4.426   5.855   1.690
  927SOL     OW 3679   5.141   5.610   5.899
  927SOL    HW1 3680   5.194   5.605   5.814
  927SOL    HW2 3681   5.043   5.603   5.877
  928SOL     OW 3682   5.961   0.911   2.025
  928SOL    HW1 3683   5.917   0.923   1.936
  928SOL    HW2 3684   6.031   0.841   2.019
  929SOL     OW 3685   6.659   1.975   2.855
  929SOL    HW1 3686   6.622   1.959   2.763
  929SOL    HW2 3687   6.639   2.069   2.882
  930SOL     OW 3688   5.963   4.106   2.092
  930SOL    HW1 3689   5.879   4.151   2.063
  930SOL    HW2 3690   6.034   4.175   2.110
  931SOL     OW 3691   0.119   2.923   0.118
  931SOL    HW1 3692   0.030   2.877   0.113
  931SOL    HW2 3693   0.149   2.949   0.026
  932SOL     OW 3694   4.285   6.894   0.537
  932SOL    HW1 3695   4.195   6.853   0.550
  932SOL    HW2 3696   4.336   6.889   0.623
  933SOL     OW 3697   0.598   6.663   2.967
  933SOL    HW1 3698   0.683   6.611   2.972
  933SOL    HW2 3699   0.544   6.649   3.050
  934SOL     OW 3700   4.227   1.900   4.722
  934SOL    HW1 3701   4.167   1.901   4.643
  934SOL    HW2 3702   4.199   1.827   4.785
  935SOL     OW 3703   1.304   3.983   3.996
  935SOL    HW1 3704   1.247   3.958   4.074
  935SOL    HW2 3705   1.397   3.949   4.011
  936SOL     OW 3706   0.817   1.491   0.935
  936SOL    HW1 3707   0.860   1.546   0.864
  936SOL    HW2 3708   0.792   1.402   0.898
  937SOL     OW 3709   4.797   2.120   3.154
  937SOL    HW1 3710   4.819   2.040   3.098
  937SOL    HW2 3711   4.810   2.203   3.100
  938SOL     OW 3712   0.729   0.652   6.058
  938SOL    HW1 3713   0.809   0.655   6.118
  938SOL    HW2 3714   0.674   0.735   6.072
  939SOL     OW 3715   0.256   0.997   4.892
  939SOL    HW1 3716   0.185   0.939   4.852
  939SOL    HW2 3717   0.271   0.970   4.987
  940SOL     OW 3718   6.378   0.148   3.553
  940SOL    HW1 3719   6.343   0.233   3.514
  940SOL    HW2 3720   6.347   0.071   3.497
  941SOL     OW 3721   6.064   2.505   4.949
  941SOL    HW1 3722   5.965   2.494   4.943
  941SOL    HW2 3723   6.087   2.570   5.022
  942SOL     OW 3724   4.252   6.539   6.016
  942SOL    HW1 3725   4.198   6.456   6.030
  942SOL    HW2 3726   4.196   6.620   6.036
  943SOL     OW 3727   5.184   2.169   6.560
  943SOL    HW1 3728   5.109   2.174   6.494
  943SOL    HW2 3729   5.262   2.124   6.517
  944SOL     OW 3730   5.400   4.742   3.765
  944SOL    HW1 3731   5.388   4.643   3.771
  944SOL    HW2 3732   5.335   4.787   3.827
  945SOL     OW 3733   6.762   3.178   6.469
  945SOL    HW1 3734   6.676   3.157   6.515
  945SOL    HW2 3735   6.794   3.268   6.499
  946SOL     OW 3736   5.917   3.266   6.120
  946SOL    HW1 3737   5.828   3.265   6.075
  946SOL    HW2 3738   5.906   3.270   6.219
  947SOL     OW 3739   1.548   2.042   6.457
  947SOL    HW1 3740   1.608   2.121   6.443
  947SOL    HW2 3741   1.453   2.073   6.461
  948SOL     OW 3742   3.648   1.567   1.008
  948SOL    HW1 3743   3.682   1.545   0.916
  948SOL    HW2 3744   3.724   1.602   1.064
  949SOL     OW 3745   4.974   4.898   5.826
  949SOL    HW1 3746   4.980   4.987   5.780
  949SOL    HW2 3747   4.918   4.907   5.909
  950SOL     OW 3748   3.311   5.051   0.249
  950SOL    HW1 3749   3.226   5.101   0.268
  950SOL    HW2 3750   3.361   5.096   0.175
  951SOL     OW 3751   0.153   3.815   3.023
  951SOL    HW1 3752   0.089   3.741   3.002
  951SOL    HW2 3753   0.247   3.779   3.023
  952SOL     OW 3754   4.389   0.878   1.067
  952SOL    HW1 3755   4.388   0.978   1.062
  952SOL    HW2 3756   4.454   0.842   1.001
  953SOL     OW 3757   4.590   6.510   6.107
  953SOL    HW1 3758   4.589   6.428   6.165
  953SOL    HW2 3759   4.567   6.485   6.013
  954SOL     OW 3760   6.985   6.337   1.487
  954SOL    HW1 3761   0.024   6.263   1.473
  954SOL    HW2 3762   6.960   6.341   1.584
  955SOL     OW 3763   1.044   6.978   3.668
  955SOL    HW1 3764   1.140   6.979   3.641
  955SOL    HW2 3765   1.037   6.951   3.765
  956SOL     OW 3766   1.791   2.746   1.403
  956SOL    HW1 3767   1.789   2.646   1.401
  956SOL    HW2 3768   1.812   2.780   1.311
  957SOL     OW 3769   3.060   6.495   4.434
  957SOL    HW1 3770   2.977   6.439   4.433
  957SOL    HW2 3771   3.041   6.584   4.394
  958SOL     OW 3772   4.347   1.962   6.977
  958SOL    HW1 3773   4.414   2.029   6.944
  958SOL    HW2 3774   4.287   2.006   0.017
  959SOL     OW 3775   1.641   3.898   0.508
  959SOL    HW1 3776   1.545   3.871   0.504
  959SOL    HW2 3777   1.664   3.922   0.602
  960SOL     OW 3778   1.571   3.456   5.446
  960SOL    HW1 3779   1.662   3.485   5.475
  960SOL    HW2 3780   1.578   3.373   5.391
  961SOL     OW 3781   3.866   6.579   6.052
  961SOL    HW1 3782   3.948   6.632   6.032
  961SOL    HW2 3783   3.874   6.488   6.011
  962SOL     OW 3784   0.466   0.446   3.948
  962SOL    HW1 3785   0.383   0.390   3.953
  962SOL    HW2 3786   0.440   0.542   3.934
  963SOL     OW 3787   5.566   7.015   3.422
  963SOL    HW1 3788   5.479   7.006   3.470
  963SOL    HW2 3789   5.640   6.988   3.483
  964SOL     OW 3790   5.988   4.519   1.934
  964SOL    HW1 3791   5.913   4.491   1.994
  964SOL    HW2 3792   5.959   4.514   1.839
  965SOL     OW 3793   1.404   2.327   0.539
  965SOL    HW1 3794   1.346   2.247   0.557
  965SOL    HW2 3795   1.485   2.299   0.487
  966SOL     OW 3796   4.800   2.343   1.882
  966SOL    HW1 3797   4.870   2.285   1.924
  966SOL    HW2 3798   4.778   2.419   1.943
  967SOL     OW 3799   0.612   5.865   3.121
  967SOL    HW1 3800   0.666   5.933   3.171
  967SOL    HW2 3801   0.654   5.849   3.031
  968SOL     OW 3802   0.249   4.342   1.238
  968SOL    HW1 3803   0.178   4.323   1.306
  968SOL    HW2 3804   0.214   4.320   1.147
  969SOL     OW 3805   3.439   6.795   6.217
  969SOL    HW1 3806   3.453   6.877   6.162
  969SOL    HW2 3807   3.342   6.770   6.217
  970SOL     OW 3808   5.378   3.699   6.270
  970SOL    HW1 3809   5.428   3.675   6.187
  970SOL    HW2 3810   5.346   3.615   6.315
  971SOL     OW 3811   0.806   1.489   0.020
  971SOL    HW1 3812   0.772   1.507   6.955
  971SOL    HW2 3813   0.736   1.513   0.087
  972SOL     OW 3814   3.596   6.699   6.573
  972SOL    HW1 3815   3.635   6.723   6.484
  972SOL    HW2 3816   3.648   6.744   6.646
  973SOL     OW 3817   6.402   3.559   5.920
  973SOL    HW1 3818   6.336   3.634   5.925
  973SOL    HW2 3819   6.470   3.571   5.993
  974SOL     OW 3820   2.463   0.874   3.869
  974SOL    HW1 3821   2.465   0.856   3.968
  974SOL    HW2 3822   2.464   0.787   3.820
  975SOL     OW 3823   3.087   6.743   4.311
  975SOL    HW1 3824   3.100   6.809   4.385
  975SOL    HW2 3825   3.155   6.760   4.239
  976SOL     OW 3826   0.380   5.491   4.900
  976SOL    HW1 3827   0.439   5.417   4.931
  976SOL    HW2 3828   0.421   5.579   4.924
  977SOL     OW 3829   0.187   1.594   1.865
  977SOL    HW1 3830   0.177   1.645   1.779
  977SOL    HW2 3831   0.139   1.643   1.938
  978SOL     OW 3832   6.371   2.779   4.051
  978SOL    HW1 3833   6.340   2.686   4.028
  978SOL    HW2 3834   6.390   2.829   3.966
  979SOL     OW 3835   5.689   1.591   2.303
  979SOL    HW1 3836   5.707   1.493   2.293
  979SOL    HW2 3837   5.700   1.636   2.215
  980SOL     OW 3838   6.133   5.726   5.466
  980SOL    HW1 3839   6.226   5.732   5.501
  980SOL    HW2 3840   6.068   5.759   5.535
  981SOL     OW 3841   6.254   3.191   6.931
  981SOL    HW1 3842   6.240   3.278   6.882
  981SOL    HW2 3843   6.284   3.121   6.866
  982SOL     OW 3844   1.426   4.816   0.100
  982SOL    HW1 3845   1.439   4.816   0.199
  982SOL    HW2 3846   1.397   4.908   0.070
  983SOL     OW 3847   5.539   1.885   4.092
  983SOL    HW1 3848   5.473   1.961   4.090
  983SOL    HW2 3849   5.630   1.920   4.115
  984SOL     OW 3850   4.890   3.335   4.908
  984SOL    HW1 3851   4.825   3.386   4.965
  984SOL    HW2 3852   4.878   3.237   4.923
  985SOL     OW 3853   1.996   3.908   0.773
  985SOL    HW1 3854   2.080   3.901   0.825
  985SOL    HW2 3855   2.014   3.957   0.687
  986SOL     OW 3856   5.965   4.044   4.589
  986SOL    HW1 3857   6.003   4.114   4.527
  986SOL    HW2 3858   5.952   4.084   4.680
  987SOL     OW 3859   2.293   1.123   2.776
  987SOL    HW1 3860   2.368   1.134   2.711
  987SOL    HW2 3861   2.247   1.211   2.789
  988SOL     OW 3862   3.928   3.918   1.646
  988SOL    HW1 3863   3.833   3.920   1.677
  988SOL    HW2 3864   3.933   3.884   1.553
  989SOL     OW 3865   0.952   1.139   5.377
  989SOL    HW1 3866   0.873   1.145   5.315
  989SOL    HW2 3867   0.971   1.229   5.417
  990SOL     OW 3868   3.945   6.413   1.772
  990SOL    HW1 3869   3.892   6.351   1.715
  990SOL    HW2 3870   3.896   6.430   1.858
  991SOL     OW 3871   5.867   1.533   6.487
  991SOL    HW1 3872   5.918   1.617   6.507
  991SOL    HW2 3873   5.773   1.543   6.519
  992SOL     OW 3874   0.419   2.413   0.281
  992SOL    HW1 3875   0.438   2.482   0.211
  992SOL    HW2 3876   0.388   2.457   0.364
  993SOL     OW 3877   3.973   6.695   4.361
  993SOL    HW1 3878   3.990   6.794   4.364
  993SOL    HW2 3879   3.949   6.668   4.268
  994SOL     OW 3880   3.225   4.031   4.156
  994SOL    HW1 3881   3.322   4.050   4.141
  994SOL    HW2 3882   3.179   4.020   4.067
  995SOL     OW 3883   1.592   1.776   5.204
  995SOL    HW1 3884   1.521   1.835   5.165
  995SOL    HW2 3885   1.577   1.682   5.174
  996SOL     OW 3886   2.592   2.931   0.882
  996SOL    HW1 3887   2.540   2.952   0.965
  996SOL    HW2 3888   2.555   2.983   0.805
  997SOL     OW 3889   6.615   1.666   0.480
  997SOL    HW1 3890   6.562   1.694   0.560
  997SOL    HW2 3891   6.607   1.567   0.467
  998SOL     OW 3892   4.399   6.724   3.567
  998SOL    HW1 3893   4.301   6.724   3.586
  998SOL    HW2 3894   4.449   6.713   3.653
  999SOL     OW 3895   0.176   4.797   6.543
  999SOL    HW1 3896   0.233   4.740   6.483
  999SOL    HW2 3897   0.080   4.773   6.529
 1000SOL     OW 3898   3.880   1.469   5.698
 1000SOL    HW1 3899   3.803   1.454   5.637
 1000SOL    HW2 3900   3.850   1.522   5.777
 1001SOL     OW 3901   5.617   0.438   4.569
 1001SOL    HW1 3902   5.687   0.406   4.506
 1001SOL    HW2 3903   5.640   0.409   4.662
 1002SOL     OW 3904   0.138   1.402   0.252
 1002SOL    HW1 3905   0.201   1.329   0.225
 1002SOL    HW2 3906   0.052   1.393   0.201
 1003SOL     OW 3907   4.829   5.135   2.105
 1003SOL    HW1 3908   4.764   5.097   2.171
 1003SOL    HW2 3909   4.922   5.123   2.141
 1004SOL     OW 3910   6.063   5.986   6.815
 1004SOL    HW1 3911   6.116   6.007   6.733
 1004SOL    HW2 3912   6.040   6.071   6.863
 1005SOL     OW 3913   4.988   6.776   2.652
 1005SOL    HW1 3914   4.945   6.826   2.577
 1005SOL    HW2 3915   5.056   6.713   2.616
 1006SOL     OW 3916   2.069   6.215   0.031
 1006SOL    HW1 3917   2.020   6.297   0.061
 1006SOL    HW2 3918   2.056   6.143   0.099
 1007SOL     OW 3919   5.957   2.571   2.421
 1007SOL    HW1 3920   5.941   2.670   2.433
 1007SOL    HW2 3921   6.055   2.554   2.416
 1008SOL     OW 3922   3.603   0.983   5.227
 1008SOL    HW1 3923   3.684   1.033   5.255
 1008SOL    HW2 3924   3.553   0.953   5.309
 1009SOL     OW 3925   3.136   6.441   5.648
 1009SOL    HW1 3926   3.101   6.420   5.557
 1009SOL    HW2 3927   3.100   6.529   5.679
 1010SOL     OW 3928   5.153   6.089   6.194
 1010SOL    HW1 3929   5.161   5.999   6.151
 1010SOL    HW2 3930   5.133   6.157   6.124
 1011SOL     OW 3931   2.810   5.053   4.644
 1011SOL    HW1 3932   2.731   5.048   4.706
 1011SOL    HW2 3933   2.891   5.016   4.690
 1012SOL     OW 3934   2.925   5.948   0.734
 1012SOL    HW1 3935   2.935   5.866   0.677
 1012SOL    HW2 3936   2.928   5.922   0.831
 1013SOL     OW 3937   1.119   0.295   1.190
 1013SOL    HW1 3938   1.181   0.289   1.268
 1013SOL    HW2 3939   1.061   0.213   1.187
 1014SOL     OW 3940   6.017   6.358   6.652
 1014SOL    HW1 3941   5.925   6.319   6.641
 1014SOL    HW2 3942   6.079   6.315   6.586
 1015SOL     OW 3943   2.763   0.144   4.661
 1015SOL    HW1 3944   2.806   0.151   4.751
 1015SOL    HW2 3945   2.777   0.229   4.610
 1016SOL     OW 3946   4.172   3.278   1.870
 1016SOL    HW1 3947   4.137   3.362   1.829
 1016SOL    HW2 3948   4.240   3.237   1.808
 1017SOL     OW 3949   4.856   6.812   5.888
 1017SOL    HW1 3950   4.804   6.858   5.959
 1017SOL    HW2 3951   4.859   6.714   5.906
 1018SOL     OW 3952   1.051   2.013   1.434
 1018SOL    HW1 3953   1.073   1.973   1.523
 1018SOL    HW2 3954   0.961   1.983   1.405
 1019SOL     OW 3955   6.127   0.628   6.770
 1019SOL    HW1 3956   6.045   0.663   6.725
 1019SOL    HW2 3957   6.171   0.559   6.712
 1020SOL     OW 3958   3.573   2.044   1.144
 1020SOL    HW1 3959   3.662   2.012   1.115
 1020SOL    HW2 3960   3.582   2.135   1.185
 1021SOL     OW 3961   5.015   1.466   1.468
 1021SOL    HW1 3962   4.993   1.435   1.560
 1021SOL    HW2 3963   4.999   1.564   1.461
 1022SOL     OW 3964   2.445   3.833   6.734
 1022SOL    HW1 3965   2.357   3.855   6.776
 1022SOL    HW2 3966   2.448   3.870   6.641
 1023SOL     OW 3967   6.862   1.206   4.260
 1023SOL    HW1 3968   6.872   1.255   4.173
 1023SOL    HW2 3969   6.765   1.205   4.287
 1024SOL     OW 3970   6.733   2.675   4.308
 1024SOL    HW1 3971   6.826   2.712   4.302
 1024SOL    HW2 3972   6.737   2.575   4.315
 1025SOL     OW 3973   2.550   3.966   1.301
 1025SOL    HW1 3974   2.646   3.992   1.299
 1025SOL    HW2 3975   2.523   3.946   1.395
 1026SOL     OW 3976   0.704   3.340   6.869
 1026SOL    HW1 3977   0.643   3.359   6.793
 1026SOL    HW2 3978   0.709   3.419   6.929
 1027SOL     OW 3979   1.750   4.509   1.337
 1027SOL    HW1 3980   1.787   4.461   1.417
 1027SOL    HW2 3981   1.759   4.451   1.256
 1028SOL     OW 3982   0.830   4.874   0.585
 1028SOL    HW1 3983   0.816   4.784   0.545
 1028SOL    HW2 3984   0.897   4.868   0.659
 1029SOL     OW 3985   3.886   0.576   4.624
 1029SOL    HW1 3986   3.907   0.644   4.554
 1029SOL    HW2 3987   3.808   0.606   4.678
 1030SOL     OW 3988   4.222   4.772   4.744
 1030SOL    HW1 3989   4.168   4.796   4.824
 1030SOL    HW2 3990   4.259   4.679   4.755
 1031SOL     OW 3991   2.605   5.780   1.084
 1031SOL    HW1 3992   2.648   5.855   1.134
 1031SOL    HW2 3993   2.579   5.812   0.993
 1032SOL     OW 3994   1.357   2.899   4.647
 1032SOL    HW1 3995   1.399   2.958   4.715
 1032SOL    HW2 3996   1.374   2.803   4.671
 1033SOL     OW 3997   3.349   6.826   2.181
 1033SOL    HW1 3998   3.422   6.860   2.122
 1033SOL    HW2 3999   3.280   6.779   2.124
 1034SOL     OW 4000   0.113   5.077   2.981
 1034SOL    HW1 4001   0.151   4.990   2.949
 1034SOL    HW2 4002   0.132   5.088   3.078
 1035SOL     OW 4003   3.072   1.894   3.459
 1035SOL    HW1 4004   3.103   1.956   3.531
 1035SOL    HW2 4005   2.978   1.918   3.434
 1036SOL     OW 4006   4.919   6.379   6.699
 1036SOL    HW1 4007   4.850   6.426   6.643
 1036SOL    HW2 4008   5.006   6.427   6.693
 1037SOL     OW 4009   4.213   1.067   5.821
 1037SOL    HW1 4010   4.139   1.002   5.839
 1037SOL    HW2 4011   4.194   1.153   5.869
 1038SOL     OW 4012   2.973   1.935   4.872
 1038SOL    HW1 4013   2.940   2.004   4.807
 1038SOL    HW2 4014   2.991   1.979   4.960
 1039SOL     OW 4015   5.432   1.860   2.149
 1039SOL    HW1 4016   5.471   1.782   2.100
 1039SOL    HW2 4017   5.499   1.896   2.213
 1040SOL     OW 4018   6.319   4.759   4.584
 1040SOL    HW1 4019   6.366   4.700   4.649
 1040SOL    HW2 4020   6.369   4.759   4.497
 1041SOL     OW 4021   1.745   0.178   4.441
 1041SOL    HW1 4022   1.711   0.223   4.359
 1041SOL    HW2 4023   1.765   0.082   4.421
 1042SOL     OW 4024   4.198   4.791   0.633
 1042SOL    HW1 4025   4.189   4.703   0.587
 1042SOL    HW2 4026   4.294   4.818   0.634
 1043SOL     OW 4027   4.653   0.333   5.995
 1043SOL    HW1 4028   4.615   0.411   5.945
 1043SOL    HW2 4029   4.598   0.314   6.076
 1044SOL     OW 4030   4.108   3.371   4.205
 1044SOL    HW1 4031   4.103   3.468   4.181
 1044SOL    HW2 4032   4.120   3.362   4.304
 1045SOL     OW 4033   2.097   1.327   2.807
 1045SOL    HW1 4034   2.009   1.282   2.796
 1045SOL    HW2 4035   2.092   1.394   2.881
 1046SOL     OW 4036   2.406   0.728   2.111
 1046SOL    HW1 4037   2.475   0.798   2.126
 1046SOL    HW2 4038   2.430   0.673   2.031
 1047SOL     OW 4039   0.644   6.411   2.180
 1047SOL    HW1 4040   0.655   6.443   2.274
 1047SOL    HW2 4041   0.627   6.313   2.180
 1048SOL     OW 4042   7.024   3.894   5.003
 1048SOL    HW1 4043   0.020   3.984   5.040
 1048SOL    HW2 4044   0.073   3.860   4.948
 1049SOL     OW 4045   1.178   3.792   5.314
 1049SOL    HW1 4046   1.144   3.885   5.296
 1049SOL    HW2 4047   1.144   3.761   5.403
 1050SOL     OW 4048   3.081   0.648   1.625
 1050SOL    HW1 4049   3.054   0.565   1.674
 1050SOL    HW2 4050   3.180   0.658   1.628
 1051SOL     OW 4051   4.986   3.160   1.713
 1051SOL    HW1 4052   4.899   3.208   1.716
 1051SOL    HW2 4053   5.055   3.218   1.669
 1052SOL     OW 4054   2.130   6.302   3.398
 1052SOL    HW1 4055   2.163   6.260   3.482
 1052SOL    HW2 4056   2.146   6.400   3.400
 1053SOL     OW 4057   3.647   5.825   3.015
 1053SOL    HW1 4058   3.613   5.854   3.104
 1053SOL    HW2 4059   3.682   5.904   2.965
 1054SOL     OW 4060   3.211   5.780   5.338
 1054SOL    HW1 4061   3.256   5.775   5.427
 1054SOL    HW2 4062   3.190   5.688   5.306
 1055SOL     OW 4063   3.478   4.951   4.820
 1055SOL    HW1 4064   3.476   4.947   4.920
 1055SOL    HW2 4065   3.572   4.970   4.789
 1056SOL     OW 4066   3.186   6.049   0.569
 1056SOL    HW1 4067   3.179   6.014   0.662
 1056SOL    HW2 4068   3.175   5.975   0.504
 1057SOL     OW 4069   3.888   3.796   1.402
 1057SOL    HW1 4070   3.920   3.701   1.395
 1057SOL    HW2 4071   3.843   3.823   1.317
 1058SOL     OW 4072   2.485   0.561   1.916
 1058SOL    HW1 4073   2.514   0.581   1.822
 1058SOL    HW2 4074   2.555   0.504   1.960
 1059SOL     OW 4075   3.875   0.600   0.435
 1059SOL    HW1 4076   3.878   0.503   0.414
 1059SOL    HW2 4077   3.863   0.613   0.534
 1060SOL     OW 4078   3.942   1.593   4.080
 1060SOL    HW1 4079   3.989   1.680   4.095
 1060SOL    HW2 4080   3.978   1.524   4.143
 1061SOL     OW 4081   2.913   5.780   1.691
 1061SOL    HW1 4082   2.909   5.693   1.642
 1061SOL    HW2 4083   2.864   5.772   1.778
 1062SOL     OW 4084   6.273   4.169   5.369
 1062SOL    HW1 4085   6.335   4.150   5.293
 1062SOL    HW2 4086   6.327   4.188   5.451
 1063SOL     OW 4087   4.310   2.058   5.887
 1063SOL    HW1 4088   4.376   2.053   5.812
 1063SOL    HW2 4089   4.304   2.152   5.920
 1064SOL     OW 4090   0.317   2.875   2.217
 1064SOL    HW1 4091   0.305   2.909   2.124
 1064SOL    HW2 4092   0.244   2.910   2.275
 1065SOL     OW 4093   4.157   5.751   0.148
 1065SOL    HW1 4094   4.248   5.748   0.190
 1065SOL    HW2 4095   4.143   5.667   0.095
 1066SOL     OW 4096   5.332   6.448   3.561
 1066SOL    HW1 4097   5.261   6.454   3.491
 1066SOL    HW2 4098   5.291   6.419   3.648
 1067SOL     OW 4099   3.782   4.554   0.630
 1067SOL    HW1 4100   3.736   4.519   0.548
 1067SOL    HW2 4101   3.717   4.559   0.706
 1068SOL     OW 4102   1.382   5.224   2.252
 1068SOL    HW1 4103   1.463   5.226   2.194
 1068SOL    HW2 4104   1.329   5.308   2.238
 1069SOL     OW 4105   3.828   3.476   2.996
 1069SOL    HW1 4106   3.766   3.553   2.985
 1069SOL    HW2 4107   3.799   3.401   2.937
 1070SOL     OW 4108   1.211   6.260   0.284
 1070SOL    HW1 4109   1.114   6.285   0.282
 1070SOL    HW2 4110   1.220   6.164   0.260
 1071SOL     OW 4111   4.705   5.039   3.789
 1071SOL    HW1 4112   4.764   4.976   3.840
 1071SOL    HW2 4113   4.613   5.000   3.781
 1072SOL     OW 4114   4.505   5.269   3.517
 1072SOL    HW1 4115   4.477   5.294   3.609
 1072SOL    HW2 4116   4.517   5.352   3.462
 1073SOL     OW 4117   3.181   5.350   4.048
 1073SOL    HW1 4118   3.160   5.339   4.145
 1073SOL    HW2 4119   3.143   5.437   4.016
 1074SOL     OW 4120   2.701   5.108   3.906
 1074SOL    HW1 4121   2.604   5.093   3.925
 1074SOL    HW2 4122   2.716   5.110   3.807
 1075SOL     OW 4123   1.173   4.553   2.754
 1075SOL    HW1 4124   1.098   4.509   2.804
 1075SOL    HW2 4125   1.260   4.530   2.797
 1076SOL     OW 4126   5.173   3.687   3.530
 1076SOL    HW1 4127   5.076   3.666   3.541
 1076SOL    HW2 4128   5.185   3.752   3.455
 1077SOL     OW 4129   4.182   0.241   2.403
 1077SOL    HW1 4130   4.123   0.161   2.398
 1077SOL    HW2 4131   4.180   0.279   2.496
 1078SOL     OW 4132   5.787   2.456   1.598
 1078SOL    HW1 4133   5.878   2.488   1.626
 1078SOL    HW2 4134   5.745   2.405   1.674
 1079SOL     OW 4135   1.581   4.820   3.894
 1079SOL    HW1 4136   1.544   4.843   3.804
 1079SOL    HW2 4137   1.510   4.777   3.949
 1080SOL     OW 4138   2.521   5.336   4.188
 1080SOL    HW1 4139   2.620   5.322   4.196
 1080SOL    HW2 4140   2.476   5.300   4.269
 1081SOL     OW 4141   0.952   0.779   0.661
 1081SOL    HW1 4142   1.033   0.726   0.636
 1081SOL    HW2 4143   0.892   0.789   0.582
 1082SOL     OW 4144   2.280   0.913   1.464
 1082SOL    HW1 4145   2.358   0.853   1.446
 1082SOL    HW2 4146   2.279   0.988   1.398
 1083SOL     OW 4147   3.760   4.037   1.995
 1083SOL    HW1 4148   3.760   4.122   1.942
 1083SOL    HW2 4149   3.680   4.035   2.055
 1084SOL     OW 4150   5.644   3.879   1.345
 1084SOL    HW1 4151   5.586   3.845   1.271
 1084SOL    HW2 4152   5.661   3.805   1.410
 1085SOL     OW 4153   1.445   6.818   3.624
 1085SOL    HW1 4154   1.530   6.800   3.573
 1085SOL    HW2 4155   1.385   6.875   3.568
 1086SOL     OW 4156   3.053   6.645   2.911
 1086SOL    HW1 4157   2.958   6.617   2.907
 1086SOL    HW2 4158   3.059   6.745   2.909
 1087SOL     OW 4159   3.707   3.052   5.502
 1087SOL    HW1 4160   3.646   3.103   5.563
 1087SOL    HW2 4161   3.652   2.990   5.446
 1088SOL     OW 4162   6.849   5.406   2.118
 1088SOL    HW1 4163   6.843   5.494   2.070
 1088SOL    HW2 4164   6.759   5.363   2.119
 1089SOL     OW 4165   6.881   0.621   3.020
 1089SOL    HW1 4166   6.849   0.710   3.050
 1089SOL    HW2 4167   6.841   0.550   3.078
 1090SOL     OW 4168   3.113   1.884   6.939
 1090SOL    HW1 4169   3.017   1.909   6.954
 1090SOL    HW2 4170   3.153   1.946   6.871
 1091SOL     OW 4171   1.647   1.968   6.123
 1091SOL    HW1 4172   1.602   1.880   6.134
 1091SOL    HW2 4173   1.628   2.004   6.031
 1092SOL     OW 4174   2.644   5.256   0.888
 1092SOL    HW1 4175   2.597   5.310   0.959
 1092SOL    HW2 4176   2.703   5.188   0.932
 1093SOL     OW 4177   6.581   1.545   1.793
 1093SOL    HW1 4178   6.595   1.448   1.772
 1093SOL    HW2 4179   6.550   1.593   1.711
 1094SOL     OW 4180   0.538   6.211   2.843
 1094SOL    HW1 4181   0.509   6.306   2.827
 1094SOL    HW2 4182   0.600   6.182   2.770
 1095SOL     OW 4183   1.772   2.989   5.016
 1095SOL    HW1 4184   1.818   2.944   5.093
 1095SOL    HW2 4185   1.694   3.041   5.051
 1096SOL     OW 4186   3.592   2.760   1.957
 1096SOL    HW1 4187   3.578   2.749   1.859
 1096SOL    HW2 4188   3.640   2.680   1.993
 1097SOL     OW 4189   2.713   4.875   5.865
 1097SOL    HW1 4190   2.666   4.954   5.905
 1097SOL    HW2 4191   2.673   4.856   5.775
 1098SOL     OW 4192   2.948   6.893   2.495
 1098SOL    HW1 4193   3.010   6.870   2.421
 1098SOL    HW2 4194   2.999   6.932   2.571
 1099SOL     OW 4195   3.293   0.396   2.201
 1099SOL    HW1 4196   3.310   0.404   2.103
 1099SOL    HW2 4197   3.217   0.334   2.217
 1100SOL     OW 4198   0.192   0.719   0.445
 1100SOL    HW1 4199   0.117   0.729   0.510
 1100SOL    HW2 4200   0.156   0.698   0.354
 1101SOL     OW 4201   5.630   4.765   0.984
 1101SOL    HW1 4202   5.633   4.667   1.005
 1101SOL    HW2 4203   5.633   4.778   0.885
 1102SOL     OW 4204   6.836   4.774   4.401
 1102SOL    HW1 4205   6.851   4.723   4.316
 1102SOL    HW2 4206   6.781   4.719   4.464
 1103SOL     OW 4207   0.488   2.703   6.303
 1103SOL    HW1 4208   0.495   2.657   6.392
 1103SOL    HW2 4209   0.517   2.640   6.231
 1104SOL     OW 4210   2.830   5.077   5.597
 1104SOL    HW1 4211   2.765   5.140   5.554
 1104SOL    HW2 4212   2.904   5.057   5.532
 1105SOL     OW 4213   3.636   5.528   0.516
 1105SOL    HW1 4214   3.621   5.524   0.614
 1105SOL    HW2 4215   3.674   5.617   0.492
 1106SOL     OW 4216   1.194   2.295   6.587
 1106SOL    HW1 4217   1.097   2.294   6.566
 1106SOL    HW2 4218   1.220   2.385   6.622
 1107SOL     OW 4219   6.747   6.625   1.770
 1107SOL    HW1 4220   6.801   6.672   1.840
 1107SOL    HW2 4221   6.699   6.692   1.713
 1108SOL     OW 4222   1.302   1.041   6.384
 1108SOL    HW1 4223   1.252   1.004   6.306
 1108SOL    HW2 4224   1.399   1.016   6.377
 1109SOL     OW 4225   4.217   1.182   3.165
 1109SOL    HW1 4226   4.276   1.141   3.096
 1109SOL    HW2 4227   4.172   1.110   3.218
 1110SOL     OW 4228   3.957   3.581   3.269
 1110SOL    HW1 4229   4.029   3.609   3.333
 1110SOL    HW2 4230   3.904   3.661   3.242
 1111SOL     OW 4231   3.890   0.404   6.527
 1111SOL    HW1 4232   3.911   0.500   6.545
 1111SOL    HW2 4233   3.791   0.393   6.521
 1112SOL     OW 4234   0.343   1.541   2.820
 1112SOL    HW1 4235   0.363   1.634   2.790
 1112SOL    HW2 4236   0.364   1.477   2.746
 1113SOL     OW 4237   0.963   5.542   2.097
 1113SOL    HW1 4238   1.053   5.501   2.112
 1113SOL    HW2 4239   0.897   5.501   2.160
 1114SOL     OW 4240   5.714   0.612   5.301
 1114SOL    HW1 4241   5.811   0.624   5.280
 1114SOL    HW2 4242   5.693   0.658   5.387
 1115SOL     OW 4243   1.877   4.926   0.579
 1115SOL    HW1 4244   1.877   4.916   0.480
 1115SOL    HW2 4245   1.872   5.023   0.603
 1116SOL     OW 4246   2.882   6.607   6.284
 1116SOL    HW1 4247   2.953   6.549   6.245
 1116SOL    HW2 4248   2.897   6.702   6.255
 1117SOL     OW 4249   2.961   2.169   0.591
 1117SOL    HW1 4250   3.004   2.139   0.506
 1117SOL    HW2 4251   2.938   2.266   0.585
 1118SOL     OW 4252   1.918   1.900   1.243
 1118SOL    HW1 4253   1.877   1.917   1.332
 1118SOL    HW2 4254   1.847   1.897   1.172
 1119SOL     OW 4255   3.821   3.967   4.052
 1119SOL    HW1 4256   3.797   4.060   4.025
 1119SOL    HW2 4257   3.773   3.944   4.136
 1120SOL     OW 4258   3.340   1.074   3.046
 1120SOL    HW1 4259   3.296   0.986   3.030
 1120SOL    HW2 4260   3.276   1.135   3.094
 1121SOL     OW 4261   5.015   3.804   2.675
 1121SOL    HW1 4262   4.960   3.875   2.719
 1121SOL    HW2 4263   5.108   3.836   2.663
 1122SOL     OW 4264   4.883   4.885   0.284
 1122SOL    HW1 4265   4.885   4.893   0.184
 1122SOL    HW2 4266   4.917   4.794   0.310
 1123SOL     OW 4267   4.517   0.255   2.159
 1123SOL    HW1 4268   4.605   0.207   2.156
 1123SOL    HW2 4269   4.444   0.194   2.129
 1124SOL     OW 4270   2.225   5.045   3.550
 1124SOL    HW1 4271   2.201   5.101   3.629
 1124SOL    HW2 4272   2.225   4.948   3.576
 1125SOL     OW 4273   3.358   4.607   5.776
 1125SOL    HW1 4274   3.362   4.532   5.841
 1125SOL    HW2 4275   3.338   4.693   5.825
 1126SOL     OW 4276   6.056   0.610   2.395
 1126SOL    HW1 4277   6.067   0.704   2.363
 1126SOL    HW2 4278   5.995   0.561   2.333
 1127SOL     OW 4279   2.763   5.479   6.179
 1127SOL    HW1 4280   2.687   5.422   6.148
 1127SOL    HW2 4281   2.742   5.575   6.163
 1128SOL     OW 4282   3.190   1.133   5.454
 1128SOL    HW1 4283   3.189   1.192   5.535
 1128SOL    HW2 4284   3.280   1.138   5.411
 1129SOL     OW 4285   4.395   5.768   6.891
 1129SOL    HW1 4286   4.402   5.670   6.873
 1129SOL    HW2 4287   4.302   5.799   6.868
 1130SOL     OW 4288   1.189   5.190   5.362
 1130SOL    HW1 4289   1.107   5.191   5.419
 1130SOL    HW2 4290   1.269   5.217   5.416
 1131SOL     OW 4291   1.238   4.207   5.773
 1131SOL    HW1 4292   1.229   4.136   5.843
 1131SOL    HW2 4293   1.334   4.231   5.761
 1132SOL     OW 4294   5.351   6.851   4.267
 1132SOL    HW1 4295   5.332   6.927   4.329
 1132SOL    HW2 4296   5.406   6.782   4.315
 1133SOL     OW 4297   0.069   1.738   0.020
 1133SOL    HW1 4298   0.026   1.647   0.022
 1133SOL    HW2 4299   0.031   1.791   6.971
 1134SOL     OW 4300   0.278   4.207   6.121
 1134SOL    HW1 4301   0.300   4.148   6.044
 1134SOL    HW2 4302   0.229   4.154   6.191
 1135SOL     OW 4303   6.790   1.940   4.545
 1135SOL    HW1 4304   6.717   1.879   4.577
 1135SOL    HW2 4305   6.879   1.899   4.566
 1136SOL     OW 4306   4.417   5.583   3.822
 1136SOL    HW1 4307   4.456   5.494   3.847
 1136SOL    HW2 4308   4.487   5.639   3.779
 1137SOL     OW 4309   0.539   0.625   6.695
 1137SOL    HW1 4310   0.500   0.705   6.740
 1137SOL    HW2 4311   0.625   0.650   6.650
 1138SOL     OW 4312   0.836   2.195   5.944
 1138SOL    HW1 4313   0.912   2.224   6.001
 1138SOL    HW2 4314   0.857   2.106   5.904
 1139SOL     OW 4315   0.430   0.546   2.752
 1139SOL    HW1 4316   0.385   0.457   2.748
 1139SOL    HW2 4317   0.460   0.572   2.660
 1140SOL     OW 4318   4.058   1.967   2.980
 1140SOL    HW1 4319   4.135   2.031   2.982
 1140SOL    HW2 4320   4.043   1.931   3.072
 1141SOL     OW 4321   0.556   0.484   5.656
 1141SOL    HW1 4322   0.462   0.454   5.637
 1141SOL    HW2 4323   0.604   0.500   5.570
 1142SOL     OW 4324   5.830   6.603   5.634
 1142SOL    HW1 4325   5.849   6.671   5.564
 1142SOL    HW2 4326   5.891   6.525   5.622
 1143SOL     OW 4327   5.111   2.158   1.365
 1143SOL    HW1 4328   5.055   2.233   1.329
 1143SOL    HW2 4329   5.170   2.193   1.439
 1144SOL     OW 4330   1.103   6.712   4.819
 1144SOL    HW1 4331   1.037   6.647   4.781
 1144SOL    HW2 4332   1.172   6.734   4.750
 1145SOL     OW 4333   3.414   4.954   5.082
 1145SOL    HW1 4334   3.357   5.035   5.095
 1145SOL    HW2 4335   3.369   4.875   5.125
 1146SOL     OW 4336   6.108   2.376   1.957
 1146SOL    HW1 4337   6.155   2.361   2.044
 1146SOL    HW2 4338   6.170   2.356   1.881
 1147SOL     OW 4339   6.430   4.050   2.784
 1147SOL    HW1 4340   6.410   4.138   2.828
 1147SOL    HW2 4341   6.527   4.028   2.794
 1148SOL     OW 4342   6.418   6.301   5.786
 1148SOL    HW1 4343   6.501   6.252   5.811
 1148SOL    HW2 4344   6.356   6.305   5.864
 1149SOL     OW 4345   4.983   3.521   2.551
 1149SOL    HW1 4346   4.991   3.618   2.572
 1149SOL    HW2 4347   4.967   3.509   2.453
 1150SOL     OW 4348   3.212   5.551   5.039
 1150SOL    HW1 4349   3.195   5.483   4.968
 1150SOL    HW2 4350   3.147   5.539   5.113
 1151SOL     OW 4351   1.893   5.804   0.511
 1151SOL    HW1 4352   1.813   5.745   0.517
 1151SOL    HW2 4353   1.872   5.893   0.550
 1152SOL     OW 4354   6.778   0.742   3.645
 1152SOL    HW1 4355   6.813   0.749   3.552
 1152SOL    HW2 4356   6.717   0.663   3.652
 1153SOL     OW 4357   0.759   4.676   1.741
 1153SOL    HW1 4358   0.691   4.635   1.803
 1153SOL    HW2 4359   0.777   4.612   1.666
 1154SOL     OW 4360   1.549   3.792   2.069
 1154SOL    HW1 4361   1.593   3.735   1.998
 1154SOL    HW2 4362   1.563   3.750   2.158
 1155SOL     OW 4363   5.065   1.289   2.273
 1155SOL    HW1 4364   5.162   1.294   2.251
 1155SOL    HW2 4365   5.020   1.225   2.210
 1156SOL     OW 4366   2.897   1.507   3.956
 1156SOL    HW1 4367   2.928   1.427   3.905
 1156SOL    HW2 4368   2.972   1.543   4.012
 1157SOL     OW 4369   1.903   3.507   3.254
 1157SOL    HW1 4370   1.915   3.606   3.264
 1157SOL    HW2 4371   1.859   3.488   3.166
 1158SOL     OW 4372   4.697   5.293   5.290
 1158SOL    HW1 4373   4.605   5.264   5.264
 1158SOL    HW2 4374   4.757   5.213   5.293
 1159SOL     OW 4375   6.404   4.532   3.201
 1159SOL    HW1 4376   6.361   4.610   3.156
 1159SOL    HW2 4377   6.491   4.511   3.156
 1160SOL     OW 4378   3.003   2.261   1.624
 1160SOL    HW1 4379   3.019   2.359   1.636
 1160SOL    HW2 4380   3.076   2.209   1.670
 1161SOL     OW 4381   4.349   1.635   2.617
 1161SOL    HW1 4382   4.394   1.634   2.706
 1161SOL    HW2 4383   4.255   1.602   2.626
 1162SOL     OW 4384   3.590   4.645   1.425
 1162SOL    HW1 4385   3.660   4.637   1.354
 1162SOL    HW2 4386   3.501   4.662   1.382
 1163SOL     OW 4387   4.575   6.863   3.348
 1163SOL    HW1 4388   4.667   6.898   3.365
 1163SOL    HW2 4389   4.568   6.769   3.383
 1164SOL     OW 4390   6.915   4.282   4.759
 1164SOL    HW1 4391   6.915   4.378   4.730
 1164SOL    HW2 4392   6.906   4.223   4.679
 1165SOL     OW 4393   0.312   5.074   2.553
 1165SOL    HW1 4394   0.279   5.168   2.542
 1165SOL    HW2 4395   0.400   5.076   2.601
 1166SOL     OW 4396   3.508   1.047   5.733
 1166SOL    HW1 4397   3.546   1.139   5.726
 1166SOL    HW2 4398   3.421   1.052   5.782
 1167SOL     OW 4399   4.762   1.493   5.424
 1167SOL    HW1 4400   4.834   1.557   5.449
 1167SOL    HW2 4401   4.682   1.544   5.391
 1168SOL     OW 4402   5.687   1.692   4.440
 1168SOL    HW1 4403   5.679   1.741   4.526
 1168SOL    HW2 4404   5.739   1.746   4.375
 1169SOL     OW 4405   2.045   2.884   0.969
 1169SOL    HW1 4406   2.045   2.860   0.872
 1169SOL    HW2 4407   2.097   2.816   1.020
 1170SOL     OW 4408   2.258   1.497   1.522
 1170SOL    HW1 4409   2.265   1.563   1.597
 1170SOL    HW2 4410   2.288   1.407   1.555
 1171SOL     OW 4411   4.914   0.714   0.739
 1171SOL    HW1 4412   4.902   0.793   0.680
 1171SOL    HW2 4413   4.896   0.630   0.687
 1172SOL     OW 4414   3.366   3.355   5.861
 1172SOL    HW1 4415   3.275   3.360   5.821
 1172SOL    HW2 4416   3.364   3.391   5.954
 1173SOL     OW 4417   5.052   5.709   0.166
 1173SOL    HW1 4418   4.971   5.657   0.137
 1173SOL    HW2 4419   5.041   5.736   0.262
 1174SOL     OW 4420   4.461   6.492   5.867
 1174SOL    HW1 4421   4.439   6.564   5.801
 1174SOL    HW2 4422   4.407   6.505   5.950
 1175SOL     OW 4423   6.784   5.481   5.284
 1175SOL    HW1 4424   6.697   5.444   5.251
 1175SOL    HW2 4425   6.837   5.408   5.328
 1176SOL     OW 4426   5.860   3.225   1.155
 1176SOL    HW1 4427   5.786   3.272   1.108
 1176SOL    HW2 4428   5.842   3.127   1.157
 1177SOL     OW 4429   6.981   3.349   5.104
 1177SOL    HW1 4430   6.926   3.280   5.057
 1177SOL    HW2 4431   6.958   3.439   5.068
 1178SOL     OW 4432   5.066   4.335   1.982
 1178SOL    HW1 4433   5.044   4.292   1.895
 1178SOL    HW2 4434   5.045   4.433   1.978
 1179SOL     OW 4435   1.849   5.370   5.948
 1179SOL    HW1 4436   1.886   5.299   6.009
 1179SOL    HW2 4437   1.753   5.385   5.970
 1180SOL     OW 4438   2.148   1.389   4.507
 1180SOL    HW1 4439   2.070   1.388   4.445
 1180SOL    HW2 4440   2.146   1.472   4.563
 1181SOL     OW 4441   1.043   4.303   2.245
 1181SOL    HW1 4442   1.082   4.255   2.324
 1181SOL    HW2 4443   1.099   4.285   2.164
 1182SOL     OW 4444   6.889   3.934   3.875
 1182SOL    HW1 4445   6.982   3.906   3.850
 1182SOL    HW2 4446   6.833   3.943   3.793
 1183SOL     OW 4447   4.414   6.278   0.383
 1183SOL    HW1 4448   4.472   6.352   0.415
 1183SOL    HW2 4449   4.412   6.278   0.283
 1184SOL     OW 4450   4.327   3.349   6.723
 1184SOL    HW1 4451   4.311   3.250   6.727
 1184SOL    HW2 4452   4.318   3.388   6.815
 1185SOL     OW 4453   3.389   1.082   6.482
 1185SOL    HW1 4454   3.299   1.104   6.519
 1185SOL    HW2 4455   3.423   1.160   6.429
 1186SOL     OW 4456   4.256   6.457   5.054
 1186SOL    HW1 4457   4.210   6.444   5.142
 1186SOL    HW2 4458   4.189   6.451   4.980
 1187SOL     OW 4459   0.535   2.644   4.782
 1187SOL    HW1 4460   0.465   2.694   4.732
 1187SOL    HW2 4461   0.609   2.618   4.719
 1188SOL     OW 4462   2.160   0.912   5.070
 1188SOL    HW1 4463   2.062   0.933   5.066
 1188SOL    HW2 4464   2.188   0.906   5.166
 1189SOL     OW 4465   1.549   0.727   1.064
 1189SOL    HW1 4466   1.543   0.795   0.992
 1189SOL    HW2 4467   1.471   0.737   1.126
 1190SOL     OW 4468   2.904   6.347   1.368
 1190SOL    HW1 4469   2.942   6.357   1.460
 1190SOL    HW2 4470   2.807   6.326   1.375
 1191SOL     OW 4471   1.742   4.037   1.691
 1191SOL    HW1 4472   1.645   4.027   1.715
 1191SOL    HW2 4473   1.794   4.066   1.772
 1192SOL     OW 4474   3.838   5.874   2.385
 1192SOL    HW1 4475   3.871   5.867   2.479
 1192SOL    HW2 4476   3.775   5.798   2.366
 1193SOL     OW 4477   3.399   1.941   3.525
 1193SOL    HW1 4478   3.410   1.983   3.435
 1193SOL    HW2 4479   3.370   1.846   3.514
 1194SOL     OW 4480   0.028   2.966   2.097
 1194SOL    HW1 4481   0.000   2.870   2.102
 1194SOL    HW2 4482   7.023   3.014   2.178
 1195SOL     OW 4483   4.765   0.842   6.854
 1195SOL    HW1 4484   4.836   0.859   6.923
 1195SOL    HW2 4485   4.787   0.757   6.805
 1196SOL     OW 4486   1.418   5.673   3.924
 1196SOL    HW1 4487   1.443   5.750   3.983
 1196SOL    HW2 4488   1.323   5.682   3.896
 1197SOL     OW 4489   3.927   5.185   6.985
 1197SOL    HW1 4490   3.931   5.233   6.897
 1197SOL    HW2 4491   4.006   5.124   6.993
 1198SOL     OW 4492   3.063   1.597   3.092
 1198SOL    HW1 4493   3.065   1.577   3.190
 1198SOL    HW2 4494   3.020   1.686   3.078
 1199SOL     OW 4495   3.621   4.176   3.940
 1199SOL    HW1 4496   3.653   4.269   3.923
 1199SOL    HW2 4497   3.539   4.158   3.886
 1200SOL     OW 4498   4.544   4.225   1.217
 1200SOL    HW1 4499   4.588   4.302   1.263
 1200SOL    HW2 4500   4.523   4.154   1.284
 1201SOL     OW 4501   1.956   1.571   5.150
 1201SOL    HW1 4502   1.884   1.640   5.138
 1201SOL    HW2 4503   1.920   1.481   5.124
 1202SOL     OW 4504   5.431   5.922   4.118
 1202SOL    HW1 4505   5.423   5.886   4.211
 1202SOL    HW2 4506   5.506   5.987   4.114
 1203SOL     OW 4507   4.844   0.221   1.686
 1203SOL    HW1 4508   4.749   0.202   1.660
 1203SOL    HW2 4509   4.897   0.240   1.603
 1204SOL     OW 4510   2.683   0.008   0.344
 1204SOL    HW1 4511   2.684   0.100   0.382
 1204SOL    HW2 4512   2.622   0.005   0.264
 1205SOL     OW 4513   0.902   2.629   6.394
 1205SOL    HW1 4514   0.893   2.666   6.486
 1205SOL    HW2 4515   0.823   2.571   6.373
 1206SOL     OW 4516   6.524   2.148   5.190
 1206SOL    HW1 4517   6.542   2.075   5.256
 1206SOL    HW2 4518   6.479   2.110   5.109
 1207SOL     OW 4519   5.832   5.747   5.614
 1207SOL    HW1 4520   5.816   5.648   5.613
 1207SOL    HW2 4521   5.812   5.785   5.524
 1208SOL     OW 4522   4.006   3.326   3.397
 1208SOL    HW1 4523   3.967   3.287   3.481
 1208SOL    HW2 4524   4.064   3.405   3.421
 1209SOL     OW 4525   0.463   3.509   4.606
 1209SOL    HW1 4526   0.487   3.591   4.658
 1209SOL    HW2 4527   0.544   3.475   4.559
 1210SOL     OW 4528   2.566   0.400   4.481
 1210SOL    HW1 4529   2.658   0.362   4.479
 1210SOL    HW2 4530   2.553   0.450   4.567
 1211SOL     OW 4531   6.564   4.042   3.820
 1211SOL    HW1 4532   6.617   4.112   3.773
 1211SOL    HW2 4533   6.563   3.958   3.766
 1212SOL     OW 4534   1.187   3.305   2.303
 1212SOL    HW1 4535   1.222   3.220   2.345
 1212SOL    HW2 4536   1.167   3.371   2.375
 1213SOL     OW 4537   6.708   4.029   5.006
 1213SOL    HW1 4538   6.780   4.096   5.021
 1213SOL    HW2 4539   6.619   4.072   5.022
 1214SOL     OW 4540   0.623   2.317   0.761
 1214SOL    HW1 4541   0.571   2.232   0.748
 1214SOL    HW2 4542   0.710   2.310   0.713
 1215SOL     OW 4543   1.167   0.069   1.660
 1215SOL    HW1 4544   1.101   0.094   1.590
 1215SOL    HW2 4545   1.119   0.032   1.740
 1216SOL     OW 4546   1.791   0.352   0.605
 1216SOL    HW1 4547   1.723   0.324   0.673
 1216SOL    HW2 4548   1.851   0.421   0.645
 1217SOL     OW 4549   0.967   2.638   3.628
 1217SOL    HW1 4550   1.058   2.597   3.638
 1217SOL    HW2 4551   0.904   2.569   3.593
 1218SOL     OW 4552   6.996   4.660   4.084
 1218SOL    HW1 4553   0.057   4.689   4.047
 1218SOL    HW2 4554   6.929   4.733   4.072
 1219SOL     OW 4555   1.568   5.639   2.765
 1219SOL    HW1 4556   1.488   5.670   2.816
 1219SOL    HW2 4557   1.564   5.677   2.672
 1220SOL     OW 4558   5.882   4.856   3.019
 1220SOL    HW1 4559   5.937   4.914   2.958
 1220SOL    HW2 4560   5.943   4.792   3.066
 1221SOL     OW 4561   4.577   5.255   0.726
 1221SOL    HW1 4562   4.606   5.316   0.799
 1221SOL    HW2 4563   4.477   5.256   0.720
 1222SOL     OW 4564   6.948   4.741   1.321
 1222SOL    HW1 4565   6.958   4.674   1.394
 1222SOL    HW2 4566   6.917   4.828   1.359
 1223SOL     OW 4567   1.258   4.095   5.134
 1223SOL    HW1 4568   1.352   4.061   5.135
 1223SOL    HW2 4569   1.255   4.186   5.176
 1224SOL     OW 4570   4.315   5.352   1.598
 1224SOL    HW1 4571   4.292   5.332   1.502
 1224SOL    HW2 4572   4.305   5.450   1.615
 1225SOL     OW 4573   5.478   1.795   6.481
 1225SOL    HW1 4574   5.413   1.725   6.452
 1225SOL    HW2 4575   5.456   1.824   6.574
 1226SOL     OW 4576   6.063   5.299   1.086
 1226SOL    HW1 4577   6.118   5.310   1.169
 1226SOL    HW2 4578   6.063   5.385   1.034
 1227SOL     OW 4579   6.389   4.553   0.435
 1227SOL    HW1 4580   6.315   4.516   0.491
 1227SOL    HW2 4581   6.384   4.653   0.433
 1228SOL     OW 4582   4.161   3.848   5.394
 1228SOL    HW1 4583   4.202   3.784   5.328
 1228SOL    HW2 4584   4.146   3.801   5.481
 1229SOL     OW 4585   2.059   5.251   1.649
 1229SOL    HW1 4586   2.058   5.198   1.734
 1229SOL    HW2 4587   2.135   5.221   1.592
 1230SOL     OW 4588   5.800   4.524   0.533
 1230SOL    HW1 4589   5.739   4.453   0.497
 1230SOL    HW2 4590   5.827   4.500   0.626
 1231SOL     OW 4591   2.202   0.785   1.015
 1231SOL    HW1 4592   2.181   0.867   1.068
 1231SOL    HW2 4593   2.268   0.729   1.064
 1232SOL     OW 4594   1.824   2.219   5.889
 1232SOL    HW1 4595   1.870   2.296   5.845
 1232SOL    HW2 4596   1.851   2.213   5.985
 1233SOL     OW 4597   0.251   5.662   5.474
 1233SOL    HW1 4598   0.159   5.667   5.436
 1233SOL    HW2 4599   0.260   5.728   5.548
 1234SOL     OW 4600   6.910   4.695   5.052
 1234SOL    HW1 4601   6.841   4.627   5.079
 1234SOL    HW2 4602   6.937   4.678   4.957
 1235SOL     OW 4603   6.744   5.046   0.338
 1235SOL    HW1 4604   6.748   5.070   0.241
 1235SOL    HW2 4605   6.652   5.063   0.373
 1236SOL     OW 4606   0.297   1.036   3.151
 1236SOL    HW1 4607   0.304   0.979   3.069
 1236SOL    HW2 4608   0.240   0.991   3.219
 1237SOL     OW 4609   0.730   0.735   5.602
 1237SOL    HW1 4610   0.796   0.788   5.657
 1237SOL    HW2 4611   0.762   0.731   5.507
 1238SOL     OW 4612   0.111   0.490   4.469
 1238SOL    HW1 4613   0.151   0.581   4.481
 1238SOL    HW2 4614   0.122   0.461   4.374
 1239SOL     OW 4615   4.521   5.580   3.506
 1239SOL    HW1 4616   4.490   5.543   3.418
 1239SOL    HW2 4617   4.458   5.652   3.536
 1240SOL     OW 4618   0.946   3.927   2.284
 1240SOL    HW1 4619   0.888   3.990   2.335
 1240SOL    HW2 4620   0.919   3.926   2.188
 1241SOL     OW 4621   3.015   5.552   6.132
 1241SOL    HW1 4622   2.921   5.519   6.132
 1241SOL    HW2 4623   3.042   5.575   6.038
 1242SOL     OW 4624   2.395   5.924   0.564
 1242SOL    HW1 4625   2.372   6.014   0.600
 1242SOL    HW2 4626   2.311   5.871   0.552
 1243SOL     OW 4627   1.167   4.368   4.244
 1243SOL    HW1 4628   1.110   4.303   4.193
 1243SOL    HW2 4629   1.108   4.430   4.296
 1244SOL     OW 4630   6.242   6.151   4.988
 1244SOL    HW1 4631   6.252   6.131   5.085
 1244SOL    HW2 4632   6.209   6.070   4.940
 1245SOL     OW 4633   3.851   6.629   1.537
 1245SOL    HW1 4634   3.789   6.557   1.508
 1245SOL    HW2 4635   3.935   6.588   1.573
 1246SOL     OW 4636   5.100   2.353   3.179
 1246SOL    HW1 4637   5.152   2.383   3.259
 1246SOL    HW2 4638   5.069   2.433   3.128
 1247SOL     OW 4639   4.550   6.159   2.692
 1247SOL    HW1 4640   4.605   6.085   2.731
 1247SOL    HW2 4641   4.608   6.217   2.635
 1248SOL     OW 4642   0.226   0.281   5.330
 1248SOL    HW1 4643   0.225   0.302   5.232
 1248SOL    HW2 4644   0.283   0.347   5.378
 1249SOL     OW 4645   6.688   6.766   0.011
 1249SOL    HW1 4646   6.684   6.666   0.011
 1249SOL    HW2 4647   6.764   6.796   0.070
 1250SOL     OW 4648   0.706   4.295   4.929
 1250SOL    HW1 4649   0.762   4.361   4.877
 1250SOL    HW2 4650   0.727   4.203   4.898
 1251SOL     OW 4651   1.711   0.305   3.530
 1251SOL    HW1 4652   1.782   0.285   3.463
 1251SOL    HW2 4653   1.751   0.355   3.607
 1252SOL     OW 4654   3.281   4.505   6.709
 1252SOL    HW1 4655   3.308   4.445   6.634
 1252SOL    HW2 4656   3.208   4.461   6.762
 1253SOL     OW 4657   3.008   5.377   0.473
 1253SOL    HW1 4658   3.023   5.385   0.571
 1253SOL    HW2 4659   3.032   5.463   0.428
 1254SOL     OW 4660   6.586   1.452   4.372
 1254SOL    HW1 4661   6.581   1.359   4.336
 1254SOL    HW2 4662   6.652   1.455   4.447
 1255SOL     OW 4663   5.934   2.257   6.485
 1255SOL    HW1 4664   6.010   2.296   6.537
 1255SOL    HW2 4665   5.853   2.251   6.544
 1256SOL     OW 4666   6.881   6.219   6.272
 1256SOL    HW1 4667   6.900   6.223   6.370
 1256SOL    HW2 4668   6.944   6.280   6.224
 1257SOL     OW 4669   6.784   6.572   2.272
 1257SOL    HW1 4670   6.823   6.547   2.184
 1257SOL    HW2 4671   6.684   6.567   2.266
 1258SOL     OW 4672   5.049   5.036   6.422
 1258SOL    HW1 4673   4.964   5.083   6.447
 1258SOL    HW2 4674   5.084   4.986   6.501
 1259SOL     OW 4675   6.077   6.657   4.190
 1259SOL    HW1 4676   6.177   6.664   4.196
 1259SOL    HW2 4677   6.036   6.744   4.216
 1260SOL     OW 4678   3.038   0.261   0.985
 1260SOL    HW1 4679   2.971   0.271   0.912
 1260SOL    HW2 4680   3.079   0.170   0.981
 1261SOL     OW 4681   1.052   3.426   5.171
 1261SOL    HW1 4682   1.114   3.446   5.246
 1261SOL    HW2 4683   1.074   3.485   5.093
 1262SOL     OW 4684   5.257   6.654   0.292
 1262SOL    HW1 4685   5.235   6.566   0.250
 1262SOL    HW2 4686   5.227   6.655   0.387
 1263SOL     OW 4687   7.010   0.853   1.541
 1263SOL    HW1 4688   0.003   0.823   1.448
 1263SOL    HW2 4689   6.929   0.805   1.575
 1264SOL     OW 4690   6.134   2.320   4.507
 1264SOL    HW1 4691   6.174   2.361   4.425
 1264SOL    HW2 4692   6.060   2.259   4.481
 1265SOL     OW 4693   6.342   6.438   3.611
 1265SOL    HW1 4694   6.295   6.486   3.685
 1265SOL    HW2 4695   6.275   6.394   3.551
 1266SOL     OW 4696   2.662   1.470   5.101
 1266SOL    HW1 4697   2.697   1.548   5.153
 1266SOL    HW2 4698   2.688   1.385   5.146
 1267SOL     OW 4699   0.064   4.357   1.952
 1267SOL    HW1 4700   0.035   4.266   1.979
 1267SOL    HW2 4701   0.076   4.414   2.033
 1268SOL     OW 4702   6.282   4.940   6.412
 1268SOL    HW1 4703   6.235   4.920   6.498
 1268SOL    HW2 4704   6.300   4.854   6.364
 1269SOL     OW 4705   1.026   3.717   5.570
 1269SOL    HW1 4706   1.083   3.748   5.646
 1269SOL    HW2 4707   0.951   3.661   5.604
 1270SOL     OW 4708   1.122   2.634   4.039
 1270SOL    HW1 4709   1.148   2.705   3.973
 1270SOL    HW2 4710   1.026   2.610   4.026
 1271SOL     OW 4711   5.342   4.453   2.930
 1271SOL    HW1 4712   5.291   4.464   3.016
 1271SOL    HW2 4713   5.387   4.364   2.929
 1272SOL     OW 4714   6.047   0.544   0.812
 1272SOL    HW1 4715   6.025   0.607   0.886
 1272SOL    HW2 4716   6.146   0.540   0.799
 1273SOL     OW 4717   2.778   6.358   4.329
 1273SOL    HW1 4718   2.812   6.305   4.252
 1273SOL    HW2 4719   2.726   6.299   4.390
 1274SOL     OW 4720   5.503   2.223   1.239
 1274SOL    HW1 4721   5.538   2.138   1.279
 1274SOL    HW2 4722   5.546   2.301   1.285
 1275SOL     OW 4723   3.608   1.052   3.454
 1275SOL    HW1 4724   3.584   1.068   3.549
 1275SOL    HW2 4725   3.589   0.957   3.430
 1276SOL     OW 4726   5.085   6.149   2.727
 1276SOL    HW1 4727   5.016   6.218   2.748
 1276SOL    HW2 4728   5.040   6.065   2.697
 1277SOL     OW 4729   0.950   1.688   5.274
 1277SOL    HW1 4730   0.988   1.607   5.229
 1277SOL    HW2 4731   1.016   1.763   5.270
 1278SOL     OW 4732   2.852   1.544   4.674
 1278SOL    HW1 4733   2.859   1.642   4.690
 1278SOL    HW2 4734   2.856   1.525   4.576
 1279SOL     OW 4735   1.527   4.654   0.587
 1279SOL    HW1 4736   1.623   4.665   0.613
 1279SOL    HW2 4737   1.482   4.592   0.651
 1280SOL     OW 4738   0.681   6.157   3.085
 1280SOL    HW1 4739   0.729   6.245   3.083
 1280SOL    HW2 4740   0.635   6.142   2.997
 1281SOL     OW 4741   1.408   6.290   4.190
 1281SOL    HW1 4742   1.404   6.230   4.270
 1281SOL    HW2 4743   1.365   6.245   4.112
 1282SOL     OW 4744   1.488   6.875   2.633
 1282SOL    HW1 4745   1.497   6.778   2.658
 1282SOL    HW2 4746   1.403   6.912   2.671
 1283SOL     OW 4747   5.718   4.446   5.426
 1283SOL    HW1 4748   5.741   4.424   5.331
 1283SOL    HW2 4749   5.720   4.545   5.439
 1284SOL     OW 4750   2.820   2.309   2.960
 1284SOL    HW1 4751   2.788   2.341   3.049
 1284SOL    HW2 4752   2.914   2.278   2.967
 1285SOL     OW 4753   6.131   2.374   5.704
 1285SOL    HW1 4754   6.178   2.461   5.691
 1285SOL    HW2 4755   6.197   2.299   5.700
 1286SOL     OW 4756   5.202   5.356   1.140
 1286SOL    HW1 4757   5.108   5.364   1.173
 1286SOL    HW2 4758   5.215   5.267   1.096
 1287SOL     OW 4759   5.907   3.631   5.971
 1287SOL    HW1 4760   5.922   3.729   5.956
 1287SOL    HW2 4761   5.985   3.580   5.936
 1288SOL     OW 4762   0.366   3.061   3.352
 1288SOL    HW1 4763   0.337   3.085   3.259
 1288SOL    HW2 4764   0.463   3.080   3.362
 1289SOL     OW 4765   0.460   5.064   3.280
 1289SOL    HW1 4766   0.403   5.137   3.241
 1289SOL    HW2 4767   0.554   5.096   3.290
 1290SOL     OW 4768   0.311   0.088   1.539
 1290SOL    HW1 4769   0.344   0.013   1.596
 1290SOL    HW2 4770   0.388   0.144   1.510
 1291SOL     OW 4771   1.657   5.425   1.429
 1291SOL    HW1 4772   1.586   5.479   1.475
 1291SOL    HW2 4773   1.746   5.468   1.444
 1292SOL     OW 4774   1.486   6.850   0.230
 1292SOL    HW1 4775   1.441   6.761   0.235
 1292SOL    HW2 4776   1.560   6.854   0.297
 1293SOL     OW 4777   6.472   1.114   6.405
 1293SOL    HW1 4778   6.460   1.183   6.333
 1293SOL    HW2 4779   6.398   1.048   6.401
 1294SOL     OW 4780   0.999   1.432   4.411
 1294SOL    HW1 4781   0.965   1.338   4.420
 1294SOL    HW2 4782   1.092   1.430   4.373
 1295SOL     OW 4783   5.101   3.963   0.525
 1295SOL    HW1 4784   5.047   3.891   0.568
 1295SOL    HW2 4785   5.043   4.043   0.510
 1296SOL     OW 4786   3.668   0.977   0.245
 1296SOL    HW1 4787   3.720   1.057   0.216
 1296SOL    HW2 4788   3.609   1.001   0.322
 1297SOL     OW 4789   5.400   0.727   5.972
 1297SOL    HW1 4790   5.310   0.717   5.930
 1297SOL    HW2 4791   5.469   0.686   5.913
 1298SOL     OW 4792   6.180   2.721   3.248
 1298SOL    HW1 4793   6.157   2.799   3.189
 1298SOL    HW2 4794   6.119   2.644   3.226
 1299SOL     OW 4795   1.925   4.517   4.417
 1299SOL    HW1 4796   1.864   4.592   4.443
 1299SOL    HW2 4797   1.974   4.484   4.498
 1300SOL     OW 4798   3.578   3.456   3.167
 1300SOL    HW1 4799   3.487   3.461   3.207
 1300SOL    HW2 4800   3.576   3.493   3.074
 1301SOL     OW 4801   0.642   0.740   1.591
 1301SOL    HW1 4802   0.689   0.677   1.529
 1301SOL    HW2 4803   0.688   0.828   1.590
 1302SOL     OW 4804   2.866   5.207   5.843
 1302SOL    HW1 4805   2.800   5.281   5.858
 1302SOL    HW2 4806   2.818   5.126   5.808
 1303SOL     OW 4807   2.510   0.144   1.940
 1303SOL    HW1 4808   2.597   0.191   1.926
 1303SOL    HW2 4809   2.526   0.061   1.994
 1304SOL     OW 4810   3.463   1.082   6.105
 1304SOL    HW1 4811   3.371   1.110   6.080
 1304SOL    HW2 4812   3.472   0.983   6.095
 1305SOL     OW 4813   5.751   6.323   4.256
 1305SOL    HW1 4814   5.776   6.314   4.352
 1305SOL    HW2 4815   5.830   6.358   4.204
 1306SOL     OW 4816   1.294   5.448   3.467
 1306SOL    HW1 4817   1.371   5.500   3.503
 1306SOL    HW2 4818   1.300   5.444   3.367
 1307SOL     OW 4819   0.791   0.732   5.344
 1307SOL    HW1 4820   0.880   0.779   5.343
 1307SOL    HW2 4821   0.781   0.679   5.260
 1308SOL     OW 4822   4.243   6.406   3.756
 1308SOL    HW1 4823   4.258   6.356   3.841
 1308SOL    HW2 4824   4.286   6.357   3.680
 1309SOL     OW 4825   6.760   2.965   4.434
 1309SOL    HW1 4826   6.751   2.868   4.412
 1309SOL    HW2 4827   6.784   3.016   4.352
 1310SOL     OW 4828   5.326   3.950   6.391
 1310SOL    HW1 4829   5.236   3.956   6.348
 1310SOL    HW2 4830   5.377   3.874   6.352
 1311SOL     OW 4831   5.547   4.834   0.330
 1311SOL    HW1 4832   5.569   4.782   0.247
 1311SOL    HW2 4833   5.574   4.929   0.318
 1312SOL     OW 4834   5.864   1.667   1.320
 1312SOL    HW1 4835   5.876   1.762   1.349
 1312SOL    HW2 4836   5.894   1.606   1.393
 1313SOL     OW 4837   4.552   5.345   4.813
 1313SOL    HW1 4838   4.502   5.259   4.824
 1313SOL    HW2 4839   4.514   5.414   4.875
 1314SOL     OW 4840   6.867   1.490   6.130
 1314SOL    HW1 4841   6.833   1.396   6.134
 1314SOL    HW2 4842   6.959   1.494   6.169
 1315SOL     OW 4843   1.052   6.981   3.947
 1315SOL    HW1 4844   1.135   6.984   4.002
 1315SOL    HW2 4845   0.996   6.903   3.976
 1316SOL     OW 4846   3.607   5.233   4.259
 1316SOL    HW1 4847   3.579   5.230   4.163
 1316SOL    HW2 4848   3.528   5.258   4.315
 1317SOL     OW 4849   0.287   3.219   3.134
 1317SOL    HW1 4850   0.331   3.224   3.045
 1317SOL    HW2 4851   0.190   3.244   3.125
 1318SOL     OW 4852   0.458   6.386   2.463
 1318SOL    HW1 4853   0.544   6.434   2.445
 1318SOL    HW2 4854   0.383   6.437   2.422
 1319SOL     OW 4855   0.403   6.785   0.693
 1319SOL    HW1 4856   0.371   6.769   0.786
 1319SOL    HW2 4857   0.325   6.785   0.630
 1320SOL     OW 4858   6.317   4.916   5.518
 1320SOL    HW1 4859   6.338   5.009   5.487
 1320SOL    HW2 4860   6.328   4.853   5.441
 1321SOL     OW 4861   3.704   0.870   1.082
 1321SOL    HW1 4862   3.723   0.958   1.126
 1321SOL    HW2 4863   3.615   0.836   1.112
 1322SOL     OW 4864   5.443   1.043   6.110
 1322SOL    HW1 4865   5.490   0.990   6.039
 1322SOL    HW2 4866   5.395   0.981   6.172
 1323SOL     OW 4867   6.790   0.375   4.615
 1323SOL    HW1 4868   6.822   0.467   4.592
 1323SOL    HW2 4869   6.855   0.332   4.678
 1324SOL     OW 4870   1.563   2.261   0.758
 1324SOL    HW1 4871   1.640   2.308   0.801
 1324SOL    HW2 4872   1.545   2.302   0.668
 1325SOL     OW 4873   5.058   5.051   3.359
 1325SOL    HW1 4874   5.096   5.132   3.313
 1325SOL    HW2 4875   4.996   5.081   3.432
 1326SOL     OW 4876   4.824   3.971   4.118
 1326SOL    HW1 4877   4.922   3.983   4.136
 1326SOL    HW2 4878   4.792   3.886   4.158
 1327SOL     OW 4879   3.319   5.982   3.748
 1327SOL    HW1 4880   3.254   6.019   3.681
 1327SOL    HW2 4881   3.328   6.046   3.824
 1328SOL     OW 4882   2.139   1.810   1.747
 1328SOL    HW1 4883   2.188   1.807   1.834
 1328SOL    HW2 4884   2.164   1.892   1.697
 1329SOL     OW 4885   1.172   5.637   1.645
 1329SOL    HW1 4886   1.256   5.627   1.699
 1329SOL    HW2 4887   1.168   5.565   1.576
 1330SOL     OW 4888   6.639   6.200   1.440
 1330SOL    HW1 4889   6.623   6.260   1.518
 1330SOL    HW2 4890   6.699   6.246   1.374
 1331SOL     OW 4891   0.848   1.957   1.276
 1331SOL    HW1 4892   0.772   1.892   1.267
 1331SOL    HW2 4893   0.814   2.050   1.262
 1332SOL     OW 4894   4.041   2.208   0.117
 1332SOL    HW1 4895   3.985   2.181   0.195
 1332SOL    HW2 4896   4.097   2.287   0.141
 1333SOL     OW 4897   3.921   3.721   5.780
 1333SOL    HW1 4898   3.978   3.779   5.838
 1333SOL    HW2 4899   3.950   3.729   5.685
 1334SOL     OW 4900   1.902   3.508   3.641
 1334SOL    HW1 4901   1.971   3.540   3.706
 1334SOL    HW2 4902   1.824   3.468   3.691
 1335SOL     OW 4903   1.946   5.966   4.003
 1335SOL    HW1 4904   2.039   5.966   3.966
 1335SOL    HW2 4905   1.947   5.927   4.096
 1336SOL     OW 4906   0.175   6.506   4.708
 1336SOL    HW1 4907   0.267   6.547   4.716
 1336SOL    HW2 4908   0.177   6.433   4.640
 1337SOL     OW 4909   2.876   0.216   6.960
 1337SOL    HW1 4910   2.896   0.217   0.030
 1337SOL    HW2 4911   2.960   0.233   6.908
 1338SOL     OW 4912   3.852   4.216   0.395
 1338SOL    HW1 4913   3.832   4.186   0.302
 1338SOL    HW2 4914   3.941   4.262   0.396
 1339SOL     OW 4915   0.305   4.523   6.511
 1339SOL    HW1 4916   0.268   4.488   6.597
 1339SOL    HW2 4917   0.398   4.557   6.525
 1340SOL     OW 4918   2.568   1.612   6.105
 1340SOL    HW1 4919   2.555   1.546   6.031
 1340SOL    HW2 4920   2.607   1.567   6.184
 1341SOL     OW 4921   4.870   1.590   3.739
 1341SOL    HW1 4922   4.850   1.599   3.641
 1341SOL    HW2 4923   4.812   1.652   3.791
 1342SOL     OW 4924   0.854   5.607   0.489
 1342SOL    HW1 4925   0.932   5.622   0.429
 1342SOL    HW2 4926   0.811   5.519   0.467
 1343SOL     OW 4927   3.147   5.945   3.320
 1343SOL    HW1 4928   3.199   5.915   3.240
 1343SOL    HW2 4929   3.053   5.965   3.294
 1344SOL     OW 4930   4.205   1.617   2.138
 1344SOL    HW1 4931   4.304   1.617   2.125
 1344SOL    HW2 4932   4.177   1.701   2.183
 1345SOL     OW 4933   6.581   5.648   1.871
 1345SOL    HW1 4934   6.507   5.702   1.831
 1345SOL    HW2 4935   6.557   5.551   1.867
 1346SOL     OW 4936   6.374   1.851   3.280
 1346SOL    HW1 4937   6.337   1.878   3.191
 1346SOL    HW2 4938   6.464   1.809   3.267
 1347SOL     OW 4939   4.241   1.052   3.644
 1347SOL    HW1 4940   4.248   1.150   3.664
 1347SOL    HW2 4941   4.152   1.033   3.602
 1348SOL     OW 4942   5.935   6.589   4.909
 1348SOL    HW1 4943   5.979   6.676   4.933
 1348SOL    HW2 4944   6.005   6.519   4.894
 1349SOL     OW 4945   5.041   1.191   6.588
 1349SOL    HW1 4946   4.997   1.274   6.554
 1349SOL    HW2 4947   5.134   1.186   6.552
 1350SOL     OW 4948   4.097   1.716   4.890
 1350SOL    HW1 4949   4.098   1.632   4.837
 1350SOL    HW2 4950   4.005   1.732   4.926
 1351SOL     OW 4951   1.321   1.850   4.579
 1351SOL    HW1 4952   1.303   1.944   4.609
 1351SOL    HW2 4953   1.385   1.852   4.502
 1352SOL     OW 4954   1.396   6.697   4.816
 1352SOL    HW1 4955   1.409   6.679   4.718
 1352SOL    HW2 4956   1.455   6.773   4.844
 1353SOL     OW 4957   2.763   3.259   5.763
 1353SOL    HW1 4958   2.753   3.314   5.847
 1353SOL    HW2 4959   2.685   3.275   5.704
 1354SOL     OW 4960   0.570   6.378   6.807
 1354SOL    HW1 4961   0.630   6.300   6.823
 1354SOL    HW2 4962   0.508   6.388   6.885
 1355SOL     OW 4963   4.317   3.914   0.364
 1355SOL    HW1 4964   4.386   3.933   0.294
 1355SOL    HW2 4965   4.357   3.858   0.436
 1356SOL     OW 4966   3.958   3.062   2.897
 1356SOL    HW1 4967   3.868   3.018   2.906
 1356SOL    HW2 4968   3.990   3.053   2.802
 1357SOL     OW 4969   4.073   2.531   6.218
 1357SOL    HW1 4970   4.133   2.550   6.295
 1357SOL    HW2 4971   3.983   2.504   6.251
 1358SOL     OW 4972   2.333   2.758   4.551
 1358SOL    HW1 4973   2.385   2.678   4.580
 1358SOL    HW2 4974   2.322   2.756   4.452
 1359SOL     OW 4975   1.081   1.654   6.717
 1359SOL    HW1 4976   0.995   1.643   6.767
 1359SOL    HW2 4977   1.062   1.694   6.627
 1360SOL     OW 4978   2.859   3.905   5.126
 1360SOL    HW1 4979   2.799   3.982   5.146
 1360SOL    HW2 4980   2.874   3.898   5.028
 1361SOL     OW 4981   1.405   6.257   1.315
 1361SOL    HW1 4982   1.383   6.306   1.400
 1361SOL    HW2 4983   1.479   6.305   1.268
 1362SOL     OW 4984   3.895   1.098   6.393
 1362SOL    HW1 4985   3.827   1.038   6.435
 1362SOL    HW2 4986   3.932   1.055   6.311
 1363SOL     OW 4987   6.491   5.780   1.263
 1363SOL    HW1 4988   6.556   5.752   1.192
 1363SOL    HW2 4989   6.524   5.864   1.307
 1364SOL     OW 4990   1.607   3.115   0.900
 1364SOL    HW1 4991   1.655   3.064   0.828
 1364SOL    HW2 4992   1.618   3.068   0.987
 1365SOL     OW 4993   1.590   3.261   6.403
 1365SOL    HW1 4994   1.690   3.259   6.417
 1365SOL    HW2 4995   1.566   3.205   6.324
 1366SOL     OW 4996   4.048   1.048   1.921
 1366SOL    HW1 4997   4.127   1.051   1.982
 1366SOL    HW2 4998   4.063   0.979   1.850
 1367SOL     OW 4999   2.282   0.353   3.909
 1367SOL    HW1 5000   2.355   0.287   3.927
 1367SOL    HW2 5001   2.245   0.339   3.817
 1368SOL     OW 5002   1.937   5.723   4.833
 1368SOL    HW1 5003   1.969   5.802   4.780
 1368SOL    HW2 5004   1.846   5.698   4.802
 1369SOL     OW 5005   2.418   5.458   3.271
 1369SOL    HW1 5006   2.470   5.389   3.320
 1369SOL    HW2 5007   2.471   5.542   3.264
 1370SOL     OW 5008   6.516   3.071   2.893
 1370SOL    HW1 5009   6.494   3.137   2.821
 1370SOL    HW2 5010   6.431   3.038   2.935
 1371SOL     OW 5011   6.523   1.957   6.403
 1371SOL    HW1 5012   6.481   2.034   6.356
 1371SOL    HW2 5013   6.490   1.953   6.497
 1372SOL     OW 5014   5.018   2.029   1.922
 1372SOL    HW1 5015   5.050   1.952   1.976
 1372SOL    HW2 5016   5.043   2.115   1.967
 1373SOL     OW 5017   3.707   2.779   1.009
 1373SOL    HW1 5018   3.633   2.832   0.967
 1373SOL    HW2 5019   3.793   2.829   1.000
 1374SOL     OW 5020   3.300   3.438   3.980
 1374SOL    HW1 5021   3.217   3.489   3.957
 1374SOL    HW2 5022   3.356   3.492   4.042
 1375SOL     OW 5023   6.322   3.927   5.523
 1375SOL    HW1 5024   6.325   3.831   5.494
 1375SOL    HW2 5025   6.356   3.934   5.616
 1376SOL     OW 5026   2.689   4.708   6.422
 1376SOL    HW1 5027   2.706   4.712   6.324
 1376SOL    HW2 5028   2.604   4.755   6.444
 1377SOL     OW 5029   1.201   2.109   3.630
 1377SOL    HW1 5030   1.204   2.201   3.591
 1377SOL    HW2 5031   1.109   2.091   3.665
 1378SOL     OW 5032   5.451   2.844   3.243
 1378SOL    HW1 5033   5.394   2.926   3.245
 1378SOL    HW2 5034   5.416   2.780   3.175
 1379SOL     OW 5035   5.753   5.529   6.470
 1379SOL    HW1 5036   5.775   5.433   6.453
 1379SOL    HW2 5037   5.675   5.556   6.413
 1380SOL     OW 5038   6.626   6.804   3.771
 1380SOL    HW1 5039   6.612   6.754   3.686
 1380SOL    HW2 5040   6.701   6.869   3.761
 1381SOL     OW 5041   0.085   3.011   6.114
 1381SOL    HW1 5042   0.171   3.045   6.152
 1381SOL    HW2 5043   0.056   3.070   6.039
 1382SOL     OW 5044   4.290   1.827   5.238
 1382SOL    HW1 5045   4.213   1.785   5.286
 1382SOL    HW2 5046   4.263   1.854   5.146
 1383SOL     OW 5047   5.482   6.995   0.501
 1383SOL    HW1 5048   5.446   0.056   0.532
 1383SOL    HW2 5049   5.451   6.978   0.407
 1384SOL     OW 5050   5.598   1.933   2.344
 1384SOL    HW1 5051   5.561   1.922   2.436
 1384SOL    HW2 5052   5.669   2.003   2.344
 1385SOL     OW 5053   6.763   6.887   2.331
 1385SOL    HW1 5054   6.700   6.811   2.312
 1385SOL    HW2 5055   6.844   6.852   2.378
 1386SOL     OW 5056   2.011   0.642   3.901
 1386SOL    HW1 5057   2.076   0.573   3.934
 1386SOL    HW2 5058   2.032   0.665   3.806
 1387SOL     OW 5059   1.387   5.441   1.574
 1387SOL    HW1 5060   1.425   5.501   1.645
 1387SOL    HW2 5061   1.431   5.351   1.580
 1388SOL     OW 5062   6.364   0.557   1.491
 1388SOL    HW1 5063   6.420   0.480   1.464
 1388SOL    HW2 5064   6.422   0.632   1.523
 1389SOL     OW 5065   6.770   0.231   0.368
 1389SOL    HW1 5066   6.767   0.166   0.292
 1389SOL    HW2 5067   6.836   0.199   0.436
 1390SOL     OW 5068   1.239   1.594   4.583
 1390SOL    HW1 5069   1.287   1.681   4.581
 1390SOL    HW2 5070   1.242   1.552   4.492
 1391SOL     OW 5071   1.163   3.481   3.610
 1391SOL    HW1 5072   1.083   3.443   3.657
 1391SOL    HW2 5073   1.234   3.503   3.676
 1392SOL     OW 5074   5.392   5.832   3.782
 1392SOL    HW1 5075   5.365   5.854   3.875
 1392SOL    HW2 5076   5.329   5.876   3.718
 1393SOL     OW 5077   3.835   4.672   6.678
 1393SOL    HW1 5078   3.760   4.733   6.703
 1393SOL    HW2 5079   3.904   4.723   6.626
 1394SOL     OW 5080   0.916   6.706   6.521
 1394SOL    HW1 5081   0.896   6.652   6.440
 1394SOL    HW2 5082   0.874   6.664   6.601
 1395SOL     OW 5083   3.963   4.854   6.048
 1395SOL    HW1 5084   3.901   4.901   6.110
 1395SOL    HW2 5085   3.912   4.787   5.994
 1396SOL     OW 5086   4.706   5.545   2.831
 1396SOL    HW1 5087   4.648   5.533   2.750
 1396SOL    HW2 5088   4.741   5.456   2.860
 1397SOL     OW 5089   5.883   6.261   4.499
 1397SOL    HW1 5090   5.894   6.291   4.594
 1397SOL    HW2 5091   5.963   6.208   4.471
 1398SOL     OW 5092   1.813   0.275   5.335
 1398SOL    HW1 5093   1.865   0.340   5.390
 1398SOL    HW2 5094   1.788   0.318   5.248
 1399SOL     OW 5095   2.842   5.429   2.484
 1399SOL    HW1 5096   2.856   5.376   2.400
 1399SOL    HW2 5097   2.924   5.484   2.503
 1400SOL     OW 5098   1.429   0.930   3.304
 1400SOL    HW1 5099   1.349   0.899   3.354
 1400SOL    HW2 5100   1.402   0.958   3.212
 1401SOL     OW 5101   6.754   2.385   4.342
 1401SOL    HW1 5102   6.741   2.322   4.265
 1401SOL    HW2 5103   6.734   2.337   4.428
 1402SOL     OW 5104   5.418   2.145   6.904
 1402SOL    HW1 5105   5.457   2.234   6.926
 1402SOL    HW2 5106   5.325   2.158   6.868
 1403SOL     OW 5107   3.789   0.658   2.222
 1403SOL    HW1 5108   3.855   0.689   2.154
 1403SOL    HW2 5109   3.696   0.672   2.188
 1404SOL     OW 5110   4.760   1.037   6.087
 1404SOL    HW1 5111   4.754   1.115   6.149
 1404SOL    HW2 5112   4.807   0.962   6.133
 1405SOL     OW 5113   3.215   2.866   0.793
 1405SOL    HW1 5114   3.132   2.861   0.849
 1405SOL    HW2 5115   3.295   2.875   0.853
 1406SOL     OW 5116   0.530   3.370   1.418
 1406SOL    HW1 5117   0.597   3.395   1.348
 1406SOL    HW2 5118   0.488   3.453   1.454
 1407SOL     OW 5119   6.689   2.585   2.363
 1407SOL    HW1 5120   6.631   2.505   2.375
 1407SOL    HW2 5121   6.690   2.611   2.266
 1408SOL     OW 5122   6.820   4.371   6.995
 1408SOL    HW1 5123   6.911   4.332   6.979
 1408SOL    HW2 5124   6.771   4.378   6.909
 1409SOL     OW 5125   6.757   1.332   3.788
 1409SOL    HW1 5126   6.732   1.235   3.793
 1409SOL    HW2 5127   6.844   1.342   3.740
 1410SOL     OW 5128   0.411   1.689   6.362
 1410SOL    HW1 5129   0.490   1.656   6.311
 1410SOL    HW2 5130   0.414   1.788   6.369
 1411SOL     OW 5131   1.604   1.231   0.783
 1411SOL    HW1 5132   1.650   1.286   0.852
 1411SOL    HW2 5133   1.519   1.276   0.755
 1412SOL     OW 5134   1.874   1.844   0.548
 1412SOL    HW1 5135   1.866   1.810   0.454
 1412SOL    HW2 5136   1.793   1.898   0.571
 1413SOL     OW 5137   3.229   6.864   3.781
 1413SOL    HW1 5138   3.263   6.954   3.752
 1413SOL    HW2 5139   3.305   6.800   3.786
 1414SOL     OW 5140   1.404   0.559   2.708
 1414SOL    HW1 5141   1.326   0.531   2.764
 1414SOL    HW2 5142   1.486   0.561   2.765
 1415SOL     OW 5143   5.713   6.536   4.548
 1415SOL    HW1 5144   5.727   6.545   4.647
 1415SOL    HW2 5145   5.655   6.457   4.529
 1416SOL     OW 5146   4.907   6.019   3.745
 1416SOL    HW1 5147   4.972   6.077   3.696
 1416SOL    HW2 5148   4.899   5.931   3.698
 1417SOL     OW 5149   3.210   3.662   5.717
 1417SOL    HW1 5150   3.168   3.718   5.789
 1417SOL    HW2 5151   3.146   3.653   5.641
 1418SOL     OW 5152   3.447   4.107   4.474
 1418SOL    HW1 5153   3.347   4.107   4.473
 1418SOL    HW2 5154   3.481   4.123   4.382
 1419SOL     OW 5155   3.431   6.062   4.013
 1419SOL    HW1 5156   3.523   6.100   4.004
 1419SOL    HW2 5157   3.370   6.130   4.053
 1420SOL     OW 5158   0.396   6.855   2.841
 1420SOL    HW1 5159   0.317   6.884   2.895
 1420SOL    HW2 5160   0.457   6.800   2.898
 1421SOL     OW 5161   3.608   0.623   3.157
 1421SOL    HW1 5162   3.581   0.529   3.142
 1421SOL    HW2 5163   3.527   0.679   3.175
 1422SOL     OW 5164   2.668   5.594   0.177
 1422SOL    HW1 5165   2.689   5.512   0.229
 1422SOL    HW2 5166   2.569   5.609   0.176
 1423SOL     OW 5167   4.589   0.345   2.869
 1423SOL    HW1 5168   4.671   0.399   2.851
 1423SOL    HW2 5169   4.526   0.352   2.791
 1424SOL     OW 5170   6.569   5.301   2.101
 1424SOL    HW1 5171   6.472   5.326   2.098
 1424SOL    HW2 5172   6.587   5.231   2.031
 1425SOL     OW 5173   1.994   7.008   4.079
 1425SOL    HW1 5174   1.946   0.067   4.063
 1425SOL    HW2 5175   2.029   7.006   4.173
 1426SOL     OW 5176   1.648   0.817   6.093
 1426SOL    HW1 5177   1.724   0.751   6.094
 1426SOL    HW2 5178   1.606   0.817   6.003
 1427SOL     OW 5179   4.921   2.503   6.149
 1427SOL    HW1 5180   4.879   2.526   6.061
 1427SOL    HW2 5181   4.963   2.584   6.188
 1428SOL     OW 5182   5.815   0.451   1.108
 1428SOL    HW1 5183   5.820   0.394   1.190
 1428SOL    HW2 5184   5.740   0.419   1.050
 1429SOL     OW 5185   5.423   5.460   1.514
 1429SOL    HW1 5186   5.324   5.470   1.502
 1429SOL    HW2 5187   5.455   5.529   1.579
 1430SOL     OW 5188   3.009   4.833   2.506
 1430SOL    HW1 5189   3.059   4.829   2.593
 1430SOL    HW2 5190   3.032   4.918   2.458
 1431SOL     OW 5191   2.111   1.176   0.556
 1431SOL    HW1 5192   2.015   1.161   0.581
 1431SOL    HW2 5193   2.170   1.137   0.627
 1432SOL     OW 5194   3.075   6.736   1.508
 1432SOL    HW1 5195   3.135   6.679   1.565
 1432SOL    HW2 5196   3.124   6.819   1.480
 1433SOL     OW 5197   5.143   6.973   3.337
 1433SOL    HW1 5198   5.119   7.004   3.244
 1433SOL    HW2 5199   5.176   6.879   3.333
 1434SOL     OW 5200   0.609   0.731   5.099
 1434SOL    HW1 5201   0.554   0.647   5.099
 1434SOL    HW2 5202   0.562   0.801   5.153
 1435SOL     OW 5203   6.989   2.262   3.959
 1435SOL    HW1 5204   0.006   2.194   4.018
 1435SOL    HW2 5205   6.973   2.223   3.869
 1436SOL     OW 5206   5.337   3.506   1.325
 1436SOL    HW1 5207   5.252   3.550   1.296
 1436SOL    HW2 5208   5.320   3.409   1.343
 1437SOL     OW 5209   4.595   0.773   2.619
 1437SOL    HW1 5210   4.542   0.688   2.616
 1437SOL    HW2 5211   4.566   0.833   2.544
 1438SOL     OW 5212   3.054   6.648   2.171
 1438SOL    HW1 5213   3.071   6.563   2.121
 1438SOL    HW2 5214   3.068   6.726   2.110
 1439SOL     OW 5215   0.589   5.418   2.636
 1439SOL    HW1 5216   0.688   5.426   2.622
 1439SOL    HW2 5217   0.543   5.419   2.547
 1440SOL     OW 5218   2.414   3.093   1.063
 1440SOL    HW1 5219   2.346   3.149   1.016
 1440SOL    HW2 5220   2.373   3.056   1.147
 1441SOL     OW 5221   4.954   6.498   6.371
 1441SOL    HW1 5222   4.860   6.506   6.405
 1441SOL    HW2 5223   5.017   6.505   6.448
 1442SOL     OW 5224   4.628   5.802   1.780
 1442SOL    HW1 5225   4.686   5.868   1.732
 1442SOL    HW2 5226   4.638   5.712   1.738
 1443SOL     OW 5227   0.044   2.806   2.358
 1443SOL    HW1 5228   0.057   2.715   2.318
 1443SOL    HW2 5229   7.018   2.798   2.442
 1444SOL     OW 5230   0.441   6.580   4.732
 1444SOL    HW1 5231   0.449   6.536   4.821
 1444SOL    HW2 5232   0.484   6.670   4.735
 1445SOL     OW 5233   0.664   2.206   1.250
 1445SOL    HW1 5234   0.671   2.275   1.322
 1445SOL    HW2 5235   0.732   2.225   1.179
 1446SOL     OW 5236   6.114   5.841   1.815
 1446SOL    HW1 5237   6.103   5.939   1.798
 1446SOL    HW2 5238   6.040   5.809   1.874
 1447SOL     OW 5239   0.147   6.584   3.854
 1447SOL    HW1 5240   0.107   6.503   3.896
 1447SOL    HW2 5241   0.186   6.643   3.925
 1448SOL     OW 5242   1.793   1.068   5.279
 1448SOL    HW1 5243   1.717   1.133   5.281
 1448SOL    HW2 5244   1.850   1.081   5.359
 1449SOL     OW 5245   2.127   2.945   2.518
 1449SOL    HW1 5246   2.205   2.890   2.488
 1449SOL    HW2 5247   2.090   2.907   2.603
 1450SOL     OW 5248   3.074   2.165   2.456
 1450SOL    HW1 5249   3.153   2.120   2.416
 1450SOL    HW2 5250   3.014   2.198   2.382
 1451SOL     OW 5251   4.032   2.047   2.583
 1451SOL    HW1 5252   4.054   2.037   2.680
 1451SOL    HW2 5253   4.029   1.956   2.541
 1452SOL     OW 5254   4.107   3.159   5.283
 1452SOL    HW1 5255   4.199   3.120   5.289
 1452SOL    HW2 5256   4.043   3.098   5.330
 1453SOL     OW 5257   1.932   2.964   4.799
 1453SOL    HW1 5258   2.017   3.016   4.806
 1453SOL    HW2 5259   1.900   2.942   4.892
 1454SOL     OW 5260   3.299   2.056   2.342
 1454SOL    HW1 5261   3.322   2.085   2.249
 1454SOL    HW2 5262   3.382   2.030   2.390
 1455SOL     OW 5263   6.899   5.920   2.789
 1455SOL    HW1 5264   6.999   5.918   2.779
 1455SOL    HW2 5265   6.865   5.828   2.808
 1456SOL     OW 5266   6.182   5.896   4.021
 1456SOL    HW1 5267   6.224   5.955   4.091
 1456SOL    HW2 5268   6.209   5.929   3.930
 1457SOL     OW 5269   1.532   5.899   5.629
 1457SOL    HW1 5270   1.593   5.820   5.634
 1457SOL    HW2 5271   1.468   5.887   5.553
 1458SOL     OW 5272   0.123   5.151   4.929
 1458SOL    HW1 5273   0.150   5.062   4.964
 1458SOL    HW2 5274   0.154   5.222   4.992
 1459SOL     OW 5275   0.230   6.058   5.438
 1459SOL    HW1 5276   0.214   6.058   5.536
 1459SOL    HW2 5277   0.171   6.126   5.394
 1460SOL     OW 5278   1.675   6.624   5.260
 1460SOL    HW1 5279   1.675   6.558   5.185
 1460SOL    HW2 5280   1.741   6.594   5.330
 1461SOL     OW 5281   5.759   3.889   3.135
 1461SOL    HW1 5282   5.686   3.828   3.166
 1461SOL    HW2 5283   5.824   3.838   3.079
 1462SOL     OW 5284   1.068   1.539   2.346
 1462SOL    HW1 5285   1.072   1.558   2.248
 1462SOL    HW2 5286   0.985   1.580   2.384
 1463SOL     OW 5287   1.914   4.659   6.942
 1463SOL    HW1 5288   1.850   4.644   7.018
 1463SOL    HW2 5289   1.959   4.573   6.919
 1464SOL     OW 5290   0.803   4.011   5.598
 1464SOL    HW1 5291   0.862   3.976   5.526
 1464SOL    HW2 5292   0.842   4.094   5.636
 1465SOL     OW 5293   1.949   3.433   5.699
 1465SOL    HW1 5294   1.896   3.470   5.622
 1465SOL    HW2 5295   2.004   3.356   5.668
 1466SOL     OW 5296   5.402   1.083   2.511
 1466SOL    HW1 5297   5.331   1.152   2.521
 1466SOL    HW2 5298   5.365   1.001   2.466
 1467SOL     OW 5299   0.629   0.335   3.756
 1467SOL    HW1 5300   0.555   0.367   3.815
 1467SOL    HW2 5301   0.667   0.412   3.705
 1468SOL     OW 5302   3.676   6.687   3.944
 1468SOL    HW1 5303   3.628   6.605   3.974
 1468SOL    HW2 5304   3.713   6.672   3.852
 1469SOL     OW 5305   5.332   4.643   3.380
 1469SOL    HW1 5306   5.310   4.741   3.388
 1469SOL    HW2 5307   5.257   4.589   3.417
 1470SOL     OW 5308   5.927   1.436   1.481
 1470SOL    HW1 5309   5.982   1.356   1.505
 1470SOL    HW2 5310   5.883   1.472   1.563
 1471SOL     OW 5311   4.962   6.321   0.404
 1471SOL    HW1 5312   5.044   6.362   0.445
 1471SOL    HW2 5313   4.985   6.230   0.369
 1472SOL     OW 5314   1.845   0.022   0.264
 1472SOL    HW1 5315   1.841   0.016   0.364
 1472SOL    HW2 5316   1.753   0.016   0.227
 1473SOL     OW 5317   1.369   6.080   3.664
 1473SOL    HW1 5318   1.320   5.994   3.679
 1473SOL    HW2 5319   1.466   6.061   3.649
 1474SOL     OW 5320   1.667   4.395   1.838
 1474SOL    HW1 5321   1.640   4.491   1.840
 1474SOL    HW2 5322   1.719   4.372   1.920
 1475SOL     OW 5323   6.572   6.710   6.398
 1475SOL    HW1 5324   6.535   6.627   6.438
 1475SOL    HW2 5325   6.671   6.700   6.385
 1476SOL     OW 5326   6.269   6.943   6.786
 1476SOL    HW1 5327   6.315   6.882   6.851
 1476SOL    HW2 5328   6.232   7.022   6.835
 1477SOL     OW 5329   3.763   4.228   1.762
 1477SOL    HW1 5330   3.861   4.214   1.747
 1477SOL    HW2 5331   3.747   4.321   1.795
 1478SOL     OW 5332   4.297   3.735   6.356
 1478SOL    HW1 5333   4.279   3.714   6.260
 1478SOL    HW2 5334   4.339   3.655   6.400
 1479SOL     OW 5335   4.082   4.778   1.187
 1479SOL    HW1 5336   4.086   4.787   1.287
 1479SOL    HW2 5337   4.130   4.854   1.145
 1480SOL     OW 5338   2.829   1.704   3.653
 1480SOL    HW1 5339   2.874   1.730   3.739
 1480SOL    HW2 5340   2.896   1.665   3.590
 1481SOL     OW 5341   4.097   1.680   5.605
 1481SOL    HW1 5342   4.052   1.630   5.678
 1481SOL    HW2 5343   4.112   1.775   5.634
 1482SOL     OW 5344   6.712   1.100   1.142
 1482SOL    HW1 5345   6.708   1.117   1.043
 1482SOL    HW2 5346   6.622   1.068   1.173
 1483SOL     OW 5347   5.803   6.156   0.232
 1483SOL    HW1 5348   5.821   6.226   0.301
 1483SOL    HW2 5349   5.707   6.161   0.204
 1484SOL     OW 5350   3.035   6.688   5.712
 1484SOL    HW1 5351   3.029   6.779   5.755
 1484SOL    HW2 5352   3.002   6.619   5.776
 1485SOL     OW 5353   5.391   3.931   3.316
 1485SOL    HW1 5354   5.310   3.883   3.283
 1485SOL    HW2 5355   5.470   3.871   3.311
 1486SOL     OW 5356   6.290   6.196   4.585
 1486SOL    HW1 5357   6.233   6.144   4.522
 1486SOL    HW2 5358   6.269   6.293   4.578
 1487SOL     OW 5359   5.876   0.092   6.482
 1487SOL    HW1 5360   5.976   0.102   6.474
 1487SOL    HW2 5361   5.855   7.026   6.513
 1488SOL     OW 5362   6.887   2.907   2.585
 1488SOL    HW1 5363   6.978   2.913   2.625
 1488SOL    HW2 5364   6.855   2.999   2.563
 1489SOL     OW 5365   3.154   5.637   6.773
 1489SOL    HW1 5366   3.233   5.601   6.724
 1489SOL    HW2 5367   3.161   5.614   6.870
 1490SOL     OW 5368   5.889   2.586   2.020
 1490SOL    HW1 5369   5.989   2.594   2.020
 1490SOL    HW2 5370   5.857   2.566   1.928
 1491SOL     OW 5371   5.605   3.834   4.799
 1491SOL    HW1 5372   5.647   3.866   4.714
 1491SOL    HW2 5373   5.592   3.735   4.795
 1492SOL     OW 5374   1.453   2.802   2.160
 1492SOL    HW1 5375   1.381   2.800   2.230
 1492SOL    HW2 5376   1.411   2.792   2.069
 1493SOL     OW 5377   6.393   1.973   6.665
 1493SOL    HW1 5378   6.459   1.951   6.736
 1493SOL    HW2 5379   6.342   1.891   6.640
 1494SOL     OW 5380   1.638   3.081   6.736
 1494SOL    HW1 5381   1.699   3.084   6.657
 1494SOL    HW2 5382   1.570   3.155   6.729
 1495SOL     OW 5383   6.259   3.805   3.815
 1495SOL    HW1 5384   6.199   3.880   3.788
 1495SOL    HW2 5385   6.276   3.811   3.914
 1496SOL     OW 5386   6.639   5.487   5.982
 1496SOL    HW1 5387   6.690   5.406   6.010
 1496SOL    HW2 5388   6.556   5.495   6.036
 1497SOL     OW 5389   4.649   2.576   2.819
 1497SOL    HW1 5390   4.589   2.539   2.748
 1497SOL    HW2 5391   4.710   2.644   2.779
 1498SOL     OW 5392   3.689   4.199   0.738
 1498SOL    HW1 5393   3.643   4.137   0.801
 1498SOL    HW2 5394   3.713   4.149   0.654
 1499SOL     OW 5395   1.756   4.768   4.220
 1499SOL    HW1 5396   1.672   4.796   4.173
 1499SOL    HW2 5397   1.737   4.759   4.318
 1500SOL     OW 5398   2.597   5.783   1.464
 1500SOL    HW1 5399   2.564   5.758   1.555
 1500SOL    HW2 5400   2.642   5.872   1.468
 1501SOL     OW 5401   5.612   1.431   1.386
 1501SOL    HW1 5402   5.580   1.522   1.359
 1501SOL    HW2 5403   5.712   1.426   1.375
 1502SOL     OW 5404   0.878   6.814   5.894
 1502SOL    HW1 5405   0.864   6.800   5.992
 1502SOL    HW2 5406   0.968   6.855   5.879
 1503SOL     OW 5407   6.452   6.119   2.275
 1503SOL    HW1 5408   6.380   6.067   2.321
 1503SOL    HW2 5409   6.491   6.186   2.339
 1504SOL     OW 5410   1.408   0.584   3.587
 1504SOL    HW1 5411   1.456   0.630   3.662
 1504SOL    HW2 5412   1.446   0.614   3.499
 1505SOL     OW 5413   6.923   4.526   4.571
 1505SOL    HW1 5414   6.826   4.524   4.545
 1505SOL    HW2 5415   6.979   4.497   4.494
 1506SOL     OW 5416   0.767   1.105   0.586
 1506SOL    HW1 5417   0.823   1.093   0.668
 1506SOL    HW2 5418   0.749   1.016   0.544
 1507SOL     OW 5419   2.590   1.989   4.027
 1507SOL    HW1 5420   2.527   1.942   3.964
 1507SOL    HW2 5421   2.577   2.088   4.019
 1508SOL     OW 5422   1.645   0.414   1.406
 1508SOL    HW1 5423   1.591   0.366   1.337
 1508SOL    HW2 5424   1.720   0.463   1.362
 1509SOL     OW 5425   4.226   0.717   4.659
 1509SOL    HW1 5426   4.175   0.689   4.740
 1509SOL    HW2 5427   4.297   0.782   4.685
 1510SOL     OW 5428   2.749   6.653   5.287
 1510SOL    HW1 5429   2.776   6.637   5.382
 1510SOL    HW2 5430   2.728   6.750   5.275
 1511SOL     OW 5431   3.763   4.143   5.054
 1511SOL    HW1 5432   3.769   4.221   5.115
 1511SOL    HW2 5433   3.845   4.087   5.063
 1512SOL     OW 5434   5.603   6.632   0.810
 1512SOL    HW1 5435   5.625   6.685   0.892
 1512SOL    HW2 5436   5.598   6.693   0.731
 1513SOL     OW 5437   2.805   6.340   5.546
 1513SOL    HW1 5438   2.791   6.242   5.558
 1513SOL    HW2 5439   2.893   6.356   5.501
 1514SOL     OW 5440   3.154   0.953   0.461
 1514SOL    HW1 5441   3.087   0.960   0.535
 1514SOL    HW2 5442   3.108   0.924   0.377
 1515SOL     OW 5443   3.633   0.609   1.510
 1515SOL    HW1 5444   3.653   0.564   1.597
 1515SOL    HW2 5445   3.708   0.594   1.446
 1516SOL     OW 5446   0.430   6.619   6.719
 1516SOL    HW1 5447   0.337   6.646   6.695
 1516SOL    HW2 5448   0.440   6.520   6.705
 1517SOL     OW 5449   1.734   5.720   3.080
 1517SOL    HW1 5450   1.818   5.746   3.032
 1517SOL    HW2 5451   1.659   5.779   3.050
 1518SOL     OW 5452   2.592   2.455   6.930
 1518SOL    HW1 5453   2.528   2.423   6.859
 1518SOL    HW2 5454   2.671   2.394   6.933
 1519SOL     OW 5455   0.723   4.450   7.024
 1519SOL    HW1 5456   0.676   4.535   0.016
 1519SOL    HW2 5457   0.814   4.452   0.039
 1520SOL     OW 5458   0.263   0.238   3.042
 1520SOL    HW1 5459   0.355   0.267   3.069
 1520SOL    HW2 5460   0.203   0.317   3.040
 1521SOL     OW 5461   2.364   4.987   6.888
 1521SOL    HW1 5462   2.357   5.019   6.983
 1521SOL    HW2 5463   2.455   5.005   6.853
 1522SOL     OW 5464   6.238   6.118   4.182
 1522SOL    HW1 5465   6.142   6.138   4.158
 1522SOL    HW2 5466   6.274   6.193   4.237
 1523SOL     OW 5467   2.618   6.361   0.748
 1523SOL    HW1 5468   2.540   6.337   0.690
 1523SOL    HW2 5469   2.687   6.289   0.743
 1524SOL     OW 5470   1.824   1.995   4.622
 1524SOL    HW1 5471   1.836   1.945   4.536
 1524SOL    HW2 5472   1.796   1.931   4.694
 1525SOL     OW 5473   6.034   4.220   0.483
 1525SOL    HW1 5474   6.058   4.219   0.386
 1525SOL    HW2 5475   6.091   4.154   0.532
 1526SOL     OW 5476   0.324   1.237   2.239
 1526SOL    HW1 5477   0.319   1.269   2.334
 1526SOL    HW2 5478   0.354   1.312   2.180
 1527SOL     OW 5479   5.147   0.996   4.955
 1527SOL    HW1 5480   5.140   0.974   4.858
 1527SOL    HW2 5481   5.159   1.095   4.966
 1528SOL     OW 5482   3.002   3.211   2.333
 1528SOL    HW1 5483   3.004   3.115   2.306
 1528SOL    HW2 5484   2.977   3.267   2.254
 1529SOL     OW 5485   4.726   0.708   5.704
 1529SOL    HW1 5486   4.730   0.805   5.726
 1529SOL    HW2 5487   4.695   0.697   5.610
 1530SOL     OW 5488   2.747   6.656   2.266
 1530SOL    HW1 5489   2.834   6.638   2.219
 1530SOL    HW2 5490   2.706   6.739   2.229
 1531SOL     OW 5491   5.968   6.635   4.538
 1531SOL    HW1 5492   5.872   6.606   4.537
 1531SOL    HW2 5493   5.992   6.675   4.449
 1532SOL     OW 5494   3.196   5.656   2.295
 1532SOL    HW1 5495   3.113   5.650   2.349
 1532SOL    HW2 5496   3.263   5.713   2.343
 1533SOL     OW 5497   5.899   5.729   1.960
 1533SOL    HW1 5498   5.818   5.784   1.981
 1533SOL    HW2 5499   5.930   5.682   2.042
 1534SOL     OW 5500   2.650   5.037   6.572
 1534SOL    HW1 5501   2.661   5.018   6.670
 1534SOL    HW2 5502   2.597   4.963   6.530
 1535SOL     OW 5503   5.474   5.175   3.369
 1535SOL    HW1 5504   5.468   5.139   3.275
 1535SOL    HW2 5505   5.421   5.117   3.430
 1536SOL     OW 5506   3.720   4.728   6.377
 1536SOL    HW1 5507   3.791   4.799   6.373
 1536SOL    HW2 5508   3.631   4.769   6.358
 1537SOL     OW 5509   2.892   6.089   2.051
 1537SOL    HW1 5510   2.973   6.033   2.067
 1537SOL    HW2 5511   2.835   6.089   2.133
 1538SOL     OW 5512   2.563   1.222   0.644
 1538SOL    HW1 5513   2.545   1.129   0.676
 1538SOL    HW2 5514   2.662   1.238   0.643
 1539SOL     OW 5515   6.712   3.255   0.645
 1539SOL    HW1 5516   6.776   3.190   0.686
 1539SOL    HW2 5517   6.622   3.213   0.638
 1540SOL     OW 5518   4.218   5.920   3.792
 1540SOL    HW1 5519   4.255   5.908   3.884
 1540SOL    HW2 5520   4.293   5.936   3.728
 1541SOL     OW 5521   4.427   2.619   5.689
 1541SOL    HW1 5522   4.333   2.644   5.667
 1541SOL    HW2 5523   4.431   2.583   5.782
 1542SOL     OW 5524   0.922   4.354   2.632
 1542SOL    HW1 5525   0.840   4.396   2.594
 1542SOL    HW2 5526   0.902   4.315   2.722
 1543SOL     OW 5527   4.320   5.236   0.750
 1543SOL    HW1 5528   4.257   5.180   0.696
 1543SOL    HW2 5529   4.275   5.322   0.774
 1544SOL     OW 5530   3.695   3.221   3.753
 1544SOL    HW1 5531   3.600   3.246   3.774
 1544SOL    HW2 5532   3.700   3.124   3.730
 1545SOL     OW 5533   6.301   4.344   0.716
 1545SOL    HW1 5534   6.390   4.390   0.722
 1545SOL    HW2 5535   6.255   4.371   0.631
 1546SOL     OW 5536   6.874   6.264   5.933
 1546SOL    HW1 5537   6.957   6.320   5.925
 1546SOL    HW2 5538   6.897   6.168   5.914
 1547SOL     OW 5539   1.220   2.725   6.952
 1547SOL    HW1 5540   1.254   2.781   0.001
 1547SOL    HW2 5541   1.134   2.682   6.978
 1548SOL     OW 5542   6.727   2.064   0.368
 1548SOL    HW1 5543   6.773   1.980   0.338
 1548SOL    HW2 5544   6.660   2.091   0.299
 1549SOL     OW 5545   4.882   0.021   4.462
 1549SOL    HW1 5546   4.961   0.029   4.400
 1549SOL    HW2 5547   4.830   6.967   4.440
 1550SOL     OW 5548   3.131   3.844   4.808
 1550SOL    HW1 5549   3.077   3.765   4.836
 1550SOL    HW2 5550   3.133   3.911   4.883
 1551SOL     OW 5551   0.326   5.452   6.053
 1551SOL    HW1 5552   0.264   5.487   5.983
 1551SOL    HW2 5553   0.279   5.451   6.142
 1552SOL     OW 5554   2.295   3.929   1.226
 1552SOL    HW1 5555   2.289   3.846   1.281
 1552SOL    HW2 5556   2.391   3.959   1.221
 1553SOL     OW 5557   1.165   2.095   5.743
 1553SOL    HW1 5558   1.092   2.086   5.811
 1553SOL    HW2 5559   1.241   2.034   5.766
 1554SOL     OW 5560   4.466   2.330   3.494
 1554SOL    HW1 5561   4.366   2.332   3.489
 1554SOL    HW2 5562   4.502   2.420   3.470
 1555SOL     OW 5563   6.268   4.467   5.323
 1555SOL    HW1 5564   6.212   4.476   5.241
 1555SOL    HW2 5565   6.241   4.386   5.374
 1556SOL     OW 5566   2.515   1.142   5.445
 1556SOL    HW1 5567   2.585   1.200   5.404
 1556SOL    HW2 5568   2.434   1.142   5.386
 1557SOL     OW 5569   0.940   1.335   6.178
 1557SOL    HW1 5570   0.856   1.289   6.151
 1557SOL    HW2 5571   1.003   1.269   6.219
 1558SOL     OW 5572   6.764   7.021   4.138
 1558SOL    HW1 5573   6.821   0.011   4.058
 1558SOL    HW2 5574   6.763   6.923   4.158
 1559SOL     OW 5575   1.612   1.435   6.035
 1559SOL    HW1 5576   1.623   1.375   6.114
 1559SOL    HW2 5577   1.541   1.397   5.975
 1560SOL     OW 5578   0.148   0.107   1.328
 1560SOL    HW1 5579   0.127   0.019   1.286
 1560SOL    HW2 5580   0.221   0.095   1.396
 1561SOL     OW 5581   5.751   6.600   1.872
 1561SOL    HW1 5582   5.768   6.513   1.825
 1561SOL    HW2 5583   5.776   6.676   1.811
 1562SOL     OW 5584   5.978   7.025   3.989
 1562SOL    HW1 5585   6.077   0.005   3.990
 1562SOL    HW2 5586   5.939   0.072   3.934
 1563SOL     OW 5587   2.511   0.492   6.497
 1563SOL    HW1 5588   2.501   0.411   6.438
 1563SOL    HW2 5589   2.607   0.504   6.521
 1564SOL     OW 5590   1.585   1.919   2.775
 1564SOL    HW1 5591   1.627   1.856   2.709
 1564SOL    HW2 5592   1.506   1.963   2.732
 1565SOL     OW 5593   6.034   3.582   1.722
 1565SOL    HW1 5594   6.109   3.592   1.787
 1565SOL    HW2 5595   6.023   3.668   1.671
 1566SOL     OW 5596   5.747   4.512   2.087
 1566SOL    HW1 5597   5.702   4.439   2.140
 1566SOL    HW2 5598   5.810   4.561   2.147
 1567SOL     OW 5599   6.467   5.265   5.753
 1567SOL    HW1 5600   6.442   5.339   5.691
 1567SOL    HW2 5601   6.561   5.235   5.733
 1568SOL     OW 5602   0.413   6.149   1.100
 1568SOL    HW1 5603   0.491   6.210   1.114
 1568SOL    HW2 5604   0.330   6.203   1.084
 1569SOL     OW 5605   3.983   5.622   4.891
 1569SOL    HW1 5606   3.987   5.567   4.808
 1569SOL    HW2 5607   4.030   5.709   4.875
 1570SOL     OW 5608   2.445   2.421   1.386
 1570SOL    HW1 5609   2.434   2.321   1.386
 1570SOL    HW2 5610   2.496   2.449   1.305
 1571SOL     OW 5611   0.383   2.864   6.509
 1571SOL    HW1 5612   0.414   2.832   6.419
 1571SOL    HW2 5613   0.404   2.795   6.578
 1572SOL     OW 5614   0.564   5.844   4.532
 1572SOL    HW1 5615   0.533   5.920   4.588
 1572SOL    HW2 5616   0.546   5.863   4.436
 1573SOL     OW 5617   4.578   0.581   6.894
 1573SOL    HW1 5618   4.603   0.486   6.908
 1573SOL    HW2 5619   4.630   0.619   6.818
 1574SOL     OW 5620   4.894   3.178   2.366
 1574SOL    HW1 5621   4.936   3.129   2.289
 1574SOL    HW2 5622   4.892   3.276   2.345
 1575SOL     OW 5623   3.111   2.762   6.893
 1575SOL    HW1 5624   3.135   2.806   6.807
 1575SOL    HW2 5625   3.080   2.669   6.876
 1576SOL     OW 5626   5.746   5.407   3.384
 1576SOL    HW1 5627   5.676   5.476   3.368
 1576SOL    HW2 5628   5.833   5.452   3.404
 1577SOL     OW 5629   2.188   0.960   0.805
 1577SOL    HW1 5630   2.234   0.906   0.875
 1577SOL    HW2 5631   2.109   0.910   0.770
 1578SOL     OW 5632   6.042   6.288   5.361
 1578SOL    HW1 5633   6.141   6.287   5.345
 1578SOL    HW2 5634   5.996   6.329   5.283
 1579SOL     OW 5635   6.259   1.479   3.249
 1579SOL    HW1 5636   6.201   1.435   3.317
 1579SOL    HW2 5637   6.347   1.503   3.290
 1580SOL     OW 5638   2.875   3.903   5.580
 1580SOL    HW1 5639   2.928   3.891   5.496
 1580SOL    HW2 5640   2.930   3.876   5.659
 1581SOL     OW 5641   5.847   2.970   4.236
 1581SOL    HW1 5642   5.935   2.930   4.263
 1581SOL    HW2 5643   5.816   3.034   4.307
 1582SOL     OW 5644   6.591   6.380   3.837
 1582SOL    HW1 5645   6.521   6.328   3.787
 1582SOL    HW2 5646   6.657   6.317   3.877
 1583SOL     OW 5647   2.865   3.081   0.854
 1583SOL    HW1 5648   2.810   3.016   0.905
 1583SOL    HW2 5649   2.960   3.077   0.886
 1584SOL     OW 5650   1.499   6.763   6.803
 1584SOL    HW1 5651   1.405   6.736   6.822
 1584SOL    HW2 5652   1.509   6.787   6.706
 1585SOL     OW 5653   5.938   1.224   5.846
 1585SOL    HW1 5654   5.909   1.320   5.849
 1585SOL    HW2 5655   5.904   1.181   5.762
 1586SOL     OW 5656   3.806   3.191   3.147
 1586SOL    HW1 5657   3.882   3.182   3.083
 1586SOL    HW2 5658   3.762   3.101   3.160
 1587SOL     OW 5659   1.578   0.233   5.517
 1587SOL    HW1 5660   1.674   0.221   5.491
 1587SOL    HW2 5661   1.540   0.312   5.468
 1588SOL     OW 5662   0.206   3.654   0.606
 1588SOL    HW1 5663   0.132   3.587   0.598
 1588SOL    HW2 5664   0.167   3.746   0.609
 1589SOL     OW 5665   5.455   4.892   2.402
 1589SOL    HW1 5666   5.355   4.896   2.410
 1589SOL    HW2 5667   5.481   4.817   2.341
 1590SOL     OW 5668   2.387   6.149   4.872
 1590SOL    HW1 5669   2.416   6.233   4.917
 1590SOL    HW2 5670   2.416   6.070   4.927
 1591SOL     OW 5671   2.162   3.810   0.038
 1591SOL    HW1 5672   2.082   3.801   0.097
 1591SOL    HW2 5673   2.245   3.810   0.093
 1592SOL     OW 5674   3.526   3.791   4.596
 1592SOL    HW1 5675   3.622   3.810   4.613
 1592SOL    HW2 5676   3.469   3.859   4.642
 1593SOL     OW 5677   0.776   4.455   3.982
 1593SOL    HW1 5678   0.726   4.370   3.996
 1593SOL    HW2 5679   0.832   4.448   3.899
 1594SOL     OW 5680   0.426   5.393   2.860
 1594SOL    HW1 5681   0.355   5.462   2.877
 1594SOL    HW2 5682   0.483   5.421   2.783
 1595SOL     OW 5683   6.448   3.017   5.669
 1595SOL    HW1 5684   6.471   3.078   5.592
 1595SOL    HW2 5685   6.508   3.037   5.746
 1596SOL     OW 5686   3.537   5.157   6.350
 1596SOL    HW1 5687   3.525   5.072   6.403
 1596SOL    HW2 5688   3.448   5.202   6.339
 1597SOL     OW 5689   2.134   6.709   1.302
 1597SOL    HW1 5690   2.057   6.684   1.243
 1597SOL    HW2 5691   2.137   6.648   1.381
 1598SOL     OW 5692   0.096   5.300   1.950
 1598SOL    HW1 5693   0.124   5.246   2.029
 1598SOL    HW2 5694   0.010   5.347   1.971
 1599SOL     OW 5695   3.159   5.365   0.017
 1599SOL    HW1 5696   3.172   5.460   0.047
 1599SOL    HW2 5697   3.248   5.324   7.026
 1600SOL     OW 5698   3.615   1.277   4.993
 1600SOL    HW1 5699   3.525   1.288   4.951
 1600SOL    HW2 5700   3.608   1.292   5.092
 1601SOL     OW 5701   1.543   5.476   4.956
 1601SOL    HW1 5702   1.590   5.518   5.034
 1601SOL    HW2 5703   1.496   5.393   4.986
 1602SOL     OW 5704   0.296   3.058   1.398
 1602SOL    HW1 5705   0.299   2.972   1.448
 1602SOL    HW2 5706   0.296   3.134   1.463
 1603SOL     OW 5707   5.853   0.328   1.375
 1603SOL    HW1 5708   5.807   0.239   1.384
 1603SOL    HW2 5709   5.951   0.315   1.367
 1604SOL     OW 5710   1.135   5.198   3.501
 1604SOL    HW1 5711   1.182   5.285   3.489
 1604SOL    HW2 5712   1.106   5.164   3.411
 1605SOL     OW 5713   5.123   5.460   2.267
 1605SOL    HW1 5714   5.209   5.426   2.304
 1605SOL    HW2 5715   5.062   5.383   2.248
 1606SOL     OW 5716   6.416   5.016   4.478
 1606SOL    HW1 5717   6.437   4.923   4.446
 1606SOL    HW2 5718   6.453   5.027   4.571
 1607SOL     OW 5719   6.346   3.757   1.735
 1607SOL    HW1 5720   6.298   3.739   1.821
 1607SOL    HW2 5721   6.332   3.681   1.672
 1608SOL     OW 5722   2.064   6.609   1.051
 1608SOL    HW1 5723   2.115   6.661   0.982
 1608SOL    HW2 5724   2.122   6.535   1.085
 1609SOL     OW 5725   5.882   2.392   5.535
 1609SOL    HW1 5726   5.964   2.368   5.587
 1609SOL    HW2 5727   5.852   2.484   5.560
 1610SOL     OW 5728   4.134   0.301   3.278
 1610SOL    HW1 5729   4.042   0.301   3.318
 1610SOL    HW2 5730   4.186   0.379   3.314
 1611SOL     OW 5731   4.291   4.095   1.583
 1611SOL    HW1 5732   4.211   4.040   1.608
 1611SOL    HW2 5733   4.374   4.048   1.611
 1612SOL     OW 5734   3.436   0.197   4.562
 1612SOL    HW1 5735   3.450   0.133   4.637
 1612SOL    HW2 5736   3.515   0.196   4.501
 1613SOL     OW 5737   2.575   6.858   1.361
 1613SOL    HW1 5738   2.665   6.873   1.402
 1613SOL    HW2 5739   2.512   6.929   1.393
 1614SOL     OW 5740   6.235   2.122   6.006
 1614SOL    HW1 5741   6.231   2.026   6.033
 1614SOL    HW2 5742   6.157   2.143   5.946
 1615SOL     OW 5743   6.913   5.603   4.915
 1615SOL    HW1 5744   6.992   5.609   4.976
 1615SOL    HW2 5745   6.858   5.523   4.939
 1616SOL     OW 5746   2.020   2.394   5.150
 1616SOL    HW1 5747   1.974   2.465   5.096
 1616SOL    HW2 5748   2.080   2.341   5.090
 1617SOL     OW 5749   3.231   0.323   2.488
 1617SOL    HW1 5750   3.330   0.329   2.502
 1617SOL    HW2 5751   3.185   0.372   2.561
 1618SOL     OW 5752   5.091   2.796   1.600
 1618SOL    HW1 5753   4.994   2.792   1.624
 1618SOL    HW2 5754   5.122   2.705   1.572
 1619SOL     OW 5755   1.600   3.075   4.486
 1619SOL    HW1 5756   1.559   2.997   4.439
 1619SOL    HW2 5757   1.616   3.051   4.582
 1620SOL     OW 5758   3.452   5.668   1.188
 1620SOL    HW1 5759   3.453   5.585   1.132
 1620SOL    HW2 5760   3.539   5.677   1.236
 1621SOL     OW 5761   2.319   2.645   1.539
 1621SOL    HW1 5762   2.394   2.603   1.489
 1621SOL    HW2 5763   2.355   2.715   1.601
 1622SOL     OW 5764   2.398   2.813   5.483
 1622SOL    HW1 5765   2.346   2.786   5.402
 1622SOL    HW2 5766   2.442   2.732   5.523
 1623SOL     OW 5767   2.451   1.923   4.664
 1623SOL    HW1 5768   2.368   1.972   4.639
 1623SOL    HW2 5769   2.531   1.980   4.644
 1624SOL     OW 5770   1.960   0.809   0.172
 1624SOL    HW1 5771   2.019   0.890   0.170
 1624SOL    HW2 5772   1.892   0.819   0.244
 1625SOL     OW 5773   1.729   0.075   0.882
 1625SOL    HW1 5774   1.650   0.024   0.915
 1625SOL    HW2 5775   1.747   0.151   0.944
 1626SOL     OW 5776   2.454   3.881   5.829
 1626SOL    HW1 5777   2.506   3.821   5.769
 1626SOL    HW2 5778   2.397   3.827   5.891
 1627SOL     OW 5779   5.086   4.449   2.443
 1627SOL    HW1 5780   5.105   4.477   2.537
 1627SOL    HW2 5781   5.085   4.349   2.439
 1628SOL     OW 5782   3.834   3.382   0.272
 1628SOL    HW1 5783   3.849   3.456   0.337
 1628SOL    HW2 5784   3.813   3.421   0.182
 1629SOL     OW 5785   1.757   2.393   3.337
 1629SOL    HW1 5786   1.720   2.434   3.254
 1629SOL    HW2 5787   1.856   2.406   3.339
 1630SOL     OW 5788   5.616   4.484   3.687
 1630SOL    HW1 5789   5.519   4.494   3.708
 1630SOL    HW2 5790   5.653   4.406   3.737
 1631SOL     OW 5791   0.716   1.247   5.238
 1631SOL    HW1 5792   0.635   1.203   5.198
 1631SOL    HW2 5793   0.688   1.305   5.314
 1632SOL     OW 5794   3.591   6.607   6.929
 1632SOL    HW1 5795   3.651   6.686   6.913
 1632SOL    HW2 5796   3.498   6.640   6.946
 1633SOL     OW 5797   6.689   3.696   2.582
 1633SOL    HW1 5798   6.738   3.766   2.531
 1633SOL    HW2 5799   6.679   3.614   2.527
 1634SOL     OW 5800   3.679   0.608   0.815
 1634SOL    HW1 5801   3.743   0.666   0.865
 1634SOL    HW2 5802   3.587   0.648   0.818
 1635SOL     OW 5803   2.274   4.366   3.558
 1635SOL    HW1 5804   2.355   4.380   3.615
 1635SOL    HW2 5805   2.292   4.295   3.490
 1636SOL     OW 5806   2.077   7.022   0.795
 1636SOL    HW1 5807   1.986   0.037   0.802
 1636SOL    HW2 5808   2.145   0.065   0.777
 1637SOL     OW 5809   0.884   2.899   2.005
 1637SOL    HW1 5810   0.861   2.892   2.102
 1637SOL    HW2 5811   0.895   2.807   1.967
 1638SOL     OW 5812   0.521   2.535   5.642
 1638SOL    HW1 5813   0.593   2.474   5.607
 1638SOL    HW2 5814   0.560   2.595   5.711
 1639SOL     OW 5815   3.492   5.261   3.287
 1639SOL    HW1 5816   3.406   5.310   3.271
 1639SOL    HW2 5817   3.473   5.177   3.337
 1640SOL     OW 5818   5.781   0.132   0.930
 1640SOL    HW1 5819   5.810   0.063   0.863
 1640SOL    HW2 5820   5.841   0.212   0.923
 1641SOL     OW 5821   6.511   2.940   4.778
 1641SOL    HW1 5822   6.553   3.022   4.739
 1641SOL    HW2 5823   6.479   2.880   4.705
 1642SOL     OW 5824   0.160   2.337   1.315
 1642SOL    HW1 5825   0.178   2.282   1.397
 1642SOL    HW2 5826   0.247   2.361   1.271
 1643SOL     OW 5827   4.637   0.017   5.141
 1643SOL    HW1 5828   4.594   7.022   5.054
 1643SOL    HW2 5829   4.652   6.960   5.193
 1644SOL     OW 5830   3.752   1.441   1.401
 1644SOL    HW1 5831   3.811   1.418   1.478
 1644SOL    HW2 5832   3.711   1.531   1.415
 1645SOL     OW 5833   2.421   5.474   5.476
 1645SOL    HW1 5834   2.477   5.443   5.399
 1645SOL    HW2 5835   2.344   5.528   5.442
 1646SOL     OW 5836   3.128   3.434   0.398
 1646SOL    HW1 5837   3.066   3.512   0.411
 1646SOL    HW2 5838   3.090   3.353   0.442
 1647SOL     OW 5839   6.161   2.672   2.034
 1647SOL    HW1 5840   6.230   2.692   1.964
 1647SOL    HW2 5841   6.177   2.580   2.070
 1648SOL     OW 5842   2.751   0.659   3.458
 1648SOL    HW1 5843   2.654   0.667   3.438
 1648SOL    HW2 5844   2.769   0.689   3.552
 1649SOL     OW 5845   3.115   0.612   4.466
 1649SOL    HW1 5846   3.202   0.583   4.506
 1649SOL    HW2 5847   3.096   0.557   4.384
 1650SOL     OW 5848   2.468   6.400   4.301
 1650SOL    HW1 5849   2.528   6.424   4.225
 1650SOL    HW2 5850   2.491   6.457   4.380
 1651SOL     OW 5851   1.581   6.812   2.393
 1651SOL    HW1 5852   1.538   6.828   2.481
 1651SOL    HW2 5853   1.551   6.881   2.327
 1652SOL     OW 5854   3.947   3.821   1.079
 1652SOL    HW1 5855   3.862   3.789   1.037
 1652SOL    HW2 5856   4.009   3.744   1.092
 1653SOL     OW 5857   1.368   4.138   0.771
 1653SOL    HW1 5858   1.354   4.051   0.724
 1653SOL    HW2 5859   1.386   4.122   0.868
 1654SOL     OW 5860   0.498   2.324   4.188
 1654SOL    HW1 5861   0.431   2.254   4.214
 1654SOL    HW2 5862   0.586   2.280   4.170
 1655SOL     OW 5863   4.178   4.298   5.314
 1655SOL    HW1 5864   4.124   4.360   5.371
 1655SOL    HW2 5865   4.212   4.348   5.234
 1656SOL     OW 5866   6.746   3.147   2.506
 1656SOL    HW1 5867   6.651   3.120   2.490
 1656SOL    HW2 5868   6.759   3.165   2.603
 1657SOL     OW 5869   0.531   0.490   5.940
 1657SOL    HW1 5870   0.565   0.436   5.863
 1657SOL    HW2 5871   0.605   0.547   5.976
 1658SOL     OW 5872   5.799   6.683   3.482
 1658SOL    HW1 5873   5.792   6.782   3.482
 1658SOL    HW2 5874   5.764   6.647   3.569
 1659SOL     OW 5875   6.241   3.017   6.105
 1659SOL    HW1 5876   6.168   2.989   6.167
 1659SOL    HW2 5877   6.328   3.015   6.154
 1660SOL     OW 5878   2.316   5.951   3.808
 1660SOL    HW1 5879   2.363   5.871   3.771
 1660SOL    HW2 5880   2.256   5.923   3.882
 1661SOL     OW 5881   2.573   1.112   3.491
 1661SOL    HW1 5882   2.484   1.069   3.474
 1661SOL    HW2 5883   2.560   1.205   3.524
 1662SOL     OW 5884   0.430   1.493   3.826
 1662SOL    HW1 5885   0.471   1.431   3.758
 1662SOL    HW2 5886   0.389   1.439   3.899
 1663SOL     OW 5887   1.122   0.224   3.001
 1663SOL    HW1 5888   1.138   0.280   3.083
 1663SOL    HW2 5889   1.043   0.260   2.951
 1664SOL     OW 5890   1.683   6.015   4.354
 1664SOL    HW1 5891   1.692   6.115   4.359
 1664SOL    HW2 5892   1.773   5.974   4.342
 1665SOL     OW 5893   0.023   1.320   3.959
 1665SOL    HW1 5894   0.028   1.420   3.967
 1665SOL    HW2 5895   0.109   1.285   3.920
 1666SOL     OW 5896   5.795   2.458   0.068
 1666SOL    HW1 5897   5.889   2.426   0.078
 1666SOL    HW2 5898   5.747   2.451   0.155
 1667SOL     OW 5899   6.502   0.048   0.947
 1667SOL    HW1 5900   6.418   0.016   0.991
 1667SOL    HW2 5901   6.525   7.015   0.871
 1668SOL     OW 5902   2.484   0.055   4.780
 1668SOL    HW1 5903   2.533   0.061   4.692
 1668SOL    HW2 5904   2.386   0.066   4.764
 1669SOL     OW 5905   4.958   5.360   6.775
 1669SOL    HW1 5906   4.880   5.299   6.758
 1669SOL    HW2 5907   5.023   5.315   6.836
 1670SOL     OW 5908   6.673   4.108   6.760
 1670SOL    HW1 5909   6.610   4.132   6.687
 1670SOL    HW2 5910   6.625   4.112   6.848
 1671SOL     OW 5911   6.113   4.144   1.548
 1671SOL    HW1 5912   6.142   4.067   1.492
 1671SOL    HW2 5913   6.083   4.112   1.637
 1672SOL     OW 5914   1.977   4.278   3.117
 1672SOL    HW1 5915   1.958   4.255   3.213
 1672SOL    HW2 5916   1.897   4.256   3.062
 1673SOL     OW 5917   6.656   3.668   3.144
 1673SOL    HW1 5918   6.626   3.572   3.140
 1673SOL    HW2 5919   6.622   3.717   3.064
 1674SOL     OW 5920   2.217   6.221   0.423
 1674SOL    HW1 5921   2.303   6.242   0.468
 1674SOL    HW2 5922   2.177   6.304   0.384
 1675SOL     OW 5923   4.983   2.129   6.366
 1675SOL    HW1 5924   4.912   2.142   6.436
 1675SOL    HW2 5925   5.014   2.034   6.368
 1676SOL     OW 5926   2.910   1.318   3.050
 1676SOL    HW1 5927   2.820   1.324   3.006
 1676SOL    HW2 5928   2.921   1.395   3.113
 1677SOL     OW 5929   5.478   6.818   5.673
 1677SOL    HW1 5930   5.547   6.871   5.724
 1677SOL    HW2 5931   5.448   6.740   5.729
 1678SOL     OW 5932   4.303   6.524   1.869
 1678SOL    HW1 5933   4.302   6.543   1.770
 1678SOL    HW2 5934   4.382   6.468   1.891
 1679SOL     OW 5935   6.448   4.445   0.203
 1679SOL    HW1 5936   6.417   4.465   0.296
 1679SOL    HW2 5937   6.545   4.423   0.205
 1680SOL     OW 5938   6.943   2.094   5.829
 1680SOL    HW1 5939   6.969   2.003   5.860
 1680SOL    HW2 5940   6.927   2.153   5.909
 1681SOL     OW 5941   4.498   5.242   1.333
 1681SOL    HW1 5942   4.403   5.239   1.303
 1681SOL    HW2 5943   4.554   5.185   1.272
 1682SOL     OW 5944   0.659   3.728   5.849
 1682SOL    HW1 5945   0.716   3.689   5.776
 1682SOL    HW2 5946   0.660   3.828   5.841
 1683SOL     OW 5947   6.024   5.499   5.355
 1683SOL    HW1 5948   5.927   5.511   5.375
 1683SOL    HW2 5949   6.075   5.578   5.390
 1684SOL     OW 5950   0.626   0.028   4.489
 1684SOL    HW1 5951   0.545   0.081   4.513
 1684SOL    HW2 5952   0.708   0.075   4.521
 1685SOL     OW 5953   1.230   1.938   0.012
 1685SOL    HW1 5954   1.258   2.034   0.012
 1685SOL    HW2 5955   1.148   1.926   6.984
 1686SOL     OW 5956   1.397   0.401   6.248
 1686SOL    HW1 5957   1.340   0.379   6.328
 1686SOL    HW2 5958   1.430   0.316   6.207
 1687SOL     OW 5959   2.629   0.039   2.619
 1687SOL    HW1 5960   2.667   6.975   2.604
 1687SOL    HW2 5961   2.627   0.059   2.717
 1688SOL     OW 5962   0.027   1.564   2.825
 1688SOL    HW1 5963   0.093   1.631   2.790
 1688SOL    HW2 5964   6.964   1.606   2.832
 1689SOL     OW 5965   2.176   2.052   1.691
 1689SOL    HW1 5966   2.218   2.121   1.750
 1689SOL    HW2 5967   2.076   2.063   1.692
 1690SOL     OW 5968   1.286   1.675   0.054
 1690SOL    HW1 5969   1.200   1.633   0.082
 1690SOL    HW2 5970   1.277   1.774   0.055
 1691SOL     OW 5971   4.726   4.258   3.698
 1691SOL    HW1 5972   4.756   4.184   3.758
 1691SOL    HW2 5973   4.761   4.346   3.732
 1692SOL     OW 5974   0.826   6.240   3.891
 1692SOL    HW1 5975   0.767   6.224   3.970
 1692SOL    HW2 5976   0.791   6.190   3.812
 1693SOL     OW 5977   3.807   2.138   4.170
 1693SOL    HW1 5978   3.856   2.187   4.097
 1693SOL    HW2 5979   3.748   2.068   4.129
 1694SOL     OW 5980   6.505   6.295   5.360
 1694SOL    HW1 5981   6.543   6.221   5.414
 1694SOL    HW2 5982   6.514   6.381   5.411
 1695SOL     OW 5983   3.964   1.547   6.471
 1695SOL    HW1 5984   3.869   1.518   6.487
 1695SOL    HW2 5985   4.018   1.469   6.440
 1696SOL     OW 5986   3.688   5.657   2.135
 1696SOL    HW1 5987   3.764   5.599   2.105
 1696SOL    HW2 5988   3.674   5.644   2.234
 1697SOL     OW 5989   1.527   1.757   1.795
 1697SOL    HW1 5990   1.582   1.674   1.806
 1697SOL    HW2 5991   1.461   1.744   1.721
 1698SOL     OW 5992   5.074   1.690   6.997
 1698SOL    HW1 5993   5.144   1.644   0.024
 1698SOL    HW2 5994   5.104   1.694   6.901
 1699SOL     OW 5995   2.509   4.881   1.754
 1699SOL    HW1 5996   2.599   4.869   1.796
 1699SOL    HW2 5997   2.449   4.805   1.782
 1700SOL     OW 5998   5.957   3.525   4.867
 1700SOL    HW1 5999   6.054   3.522   4.890
 1700SOL    HW2 6000   5.905   3.564   4.943
 1701SOL     OW 6001   5.532   3.182   4.587
 1701SOL    HW1 6002   5.503   3.091   4.560
 1701SOL    HW2 6003   5.457   3.247   4.573
 1702SOL     OW 6004   5.326   2.109   1.875
 1702SOL    HW1 6005   5.230   2.133   1.859
 1702SOL    HW2 6006   5.365   2.069   1.793
 1703SOL     OW 6007   2.082   3.814   1.497
 1703SOL    HW1 6008   2.177   3.784   1.506
 1703SOL    HW2 6009   2.077   3.891   1.433
 1704SOL     OW 6010   6.082   2.010   1.996
 1704SOL    HW1 6011   6.146   2.016   1.919
 1704SOL    HW2 6012   6.129   2.037   2.080
 1705SOL     OW 6013   3.429   2.663   1.731
 1705SOL    HW1 6014   3.352   2.602   1.714
 1705SOL    HW2 6015   3.398   2.758   1.725
 1706SOL     OW 6016   2.908   0.684   6.388
 1706SOL    HW1 6017   2.853   0.639   6.459
 1706SOL    HW2 6018   2.908   0.783   6.404
 1707SOL     OW 6019   4.741   1.769   2.219
 1707SOL    HW1 6020   4.708   1.757   2.313
 1707SOL    HW2 6021   4.831   1.725   2.210
 1708SOL     OW 6022   0.158   3.884   1.011
 1708SOL    HW1 6023   0.254   3.877   1.039
 1708SOL    HW2 6024   0.145   3.834   0.925
 1709SOL     OW 6025   3.496   5.111   3.721
 1709SOL    HW1 6026   3.484   5.131   3.818
 1709SOL    HW2 6027   3.556   5.179   3.680
 1710SOL     OW 6028   6.481   3.916   4.794
 1710SOL    HW1 6029   6.386   3.940   4.774
 1710SOL    HW2 6030   6.504   3.945   4.887
 1711SOL     OW 6031   0.654   4.621   6.119
 1711SOL    HW1 6032   0.590   4.696   6.104
 1711SOL    HW2 6033   0.707   4.639   6.202
 1712SOL     OW 6034   1.979   4.528   2.124
 1712SOL    HW1 6035   1.921   4.498   2.049
 1712SOL    HW2 6036   1.985   4.455   2.193
 1713SOL     OW 6037   2.111   3.478   0.900
 1713SOL    HW1 6038   2.018   3.472   0.864
 1713SOL    HW2 6039   2.117   3.551   0.967
 1714SOL     OW 6040   4.569   0.832   0.805
 1714SOL    HW1 6041   4.616   0.854   0.720
 1714SOL    HW2 6042   4.628   0.855   0.882
 1715SOL     OW 6043   1.763   3.777   3.590
 1715SOL    HW1 6044   1.745   3.685   3.625
 1715SOL    HW2 6045   1.859   3.801   3.605
 1716SOL     OW 6046   0.236   0.113   0.693
 1716SOL    HW1 6047   0.293   0.072   0.622
 1716SOL    HW2 6048   0.222   0.210   0.673
 1717SOL     OW 6049   3.357   0.819   0.570
 1717SOL    HW1 6050   3.394   0.772   0.490
 1717SOL    HW2 6051   3.275   0.870   0.544
 1718SOL     OW 6052   1.384   3.842   5.598
 1718SOL    HW1 6053   1.366   3.811   5.691
 1718SOL    HW2 6054   1.469   3.896   5.597
 1719SOL     OW 6055   2.450   2.203   0.801
 1719SOL    HW1 6056   2.431   2.219   0.705
 1719SOL    HW2 6057   2.543   2.233   0.823
 1720SOL     OW 6058   6.622   2.161   1.997
 1720SOL    HW1 6059   6.558   2.190   2.069
 1720SOL    HW2 6060   6.581   2.088   1.943
 1721SOL     OW 6061   1.106   5.762   4.303
 1721SOL    HW1 6062   1.136   5.853   4.272
 1721SOL    HW2 6063   1.143   5.744   4.393
 1722SOL     OW 6064   4.494   0.501   1.678
 1722SOL    HW1 6065   4.511   0.548   1.592
 1722SOL    HW2 6066   4.433   0.423   1.662
 1723SOL     OW 6067   5.650   1.452   3.369
 1723SOL    HW1 6068   5.695   1.384   3.311
 1723SOL    HW2 6069   5.709   1.472   3.448
 1724SOL     OW 6070   5.903   6.800   0.096
 1724SOL    HW1 6071   5.997   6.795   0.129
 1724SOL    HW2 6072   5.857   6.714   0.116
 1725SOL     OW 6073   4.486   5.436   2.226
 1725SOL    HW1 6074   4.467   5.516   2.283
 1725SOL    HW2 6075   4.537   5.465   2.145
 1726SOL     OW 6076   6.394   4.711   5.292
 1726SOL    HW1 6077   6.489   4.691   5.316
 1726SOL    HW2 6078   6.336   4.634   5.320
 1727SOL     OW 6079   2.456   4.623   5.975
 1727SOL    HW1 6080   2.402   4.668   5.904
 1727SOL    HW2 6081   2.399   4.609   6.056
 1728SOL     OW 6082   4.903   6.638   3.286
 1728SOL    HW1 6083   4.819   6.612   3.333
 1728SOL    HW2 6084   4.898   6.610   3.190
 1729SOL     OW 6085   6.807   3.362   3.784
 1729SOL    HW1 6086   6.817   3.431   3.713
 1729SOL    HW2 6087   6.760   3.402   3.863
 1730SOL     OW 6088   4.726   2.332   5.011
 1730SOL    HW1 6089   4.825   2.328   5.000
 1730SOL    HW2 6090   4.683   2.333   4.920
 1731SOL     OW 6091   0.813   6.734   6.132
 1731SOL    HW1 6092   0.842   6.652   6.181
 1731SOL    HW2 6093   0.873   6.811   6.156
 1732SOL     OW 6094   1.432   4.399   6.674
 1732SOL    HW1 6095   1.436   4.424   6.577
 1732SOL    HW2 6096   1.422   4.481   6.729
 1733SOL     OW 6097   1.741   4.224   6.168
 1733SOL    HW1 6098   1.645   4.231   6.140
 1733SOL    HW2 6099   1.762   4.129   6.189
 1734SOL     OW 6100   5.182   4.258   0.783
 1734SOL    HW1 6101   5.247   4.191   0.744
 1734SOL    HW2 6102   5.091   4.218   0.785
 1735SOL     OW 6103   4.831   4.859   0.003
 1735SOL    HW1 6104   4.882   4.781   6.994
 1735SOL    HW2 6105   4.858   4.942   6.981
 1736SOL     OW 6106   3.823   3.582   0.528
 1736SOL    HW1 6107   3.888   3.652   0.558
 1736SOL    HW2 6108   3.760   3.561   0.603
 1737SOL     OW 6109   0.915   6.283   2.835
 1737SOL    HW1 6110   0.888   6.355   2.898
 1737SOL    HW2 6111   0.952   6.324   2.752
 1738SOL     OW 6112   0.068   1.375   2.634
 1738SOL    HW1 6113   0.054   1.452   2.697
 1738SOL    HW2 6114   0.143   1.318   2.666
 1739SOL     OW 6115   3.838   1.535   6.966
 1739SOL    HW1 6116   3.750   1.529   6.919
 1739SOL    HW2 6117   3.881   1.623   6.944
 1740SOL     OW 6118   0.811   1.782   6.922
 1740SOL    HW1 6119   0.773   1.769   7.013
 1740SOL    HW2 6120   0.890   1.842   6.927
 1741SOL     OW 6121   0.544   0.552   2.480
 1741SOL    HW1 6122   0.516   0.469   2.431
 1741SOL    HW2 6123   0.621   0.595   2.432
 1742SOL     OW 6124   5.841   5.932   3.399
 1742SOL    HW1 6125   5.858   6.031   3.403
 1742SOL    HW2 6126   5.760   5.910   3.454
 1743SOL     OW 6127   4.193   1.610   6.744
 1743SOL    HW1 6128   4.136   1.531   6.764
 1743SOL    HW2 6129   4.259   1.586   6.673
 1744SOL     OW 6130   4.708   6.649   1.407
 1744SOL    HW1 6131   4.751   6.572   1.359
 1744SOL    HW2 6132   4.612   6.629   1.423
 1745SOL     OW 6133   0.683   1.612   5.305
 1745SOL    HW1 6134   0.774   1.652   5.300
 1745SOL    HW2 6135   0.662   1.563   5.221
 1746SOL     OW 6136   2.841   1.232   0.604
 1746SOL    HW1 6137   2.925   1.286   0.611
 1746SOL    HW2 6138   2.851   1.165   0.530
 1747SOL     OW 6139   4.099   0.405   4.664
 1747SOL    HW1 6140   4.148   0.460   4.732
 1747SOL    HW2 6141   4.026   0.460   4.622
 1748SOL     OW 6142   5.283   0.863   1.161
 1748SOL    HW1 6143   5.224   0.943   1.166
 1748SOL    HW2 6144   5.238   0.790   1.110
 1749SOL     OW 6145   5.546   0.111   6.067
 1749SOL    HW1 6146   5.583   0.114   5.974
 1749SOL    HW2 6147   5.619   0.126   6.133
 1750SOL     OW 6148   3.836   1.051   3.048
 1750SOL    HW1 6149   3.791   0.968   3.016
 1750SOL    HW2 6150   3.859   1.108   2.969
 1751SOL     OW 6151   2.729   5.627   4.470
 1751SOL    HW1 6152   2.702   5.714   4.511
 1751SOL    HW2 6153   2.749   5.640   4.373
 1752SOL     OW 6154   6.580   2.696   6.191
 1752SOL    HW1 6155   6.669   2.651   6.179
 1752SOL    HW2 6156   6.527   2.686   6.107
 1753SOL     OW 6157   1.382   0.308   2.244
 1753SOL    HW1 6158   1.445   0.265   2.179
 1753SOL    HW2 6159   1.347   0.237   2.306
 1754SOL     OW 6160   2.945   3.736   3.099
 1754SOL    HW1 6161   2.941   3.741   2.999
 1754SOL    HW2 6162   2.942   3.640   3.128
 1755SOL     OW 6163   0.355   4.369   6.748
 1755SOL    HW1 6164   0.455   4.371   6.756
 1755SOL    HW2 6165   0.322   4.280   6.778
 1756SOL     OW 6166   5.101   5.603   6.232
 1756SOL    HW1 6167   5.164   5.668   6.274
 1756SOL    HW2 6168   5.133   5.510   6.249
 1757SOL     OW 6169   3.682   0.383   4.735
 1757SOL    HW1 6170   3.586   0.408   4.748
 1757SOL    HW2 6171   3.740   0.447   4.785
 1758SOL     OW 6172   1.994   0.662   2.925
 1758SOL    HW1 6173   2.036   0.589   2.871
 1758SOL    HW2 6174   2.013   0.646   3.022
 1759SOL     OW 6175   6.343   5.455   6.328
 1759SOL    HW1 6176   6.330   5.508   6.412
 1759SOL    HW2 6177   6.392   5.370   6.350
 1760SOL     OW 6178   4.694   6.597   3.434
 1760SOL    HW1 6179   4.617   6.537   3.413
 1760SOL    HW2 6180   4.687   6.629   3.528
 1761SOL     OW 6181   6.315   3.201   0.944
 1761SOL    HW1 6182   6.379   3.273   0.971
 1761SOL    HW2 6183   6.270   3.164   1.024
 1762SOL     OW 6184   6.085   2.556   0.213
 1762SOL    HW1 6185   6.073   2.544   0.115
 1762SOL    HW2 6186   6.122   2.473   0.253
 1763SOL     OW 6187   2.245   2.049   4.588
 1763SOL    HW1 6188   2.281   2.085   4.503
 1763SOL    HW2 6189   2.164   2.102   4.615
 1764SOL     OW 6190   6.789   4.566   3.532
 1764SOL    HW1 6191   6.702   4.596   3.493
 1764SOL    HW2 6192   6.771   4.504   3.609
 1765SOL     OW 6193   2.349   2.618   6.475
 1765SOL    HW1 6194   2.398   2.543   6.432
 1765SOL    HW2 6195   2.388   2.705   6.444
 1766SOL     OW 6196   5.925   4.406   6.137
 1766SOL    HW1 6197   5.946   4.309   6.143
 1766SOL    HW2 6198   5.920   4.433   6.040
 1767SOL     OW 6199   6.772   4.246   1.686
 1767SOL    HW1 6200   6.781   4.152   1.719
 1767SOL    HW2 6201   6.781   4.309   1.763
 1768SOL     OW 6202   6.050   6.975   3.483
 1768SOL    HW1 6203   6.130   6.961   3.425
 1768SOL    HW2 6204   6.077   7.024   3.566
 1769SOL     OW 6205   4.560   0.874   4.113
 1769SOL    HW1 6206   4.511   0.796   4.074
 1769SOL    HW2 6207   4.555   0.871   4.213
 1770SOL     OW 6208   3.429   5.502   5.868
 1770SOL    HW1 6209   3.403   5.433   5.801
 1770SOL    HW2 6210   3.503   5.467   5.925
 1771SOL     OW 6211   5.254   5.403   0.056
 1771SOL    HW1 6212   5.337   5.357   0.088
 1771SOL    HW2 6213   5.270   5.501   0.051
 1772SOL     OW 6214   2.582   5.688   2.183
 1772SOL    HW1 6215   2.578   5.786   2.200
 1772SOL    HW2 6216   2.494   5.657   2.147
 1773SOL     OW 6217   1.888   6.626   0.378
 1773SOL    HW1 6218   1.902   6.655   0.283
 1773SOL    HW2 6219   1.911   6.701   0.439
 1774SOL     OW 6220   2.738   5.648   1.273
 1774SOL    HW1 6221   2.678   5.672   1.350
 1774SOL    HW2 6222   2.709   5.698   1.192
 1775SOL     OW 6223   0.513   5.334   0.289
 1775SOL    HW1 6224   0.527   5.419   0.339
 1775SOL    HW2 6225   0.563   5.260   0.334
 1776SOL     OW 6226   3.379   6.353   5.314
 1776SOL    HW1 6227   3.394   6.409   5.233
 1776SOL    HW2 6228   3.297   6.297   5.302
 1777SOL     OW 6229   4.543   0.206   6.217
 1777SOL    HW1 6230   4.460   0.200   6.273
 1777SOL    HW2 6231   4.601   0.281   6.252
 1778SOL     OW 6232   0.790   3.432   6.068
 1778SOL    HW1 6233   0.773   3.530   6.070
 1778SOL    HW2 6234   0.707   3.383   6.096
 1779SOL     OW 6235   4.349   5.757   4.906
 1779SOL    HW1 6236   4.376   5.826   4.974
 1779SOL    HW2 6237   4.367   5.666   4.942
 1780SOL     OW 6238   4.036   1.963   6.551
 1780SOL    HW1 6239   4.121   1.952   6.602
 1780SOL    HW2 6240   4.038   1.906   6.469
 1781SOL     OW 6241   2.207   6.422   4.265
 1781SOL    HW1 6242   2.162   6.340   4.230
 1781SOL    HW2 6243   2.299   6.399   4.297
 1782SOL     OW 6244   3.280   0.849   5.225
 1782SOL    HW1 6245   3.186   0.881   5.235
 1782SOL    HW2 6246   3.324   0.899   5.150
 1783SOL     OW 6247   2.090   5.641   6.816
 1783SOL    HW1 6248   2.182   5.609   6.795
 1783SOL    HW2 6249   2.025   5.602   6.751
 1784SOL     OW 6250   1.192   6.863   6.120
 1784SOL    HW1 6251   1.147   6.919   6.189
 1784SOL    HW2 6252   1.159   6.889   6.029
 1785SOL     OW 6253   0.195   4.863   2.626
 1785SOL    HW1 6254   0.260   4.792   2.654
 1785SOL    HW2 6255   0.244   4.949   2.612
 1786SOL     OW 6256   4.357   2.358   1.927
 1786SOL    HW1 6257   4.413   2.300   1.868
 1786SOL    HW2 6258   4.407   2.379   2.010
 1787SOL     OW 6259   4.496   0.526   5.238
 1787SOL    HW1 6260   4.473   0.575   5.154
 1787SOL    HW2 6261   4.420   0.532   5.303
 1788SOL     OW 6262   1.554   5.018   5.138
 1788SOL    HW1 6263   1.634   5.073   5.115
 1788SOL    HW2 6264   1.564   4.926   5.100
 1789SOL     OW 6265   5.198   5.992   0.935
 1789SOL    HW1 6266   5.168   5.965   1.026
 1789SOL    HW2 6267   5.127   5.969   0.868
 1790SOL     OW 6268   2.252   6.802   3.293
 1790SOL    HW1 6269   2.153   6.790   3.300
 1790SOL    HW2 6270   2.274   6.840   3.203
 1791SOL     OW 6271   0.939   6.717   2.767
 1791SOL    HW1 6272   1.032   6.718   2.804
 1791SOL    HW2 6273   0.941   6.679   2.675
 1792SOL     OW 6274   0.622   4.155   4.068
 1792SOL    HW1 6275   0.644   4.067   4.111
 1792SOL    HW2 6276   0.655   4.155   3.974
 1793SOL     OW 6277   0.149   0.594   3.826
 1793SOL    HW1 6278   0.192   0.563   3.741
 1793SOL    HW2 6279   0.217   0.640   3.882
 1794SOL     OW 6280   4.708   6.461   6.532
 1794SOL    HW1 6281   4.668   6.391   6.590
 1794SOL    HW2 6282   4.637   6.522   6.499
 1795SOL     OW 6283   0.817   2.888   6.864
 1795SOL    HW1 6284   0.727   2.901   6.907
 1795SOL    HW2 6285   0.883   2.861   6.934
 1796SOL     OW 6286   4.278   0.526   5.435
 1796SOL    HW1 6287   4.200   0.536   5.374
 1796SOL    HW2 6288   4.305   0.430   5.439
 1797SOL     OW 6289   0.184   0.433   2.467
 1797SOL    HW1 6290   0.183   0.524   2.427
 1797SOL    HW2 6291   0.130   0.433   2.551
 1798SOL     OW 6292   6.134   2.145   3.548
 1798SOL    HW1 6293   6.210   2.198   3.586
 1798SOL    HW2 6294   6.170   2.081   3.480
 1799SOL     OW 6295   2.918   6.618   1.308
 1799SOL    HW1 6296   2.913   6.527   1.350
 1799SOL    HW2 6297   2.977   6.677   1.364
 1800SOL     OW 6298   2.803   4.694   2.212
 1800SOL    HW1 6299   2.881   4.675   2.271
 1800SOL    HW2 6300   2.826   4.670   2.118
 1801SOL     OW 6301   5.712   6.237   0.567
 1801SOL    HW1 6302   5.806   6.237   0.604
 1801SOL    HW2 6303   5.669   6.149   0.586
 1802SOL     OW 6304   5.478   5.319   4.244
 1802SOL    HW1 6305   5.529   5.402   4.220
 1802SOL    HW2 6306   5.380   5.340   4.247
 1803SOL     OW 6307   6.157   4.837   0.549
 1803SOL    HW1 6308   6.146   4.787   0.635
 1803SOL    HW2 6309   6.247   4.819   0.510
 1804SOL     OW 6310   2.923   4.048   6.358
 1804SOL    HW1 6311   2.872   4.119   6.311
 1804SOL    HW2 6312   2.860   3.982   6.398
 1805SOL     OW 6313   6.872   2.355   6.883
 1805SOL    HW1 6314   6.903   2.368   6.977
 1805SOL    HW2 6315   6.902   2.431   6.827
 1806SOL     OW 6316   6.913   6.627   0.325
 1806SOL    HW1 6317   6.899   6.648   0.422
 1806SOL    HW2 6318   6.865   6.542   0.302
 1807SOL     OW 6319   6.704   1.866   5.801
 1807SOL    HW1 6320   6.609   1.835   5.805
 1807SOL    HW2 6321   6.755   1.830   5.879
 1808SOL     OW 6322   2.283   4.729   4.686
 1808SOL    HW1 6323   2.223   4.723   4.606
 1808SOL    HW2 6324   2.376   4.702   4.660
 1809SOL     OW 6325   4.047   0.266   5.884
 1809SOL    HW1 6326   4.060   0.202   5.960
 1809SOL    HW2 6327   4.045   0.360   5.920
 1810SOL     OW 6328   3.975   6.334   4.001
 1810SOL    HW1 6329   4.017   6.243   3.994
 1810SOL    HW2 6330   4.031   6.400   3.952
 1811SOL     OW 6331   4.382   5.037   2.908
 1811SOL    HW1 6332   4.406   5.032   3.005
 1811SOL    HW2 6333   4.443   4.977   2.856
 1812SOL     OW 6334   4.619   4.692   5.051
 1812SOL    HW1 6335   4.586   4.667   4.960
 1812SOL    HW2 6336   4.601   4.789   5.067
 1813SOL     OW 6337   0.229   6.329   5.087
 1813SOL    HW1 6338   0.155   6.384   5.050
 1813SOL    HW2 6339   0.268   6.374   5.167
 1814SOL     OW 6340   4.050   6.765   2.639
 1814SOL    HW1 6341   4.101   6.683   2.664
 1814SOL    HW2 6342   4.113   6.833   2.602
 1815SOL     OW 6343   0.258   0.935   2.891
 1815SOL    HW1 6344   0.341   0.988   2.875
 1815SOL    HW2 6345   0.179   0.997   2.898
 1816SOL     OW 6346   1.390   5.441   0.740
 1816SOL    HW1 6347   1.318   5.466   0.674
 1816SOL    HW2 6348   1.460   5.386   0.693
 1817SOL     OW 6349   1.022   4.319   1.751
 1817SOL    HW1 6350   1.106   4.282   1.712
 1817SOL    HW2 6351   0.993   4.399   1.700
 1818SOL     OW 6352   0.247   2.138   3.206
 1818SOL    HW1 6353   0.155   2.163   3.237
 1818SOL    HW2 6354   0.249   2.135   3.106
 1819SOL     OW 6355   1.697   4.000   2.442
 1819SOL    HW1 6356   1.780   4.037   2.398
 1819SOL    HW2 6357   1.657   4.070   2.501
 1820SOL     OW 6358   5.531   6.642   2.410
 1820SOL    HW1 6359   5.597   6.640   2.485
 1820SOL    HW2 6360   5.553   6.572   2.343
 1821SOL     OW 6361   1.954   2.094   3.545
 1821SOL    HW1 6362   1.864   2.079   3.505
 1821SOL    HW2 6363   1.957   2.055   3.637
 1822SOL     OW 6364   3.537   3.408   2.469
 1822SOL    HW1 6365   3.509   3.442   2.559
 1822SOL    HW2 6366   3.635   3.392   2.468
 1823SOL     OW 6367   3.635   6.666   2.653
 1823SOL    HW1 6368   3.645   6.756   2.695
 1823SOL    HW2 6369   3.607   6.676   2.558
 1824SOL     OW 6370   4.673   1.411   2.088
 1824SOL    HW1 6371   4.768   1.438   2.075
 1824SOL    HW2 6372   4.613   1.488   2.065
 1825SOL     OW 6373   0.362   0.218   1.233
 1825SOL    HW1 6374   0.274   0.193   1.271
 1825SOL    HW2 6375   0.404   0.138   1.189
 1826SOL     OW 6376   2.451   5.367   6.167
 1826SOL    HW1 6377   2.461   5.289   6.230
 1826SOL    HW2 6378   2.401   5.338   6.086
 1827SOL     OW 6379   5.374   0.494   0.585
 1827SOL    HW1 6380   5.403   0.565   0.650
 1827SOL    HW2 6381   5.287   0.455   0.615
 1828SOL     OW 6382   3.128   2.858   0.114
 1828SOL    HW1 6383   3.158   2.952   0.099
 1828SOL    HW2 6384   3.129   2.809   0.027
 1829SOL     OW 6385   5.603   5.535   2.714
 1829SOL    HW1 6386   5.509   5.503   2.701
 1829SOL    HW2 6387   5.604   5.609   2.781
 1830SOL     OW 6388   4.614   0.783   4.518
 1830SOL    HW1 6389   4.613   0.867   4.463
 1830SOL    HW2 6390   4.564   0.711   4.470
 1831SOL     OW 6391   4.763   0.895   2.968
 1831SOL    HW1 6392   4.697   0.962   2.934
 1831SOL    HW2 6393   4.854   0.916   2.932
 1832SOL     OW 6394   6.458   2.828   6.448
 1832SOL    HW1 6395   6.512   2.751   6.414
 1832SOL    HW2 6396   6.484   2.911   6.397
 1833SOL     OW 6397   5.950   1.989   6.035
 1833SOL    HW1 6398   5.978   2.050   5.960
 1833SOL    HW2 6399   6.021   1.920   6.050
 1834SOL     OW 6400   2.258   4.593   0.101
 1834SOL    HW1 6401   2.326   4.664   0.086
 1834SOL    HW2 6402   2.304   4.506   0.120
 1835SOL     OW 6403   2.264   4.724   0.524
 1835SOL    HW1 6404   2.261   4.751   0.620
 1835SOL    HW2 6405   2.187   4.664   0.504
 1836SOL     OW 6406   0.697   6.264   0.555
 1836SOL    HW1 6407   0.621   6.308   0.604
 1836SOL    HW2 6408   0.689   6.165   0.563
 1837SOL     OW 6409   0.051   3.395   4.152
 1837SOL    HW1 6410   0.058   3.470   4.087
 1837SOL    HW2 6411   0.065   3.429   4.245
 1838SOL     OW 6412   1.013   3.444   4.443
 1838SOL    HW1 6413   0.954   3.366   4.420
 1838SOL    HW2 6414   1.087   3.414   4.502
 1839SOL     OW 6415   1.750   1.607   6.787
 1839SOL    HW1 6416   1.803   1.630   6.705
 1839SOL    HW2 6417   1.770   1.513   6.814
 1840SOL     OW 6418   1.276   5.530   1.326
 1840SOL    HW1 6419   1.323   5.506   1.411
 1840SOL    HW2 6420   1.177   5.529   1.342
 1841SOL     OW 6421   2.297   2.525   3.928
 1841SOL    HW1 6422   2.339   2.526   3.837
 1841SOL    HW2 6423   2.296   2.618   3.965
 1842SOL     OW 6424   1.938   5.868   6.382
 1842SOL    HW1 6425   2.025   5.918   6.375
 1842SOL    HW2 6426   1.888   5.899   6.462
 1843SOL     OW 6427   5.258   2.187   5.704
 1843SOL    HW1 6428   5.199   2.259   5.667
 1843SOL    HW2 6429   5.347   2.190   5.659
 1844SOL     OW 6430   5.527   5.183   3.840
 1844SOL    HW1 6431   5.599   5.251   3.834
 1844SOL    HW2 6432   5.566   5.094   3.862
 1845SOL     OW 6433   5.662   6.265   1.037
 1845SOL    HW1 6434   5.590   6.328   1.066
 1845SOL    HW2 6435   5.620   6.184   0.996
 1846SOL     OW 6436   3.696   0.938   5.912
 1846SOL    HW1 6437   3.611   0.967   5.957
 1846SOL    HW2 6438   3.682   0.932   5.814
 1847SOL     OW 6439   1.336   5.842   6.495
 1847SOL    HW1 6440   1.236   5.843   6.508
 1847SOL    HW2 6441   1.356   5.828   6.398
 1848SOL     OW 6442   2.336   1.625   3.997
 1848SOL    HW1 6443   2.295   1.579   3.917
 1848SOL    HW2 6444   2.435   1.621   3.989
 1849SOL     OW 6445   2.756   1.247   5.255
 1849SOL    HW1 6446   2.744   1.168   5.195
 1849SOL    HW2 6447   2.830   1.230   5.319
 1850SOL     OW 6448   4.504   2.643   1.274
 1850SOL    HW1 6449   4.599   2.617   1.289
 1850SOL    HW2 6450   4.446   2.598   1.342
 1851SOL     OW 6451   6.317   4.648   2.778
 1851SOL    HW1 6452   6.327   4.616   2.683
 1851SOL    HW2 6453   6.290   4.571   2.836
 1852SOL     OW 6454   5.514   1.888   6.101
 1852SOL    HW1 6455   5.560   1.959   6.153
 1852SOL    HW2 6456   5.557   1.799   6.121
 1853SOL     OW 6457   1.632   5.195   0.293
 1853SOL    HW1 6458   1.728   5.175   0.271
 1853SOL    HW2 6459   1.592   5.116   0.339
 1854SOL     OW 6460   2.772   5.276   4.445
 1854SOL    HW1 6461   2.775   5.177   4.459
 1854SOL    HW2 6462   2.700   5.316   4.502
 1855SOL     OW 6463   6.469   4.528   1.740
 1855SOL    HW1 6464   6.378   4.497   1.713
 1855SOL    HW2 6465   6.532   4.518   1.663
 1856SOL     OW 6466   5.123   2.848   0.257
 1856SOL    HW1 6467   5.205   2.830   0.311
 1856SOL    HW2 6468   5.096   2.944   0.268
 1857SOL     OW 6469   5.381   1.918   3.748
 1857SOL    HW1 6470   5.302   1.866   3.782
 1857SOL    HW2 6471   5.443   1.857   3.699
 1858SOL     OW 6472   5.908   3.655   2.038
 1858SOL    HW1 6473   5.859   3.587   2.092
 1858SOL    HW2 6474   5.868   3.745   2.053
 1859SOL     OW 6475   5.879   2.284   4.350
 1859SOL    HW1 6476   5.898   2.280   4.252
 1859SOL    HW2 6477   5.837   2.198   4.380
 1860SOL     OW 6478   3.855   2.154   4.873
 1860SOL    HW1 6479   3.764   2.148   4.913
 1860SOL    HW2 6480   3.852   2.120   4.779
 1861SOL     OW 6481   4.547   6.946   1.785
 1861SOL    HW1 6482   4.506   6.960   1.875
 1861SOL    HW2 6483   4.627   6.887   1.793
 1862SOL     OW 6484   3.039   2.890   1.236
 1862SOL    HW1 6485   3.008   2.923   1.325
 1862SOL    HW2 6486   3.129   2.848   1.246
 1863SOL     OW 6487   1.783   1.627   1.250
 1863SOL    HW1 6488   1.819   1.695   1.314
 1863SOL    HW2 6489   1.836   1.543   1.256
 1864SOL     OW 6490   6.892   6.607   3.181
 1864SOL    HW1 6491   6.827   6.561   3.241
 1864SOL    HW2 6492   6.986   6.585   3.210
 1865SOL     OW 6493   5.971   3.167   7.009
 1865SOL    HW1 6494   5.965   3.087   0.042
 1865SOL    HW2 6495   6.061   3.168   6.966
 1866SOL     OW 6496   6.370   5.778   1.736
 1866SOL    HW1 6497   6.279   5.806   1.766
 1866SOL    HW2 6498   6.361   5.713   1.660
 1867SOL     OW 6499   1.359   3.937   6.605
 1867SOL    HW1 6500   1.415   3.961   6.526
 1867SOL    HW2 6501   1.307   4.017   6.634
 1868SOL     OW 6502   6.740   4.252   5.637
 1868SOL    HW1 6503   6.777   4.345   5.640
 1868SOL    HW2 6504   6.792   4.194   5.700
 1869SOL     OW 6505   5.867   1.313   5.107
 1869SOL    HW1 6506   5.780   1.294   5.063
 1869SOL    HW2 6507   5.938   1.326   5.038
 1870SOL     OW 6508   1.447   3.471   5.144
 1870SOL    HW1 6509   1.387   3.544   5.177
 1870SOL    HW2 6510   1.542   3.499   5.155
 1871SOL     OW 6511   1.998   1.424   0.825
 1871SOL    HW1 6512   1.918   1.460   0.777
 1871SOL    HW2 6513   2.061   1.383   0.759
 1872SOL     OW 6514   1.491   5.148   6.451
 1872SOL    HW1 6515   1.424   5.150   6.377
 1872SOL    HW2 6516   1.580   5.119   6.416
 1873SOL     OW 6517   5.762   6.236   6.199
 1873SOL    HW1 6518   5.814   6.296   6.139
 1873SOL    HW2 6519   5.704   6.292   6.259
 1874SOL     OW 6520   1.112   4.040   2.846
 1874SOL    HW1 6521   1.082   3.974   2.777
 1874SOL    HW2 6522   1.040   4.108   2.860
 1875SOL     OW 6523   0.093   0.205   2.381
 1875SOL    HW1 6524   0.143   0.286   2.414
 1875SOL    HW2 6525   0.052   0.226   2.293
 1876SOL     OW 6526   1.977   6.208   4.240
 1876SOL    HW1 6527   1.986   6.126   4.298
 1876SOL    HW2 6528   2.005   6.186   4.147
 1877SOL     OW 6529   0.129   0.287   4.647
 1877SOL    HW1 6530   0.108   0.350   4.573
 1877SOL    HW2 6531   0.227   0.269   4.649
 1878SOL     OW 6532   6.344   3.632   5.459
 1878SOL    HW1 6533   6.386   3.553   5.502
 1878SOL    HW2 6534   6.371   3.636   5.363
 1879SOL     OW 6535   2.029   5.778   5.083
 1879SOL    HW1 6536   1.982   5.768   4.996
 1879SOL    HW2 6537   2.035   5.875   5.107
 1880SOL     OW 6538   6.964   0.662   3.974
 1880SOL    HW1 6539   6.914   0.737   3.932
 1880SOL    HW2 6540   0.025   0.651   3.929
 1881SOL     OW 6541   0.467   2.350   6.977
 1881SOL    HW1 6542   0.398   2.318   0.014
 1881SOL    HW2 6543   0.425   2.365   6.888
 1882SOL     OW 6544   0.710   5.985   0.038
 1882SOL    HW1 6545   0.663   5.899   0.019
 1882SOL    HW2 6546   0.668   6.029   0.117
 1883SOL     OW 6547   0.209   2.591   4.280
 1883SOL    HW1 6548   0.282   2.573   4.214
 1883SOL    HW2 6549   0.139   2.520   4.273
 1884SOL     OW 6550   5.918   1.602   0.539
 1884SOL    HW1 6551   5.900   1.545   0.459
 1884SOL    HW2 6552   6.015   1.593   0.565
 1885SOL     OW 6553   3.401   1.312   4.751
 1885SOL    HW1 6554   3.301   1.319   4.751
 1885SOL    HW2 6555   3.441   1.404   4.742
 1886SOL     OW 6556   0.680   6.943   3.342
 1886SOL    HW1 6557   0.745   6.959   3.269
 1886SOL    HW2 6558   0.706   6.997   3.423
 1887SOL     OW 6559   2.351   5.190   6.431
 1887SOL    HW1 6560   2.375   5.106   6.382
 1887SOL    HW2 6561   2.405   5.196   6.515
 1888SOL     OW 6562   2.150   0.173   3.414
 1888SOL    HW1 6563   2.231   0.130   3.376
 1888SOL    HW2 6564   2.125   0.127   3.500
 1889SOL     OW 6565   0.453   3.545   2.795
 1889SOL    HW1 6566   0.495   3.455   2.807
 1889SOL    HW2 6567   0.507   3.599   2.731
 1890SOL     OW 6568   2.279   5.440   4.587
 1890SOL    HW1 6569   2.222   5.469   4.664
 1890SOL    HW2 6570   2.220   5.405   4.514
 1891SOL     OW 6571   3.790   3.733   4.639
 1891SOL    HW1 6572   3.872   3.790   4.638
 1891SOL    HW2 6573   3.795   3.665   4.566
 1892SOL     OW 6574   6.584   0.797   2.670
 1892SOL    HW1 6575   6.671   0.839   2.694
 1892SOL    HW2 6576   6.580   0.782   2.571
 1893SOL     OW 6577   3.312   3.751   3.613
 1893SOL    HW1 6578   3.308   3.652   3.624
 1893SOL    HW2 6579   3.388   3.788   3.667
 1894SOL     OW 6580   2.520   2.730   5.836
 1894SOL    HW1 6581   2.537   2.691   5.746
 1894SOL    HW2 6582   2.596   2.790   5.861
 1895SOL     OW 6583   1.014   6.281   1.610
 1895SOL    HW1 6584   1.015   6.212   1.683
 1895SOL    HW2 6585   0.997   6.236   1.522
 1896SOL     OW 6586   6.553   2.638   0.927
 1896SOL    HW1 6587   6.484   2.616   0.996
 1896SOL    HW2 6588   6.611   2.559   0.911
 1897SOL     OW 6589   2.558   4.534   3.106
 1897SOL    HW1 6590   2.589   4.620   3.146
 1897SOL    HW2 6591   2.492   4.491   3.167
 1898SOL     OW 6592   1.638   5.996   1.943
 1898SOL    HW1 6593   1.579   5.981   1.864
 1898SOL    HW2 6594   1.603   6.073   1.997
 1899SOL     OW 6595   6.892   0.785   2.198
 1899SOL    HW1 6596   6.955   0.731   2.253
 1899SOL    HW2 6597   6.807   0.734   2.184
 1900SOL     OW 6598   2.913   5.899   6.190
 1900SOL    HW1 6599   2.975   5.831   6.230
 1900SOL    HW2 6600   2.907   5.978   6.250
 1901SOL     OW 6601   3.915   3.047   2.619
 1901SOL    HW1 6602   3.980   3.084   2.552
 1901SOL    HW2 6603   3.849   2.989   2.572
 1902SOL     OW 6604   1.377   6.914   5.336
 1902SOL    HW1 6605   1.405   6.979   5.266
 1902SOL    HW2 6606   1.409   6.822   5.311
 1903SOL     OW 6607   0.233   2.476   4.548
 1903SOL    HW1 6608   0.190   2.511   4.465
 1903SOL    HW2 6609   0.183   2.394   4.578
 1904SOL     OW 6610   5.700   6.147   2.300
 1904SOL    HW1 6611   5.794   6.122   2.275
 1904SOL    HW2 6612   5.660   6.073   2.354
 1905SOL     OW 6613   0.488   2.474   2.922
 1905SOL    HW1 6614   0.456   2.452   2.830
 1905SOL    HW2 6615   0.498   2.573   2.932
 1906SOL     OW 6616   0.627   6.204   3.435
 1906SOL    HW1 6617   0.623   6.303   3.417
 1906SOL    HW2 6618   0.538   6.172   3.465
 1907SOL     OW 6619   6.413   2.865   0.584
 1907SOL    HW1 6620   6.467   2.888   0.503
 1907SOL    HW2 6621   6.432   2.930   0.657
 1908SOL     OW 6622   4.578   0.560   1.444
 1908SOL    HW1 6623   4.600   0.464   1.459
 1908SOL    HW2 6624   4.598   0.584   1.349
 1909SOL     OW 6625   6.278   5.616   4.756
 1909SOL    HW1 6626   6.198   5.558   4.760
 1909SOL    HW2 6627   6.361   5.559   4.757
 1910SOL     OW 6628   0.470   6.487   4.419
 1910SOL    HW1 6629   0.499   6.574   4.460
 1910SOL    HW2 6630   0.548   6.426   4.411
 1911SOL     OW 6631   5.626   6.139   4.092
 1911SOL    HW1 6632   5.620   6.170   3.997
 1911SOL    HW2 6633   5.669   6.210   4.147
 1912SOL     OW 6634   3.724   4.912   2.323
 1912SOL    HW1 6635   3.810   4.921   2.374
 1912SOL    HW2 6636   3.684   4.822   2.343
 1913SOL     OW 6637   2.850   4.436   6.828
 1913SOL    HW1 6638   2.897   4.520   6.801
 1913SOL    HW2 6639   2.881   4.361   6.770
 1914SOL     OW 6640   4.427   4.925   0.320
 1914SOL    HW1 6641   4.456   4.870   0.241
 1914SOL    HW2 6642   4.350   4.983   0.294
 1915SOL     OW 6643   4.556   1.524   6.808
 1915SOL    HW1 6644   4.523   1.581   6.884
 1915SOL    HW2 6645   4.511   1.552   6.723
 1916SOL     OW 6646   3.591   1.412   2.952
 1916SOL    HW1 6647   3.609   1.323   2.995
 1916SOL    HW2 6648   3.509   1.452   2.991
 1917SOL     OW 6649   2.797   3.987   1.620
 1917SOL    HW1 6650   2.858   3.946   1.553
 1917SOL    HW2 6651   2.706   3.998   1.580
 1918SOL     OW 6652   4.883   3.644   3.981
 1918SOL    HW1 6653   4.851   3.716   3.919
 1918SOL    HW2 6654   4.900   3.561   3.929
 1919SOL     OW 6655   6.252   0.392   6.652
 1919SOL    HW1 6656   6.328   0.384   6.588
 1919SOL    HW2 6657   6.167   0.366   6.606
 1920SOL     OW 6658   4.732   3.169   0.571
 1920SOL    HW1 6659   4.689   3.169   0.481
 1920SOL    HW2 6660   4.830   3.186   0.561
 1921SOL     OW 6661   2.636   2.041   6.905
 1921SOL    HW1 6662   2.616   1.949   6.937
 1921SOL    HW2 6663   2.561   2.102   6.930
 1922SOL     OW 6664   3.750   3.586   4.422
 1922SOL    HW1 6665   3.762   3.527   4.342
 1922SOL    HW2 6666   3.662   3.565   4.465
 1923SOL     OW 6667   3.042   0.260   4.279
 1923SOL    HW1 6668   3.014   0.352   4.252
 1923SOL    HW2 6669   3.068   0.208   4.198
 1924SOL     OW 6670   4.813   1.358   1.227
 1924SOL    HW1 6671   4.856   1.295   1.291
 1924SOL    HW2 6672   4.733   1.315   1.186
 1925SOL     OW 6673   1.107   4.232   0.880
 1925SOL    HW1 6674   1.093   4.152   0.939
 1925SOL    HW2 6675   1.196   4.273   0.900
 1926SOL     OW 6676   2.549   6.726   1.662
 1926SOL    HW1 6677   2.631   6.764   1.705
 1926SOL    HW2 6678   2.572   6.692   1.571
 1927SOL     OW 6679   2.020   4.927   1.395
 1927SOL    HW1 6680   2.023   5.025   1.376
 1927SOL    HW2 6681   2.093   4.881   1.344
 1928SOL     OW 6682   1.395   4.014   2.556
 1928SOL    HW1 6683   1.366   4.014   2.461
 1928SOL    HW2 6684   1.464   4.086   2.570
 1929SOL     OW 6685   3.204   0.586   3.486
 1929SOL    HW1 6686   3.199   0.638   3.571
 1929SOL    HW2 6687   3.132   0.618   3.423
 1930SOL     OW 6688   3.194   3.827   7.025
 1930SOL    HW1 6689   3.095   3.815   7.025
 1930SOL    HW2 6690   3.237   3.755   0.052
 1931SOL     OW 6691   5.698   3.465   3.313
 1931SOL    HW1 6692   5.685   3.381   3.259
 1931SOL    HW2 6693   5.763   3.448   3.387
 1932SOL     OW 6694   4.525   1.191   1.949
 1932SOL    HW1 6695   4.555   1.261   2.015
 1932SOL    HW2 6696   4.438   1.220   1.908
 1933SOL     OW 6697   1.829   1.114   0.610
 1933SOL    HW1 6698   1.782   1.194   0.647
 1933SOL    HW2 6699   1.763   1.056   0.562
 1934SOL     OW 6700   6.154   0.413   0.026
 1934SOL    HW1 6701   6.240   0.433   0.073
 1934SOL    HW2 6702   6.103   0.499   0.013
 1935SOL     OW 6703   5.526   5.565   3.357
 1935SOL    HW1 6704   5.463   5.642   3.371
 1935SOL    HW2 6705   5.507   5.494   3.425
 1936SOL     OW 6706   6.112   2.976   6.343
 1936SOL    HW1 6707   6.140   2.919   6.420
 1936SOL    HW2 6708   6.048   3.046   6.374
 1937SOL     OW 6709   1.016   5.525   6.766
 1937SOL    HW1 6710   1.082   5.455   6.792
 1937SOL    HW2 6711   1.062   5.613   6.753
 1938SOL     OW 6712   6.725   0.930   6.728
 1938SOL    HW1 6713   6.635   0.972   6.736
 1938SOL    HW2 6714   6.741   0.903   6.633
 1939SOL     OW 6715   0.293   0.642   4.075
 1939SOL    HW1 6716   0.337   0.730   4.059
 1939SOL    HW2 6717   0.355   0.582   4.125
 1940SOL     OW 6718   0.870   5.366   2.498
 1940SOL    HW1 6719   0.928   5.447   2.497
 1940SOL    HW2 6720   0.918   5.292   2.546
 1941SOL     OW 6721   6.364   1.132   3.717
 1941SOL    HW1 6722   6.353   1.191   3.637
 1941SOL    HW2 6723   6.407   1.046   3.689
 1942SOL     OW 6724   1.086   6.608   1.398
 1942SOL    HW1 6725   1.033   6.531   1.362
 1942SOL    HW2 6726   1.062   6.624   1.493
 1943SOL     OW 6727   0.986   4.020   3.503
 1943SOL    HW1 6728   1.053   3.980   3.440
 1943SOL    HW2 6729   0.911   3.956   3.519
 1944SOL     OW 6730   0.159   3.925   3.851
 1944SOL    HW1 6731   0.173   4.023   3.839
 1944SOL    HW2 6732   0.245   3.883   3.882
 1945SOL     OW 6733   4.485   1.772   2.163
 1945SOL    HW1 6734   4.583   1.778   2.185
 1945SOL    HW2 6735   4.457   1.856   2.117
 1946SOL     OW 6736   6.294   4.828   6.808
 1946SOL    HW1 6737   6.299   4.857   6.904
 1946SOL    HW2 6738   6.217   4.874   6.763
 1947SOL     OW 6739   5.232   6.192   2.392
 1947SOL    HW1 6740   5.298   6.237   2.452
 1947SOL    HW2 6741   5.271   6.181   2.301
 1948SOL     OW 6742   4.801   3.052   2.766
 1948SOL    HW1 6743   4.820   3.124   2.699
 1948SOL    HW2 6744   4.794   3.093   2.857
 1949SOL     OW 6745   3.018   4.418   6.271
 1949SOL    HW1 6746   2.925   4.406   6.235
 1949SOL    HW2 6747   3.014   4.427   6.370
 1950SOL     OW 6748   3.929   3.064   4.520
 1950SOL    HW1 6749   3.949   3.075   4.423
 1950SOL    HW2 6750   3.843   3.014   4.531
 1951SOL     OW 6751   1.101   5.271   6.076
 1951SOL    HW1 6752   1.019   5.219   6.052
 1951SOL    HW2 6753   1.149   5.299   5.992
 1952SOL     OW 6754   5.651   3.622   6.818
 1952SOL    HW1 6755   5.737   3.673   6.814
 1952SOL    HW2 6756   5.574   3.685   6.819
 1953SOL     OW 6757   6.860   1.063   6.245
 1953SOL    HW1 6758   6.937   1.034   6.188
 1953SOL    HW2 6759   6.894   1.110   6.326
 1954SOL     OW 6760   3.977   6.484   3.207
 1954SOL    HW1 6761   4.056   6.429   3.180
 1954SOL    HW2 6762   4.007   6.574   3.239
 1955SOL     OW 6763   0.394   3.547   3.938
 1955SOL    HW1 6764   0.479   3.596   3.922
 1955SOL    HW2 6765   0.411   3.449   3.939
 1956SOL     OW 6766   4.610   1.256   1.467
 1956SOL    HW1 6767   4.575   1.323   1.534
 1956SOL    HW2 6768   4.536   1.230   1.405
 1957SOL     OW 6769   0.734   3.421   4.571
 1957SOL    HW1 6770   0.785   3.337   4.555
 1957SOL    HW2 6771   0.766   3.464   4.655
 1958SOL     OW 6772   5.482   1.582   0.594
 1958SOL    HW1 6773   5.495   1.525   0.513
 1958SOL    HW2 6774   5.392   1.625   0.590
 1959SOL     OW 6775   1.692   1.270   6.242
 1959SOL    HW1 6776   1.692   1.286   6.341
 1959SOL    HW2 6777   1.718   1.175   6.224
 1960SOL     OW 6778   4.779   4.090   2.257
 1960SOL    HW1 6779   4.795   4.185   2.231
 1960SOL    HW2 6780   4.680   4.073   2.261
 1961SOL     OW 6781   6.700   3.677   4.394
 1961SOL    HW1 6782   6.675   3.597   4.448
 1961SOL    HW2 6783   6.693   3.759   4.451
 1962SOL     OW 6784   0.283   0.019   2.376
 1962SOL    HW1 6785   0.222   0.096   2.389
 1962SOL    HW2 6786   0.272   7.008   2.284
 1963SOL     OW 6787   0.828   1.211   6.428
 1963SOL    HW1 6788   0.888   1.268   6.485
 1963SOL    HW2 6789   0.733   1.234   6.446
 1964SOL     OW 6790   5.408   3.082   0.666
 1964SOL    HW1 6791   5.404   3.159   0.730
 1964SOL    HW2 6792   5.503   3.056   0.652
 1965SOL     OW 6793   5.748   5.003   5.137
 1965SOL    HW1 6794   5.825   5.061   5.113
 1965SOL    HW2 6795   5.664   5.042   5.098
 1966SOL     OW 6796   1.514   4.898   6.824
 1966SOL    HW1 6797   1.563   4.961   6.884
 1966SOL    HW2 6798   1.463   4.950   6.755
 1967SOL     OW 6799   6.136   2.874   4.119
 1967SOL    HW1 6800   6.230   2.849   4.096
 1967SOL    HW2 6801   6.133   2.912   4.212
 1968SOL     OW 6802   2.956   1.868   5.500
 1968SOL    HW1 6803   2.871   1.843   5.546
 1968SOL    HW2 6804   2.938   1.938   5.431
 1969SOL     OW 6805   0.570   6.565   1.873
 1969SOL    HW1 6806   0.483   6.555   1.921
 1969SOL    HW2 6807   0.609   6.474   1.856
 1970SOL     OW 6808   5.313   4.248   2.450
 1970SOL    HW1 6809   5.240   4.243   2.382
 1970SOL    HW2 6810   5.394   4.290   2.409
 1971SOL     OW 6811   1.437   5.919   4.368
 1971SOL    HW1 6812   1.532   5.950   4.367
 1971SOL    HW2 6813   1.406   5.902   4.274
 1972SOL     OW 6814   5.431   2.321   3.628
 1972SOL    HW1 6815   5.525   2.343   3.603
 1972SOL    HW2 6816   5.372   2.401   3.615
 1973SOL     OW 6817   4.676   2.015   6.919
 1973SOL    HW1 6818   4.738   1.943   6.950
 1973SOL    HW2 6819   4.677   2.090   6.985
 1974SOL     OW 6820   2.342   6.180   4.371
 1974SOL    HW1 6821   2.301   6.227   4.449
 1974SOL    HW2 6822   2.402   6.243   4.321
 1975SOL     OW 6823   1.607   2.084   2.428
 1975SOL    HW1 6824   1.592   2.149   2.353
 1975SOL    HW2 6825   1.698   2.098   2.466
 1976SOL     OW 6826   2.559   0.508   4.755
 1976SOL    HW1 6827   2.641   0.561   4.777
 1976SOL    HW2 6828   2.560   0.422   4.807
 1977SOL     OW 6829   1.147   4.462   0.445
 1977SOL    HW1 6830   1.108   4.475   0.536
 1977SOL    HW2 6831   1.074   4.448   0.379
 1978SOL     OW 6832   2.820   0.703   2.126
 1978SOL    HW1 6833   2.767   0.788   2.125
 1978SOL    HW2 6834   2.757   0.625   2.127
 1979SOL     OW 6835   5.445   2.616   6.727
 1979SOL    HW1 6836   5.350   2.624   6.695
 1979SOL    HW2 6837   5.472   2.700   6.773
 1980SOL     OW 6838   4.364   6.949   1.060
 1980SOL    HW1 6839   4.311   7.023   1.100
 1980SOL    HW2 6840   4.459   6.956   1.089
 1981SOL     OW 6841   4.358   2.700   1.698
 1981SOL    HW1 6842   4.425   2.767   1.664
 1981SOL    HW2 6843   4.406   2.625   1.743
 1982SOL     OW 6844   3.103   1.914   6.288
 1982SOL    HW1 6845   3.065   1.917   6.196
 1982SOL    HW2 6846   3.201   1.930   6.284
 1983SOL     OW 6847   0.077   2.114   0.340
 1983SOL    HW1 6848   0.072   2.014   0.338
 1983SOL    HW2 6849   0.031   2.148   0.422
 1984SOL     OW 6850   4.518   3.411   6.157
 1984SOL    HW1 6851   4.520   3.511   6.148
 1984SOL    HW2 6852   4.476   3.387   6.245
 1985SOL     OW 6853   5.058   5.650   5.200
 1985SOL    HW1 6854   5.108   5.609   5.124
 1985SOL    HW2 6855   4.982   5.591   5.225
 1986SOL     OW 6856   3.273   3.291   3.499
 1986SOL    HW1 6857   3.221   3.273   3.415
 1986SOL    HW2 6858   3.367   3.260   3.487
 1987SOL     OW 6859   1.402   2.346   1.695
 1987SOL    HW1 6860   1.392   2.335   1.596
 1987SOL    HW2 6861   1.313   2.363   1.736
 1988SOL     OW 6862   0.868   1.157   1.926
 1988SOL    HW1 6863   0.864   1.233   1.991
 1988SOL    HW2 6864   0.793   1.165   1.861
 1989SOL     OW 6865   3.143   5.005   3.410
 1989SOL    HW1 6866   3.207   5.014   3.334
 1989SOL    HW2 6867   3.145   5.088   3.466
 1990SOL     OW 6868   4.693   0.169   0.505
 1990SOL    HW1 6869   4.684   0.219   0.592
 1990SOL    HW2 6870   4.729   0.078   0.523
 1991SOL     OW 6871   3.059   5.093   2.362
 1991SOL    HW1 6872   3.090   5.134   2.448
 1991SOL    HW2 6873   2.998   5.157   2.315
 1992SOL     OW 6874   0.550   1.097   3.126
 1992SOL    HW1 6875   0.457   1.078   3.158
 1992SOL    HW2 6876   0.562   1.059   3.034
 1993SOL     OW 6877   1.547   0.983   0.913
 1993SOL    HW1 6878   1.580   1.058   0.855
 1993SOL    HW2 6879   1.451   0.964   0.892
 1994SOL     OW 6880   3.038   3.591   1.731
 1994SOL    HW1 6881   2.995   3.677   1.761
 1994SOL    HW2 6882   3.108   3.565   1.797
 1995SOL     OW 6883   6.387   0.792   4.087
 1995SOL    HW1 6884   6.457   0.762   4.022
 1995SOL    HW2 6885   6.339   0.872   4.050
 1996SOL     OW 6886   4.560   0.189   0.977
 1996SOL    HW1 6887   4.546   0.217   1.072
 1996SOL    HW2 6888   4.589   0.093   0.975
 1997SOL     OW 6889   2.874   1.880   2.687
 1997SOL    HW1 6890   2.952   1.937   2.662
 1997SOL    HW2 6891   2.815   1.930   2.751
 1998SOL     OW 6892   2.323   3.594   0.746
 1998SOL    HW1 6893   2.253   3.550   0.802
 1998SOL    HW2 6894   2.398   3.624   0.804
 1999SOL     OW 6895   0.536   0.154   5.495
 1999SOL    HW1 6896   0.505   0.130   5.404
 1999SOL    HW2 6897   0.556   0.071   5.547
 2000SOL     OW 6898   3.963   4.122   6.486
 2000SOL    HW1 6899   3.993   4.067   6.564
 2000SOL    HW2 6900   3.863   4.127   6.486
 2001SOL     OW 6901   1.120   1.200   0.300
 2001SOL    HW1 6902   1.061   1.129   0.261
 2001SOL    HW2 6903   1.087   1.290   0.273
 2002SOL     OW 6904   5.372   5.099   6.761
 2002SOL    HW1 6905   5.360   5.157   6.681
 2002SOL    HW2 6906   5.450   5.130   6.814
 2003SOL     OW 6907   0.120   5.452   1.695
 2003SOL    HW1 6908   0.097   5.536   1.743
 2003SOL    HW2 6909   0.139   5.379   1.762
 2004SOL     OW 6910   3.349   0.528   2.758
 2004SOL    HW1 6911   3.270   0.576   2.795
 2004SOL    HW2 6912   3.341   0.430   2.777
 2005SOL     OW 6913   1.294   6.475   0.067
 2005SOL    HW1 6914   1.385   6.434   0.079
 2005SOL    HW2 6915   1.225   6.402   0.065
 2006SOL     OW 6916   6.354   0.425   2.220
 2006SOL    HW1 6917   6.367   0.349   2.284
 2006SOL    HW2 6918   6.392   0.509   2.260
 2007SOL     OW 6919   5.441   4.846   5.696
 2007SOL    HW1 6920   5.456   4.942   5.719
 2007SOL    HW2 6921   5.343   4.829   5.687
 2008SOL     OW 6922   1.705   2.500   3.085
 2008SOL    HW1 6923   1.609   2.513   3.063
 2008SOL    HW2 6924   1.762   2.534   3.010
 2009SOL     OW 6925   6.134   0.058   3.718
 2009SOL    HW1 6926   6.185   0.125   3.665
 2009SOL    HW2 6927   6.176   0.046   3.808
 2010SOL     OW 6928   6.586   1.068   1.561
 2010SOL    HW1 6929   6.521   1.109   1.498
 2010SOL    HW2 6930   6.676   1.111   1.550
 2011SOL     OW 6931   0.657   0.397   5.425
 2011SOL    HW1 6932   0.741   0.421   5.474
 2011SOL    HW2 6933   0.618   0.314   5.464
 2012SOL     OW 6934   0.502   2.515   0.588
 2012SOL    HW1 6935   0.582   2.557   0.545
 2012SOL    HW2 6936   0.532   2.461   0.667
 2013SOL     OW 6937   0.581   2.434   2.345
 2013SOL    HW1 6938   0.658   2.380   2.381
 2013SOL    HW2 6939   0.610   2.528   2.331
 2014SOL     OW 6940   4.206   2.204   2.999
 2014SOL    HW1 6941   4.169   2.233   3.087
 2014SOL    HW2 6942   4.282   2.141   3.013
 2015SOL     OW 6943   3.945   5.952   1.180
 2015SOL    HW1 6944   3.852   5.929   1.207
 2015SOL    HW2 6945   3.977   5.888   1.110
 2016SOL     OW 6946   2.559   0.737   4.291
 2016SOL    HW1 6947   2.465   0.752   4.261
 2016SOL    HW2 6948   2.566   0.749   4.390
 2017SOL     OW 6949   1.029   6.962   4.657
 2017SOL    HW1 6950   1.074   6.975   4.746
 2017SOL    HW2 6951   0.941   6.917   4.671
 2018SOL     OW 6952   0.669   1.541   5.040
 2018SOL    HW1 6953   0.681   1.446   5.012
 2018SOL    HW2 6954   0.692   1.602   4.964
 2019SOL     OW 6955   1.070   4.683   0.236
 2019SOL    HW1 6956   1.099   4.750   0.304
 2019SOL    HW2 6957   1.148   4.627   0.208
 2020SOL     OW 6958   2.242   7.000   1.342
 2020SOL    HW1 6959   2.255   0.028   1.260
 2020SOL    HW2 6960   2.194   6.915   1.317
 2021SOL     OW 6961   6.811   5.157   3.750
 2021SOL    HW1 6962   6.777   5.063   3.758
 2021SOL    HW2 6963   6.910   5.158   3.760
 2022SOL     OW 6964   2.173   3.205   4.055
 2022SOL    HW1 6965   2.170   3.218   4.154
 2022SOL    HW2 6966   2.268   3.197   4.025
 2023SOL     OW 6967   1.289   5.578   5.984
 2023SOL    HW1 6968   1.343   5.653   5.945
 2023SOL    HW2 6969   1.257   5.603   6.075
 2024SOL     OW 6970   6.195   5.377   3.245
 2024SOL    HW1 6971   6.184   5.300   3.184
 2024SOL    HW2 6972   6.270   5.359   3.309
 2025SOL     OW 6973   1.917   0.535   4.924
 2025SOL    HW1 6974   1.959   0.456   4.878
 2025SOL    HW2 6975   1.987   0.604   4.943
 2026SOL     OW 6976   1.761   6.439   5.754
 2026SOL    HW1 6977   1.776   6.400   5.663
 2026SOL    HW2 6978   1.844   6.429   5.809
 2027SOL     OW 6979   5.543   6.653   3.006
 2027SOL    HW1 6980   5.534   6.555   3.021
 2027SOL    HW2 6981   5.635   6.683   3.034
 2028SOL     OW 6982   2.530   5.843   4.773
 2028SOL    HW1 6983   2.614   5.789   4.770
 2028SOL    HW2 6984   2.511   5.870   4.868
 2029SOL     OW 6985   7.013   1.808   6.802
 2029SOL    HW1 6986   6.947   1.871   6.762
 2029SOL    HW2 6987   0.033   1.758   6.729
 2030SOL     OW 6988   1.220   6.511   2.647
 2030SOL    HW1 6989   1.137   6.461   2.672
 2030SOL    HW2 6990   1.264   6.466   2.570
 2031SOL     OW 6991   6.914   1.049   3.929
 2031SOL    HW1 6992   6.950   0.995   3.853
 2031SOL    HW2 6993   6.956   1.140   3.928
 2032SOL     OW 6994   2.894   2.850   6.117
 2032SOL    HW1 6995   2.842   2.891   6.192
 2032SOL    HW2 6996   2.977   2.904   6.101
 2033SOL     OW 6997   3.366   6.825   1.184
 2033SOL    HW1 6998   3.268   6.840   1.174
 2033SOL    HW2 6999   3.416   6.873   1.112
 2034SOL     OW 7000   0.761   3.912   5.148
 2034SOL    HW1 7001   0.681   3.971   5.134
 2034SOL    HW2 7002   0.831   3.962   5.199
 2035SOL     OW 7003   4.724   6.409   3.056
 2035SOL    HW1 7004   4.643   6.461   3.083
 2035SOL    HW2 7005   4.709   6.312   3.078
 2036SOL     OW 7006   6.988   4.045   5.631
 2036SOL    HW1 7007   7.018   4.023   5.724
 2036SOL    HW2 7008   6.931   3.971   5.597
 2037SOL     OW 7009   0.852   2.435   6.746
 2037SOL    HW1 7010   0.834   2.336   6.740
 2037SOL    HW2 7011   0.790   2.476   6.813
 2038SOL     OW 7012   2.440   0.723   5.838
 2038SOL    HW1 7013   2.513   0.727   5.906
 2038SOL    HW2 7014   2.400   0.814   5.827
 2039SOL     OW 7015   5.156   5.874   4.041
 2039SOL    HW1 7016   5.249   5.904   4.058
 2039SOL    HW2 7017   5.092   5.943   4.074
 2040SOL     OW 7018   2.981   1.550   0.987
 2040SOL    HW1 7019   2.904   1.487   0.998
 2040SOL    HW2 7020   3.067   1.499   0.988
 2041SOL     OW 7021   2.361   0.054   6.591
 2041SOL    HW1 7022   2.395   0.035   6.684
 2041SOL    HW2 7023   2.435   0.040   6.525
 2042SOL     OW 7024   7.005   0.182   5.455
 2042SOL    HW1 7025   0.069   0.202   5.419
 2042SOL    HW2 7026   6.994   0.225   5.544
 2043SOL     OW 7027   1.689   2.960   0.699
 2043SOL    HW1 7028   1.724   3.020   0.627
 2043SOL    HW2 7029   1.764   2.906   0.737
 2044SOL     OW 7030   3.111   1.213   1.906
 2044SOL    HW1 7031   3.059   1.177   1.983
 2044SOL    HW2 7032   3.134   1.139   1.843
 2045SOL     OW 7033   1.616   6.523   3.736
 2045SOL    HW1 7034   1.534   6.484   3.693
 2045SOL    HW2 7035   1.689   6.530   3.667
 2046SOL     OW 7036   6.789   2.270   5.675
 2046SOL    HW1 7037   6.839   2.192   5.711
 2046SOL    HW2 7038   6.796   2.348   5.737
 2047SOL     OW 7039   6.514   0.195   2.124
 2047SOL    HW1 7040   6.462   0.176   2.207
 2047SOL    HW2 7041   6.476   0.141   2.048
 2048SOL     OW 7042   2.291   1.017   3.482
 2048SOL    HW1 7043   2.234   1.095   3.508
 2048SOL    HW2 7044   2.244   0.963   3.412
 2049SOL     OW 7045   4.474   2.425   5.079
 2049SOL    HW1 7046   4.472   2.524   5.063
 2049SOL    HW2 7047   4.563   2.389   5.052
 2050SOL     OW 7048   6.768   1.363   2.845
 2050SOL    HW1 7049   6.674   1.372   2.812
 2050SOL    HW2 7050   6.823   1.438   2.810
 2051SOL     OW 7051   3.690   6.866   6.335
 2051SOL    HW1 7052   3.596   6.848   6.307
 2051SOL    HW2 7053   3.744   6.894   6.255
 2052SOL     OW 7054   0.584   4.241   0.939
 2052SOL    HW1 7055   0.559   4.301   1.015
 2052SOL    HW2 7056   0.654   4.285   0.883
 2053SOL     OW 7057   4.830   4.918   1.482
 2053SOL    HW1 7058   4.847   4.853   1.557
 2053SOL    HW2 7059   4.889   4.896   1.405
 2054SOL     OW 7060   3.158   3.697   3.948
 2054SOL    HW1 7061   3.080   3.690   3.887
 2054SOL    HW2 7062   3.128   3.681   4.042
 2055SOL     OW 7063   2.834   2.997   5.722
 2055SOL    HW1 7064   2.824   3.096   5.734
 2055SOL    HW2 7065   2.795   2.949   5.800
 2056SOL     OW 7066   2.899   5.405   1.147
 2056SOL    HW1 7067   2.868   5.498   1.165
 2056SOL    HW2 7068   2.867   5.344   1.220
 2057SOL     OW 7069   6.226   3.241   4.718
 2057SOL    HW1 7070   6.313   3.252   4.671
 2057SOL    HW2 7071   6.154   3.220   4.652
 2058SOL     OW 7072   5.233   1.224   3.544
 2058SOL    HW1 7073   5.291   1.264   3.474
 2058SOL    HW2 7074   5.162   1.289   3.570
 2059SOL     OW 7075   2.795   1.773   5.690
 2059SOL    HW1 7076   2.748   1.819   5.765
 2059SOL    HW2 7077   2.857   1.704   5.727
 2060SOL     OW 7078   1.366   2.395   5.985
 2060SOL    HW1 7079   1.379   2.320   6.051
 2060SOL    HW2 7080   1.371   2.358   5.892
 2061SOL     OW 7081   2.645   2.334   3.219
 2061SOL    HW1 7082   2.562   2.280   3.203
 2061SOL    HW2 7083   2.713   2.279   3.266
 2062SOL     OW 7084   4.605   4.846   4.111
 2062SOL    HW1 7085   4.624   4.756   4.151
 2062SOL    HW2 7086   4.664   4.860   4.031
 2063SOL     OW 7087   1.242   1.419   4.285
 2063SOL    HW1 7088   1.332   1.449   4.252
 2063SOL    HW2 7089   1.250   1.330   4.328
 2064SOL     OW 7090   0.540   4.004   4.555
 2064SOL    HW1 7091   0.482   4.083   4.538
 2064SOL    HW2 7092   0.635   4.027   4.533
 2065SOL     OW 7093   3.016   3.024   5.518
 2065SOL    HW1 7094   2.983   3.063   5.432
 2065SOL    HW2 7095   2.938   3.005   5.578
 2066SOL     OW 7096   2.529   2.264   4.897
 2066SOL    HW1 7097   2.463   2.253   4.823
 2066SOL    HW2 7098   2.560   2.173   4.927
 2067SOL     OW 7099   5.610   4.841   3.076
 2067SOL    HW1 7100   5.710   4.844   3.067
 2067SOL    HW2 7101   5.584   4.876   3.166
 2068SOL     OW 7102   2.529   6.932   4.136
 2068SOL    HW1 7103   2.445   6.887   4.107
 2068SOL    HW2 7104   2.604   6.906   4.076
 2069SOL     OW 7105   5.080   1.718   2.801
 2069SOL    HW1 7106   5.110   1.721   2.896
 2069SOL    HW2 7107   5.142   1.772   2.744
 2070SOL     OW 7108   0.547   5.798   1.887
 2070SOL    HW1 7109   0.503   5.864   1.827
 2070SOL    HW2 7110   0.580   5.844   1.969
 2071SOL     OW 7111   7.015   2.710   3.752
 2071SOL    HW1 7112   6.959   2.695   3.834
 2071SOL    HW2 7113   6.992   2.798   3.711
 2072SOL     OW 7114   5.234   2.937   6.210
 2072SOL    HW1 7115   5.144   2.895   6.224
 2072SOL    HW2 7116   5.304   2.880   6.252
 2073SOL     OW 7117   2.998   5.872   6.487
 2073SOL    HW1 7118   3.052   5.794   6.517
 2073SOL    HW2 7119   3.044   5.957   6.513
 2074SOL     OW 7120   3.470   4.391   5.534
 2074SOL    HW1 7121   3.499   4.453   5.607
 2074SOL    HW2 7122   3.378   4.358   5.552
 2075SOL     OW 7123   4.837   0.987   1.284
 2075SOL    HW1 7124   4.928   0.986   1.243
 2075SOL    HW2 7125   4.837   1.047   1.364
 2076SOL     OW 7126   6.342   0.393   2.962
 2076SOL    HW1 7127   6.324   0.320   2.896
 2076SOL    HW2 7128   6.439   0.394   2.984
 2077SOL     OW 7129   0.747   4.511   1.501
 2077SOL    HW1 7130   0.668   4.556   1.460
 2077SOL    HW2 7131   0.756   4.419   1.463
 2078SOL     OW 7132   0.254   2.762   0.771
 2078SOL    HW1 7133   0.303   2.821   0.707
 2078SOL    HW2 7134   0.293   2.670   0.767
 2079SOL     OW 7135   4.654   1.734   4.057
 2079SOL    HW1 7136   4.569   1.690   4.029
 2079SOL    HW2 7137   4.691   1.787   3.980
 2080SOL     OW 7138   2.314   2.768   4.279
 2080SOL    HW1 7139   2.247   2.834   4.313
 2080SOL    HW2 7140   2.322   2.777   4.180
 2081SOL     OW 7141   0.239   6.132   2.828
 2081SOL    HW1 7142   0.197   6.044   2.849
 2081SOL    HW2 7143   0.291   6.164   2.908
 2082SOL     OW 7144   6.482   6.640   3.949
 2082SOL    HW1 7145   6.525   6.720   3.907
 2082SOL    HW2 7146   6.517   6.557   3.905
 2083SOL     OW 7147   1.316   5.742   2.855
 2083SOL    HW1 7148   1.254   5.673   2.894
 2083SOL    HW2 7149   1.264   5.824   2.833
 2084SOL     OW 7150   6.097   2.091   1.319
 2084SOL    HW1 7151   6.061   2.184   1.323
 2084SOL    HW2 7152   6.102   2.061   1.223
 2085SOL     OW 7153   6.769   4.945   6.680
 2085SOL    HW1 7154   6.716   4.866   6.713
 2085SOL    HW2 7155   6.717   4.993   6.610
 2086SOL     OW 7156   5.501   1.645   5.295
 2086SOL    HW1 7157   5.435   1.572   5.278
 2086SOL    HW2 7158   5.459   1.733   5.273
 2087SOL     OW 7159   4.843   1.293   5.945
 2087SOL    HW1 7160   4.878   1.324   5.857
 2087SOL    HW2 7161   4.812   1.198   5.938
 2088SOL     OW 7162   0.686   4.022   5.850
 2088SOL    HW1 7163   0.760   4.047   5.912
 2088SOL    HW2 7164   0.720   4.019   5.757
 2089SOL     OW 7165   3.077   5.257   3.809
 2089SOL    HW1 7166   3.096   5.271   3.907
 2089SOL    HW2 7167   3.114   5.169   3.780
 2090SOL     OW 7168   5.664   2.659   6.195
 2090SOL    HW1 7169   5.638   2.666   6.099
 2090SOL    HW2 7170   5.752   2.612   6.202
 2091SOL     OW 7171   5.765   0.204   0.541
 2091SOL    HW1 7172   5.809   0.201   0.452
 2091SOL    HW2 7173   5.668   0.228   0.530
 2092SOL     OW 7174   3.456   3.283   2.789
 2092SOL    HW1 7175   3.549   3.247   2.784
 2092SOL    HW2 7176   3.392   3.214   2.753
 2093SOL     OW 7177   5.847   6.902   6.655
 2093SOL    HW1 7178   5.759   6.894   6.701
 2093SOL    HW2 7179   5.889   6.811   6.646
 2094SOL     OW 7180   4.344   2.690   0.867
 2094SOL    HW1 7181   4.343   2.638   0.953
 2094SOL    HW2 7182   4.439   2.707   0.840
 2095SOL     OW 7183   3.749   5.643   4.675
 2095SOL    HW1 7184   3.656   5.664   4.647
 2095SOL    HW2 7185   3.777   5.704   4.750
 2096SOL     OW 7186   3.259   0.503   3.173
 2096SOL    HW1 7187   3.333   0.439   3.154
 2096SOL    HW2 7188   3.254   0.521   3.271
 2097SOL     OW 7189   2.666   5.490   5.893
 2097SOL    HW1 7190   2.675   5.567   5.956
 2097SOL    HW2 7191   2.732   5.498   5.819
 2098SOL     OW 7192   1.238   0.029   4.100
 2098SOL    HW1 7193   1.269   0.039   4.195
 2098SOL    HW2 7194   1.208   0.118   4.066
 2099SOL     OW 7195   4.480   1.569   6.503
 2099SOL    HW1 7196   4.576   1.577   6.528
 2099SOL    HW2 7197   4.461   1.476   6.470
 2100SOL     OW 7198   4.957   6.995   0.758
 2100SOL    HW1 7199   4.914   6.978   0.669
 2100SOL    HW2 7200   5.038   0.025   0.746
 2101SOL     OW 7201   0.522   0.354   3.137
 2101SOL    HW1 7202   0.580   0.293   3.082
 2101SOL    HW2 7203   0.509   0.440   3.088
 2102SOL     OW 7204   3.716   2.928   2.877
 2102SOL    HW1 7205   3.694   2.900   2.783
 2102SOL    HW2 7206   3.635   2.918   2.935
 2103SOL     OW 7207   1.566   0.119   1.378
 2103SOL    HW1 7208   1.638   0.146   1.442
 2103SOL    HW2 7209   1.574   0.171   1.294
 2104SOL     OW 7210   0.969   4.707   2.576
 2104SOL    HW1 7211   1.015   4.631   2.623
 2104SOL    HW2 7212   0.896   4.670   2.518
 2105SOL     OW 7213   5.613   6.330   5.827
 2105SOL    HW1 7214   5.531   6.284   5.861
 2105SOL    HW2 7215   5.674   6.262   5.786
 2106SOL     OW 7216   3.404   3.873   1.066
 2106SOL    HW1 7217   3.476   3.931   1.027
 2106SOL    HW2 7218   3.436   3.779   1.068
 2107SOL     OW 7219   6.001   4.122   4.266
 2107SOL    HW1 7220   6.024   4.153   4.174
 2107SOL    HW2 7221   5.980   4.024   4.264
 2108SOL     OW 7222   3.863   6.530   5.155
 2108SOL    HW1 7223   3.875   6.465   5.230
 2108SOL    HW2 7224   3.912   6.615   5.177
 2109SOL     OW 7225   2.334   6.547   2.408
 2109SOL    HW1 7226   2.279   6.466   2.428
 2109SOL    HW2 7227   2.353   6.551   2.310
 2110SOL     OW 7228   4.090   6.125   0.339
 2110SOL    HW1 7229   3.997   6.095   0.320
 2110SOL    HW2 7230   4.115   6.199   0.276
 2111SOL     OW 7231   0.709   2.652   0.522
 2111SOL    HW1 7232   0.798   2.623   0.556
 2111SOL    HW2 7233   0.694   2.748   0.544
 2112SOL     OW 7234   0.340   0.183   6.177
 2112SOL    HW1 7235   0.373   0.095   6.210
 2112SOL    HW2 7236   0.297   0.171   6.087
 2113SOL     OW 7237   7.009   1.666   4.198
 2113SOL    HW1 7238   7.019   1.639   4.102
 2113SOL    HW2 7239   6.913   1.685   4.218
 2114SOL     OW 7240   2.584   0.655   5.472
 2114SOL    HW1 7241   2.591   0.700   5.383
 2114SOL    HW2 7242   2.596   0.722   5.545
 2115SOL     OW 7243   0.158   0.241   4.297
 2115SOL    HW1 7244   0.068   0.228   4.339
 2115SOL    HW2 7245   0.155   0.321   4.237
 2116SOL     OW 7246   2.762   6.560   6.760
 2116SOL    HW1 7247   2.768   6.556   6.660
 2116SOL    HW2 7248   2.851   6.586   6.798
 2117SOL     OW 7249   7.003   3.243   1.147
 2117SOL    HW1 7250   0.013   3.154   1.173
 2117SOL    HW2 7251   6.905   3.245   1.162
 2118SOL     OW 7252   6.964   3.637   2.990
 2118SOL    HW1 7253   7.020   3.562   2.956
 2118SOL    HW2 7254   6.881   3.599   3.032
 2119SOL     OW 7255   1.750   2.594   6.863
 2119SOL    HW1 7256   1.769   2.600   6.960
 2119SOL    HW2 7257   1.655   2.622   6.845
 2120SOL     OW 7258   6.005   1.251   0.714
 2120SOL    HW1 7259   6.087   1.271   0.660
 2120SOL    HW2 7260   5.999   1.152   0.729
 2121SOL     OW 7261   2.420   6.206   2.240
 2121SOL    HW1 7262   2.367   6.156   2.172
 2121SOL    HW2 7263   2.359   6.267   2.291
 2122SOL     OW 7264   0.138   2.074   5.321
 2122SOL    HW1 7265   0.225   2.087   5.273
 2122SOL    HW2 7266   0.070   2.037   5.258
 2123SOL     OW 7267   1.209   4.378   3.205
 2123SOL    HW1 7268   1.250   4.352   3.292
 2123SOL    HW2 7269   1.251   4.327   3.130
 2124SOL     OW 7270   5.918   3.522   6.433
 2124SOL    HW1 7271   5.879   3.518   6.341
 2124SOL    HW2 7272   5.903   3.613   6.472
 2125SOL     OW 7273   2.446   5.334   5.882
 2125SOL    HW1 7274   2.393   5.347   5.798
 2125SOL    HW2 7275   2.519   5.402   5.887
 2126SOL     OW 7276   2.273   6.114   2.014
 2126SOL    HW1 7277   2.325   6.089   1.932
 2126SOL    HW2 7278   2.222   6.199   1.997
 2127SOL     OW 7279   1.772   3.426   4.109
 2127SOL    HW1 7280   1.752   3.349   4.169
 2127SOL    HW2 7281   1.851   3.405   4.052
 2128SOL     OW 7282   5.595   2.984   1.099
 2128SOL    HW1 7283   5.615   2.966   1.003
 2128SOL    HW2 7284   5.679   2.977   1.152
 2129SOL     OW 7285   5.490   5.014   4.241
 2129SOL    HW1 7286   5.403   4.993   4.285
 2129SOL    HW2 7287   5.492   5.111   4.216
 2130SOL     OW 7288   2.616   0.362   2.682
 2130SOL    HW1 7289   2.640   0.266   2.669
 2130SOL    HW2 7290   2.699   0.417   2.679
 2131SOL     OW 7291   5.773   6.830   6.326
 2131SOL    HW1 7292   5.718   6.865   6.402
 2131SOL    HW2 7293   5.714   6.816   6.246
 2132SOL     OW 7294   2.924   1.777   0.862
 2132SOL    HW1 7295   2.825   1.786   0.853
 2132SOL    HW2 7296   2.947   1.687   0.898
 2133SOL     OW 7297   3.579   3.014   2.097
 2133SOL    HW1 7298   3.664   3.067   2.092
 2133SOL    HW2 7299   3.598   2.919   2.075
 2134SOL     OW 7300   2.545   6.797   4.710
 2134SOL    HW1 7301   2.493   6.855   4.772
 2134SOL    HW2 7302   2.564   6.846   4.625
 2135SOL     OW 7303   6.939   5.534   3.923
 2135SOL    HW1 7304   6.841   5.516   3.910
 2135SOL    HW2 7305   6.969   5.604   3.858
 2136SOL     OW 7306   0.185   4.510   3.611
 2136SOL    HW1 7307   0.137   4.576   3.552
 2136SOL    HW2 7308   0.233   4.559   3.683
 2137SOL     OW 7309   6.891   0.077   4.407
 2137SOL    HW1 7310   6.848   0.137   4.475
 2137SOL    HW2 7311   6.823   0.048   4.340
 2138SOL     OW 7312   0.879   2.116   0.166
 2138SOL    HW1 7313   0.905   2.150   0.256
 2138SOL    HW2 7314   0.811   2.177   0.125
 2139SOL     OW 7315   4.005   6.211   4.596
 2139SOL    HW1 7316   3.976   6.126   4.641
 2139SOL    HW2 7317   4.056   6.189   4.512
 2140SOL     OW 7318   1.072   5.794   3.457
 2140SOL    HW1 7319   0.993   5.846   3.490
 2140SOL    HW2 7320   1.044   5.700   3.439
 2141SOL     OW 7321   0.106   0.459   6.975
 2141SOL    HW1 7322   0.025   0.470   6.917
 2141SOL    HW2 7323   0.168   0.536   6.960
 2142SOL     OW 7324   4.247   1.180   2.741
 2142SOL    HW1 7325   4.271   1.163   2.837
 2142SOL    HW2 7326   4.261   1.096   2.688
 2143SOL     OW 7327   3.420   5.269   7.015
 2143SOL    HW1 7328   3.451   5.295   6.924
 2143SOL    HW2 7329   3.494   5.285   0.054
 2144SOL     OW 7330   0.954   1.539   1.952
 2144SOL    HW1 7331   0.890   1.512   1.879
 2144SOL    HW2 7332   0.925   1.498   2.038
 2145SOL     OW 7333   2.424   6.088   2.951
 2145SOL    HW1 7334   2.479   6.010   2.924
 2145SOL    HW2 7335   2.461   6.171   2.909
 2146SOL     OW 7336   2.899   1.957   1.595
 2146SOL    HW1 7337   2.882   1.881   1.658
 2146SOL    HW2 7338   2.952   2.027   1.641
 2147SOL     OW 7339   6.963   0.380   3.882
 2147SOL    HW1 7340   6.875   0.339   3.908
 2147SOL    HW2 7341   6.968   0.473   3.917
 2148SOL     OW 7342   6.785   4.794   4.002
 2148SOL    HW1 7343   6.687   4.777   3.998
 2148SOL    HW2 7344   6.801   4.886   4.039
 2149SOL     OW 7345   2.173   1.521   2.134
 2149SOL    HW1 7346   2.083   1.561   2.114
 2149SOL    HW2 7347   2.164   1.459   2.212
 2150SOL     OW 7348   5.640   1.196   3.247
 2150SOL    HW1 7349   5.645   1.213   3.149
 2150SOL    HW2 7350   5.614   1.101   3.263
 2151SOL     OW 7351   4.819   4.802   5.238
 2151SOL    HW1 7352   4.742   4.816   5.301
 2151SOL    HW2 7353   4.818   4.707   5.206
 2152SOL     OW 7354   0.024   6.309   2.691
 2152SOL    HW1 7355   0.073   6.290   2.606
 2152SOL    HW2 7356   0.052   6.244   2.762
 2153SOL     OW 7357   4.186   2.241   3.487
 2153SOL    HW1 7358   4.131   2.158   3.485
 2153SOL    HW2 7359   4.204   2.271   3.394
 2154SOL     OW 7360   4.358   0.463   3.653
 2154SOL    HW1 7361   4.450   0.478   3.689
 2154SOL    HW2 7362   4.362   0.457   3.553
 2155SOL     OW 7363   5.643   3.356   0.632
 2155SOL    HW1 7364   5.677   3.450   0.625
 2155SOL    HW2 7365   5.640   3.314   0.541
 2156SOL     OW 7366   6.296   5.560   2.653
 2156SOL    HW1 7367   6.260   5.499   2.724
 2156SOL    HW2 7368   6.370   5.616   2.691
 2157SOL     OW 7369   4.942   1.542   4.565
 2157SOL    HW1 7370   4.850   1.566   4.595
 2157SOL    HW2 7371   4.995   1.625   4.548
 2158SOL     OW 7372   4.715   1.130   3.409
 2158SOL    HW1 7373   4.782   1.170   3.347
 2158SOL    HW2 7374   4.628   1.118   3.360
 2159SOL     OW 7375   2.566   1.642   4.671
 2159SOL    HW1 7376   2.535   1.574   4.738
 2159SOL    HW2 7377   2.500   1.716   4.665
 2160SOL     OW 7378   2.030   4.288   1.173
 2160SOL    HW1 7379   1.999   4.269   1.079
 2160SOL    HW2 7380   2.129   4.274   1.179
 2161SOL     OW 7381   4.557   2.449   2.104
 2161SOL    HW1 7382   4.494   2.444   2.181
 2161SOL    HW2 7383   4.646   2.411   2.130
 2162SOL     OW 7384   1.614   1.474   2.491
 2162SOL    HW1 7385   1.532   1.478   2.548
 2162SOL    HW2 7386   1.672   1.399   2.522
 2163SOL     OW 7387   4.734   1.373   0.957
 2163SOL    HW1 7388   4.694   1.450   1.007
 2163SOL    HW2 7389   4.803   1.407   0.893
 2164SOL     OW 7390   6.326   6.938   2.703
 2164SOL    HW1 7391   6.391   7.000   2.659
 2164SOL    HW2 7392   6.288   6.875   2.634
 2165SOL     OW 7393   1.897   6.995   2.194
 2165SOL    HW1 7394   1.973   0.011   2.242
 2165SOL    HW2 7395   1.880   6.905   2.234
 2166SOL     OW 7396   6.090   2.505   5.369
 2166SOL    HW1 7397   6.010   2.454   5.399
 2166SOL    HW2 7398   6.093   2.594   5.414
 2167SOL     OW 7399   3.460   1.139   1.361
 2167SOL    HW1 7400   3.510   1.056   1.334
 2167SOL    HW2 7401   3.428   1.186   1.279
 2168SOL     OW 7402   5.289   6.177   4.352
 2168SOL    HW1 7403   5.238   6.191   4.267
 2168SOL    HW2 7404   5.318   6.082   4.359
 2169SOL     OW 7405   4.988   3.007   5.612
 2169SOL    HW1 7406   4.983   3.076   5.539
 2169SOL    HW2 7407   4.976   2.916   5.572
 2170SOL     OW 7408   4.884   5.655   4.581
 2170SOL    HW1 7409   4.931   5.726   4.633
 2170SOL    HW2 7410   4.816   5.611   4.640
 2171SOL     OW 7411   0.322   2.896   0.312
 2171SOL    HW1 7412   0.382   2.975   0.313
 2171SOL    HW2 7413   0.255   2.906   0.239
 2172SOL     OW 7414   2.316   0.762   3.607
 2172SOL    HW1 7415   2.290   0.851   3.572
 2172SOL    HW2 7416   2.371   0.713   3.538
 2173SOL     OW 7417   4.434   2.085   4.735
 2173SOL    HW1 7418   4.384   2.162   4.774
 2173SOL    HW2 7419   4.375   2.005   4.731
 2174SOL     OW 7420   1.300   5.791   5.412
 2174SOL    HW1 7421   1.256   5.701   5.402
 2174SOL    HW2 7422   1.237   5.853   5.459
 2175SOL     OW 7423   0.671   0.530   0.035
 2175SOL    HW1 7424   0.661   0.444   7.013
 2175SOL    HW2 7425   0.718   0.597   7.004
 2176SOL     OW 7426   2.186   1.904   2.921
 2176SOL    HW1 7427   2.090   1.881   2.903
 2176SOL    HW2 7428   2.215   1.977   2.859
 2177SOL     OW 7429   0.940   1.826   1.918
 2177SOL    HW1 7430   0.844   1.823   1.893
 2177SOL    HW2 7431   0.968   1.736   1.952
 2178SOL     OW 7432   6.293   5.553   0.364
 2178SOL    HW1 7433   6.242   5.577   0.281
 2178SOL    HW2 7434   6.386   5.525   0.338
 2179SOL     OW 7435   2.126   3.574   3.777
 2179SOL    HW1 7436   2.118   3.654   3.837
 2179SOL    HW2 7437   2.219   3.570   3.740
 2180SOL     OW 7438   3.114   3.295   2.563
 2180SOL    HW1 7439   3.085   3.250   2.478
 2180SOL    HW2 7440   3.044   3.360   2.591
 2181SOL     OW 7441   3.978   6.207   1.229
 2181SOL    HW1 7442   3.969   6.121   1.178
 2181SOL    HW2 7443   4.009   6.280   1.168
 2182SOL     OW 7444   4.669   3.814   0.013
 2182SOL    HW1 7445   4.754   3.790   0.058
 2182SOL    HW2 7446   4.616   3.876   0.071
 2183SOL     OW 7447   4.534   2.118   1.892
 2183SOL    HW1 7448   4.622   2.098   1.849
 2183SOL    HW2 7449   4.461   2.112   1.825
 2184SOL     OW 7450   4.066   2.674   5.958
 2184SOL    HW1 7451   4.135   2.746   5.950
 2184SOL    HW2 7452   4.080   2.625   6.044
 2185SOL     OW 7453   6.824   7.019   2.112
 2185SOL    HW1 7454   6.794   6.983   2.201
 2185SOL    HW2 7455   6.853   0.087   2.123
 2186SOL     OW 7456   6.573   4.750   2.779
 2186SOL    HW1 7457   6.485   4.703   2.786
 2186SOL    HW2 7458   6.629   4.706   2.709
 2187SOL     OW 7459   6.698   7.025   6.835
 2187SOL    HW1 7460   6.673   6.934   6.870
 2187SOL    HW2 7461   6.685   0.065   6.908
 2188SOL     OW 7462   4.472   2.532   3.783
 2188SOL    HW1 7463   4.426   2.614   3.748
 2188SOL    HW2 7464   4.548   2.508   3.724
 2189SOL     OW 7465   3.276   0.263   6.077
 2189SOL    HW1 7466   3.301   0.306   6.164
 2189SOL    HW2 7467   3.229   0.330   6.019
 2190SOL     OW 7468   6.194   3.451   1.233
 2190SOL    HW1 7469   6.174   3.370   1.288
 2190SOL    HW2 7470   6.293   3.457   1.217
 2191SOL     OW 7471   3.320   0.347   0.198
 2191SOL    HW1 7472   3.282   0.280   0.263
 2191SOL    HW2 7473   3.420   0.342   0.201
 2192SOL     OW 7474   4.144   6.430   2.331
 2192SOL    HW1 7475   4.120   6.347   2.380
 2192SOL    HW2 7476   4.128   6.418   2.233
 2193SOL     OW 7477   0.336   6.518   4.158
 2193SOL    HW1 7478   0.270   6.588   4.183
 2193SOL    HW2 7479   0.395   6.498   4.236
 2194SOL     OW 7480   2.393   0.200   2.823
 2194SOL    HW1 7481   2.333   0.150   2.760
 2194SOL    HW2 7482   2.461   0.252   2.770
 2195SOL     OW 7483   0.421   4.668   2.821
 2195SOL    HW1 7484   0.517   4.656   2.849
 2195SOL    HW2 7485   0.383   4.580   2.794
 2196SOL     OW 7486   4.564   3.864   6.455
 2196SOL    HW1 7487   4.548   3.938   6.521
 2196SOL    HW2 7488   4.489   3.799   6.459
 2197SOL     OW 7489   4.931   3.271   0.732
 2197SOL    HW1 7490   5.023   3.243   0.760
 2197SOL    HW2 7491   4.867   3.258   0.808
 2198SOL     OW 7492   0.909   4.803   6.826
 2198SOL    HW1 7493   0.956   4.889   6.843
 2198SOL    HW2 7494   0.828   4.796   6.886
 2199SOL     OW 7495   3.352   1.856   3.990
 2199SOL    HW1 7496   3.408   1.832   4.069
 2199SOL    HW2 7497   3.381   1.944   3.954
 2200SOL     OW 7498   4.579   1.109   3.982
 2200SOL    HW1 7499   4.584   1.030   4.043
 2200SOL    HW2 7500   4.657   1.169   4.000
 2201SOL     OW 7501   5.109   5.542   3.681
 2201SOL    HW1 7502   5.137   5.463   3.735
 2201SOL    HW2 7503   5.096   5.621   3.741
 2202SOL     OW 7504   4.718   6.161   3.870
 2202SOL    HW1 7505   4.750   6.255   3.864
 2202SOL    HW2 7506   4.784   6.100   3.825
 2203SOL     OW 7507   2.211   2.241   3.135
 2203SOL    HW1 7508   2.256   2.187   3.205
 2203SOL    HW2 7509   2.114   2.218   3.131
 2204SOL     OW 7510   4.588   1.947   0.715
 2204SOL    HW1 7511   4.571   1.904   0.804
 2204SOL    HW2 7512   4.568   1.881   0.643
 2205SOL     OW 7513   3.555   6.938   2.383
 2205SOL    HW1 7514   3.517   6.998   2.313
 2205SOL    HW2 7515   3.541   6.843   2.356
 2206SOL     OW 7516   1.530   4.998   0.445
 2206SOL    HW1 7517   1.510   5.011   0.542
 2206SOL    HW2 7518   1.497   4.908   0.417
 2207SOL     OW 7519   6.791   3.574   5.311
 2207SOL    HW1 7520   6.799   3.594   5.214
 2207SOL    HW2 7521   6.865   3.512   5.339
 2208SOL     OW 7522   0.221   5.265   2.210
 2208SOL    HW1 7523   0.288   5.191   2.214
 2208SOL    HW2 7524   0.252   5.340   2.269
 2209SOL     OW 7525   6.713   0.105   2.428
 2209SOL    HW1 7526   6.750   0.167   2.360
 2209SOL    HW2 7527   6.745   0.012   2.410
 2210SOL     OW 7528   2.549   4.489   3.526
 2210SOL    HW1 7529   2.622   4.548   3.491
 2210SOL    HW2 7530   2.486   4.467   3.451
 2211SOL     OW 7531   5.566   1.047   5.247
 2211SOL    HW1 7532   5.537   1.032   5.341
 2211SOL    HW2 7533   5.552   0.963   5.194
 2212SOL     OW 7534   2.372   6.098   6.124
 2212SOL    HW1 7535   2.287   6.045   6.129
 2212SOL    HW2 7536   2.391   6.139   6.214
 2213SOL     OW 7537   4.388   1.063   2.976
 2213SOL    HW1 7538   4.401   0.994   3.047
 2213SOL    HW2 7539   4.468   1.064   2.915
 2214SOL     OW 7540   4.167   6.874   3.745
 2214SOL    HW1 7541   4.195   6.842   3.836
 2214SOL    HW2 7542   4.114   6.802   3.700
 2215SOL     OW 7543   5.866   2.735   6.664
 2215SOL    HW1 7544   5.875   2.660   6.730
 2215SOL    HW2 7545   5.782   2.722   6.612
 2216SOL     OW 7546   3.255   1.076   2.407
 2216SOL    HW1 7547   3.212   0.997   2.451
 2216SOL    HW2 7548   3.326   1.113   2.466
 2217SOL     OW 7549   3.148   6.624   1.098
 2217SOL    HW1 7550   3.098   6.575   1.170
 2217SOL    HW2 7551   3.092   6.698   1.063
 2218SOL     OW 7552   5.937   1.207   2.045
 2218SOL    HW1 7553   5.858   1.214   1.983
 2218SOL    HW2 7554   5.958   1.111   2.061
 2219SOL     OW 7555   1.935   2.400   3.613
 2219SOL    HW1 7556   1.987   2.419   3.530
 2219SOL    HW2 7557   1.897   2.308   3.609
 2220SOL     OW 7558   2.038   6.455   3.687
 2220SOL    HW1 7559   2.137   6.462   3.702
 2220SOL    HW2 7560   2.000   6.388   3.750
 2221SOL     OW 7561   6.941   0.202   4.782
 2221SOL    HW1 7562   7.027   0.222   4.736
 2221SOL    HW2 7563   6.958   0.182   4.879
 2222SOL     OW 7564   5.088   6.007   3.252
 2222SOL    HW1 7565   4.995   5.992   3.217
 2222SOL    HW2 7566   5.088   6.085   3.314
 2223SOL     OW 7567   5.947   6.766   2.124
 2223SOL    HW1 7568   5.938   6.807   2.215
 2223SOL    HW2 7569   5.902   6.676   2.124
 2224SOL     OW 7570   0.398   5.790   1.507
 2224SOL    HW1 7571   0.489   5.764   1.473
 2224SOL    HW2 7572   0.330   5.725   1.473
 2225SOL     OW 7573   0.513   5.066   1.782
 2225SOL    HW1 7574   0.434   5.024   1.827
 2225SOL    HW2 7575   0.485   5.152   1.740
 2226SOL     OW 7576   3.582   3.870   3.553
 2226SOL    HW1 7577   3.596   3.863   3.652
 2226SOL    HW2 7578   3.594   3.965   3.525
 2227SOL     OW 7579   1.808   1.823   5.417
 2227SOL    HW1 7580   1.734   1.837   5.352
 2227SOL    HW2 7581   1.772   1.828   5.510
 2228SOL     OW 7582   1.325   4.294   4.011
 2228SOL    HW1 7583   1.333   4.195   4.024
 2228SOL    HW2 7584   1.293   4.337   4.095
 2229SOL     OW 7585   5.807   5.567   2.325
 2229SOL    HW1 7586   5.827   5.581   2.422
 2229SOL    HW2 7587   5.873   5.501   2.287
 2230SOL     OW 7588   1.803   5.458   2.795
 2230SOL    HW1 7589   1.881   5.470   2.857
 2230SOL    HW2 7590   1.727   5.515   2.827
 2231SOL     OW 7591   2.078   6.424   0.765
 2231SOL    HW1 7592   2.076   6.396   0.861
 2231SOL    HW2 7593   2.039   6.515   0.756
 2232SOL     OW 7594   6.353   3.059   3.607
 2232SOL    HW1 7595   6.388   3.055   3.513
 2232SOL    HW2 7596   6.261   3.020   3.610
 2233SOL     OW 7597   3.953   2.129   0.370
 2233SOL    HW1 7598   3.861   2.119   0.332
 2233SOL    HW2 7599   3.950   2.189   0.450
 2234SOL     OW 7600   4.234   2.801   1.441
 2234SOL    HW1 7601   4.284   2.800   1.528
 2234SOL    HW2 7602   4.236   2.710   1.401
 2235SOL     OW 7603   2.006   3.606   1.756
 2235SOL    HW1 7604   2.077   3.654   1.807
 2235SOL    HW2 7605   1.948   3.673   1.709
 2236SOL     OW 7606   1.487   3.885   5.089
 2236SOL    HW1 7607   1.463   3.831   5.170
 2236SOL    HW2 7608   1.412   3.880   5.023
 2237SOL     OW 7609   5.831   2.206   3.408
 2237SOL    HW1 7610   5.816   2.131   3.472
 2237SOL    HW2 7611   5.795   2.181   3.318
 2238SOL     OW 7612   4.888   6.082   6.557
 2238SOL    HW1 7613   4.875   6.178   6.532
 2238SOL    HW2 7614   4.829   6.024   6.501
 2239SOL     OW 7615   6.844   5.496   1.124
 2239SOL    HW1 7616   6.814   5.509   1.219
 2239SOL    HW2 7617   6.943   5.490   1.121
 2240SOL     OW 7618   0.671   4.018   1.656
 2240SOL    HW1 7619   0.765   4.036   1.685
 2240SOL    HW2 7620   0.642   3.929   1.691
 2241SOL     OW 7621   0.189   0.453   3.408
 2241SOL    HW1 7622   0.176   0.478   3.312
 2241SOL    HW2 7623   0.231   0.363   3.413
 2242SOL     OW 7624   2.271   1.369   3.264
 2242SOL    HW1 7625   2.309   1.355   3.172
 2242SOL    HW2 7626   2.238   1.281   3.299
 2243SOL     OW 7627   1.506   0.546   4.188
 2243SOL    HW1 7628   1.605   0.546   4.182
 2243SOL    HW2 7629   1.467   0.514   4.101
 2244SOL     OW 7630   3.447   0.968   3.827
 2244SOL    HW1 7631   3.468   0.907   3.750
 2244SOL    HW2 7632   3.355   1.006   3.815
 2245SOL     OW 7633   6.903   1.377   1.087
 2245SOL    HW1 7634   6.854   1.409   1.168
 2245SOL    HW2 7635   6.837   1.341   1.021
 2246SOL     OW 7636   0.850   4.405   4.699
 2246SOL    HW1 7637   0.875   4.498   4.725
 2246SOL    HW2 7638   0.933   4.355   4.673
 2247SOL     OW 7639   2.216   2.157   3.797
 2247SOL    HW1 7640   2.129   2.110   3.812
 2247SOL    HW2 7641   2.226   2.181   3.701
 2248SOL     OW 7642   5.357   4.287   5.656
 2248SOL    HW1 7643   5.283   4.222   5.669
 2248SOL    HW2 7644   5.330   4.357   5.590
 2249SOL     OW 7645   5.594   6.225   5.491
 2249SOL    HW1 7646   5.665   6.204   5.558
 2249SOL    HW2 7647   5.577   6.323   5.490
 2250SOL     OW 7648   4.690   5.014   2.561
 2250SOL    HW1 7649   4.777   4.973   2.534
 2250SOL    HW2 7650   4.681   5.103   2.518
 2251SOL     OW 7651   0.618   1.808   5.660
 2251SOL    HW1 7652   0.574   1.893   5.688
 2251SOL    HW2 7653   0.561   1.731   5.689
 2252SOL     OW 7654   4.689   0.947   5.825
 2252SOL    HW1 7655   4.592   0.928   5.815
 2252SOL    HW2 7656   4.709   0.969   5.921
 2253SOL     OW 7657   0.352   3.880   1.346
 2253SOL    HW1 7658   0.253   3.874   1.331
 2253SOL    HW2 7659   0.399   3.871   1.258
 2254SOL     OW 7660   1.850   5.693   5.417
 2254SOL    HW1 7661   1.896   5.635   5.349
 2254SOL    HW2 7662   1.790   5.637   5.474
 2255SOL     OW 7663   6.963   4.193   6.637
 2255SOL    HW1 7664   0.011   4.134   6.609
 2255SOL    HW2 7665   6.896   4.139   6.688
 2256SOL     OW 7666   2.806   5.615   2.812
 2256SOL    HW1 7667   2.854   5.656   2.889
 2256SOL    HW2 7668   2.870   5.564   2.755
 2257SOL     OW 7669   0.536   5.090   6.305
 2257SOL    HW1 7670   0.544   5.149   6.385
 2257SOL    HW2 7671   0.548   5.145   6.222
 2258SOL     OW 7672   1.883   6.662   5.976
 2258SOL    HW1 7673   1.917   6.708   6.059
 2258SOL    HW2 7674   1.787   6.638   5.988
 2259SOL     OW 7675   6.002   1.792   6.471
 2259SOL    HW1 7676   5.906   1.820   6.472
 2259SOL    HW2 7677   6.058   1.867   6.436
 2260SOL     OW 7678   4.711   3.194   1.670
 2260SOL    HW1 7679   4.627   3.231   1.629
 2260SOL    HW2 7680   4.686   3.133   1.746
 2261SOL     OW 7681   1.910   6.276   5.570
 2261SOL    HW1 7682   1.869   6.291   5.481
 2261SOL    HW2 7683   1.921   6.178   5.587
 2262SOL     OW 7684   2.796   1.748   4.956
 2262SOL    HW1 7685   2.725   1.739   4.886
 2262SOL    HW2 7686   2.860   1.821   4.930
 2263SOL     OW 7687   0.726   4.887   6.365
 2263SOL    HW1 7688   0.734   4.879   6.464
 2263SOL    HW2 7689   0.644   4.939   6.342
 2264SOL     OW 7690   3.278   3.169   4.085
 2264SOL    HW1 7691   3.300   3.162   4.182
 2264SOL    HW2 7692   3.276   3.265   4.057
 2265SOL     OW 7693   0.084   6.434   4.098
 2265SOL    HW1 7694   0.180   6.456   4.116
 2265SOL    HW2 7695   0.068   6.337   4.117
 2266SOL     OW 7696   0.030   6.932   5.009
 2266SOL    HW1 7697   7.019   6.907   5.098
 2266SOL    HW2 7698   0.022   0.004   4.996
 2267SOL     OW 7699   6.436   1.704   4.808
 2267SOL    HW1 7700   6.384   1.769   4.752
 2267SOL    HW2 7701   6.420   1.724   4.905
 2268SOL     OW 7702   0.885   0.087   0.467
 2268SOL    HW1 7703   0.822   0.130   0.402
 2268SOL    HW2 7704   0.959   0.042   0.416
 2269SOL     OW 7705   6.786   5.972   2.517
 2269SOL    HW1 7706   6.831   5.953   2.605
 2269SOL    HW2 7707   6.695   6.010   2.534
 2270SOL     OW 7708   3.018   3.359   3.170
 2270SOL    HW1 7709   2.984   3.303   3.245
 2270SOL    HW2 7710   3.091   3.418   3.202
 2271SOL     OW 7711   1.233   3.490   2.494
 2271SOL    HW1 7712   1.229   3.545   2.577
 2271SOL    HW2 7713   1.241   3.550   2.415
 2272SOL     OW 7714   4.534   0.589   5.948
 2272SOL    HW1 7715   4.591   0.631   5.877
 2272SOL    HW2 7716   4.481   0.660   5.994
 2273SOL     OW 7717   6.597   1.267   1.793
 2273SOL    HW1 7718   6.552   1.244   1.879
 2273SOL    HW2 7719   6.584   1.193   1.727
 2274SOL     OW 7720   6.340   4.857   3.432
 2274SOL    HW1 7721   6.325   4.821   3.524
 2274SOL    HW2 7722   6.270   4.926   3.412
 2275SOL     OW 7723   4.160   6.752   3.979
 2275SOL    HW1 7724   4.075   6.725   4.023
 2275SOL    HW2 7725   4.235   6.696   4.014
 2276SOL     OW 7726   4.052   6.067   4.020
 2276SOL    HW1 7727   3.964   6.047   3.977
 2276SOL    HW2 7728   4.089   5.984   4.062
 2277SOL     OW 7729   3.334   2.893   2.785
 2277SOL    HW1 7730   3.251   2.948   2.789
 2277SOL    HW2 7731   3.375   2.899   2.694
 2278SOL     OW 7732   4.124   5.111   1.911
 2278SOL    HW1 7733   4.059   5.099   1.986
 2278SOL    HW2 7734   4.158   5.205   1.912
 2279SOL     OW 7735   6.264   4.560   5.586
 2279SOL    HW1 7736   6.167   4.537   5.587
 2279SOL    HW2 7737   6.295   4.571   5.492
 2280SOL     OW 7738   5.967   0.794   5.515
 2280SOL    HW1 7739   5.983   0.727   5.442
 2280SOL    HW2 7740   5.900   0.757   5.579
 2281SOL     OW 7741   2.143   0.272   0.376
 2281SOL    HW1 7742   2.089   0.190   0.359
 2281SOL    HW2 7743   2.128   0.339   0.303
 2282SOL     OW 7744   3.342   6.920   2.607
 2282SOL    HW1 7745   3.436   6.940   2.579
 2282SOL    HW2 7746   3.341   6.898   2.704
 2283SOL     OW 7747   1.160   3.047   0.817
 2283SOL    HW1 7748   1.121   2.974   0.873
 2283SOL    HW2 7749   1.153   3.134   0.867
 2284SOL     OW 7750   1.452   2.855   1.012
 2284SOL    HW1 7751   1.498   2.767   1.007
 2284SOL    HW2 7752   1.440   2.891   0.919
 2285SOL     OW 7753   2.759   2.858   0.387
 2285SOL    HW1 7754   2.768   2.801   0.469
 2285SOL    HW2 7755   2.815   2.820   0.314
 2286SOL     OW 7756   6.311   5.526   4.151
 2286SOL    HW1 7757   6.330   5.596   4.081
 2286SOL    HW2 7758   6.230   5.552   4.202
 2287SOL     OW 7759   2.709   1.963   1.390
 2287SOL    HW1 7760   2.788   1.970   1.451
 2287SOL    HW2 7761   2.657   1.881   1.412
 2288SOL     OW 7762   3.326   5.522   4.254
 2288SOL    HW1 7763   3.383   5.496   4.176
 2288SOL    HW2 7764   3.308   5.620   4.250
 2289SOL     OW 7765   4.020   0.149   5.387
 2289SOL    HW1 7766   4.058   0.142   5.479
 2289SOL    HW2 7767   3.922   0.131   5.390
 2290SOL     OW 7768   2.140   4.066   6.635
 2290SOL    HW1 7769   2.108   4.161   6.632
 2290SOL    HW2 7770   2.172   4.044   6.727
 2291SOL     OW 7771   3.604   2.441   0.415
 2291SOL    HW1 7772   3.694   2.422   0.454
 2291SOL    HW2 7773   3.543   2.476   0.486
 2292SOL     OW 7774   4.967   1.951   2.410
 2292SOL    HW1 7775   4.867   1.949   2.411
 2292SOL    HW2 7776   4.999   2.014   2.339
 2293SOL     OW 7777   6.666   0.882   6.409
 2293SOL    HW1 7778   6.593   0.941   6.443
 2293SOL    HW2 7779   6.732   0.937   6.358
 2294SOL     OW 7780   0.173   3.074   5.399
 2294SOL    HW1 7781   0.166   3.050   5.302
 2294SOL    HW2 7782   0.254   3.029   5.438
 2295SOL     OW 7783   5.761   5.847   0.520
 2295SOL    HW1 7784   5.782   5.879   0.612
 2295SOL    HW2 7785   5.681   5.787   0.522
 2296SOL     OW 7786   4.105   5.863   4.880
 2296SOL    HW1 7787   4.125   5.960   4.893
 2296SOL    HW2 7788   4.190   5.812   4.879
 2297SOL     OW 7789   6.342   2.630   0.408
 2297SOL    HW1 7790   6.246   2.641   0.383
 2297SOL    HW2 7791   6.399   2.682   0.345
 2298SOL     OW 7792   2.232   3.901   4.702
 2298SOL    HW1 7793   2.250   3.947   4.789
 2298SOL    HW2 7794   2.314   3.854   4.671
 2299SOL     OW 7795   6.251   3.757   4.387
 2299SOL    HW1 7796   6.316   3.832   4.398
 2299SOL    HW2 7797   6.220   3.726   4.476
 2300SOL     OW 7798   3.987   0.882   2.499
 2300SOL    HW1 7799   3.942   0.797   2.471
 2300SOL    HW2 7800   3.945   0.959   2.450
 2301SOL     OW 7801   4.389   3.382   5.888
 2301SOL    HW1 7802   4.429   3.349   5.802
 2301SOL    HW2 7803   4.451   3.360   5.964
 2302SOL     OW 7804   0.408   3.795   4.637
 2302SOL    HW1 7805   0.400   3.804   4.736
 2302SOL    HW2 7806   0.469   3.866   4.602
 2303SOL     OW 7807   1.767   2.583   6.588
 2303SOL    HW1 7808   1.695   2.633   6.540
 2303SOL    HW2 7809   1.762   2.602   6.686
 2304SOL     OW 7810   3.716   0.176   3.217
 2304SOL    HW1 7811   3.795   0.224   3.253
 2304SOL    HW2 7812   3.663   0.137   3.293
 2305SOL     OW 7813   3.197   5.764   4.763
 2305SOL    HW1 7814   3.202   5.789   4.860
 2305SOL    HW2 7815   3.154   5.674   4.754
 2306SOL     OW 7816   0.885   5.238   5.449
 2306SOL    HW1 7817   0.912   5.141   5.448
 2306SOL    HW2 7818   0.870   5.269   5.355
 2307SOL     OW 7819   6.450   4.194   5.578
 2307SOL    HW1 7820   6.521   4.255   5.610
 2307SOL    HW2 7821   6.423   4.131   5.651
 2308SOL     OW 7822   0.564   5.926   2.697
 2308SOL    HW1 7823   0.649   5.979   2.692
 2308SOL    HW2 7824   0.503   5.954   2.623
 2309SOL     OW 7825   1.845   0.967   4.757
 2309SOL    HW1 7826   1.768   1.030   4.761
 2309SOL    HW2 7827   1.912   1.000   4.691
 2310SOL     OW 7828   4.979   5.906   0.746
 2310SOL    HW1 7829   5.029   5.893   0.661
 2310SOL    HW2 7830   4.935   5.821   0.773
 2311SOL     OW 7831   2.820   5.845   0.297
 2311SOL    HW1 7832   2.789   5.779   0.365
 2311SOL    HW2 7833   2.842   5.798   0.211
 2312SOL     OW 7834   2.956   5.146   1.587
 2312SOL    HW1 7835   2.928   5.224   1.531
 2312SOL    HW2 7836   2.906   5.064   1.560
 2313SOL     OW 7837   4.657   5.085   1.145
 2313SOL    HW1 7838   4.682   4.988   1.153
 2313SOL    HW2 7839   4.738   5.139   1.122
 2314SOL     OW 7840   2.190   4.467   2.496
 2314SOL    HW1 7841   2.211   4.403   2.422
 2314SOL    HW2 7842   2.275   4.496   2.541
 2315SOL     OW 7843   3.557   2.132   6.568
 2315SOL    HW1 7844   3.647   2.154   6.529
 2315SOL    HW2 7845   3.535   2.037   6.548
 2316SOL     OW 7846   5.766   4.047   1.704
 2316SOL    HW1 7847   5.828   4.013   1.633
 2316SOL    HW2 7848   5.700   3.976   1.728
 2317SOL     OW 7849   0.444   0.137   3.645
 2317SOL    HW1 7850   0.444   0.161   3.548
 2317SOL    HW2 7851   0.521   0.183   3.691
 2318SOL     OW 7852   6.446   1.995   3.504
 2318SOL    HW1 7853   6.445   2.089   3.467
 2318SOL    HW2 7854   6.423   1.931   3.431
 2319SOL     OW 7855   0.880   5.938   3.602
 2319SOL    HW1 7856   0.935   6.022   3.602
 2319SOL    HW2 7857   0.842   5.923   3.693
 2320SOL     OW 7858   0.049   4.847   3.739
 2320SOL    HW1 7859   0.121   4.830   3.805
 2320SOL    HW2 7860   6.995   4.881   3.787
 2321SOL     OW 7861   2.782   4.762   3.694
 2321SOL    HW1 7862   2.789   4.796   3.600
 2321SOL    HW2 7863   2.846   4.812   3.752
 2322SOL     OW 7864   1.955   1.974   5.257
 2322SOL    HW1 7865   1.899   2.055   5.240
 2322SOL    HW2 7866   1.910   1.917   5.327
 2323SOL     OW 7867   5.813   3.437   1.627
 2323SOL    HW1 7868   5.809   3.351   1.576
 2323SOL    HW2 7869   5.908   3.468   1.632
 2324SOL     OW 7870   0.242   5.311   4.416
 2324SOL    HW1 7871   0.149   5.312   4.381
 2324SOL    HW2 7872   0.241   5.329   4.515
 2325SOL     OW 7873   6.834   1.768   0.350
 2325SOL    HW1 7874   6.739   1.741   0.360
 2325SOL    HW2 7875   6.893   1.693   0.381
 2326SOL     OW 7876   0.730   5.373   0.474
 2326SOL    HW1 7877   0.655   5.369   0.540
 2326SOL    HW2 7878   0.767   5.281   0.460
 2327SOL     OW 7879   4.962   1.025   2.513
 2327SOL    HW1 7880   4.906   1.096   2.556
 2327SOL    HW2 7881   4.924   0.935   2.534
 2328SOL     OW 7882   6.232   5.748   3.717
 2328SOL    HW1 7883   6.271   5.713   3.632
 2328SOL    HW2 7884   6.132   5.741   3.713
 2329SOL     OW 7885   1.557   6.856   3.271
 2329SOL    HW1 7886   1.550   6.787   3.199
 2329SOL    HW2 7887   1.576   6.812   3.359
 2330SOL     OW 7888   1.638   3.818   6.673
 2330SOL    HW1 7889   1.705   3.856   6.737
 2330SOL    HW2 7890   1.546   3.847   6.700
 2331SOL     OW 7891   1.864   4.001   5.189
 2331SOL    HW1 7892   1.953   4.006   5.143
 2331SOL    HW2 7893   1.878   3.977   5.285
 2332SOL     OW 7894   6.548   3.796   6.763
 2332SOL    HW1 7895   6.521   3.815   6.669
 2332SOL    HW2 7896   6.478   3.831   6.825
 2333SOL     OW 7897   2.401   5.149   3.936
 2333SOL    HW1 7898   2.383   5.247   3.943
 2333SOL    HW2 7899   2.357   5.102   4.012
 2334SOL     OW 7900   2.087   0.073   6.133
 2334SOL    HW1 7901   2.139   0.054   6.217
 2334SOL    HW2 7902   2.009   0.132   6.155
 2335SOL     OW 7903   5.340   4.519   5.024
 2335SOL    HW1 7904   5.311   4.593   4.962
 2335SOL    HW2 7905   5.269   4.448   5.025
 2336SOL     OW 7906   4.915   1.331   5.679
 2336SOL    HW1 7907   4.876   1.380   5.601
 2336SOL    HW2 7908   4.906   1.232   5.664
 2337SOL     OW 7909   6.105   0.473   4.962
 2337SOL    HW1 7910   6.148   0.442   5.046
 2337SOL    HW2 7911   6.075   0.568   4.972
 2338SOL     OW 7912   1.341   6.620   0.295
 2338SOL    HW1 7913   1.293   6.574   0.221
 2338SOL    HW2 7914   1.402   6.555   0.341
 2339SOL     OW 7915   3.015   4.417   5.864
 2339SOL    HW1 7916   2.994   4.514   5.874
 2339SOL    HW2 7917   3.071   4.404   5.782
 2340SOL     OW 7918   4.431   5.283   3.776
 2340SOL    HW1 7919   4.530   5.288   3.789
 2340SOL    HW2 7920   4.392   5.217   3.840
 2341SOL     OW 7921   0.788   3.720   6.087
 2341SOL    HW1 7922   0.878   3.763   6.074
 2341SOL    HW2 7923   0.746   3.705   5.998
 2342SOL     OW 7924   4.955   1.273   5.094
 2342SOL    HW1 7925   4.940   1.371   5.104
 2342SOL    HW2 7926   5.027   1.257   5.026
 2343SOL     OW 7927   0.725   6.084   1.733
 2343SOL    HW1 7928   0.636   6.039   1.735
 2343SOL    HW2 7929   0.765   6.074   1.643
 2344SOL     OW 7930   1.766   0.313   3.088
 2344SOL    HW1 7931   1.770   0.259   3.003
 2344SOL    HW2 7932   1.699   0.386   3.077
 2345SOL     OW 7933   1.002   2.525   1.711
 2345SOL    HW1 7934   1.047   2.446   1.754
 2345SOL    HW2 7935   0.918   2.546   1.760
 2346SOL     OW 7936   5.610   2.904   4.911
 2346SOL    HW1 7937   5.547   2.893   4.834
 2346SOL    HW2 7938   5.602   2.997   4.948
 2347SOL     OW 7939   1.531   4.108   1.314
 2347SOL    HW1 7940   1.500   4.202   1.297
 2347SOL    HW2 7941   1.454   4.052   1.342
 2348SOL     OW 7942   2.855   6.873   1.903
 2348SOL    HW1 7943   2.843   6.777   1.876
 2348SOL    HW2 7944   2.789   6.930   1.854
 2349SOL     OW 7945   5.429   2.599   0.170
 2349SOL    HW1 7946   5.438   2.540   0.090
 2349SOL    HW2 7947   5.414   2.693   0.141
 2350SOL     OW 7948   2.641   5.462   5.303
 2350SOL    HW1 7949   2.595   5.500   5.223
 2350SOL    HW2 7950   2.711   5.526   5.335
 2351SOL     OW 7951   1.586   5.803   3.338
 2351SOL    HW1 7952   1.490   5.824   3.359
 2351SOL    HW2 7953   1.591   5.718   3.285
 2352SOL     OW 7954   5.831   5.980   6.098
 2352SOL    HW1 7955   5.833   5.977   5.998
 2352SOL    HW2 7956   5.792   6.067   6.128
 2353SOL     OW 7957   2.916   3.037   6.654
 2353SOL    HW1 7958   3.014   3.050   6.635
 2353SOL    HW2 7959   2.905   2.986   6.739
 2354SOL     OW 7960   3.274   1.562   2.481
 2354SOL    HW1 7961   3.250   1.470   2.450
 2354SOL    HW2 7962   3.191   1.615   2.494
 2355SOL     OW 7963   6.459   1.213   2.010
 2355SOL    HW1 7964   6.387   1.148   1.982
 2355SOL    HW2 7965   6.468   1.212   2.109
 2356SOL     OW 7966   4.115   5.221   3.958
 2356SOL    HW1 7967   4.107   5.220   3.858
 2356SOL    HW2 7968   4.208   5.196   3.985
 2357SOL     OW 7969   0.441   5.497   0.995
 2357SOL    HW1 7970   0.378   5.454   0.931
 2357SOL    HW2 7971   0.533   5.459   0.983
 2358SOL     OW 7972   2.128   0.840   4.756
 2358SOL    HW1 7973   2.137   0.897   4.838
 2358SOL    HW2 7974   2.203   0.774   4.755
 2359SOL     OW 7975   3.799   2.660   5.450
 2359SOL    HW1 7976   3.705   2.670   5.417
 2359SOL    HW2 7977   3.822   2.563   5.455
 2360SOL     OW 7978   3.634   5.218   1.853
 2360SOL    HW1 7979   3.574   5.181   1.924
 2360SOL    HW2 7980   3.584   5.221   1.766
 2361SOL     OW 7981   3.627   4.780   0.915
 2361SOL    HW1 7982   3.560   4.724   0.962
 2361SOL    HW2 7983   3.600   4.791   0.819
 2362SOL     OW 7984   3.512   4.926   4.316
 2362SOL    HW1 7985   3.583   4.956   4.379
 2362SOL    HW2 7986   3.474   4.839   4.347
 2363SOL     OW 7987   2.489   3.981   1.582
 2363SOL    HW1 7988   2.440   3.896   1.602
 2363SOL    HW2 7989   2.440   4.058   1.622
 2364SOL     OW 7990   4.596   0.981   2.408
 2364SOL    HW1 7991   4.516   1.023   2.366
 2364SOL    HW2 7992   4.626   0.904   2.351
 2365SOL     OW 7993   5.707   4.058   2.760
 2365SOL    HW1 7994   5.630   4.110   2.799
 2365SOL    HW2 7995   5.686   3.960   2.765
 2366SOL     OW 7996   4.818   5.291   4.811
 2366SOL    HW1 7997   4.718   5.288   4.806
 2366SOL    HW2 7998   4.846   5.329   4.898
 2367SOL     OW 7999   5.969   4.510   5.581
 2367SOL    HW1 8000   5.886   4.556   5.614
 2367SOL    HW2 8001   5.947   4.460   5.497
 2368SOL     OW 8002   5.270   1.816   4.988
 2368SOL    HW1 8003   5.285   1.732   5.040
 2368SOL    HW2 8004   5.182   1.856   5.013
 2369SOL     OW 8005   4.253   2.061   4.300
 2369SOL    HW1 8006   4.292   2.001   4.231
 2369SOL    HW2 8007   4.327   2.096   4.358
 2370SOL     OW 8008   3.850   2.337   0.547
 2370SOL    HW1 8009   3.886   2.288   0.626
 2370SOL    HW2 8010   3.900   2.423   0.535
 2371SOL     OW 8011   2.149   6.561   3.420
 2371SOL    HW1 8012   2.212   6.632   3.450
 2371SOL    HW2 8013   2.058   6.577   3.460
 2372SOL     OW 8014   5.682   6.410   6.954
 2372SOL    HW1 8015   5.585   6.394   6.974
 2372SOL    HW2 8016   5.690   6.465   6.871
 2373SOL     OW 8017   6.489   4.525   6.379
 2373SOL    HW1 8018   6.452   4.444   6.424
 2373SOL    HW2 8019   6.589   4.524   6.384
 2374SOL     OW 8020   0.568   5.178   2.951
 2374SOL    HW1 8021   0.512   5.250   2.909
 2374SOL    HW2 8022   0.643   5.220   3.002
 2375SOL     OW 8023   2.164   0.553   4.339
 2375SOL    HW1 8024   2.119   0.501   4.412
 2375SOL    HW2 8025   2.221   0.625   4.379
 2376SOL     OW 8026   5.991   3.177   4.583
 2376SOL    HW1 8027   5.989   3.091   4.634
 2376SOL    HW2 8028   5.920   3.176   4.513
 2377SOL     OW 8029   3.240   4.810   5.964
 2377SOL    HW1 8030   3.288   4.872   6.026
 2377SOL    HW2 8031   3.146   4.796   5.997
 2378SOL     OW 8032   0.888   0.326   1.037
 2378SOL    HW1 8033   0.897   0.257   0.965
 2378SOL    HW2 8034   0.969   0.326   1.094
 2379SOL     OW 8035   0.886   4.208   3.190
 2379SOL    HW1 8036   0.825   4.129   3.191
 2379SOL    HW2 8037   0.970   4.185   3.142
 2380SOL     OW 8038   4.530   5.534   5.844
 2380SOL    HW1 8039   4.550   5.595   5.921
 2380SOL    HW2 8040   4.527   5.588   5.760
 2381SOL     OW 8041   2.334   4.926   3.771
 2381SOL    HW1 8042   2.400   4.857   3.800
 2381SOL    HW2 8043   2.358   5.015   3.811
 2382SOL     OW 8044   6.283   5.855   2.121
 2382SOL    HW1 8045   6.243   5.930   2.068
 2382SOL    HW2 8046   6.247   5.858   2.214
 2383SOL     OW 8047   4.196   3.584   6.122
 2383SOL    HW1 8048   4.106   3.541   6.127
 2383SOL    HW2 8049   4.253   3.535   6.057
 2384SOL     OW 8050   0.915   2.244   3.387
 2384SOL    HW1 8051   0.838   2.218   3.445
 2384SOL    HW2 8052   0.894   2.222   3.292
 2385SOL     OW 8053   0.564   0.583   1.175
 2385SOL    HW1 8054   0.629   0.658   1.160
 2385SOL    HW2 8055   0.474   0.611   1.144
 2386SOL     OW 8056   0.198   4.950   6.770
 2386SOL    HW1 8057   0.261   5.028   6.775
 2386SOL    HW2 8058   0.214   4.900   6.685
 2387SOL     OW 8059   6.155   0.408   3.193
 2387SOL    HW1 8060   6.227   0.391   3.125
 2387SOL    HW2 8061   6.109   0.494   3.172
 2388SOL     OW 8062   2.007   5.086   3.905
 2388SOL    HW1 8063   2.024   4.989   3.924
 2388SOL    HW2 8064   1.968   5.096   3.814
 2389SOL     OW 8065   3.465   6.186   3.238
 2389SOL    HW1 8066   3.379   6.221   3.275
 2389SOL    HW2 8067   3.541   6.227   3.289
 2390SOL     OW 8068   4.951   3.702   4.648
 2390SOL    HW1 8069   4.902   3.745   4.571
 2390SOL    HW2 8070   5.048   3.723   4.642
 2391SOL     OW 8071   2.462   4.318   0.091
 2391SOL    HW1 8072   2.558   4.347   0.101
 2391SOL    HW2 8073   2.455   4.220   0.106
 2392SOL     OW 8074   3.962   4.975   5.639
 2392SOL    HW1 8075   3.950   5.026   5.554
 2392SOL    HW2 8076   3.895   5.007   5.707
 2393SOL     OW 8077   5.256   4.834   0.659
 2393SOL    HW1 8078   5.335   4.782   0.628
 2393SOL    HW2 8079   5.213   4.879   0.581
 2394SOL     OW 8080   6.791   2.249   2.605
 2394SOL    HW1 8081   6.822   2.175   2.665
 2394SOL    HW2 8082   6.797   2.336   2.653
 2395SOL     OW 8083   0.770   3.123   3.240
 2395SOL    HW1 8084   0.758   3.201   3.302
 2395SOL    HW2 8085   0.857   3.132   3.192
 2396SOL     OW 8086   0.540   6.700   5.187
 2396SOL    HW1 8087   0.639   6.711   5.190
 2396SOL    HW2 8088   0.511   6.684   5.092
 2397SOL     OW 8089   2.692   4.780   5.600
 2397SOL    HW1 8090   2.648   4.767   5.511
 2397SOL    HW2 8091   2.738   4.868   5.602
 2398SOL     OW 8092   3.901   6.183   5.121
 2398SOL    HW1 8093   3.859   6.225   5.041
 2398SOL    HW2 8094   3.876   6.236   5.203
 2399SOL     OW 8095   3.022   1.418   1.730
 2399SOL    HW1 8096   2.924   1.413   1.709
 2399SOL    HW2 8097   3.049   1.338   1.783
 2400SOL     OW 8098   0.939   2.026   6.304
 2400SOL    HW1 8099   0.839   2.027   6.309
 2400SOL    HW2 8100   0.973   1.940   6.342
 2401SOL     OW 8101   1.521   6.551   0.978
 2401SOL    HW1 8102   1.619   6.544   0.963
 2401SOL    HW2 8103   1.475   6.576   0.892
 2402SOL     OW 8104   0.779   3.097   1.447
 2402SOL    HW1 8105   0.860   3.156   1.448
 2402SOL    HW2 8106   0.732   3.106   1.359
 2403SOL     OW 8107   3.110   4.151   5.242
 2403SOL    HW1 8108   3.206   4.146   5.272
 2403SOL    HW2 8109   3.067   4.231   5.283
 2404SOL     OW 8110   6.645   2.364   1.356
 2404SOL    HW1 8111   6.550   2.342   1.331
 2404SOL    HW2 8112   6.681   2.293   1.417
 2405SOL     OW 8113   2.622   3.804   0.618
 2405SOL    HW1 8114   2.684   3.740   0.663
 2405SOL    HW2 8115   2.582   3.761   0.537
 2406SOL     OW 8116   4.707   5.882   5.872
 2406SOL    HW1 8117   4.675   5.802   5.922
 2406SOL    HW2 8118   4.806   5.890   5.882
 2407SOL     OW 8119   2.399   1.916   3.852
 2407SOL    HW1 8120   2.396   1.847   3.780
 2407SOL    HW2 8121   2.336   1.990   3.829
 2408SOL     OW 8122   4.527   6.513   5.524
 2408SOL    HW1 8123   4.482   6.570   5.593
 2408SOL    HW2 8124   4.527   6.561   5.436
 2409SOL     OW 8125   1.864   2.353   0.201
 2409SOL    HW1 8126   1.785   2.301   0.170
 2409SOL    HW2 8127   1.856   2.448   0.170
 2410SOL     OW 8128   0.010   3.584   4.600
 2410SOL    HW1 8129   0.012   3.485   4.614
 2410SOL    HW2 8130   6.993   3.606   4.514
 2411SOL     OW 8131   3.178   0.736   0.970
 2411SOL    HW1 8132   3.148   0.763   1.061
 2411SOL    HW2 8133   3.169   0.637   0.959
 2412SOL     OW 8134   3.194   2.667   0.557
 2412SOL    HW1 8135   3.194   2.669   0.457
 2412SOL    HW2 8136   3.280   2.703   0.591
 2413SOL     OW 8137   0.535   4.095   6.683
 2413SOL    HW1 8138   0.568   4.174   6.735
 2413SOL    HW2 8139   0.454   4.122   6.631
 2414SOL     OW 8140   6.055   2.063   5.290
 2414SOL    HW1 8141   5.958   2.088   5.292
 2414SOL    HW2 8142   6.101   2.114   5.217
 2415SOL     OW 8143   3.068   4.122   5.694
 2415SOL    HW1 8144   3.015   4.059   5.637
 2415SOL    HW2 8145   3.110   4.071   5.769
 2416SOL     OW 8146   6.594   3.355   3.431
 2416SOL    HW1 8147   6.538   3.427   3.390
 2416SOL    HW2 8148   6.650   3.395   3.503
 2417SOL     OW 8149   2.969   2.725   1.502
 2417SOL    HW1 8150   3.012   2.659   1.564
 2417SOL    HW2 8151   2.928   2.676   1.426
 2418SOL     OW 8152   6.284   3.650   6.326
 2418SOL    HW1 8153   6.227   3.586   6.275
 2418SOL    HW2 8154   6.325   3.715   6.262
 2419SOL     OW 8155   2.697   1.588   2.768
 2419SOL    HW1 8156   2.656   1.557   2.682
 2419SOL    HW2 8157   2.795   1.601   2.756
 2420SOL     OW 8158   0.474   2.695   1.336
 2420SOL    HW1 8159   0.572   2.680   1.353
 2420SOL    HW2 8160   0.451   2.663   1.245
 2421SOL     OW 8161   2.467   0.669   3.413
 2421SOL    HW1 8162   2.462   0.739   3.342
 2421SOL    HW2 8163   2.440   0.580   3.376
 2422SOL     OW 8164   3.946   0.021   0.195
 2422SOL    HW1 8165   4.014   0.091   0.216
 2422SOL    HW2 8166   3.859   0.045   0.237
 2423SOL     OW 8167   3.710   4.960   5.189
 2423SOL    HW1 8168   3.716   4.922   5.097
 2423SOL    HW2 8169   3.666   4.894   5.250
 2424SOL     OW 8170   5.182   0.241   6.362
 2424SOL    HW1 8171   5.150   0.274   6.273
 2424SOL    HW2 8172   5.105   0.201   6.412
 2425SOL     OW 8173   5.400   5.397   4.779
 2425SOL    HW1 8174   5.304   5.377   4.798
 2425SOL    HW2 8175   5.427   5.354   4.693
 2426SOL     OW 8176   3.051   2.036   5.115
 2426SOL    HW1 8177   3.107   2.109   5.076
 2426SOL    HW2 8178   3.014   2.065   5.203
 2427SOL     OW 8179   4.063   2.965   6.820
 2427SOL    HW1 8180   4.134   2.895   6.811
 2427SOL    HW2 8181   4.057   3.018   6.736
 2428SOL     OW 8182   1.287   1.809   2.221
 2428SOL    HW1 8183   1.378   1.824   2.261
 2428SOL    HW2 8184   1.217   1.844   2.283
 2429SOL     OW 8185   4.734   5.280   1.705
 2429SOL    HW1 8186   4.783   5.273   1.792
 2429SOL    HW2 8187   4.791   5.242   1.632
 2430SOL     OW 8188   0.031   6.074   6.661
 2430SOL    HW1 8189   7.020   6.164   6.644
 2430SOL    HW2 8190   7.017   6.007   6.599
 2431SOL     OW 8191   1.966   3.378   1.507
 2431SOL    HW1 8192   1.998   3.362   1.600
 2431SOL    HW2 8193   2.005   3.309   1.446
 2432SOL     OW 8194   3.053   5.328   2.997
 2432SOL    HW1 8195   3.136   5.276   2.975
 2432SOL    HW2 8196   2.979   5.264   3.017
 2433SOL     OW 8197   0.353   4.498   4.046
 2433SOL    HW1 8198   0.339   4.473   4.142
 2433SOL    HW2 8199   0.398   4.423   3.998
 2434SOL     OW 8200   3.554   2.045   3.059
 2434SOL    HW1 8201   3.632   2.014   3.005
 2434SOL    HW2 8202   3.478   2.066   2.998
 2435SOL     OW 8203   5.709   6.575   5.875
 2435SOL    HW1 8204   5.666   6.485   5.867
 2435SOL    HW2 8205   5.756   6.597   5.789
 2436SOL     OW 8206   0.054   3.546   0.034
 2436SOL    HW1 8207   0.075   3.455   0.069
 2436SOL    HW2 8208   0.138   3.590   0.002
 2437SOL     OW 8209   1.408   4.740   0.945
 2437SOL    HW1 8210   1.469   4.666   0.916
 2437SOL    HW2 8211   1.460   4.825   0.952
 2438SOL     OW 8212   3.839   1.737   4.690
 2438SOL    HW1 8213   3.766   1.727   4.622
 2438SOL    HW2 8214   3.928   1.721   4.647
 2439SOL     OW 8215   0.605   6.027   6.640
 2439SOL    HW1 8216   0.565   6.036   6.731
 2439SOL    HW2 8217   0.647   5.937   6.631
 2440SOL     OW 8218   0.177   2.302   5.480
 2440SOL    HW1 8219   0.131   2.390   5.476
 2440SOL    HW2 8220   0.151   2.247   5.400
 2441SOL     OW 8221   6.941   0.162   6.769
 2441SOL    HW1 8222   6.903   0.249   6.739
 2441SOL    HW2 8223   6.868   0.094   6.774
 2442SOL     OW 8224   5.952   2.980   3.316
 2442SOL    HW1 8225   5.864   3.011   3.351
 2442SOL    HW2 8226   6.026   3.018   3.372
 2443SOL     OW 8227   1.091   3.362   1.232
 2443SOL    HW1 8228   1.026   3.291   1.259
 2443SOL    HW2 8229   1.184   3.329   1.246
 2444SOL     OW 8230   3.594   5.231   2.500
 2444SOL    HW1 8231   3.534   5.253   2.423
 2444SOL    HW2 8232   3.637   5.314   2.534
 2445SOL     OW 8233   0.458   1.251   1.176
 2445SOL    HW1 8234   0.448   1.295   1.087
 2445SOL    HW2 8235   0.383   1.278   1.235
 2446SOL     OW 8236   6.616   5.409   0.363
 2446SOL    HW1 8237   6.702   5.410   0.414
 2446SOL    HW2 8238   6.540   5.389   0.426
 2447SOL     OW 8239   1.738   0.231   6.698
 2447SOL    HW1 8240   1.647   0.259   6.669
 2447SOL    HW2 8241   1.749   0.249   6.796
 2448SOL     OW 8242   5.237   0.648   4.556
 2448SOL    HW1 8243   5.237   0.550   4.537
 2448SOL    HW2 8244   5.179   0.695   4.489
 2449SOL     OW 8245   1.795   3.788   1.257
 2449SOL    HW1 8246   1.871   3.728   1.283
 2449SOL    HW2 8247   1.802   3.874   1.309
 2450SOL     OW 8248   6.623   6.103   6.286
 2450SOL    HW1 8249   6.704   6.161   6.281
 2450SOL    HW2 8250   6.623   6.054   6.374
 2451SOL     OW 8251   1.126   0.435   0.335
 2451SOL    HW1 8252   1.026   0.437   0.337
 2451SOL    HW2 8253   1.163   0.491   0.409
 2452SOL     OW 8254   1.450   2.429   3.980
 2452SOL    HW1 8255   1.357   2.411   4.014
 2452SOL    HW2 8256   1.510   2.449   4.057
 2453SOL     OW 8257   0.470   2.011   0.054
 2453SOL    HW1 8258   0.426   2.076   0.116
 2453SOL    HW2 8259   0.446   1.918   0.079
 2454SOL     OW 8260   2.365   6.193   1.392
 2454SOL    HW1 8261   2.387   6.140   1.310
 2454SOL    HW2 8262   2.288   6.152   1.440
 2455SOL     OW 8263   5.101   1.871   6.362
 2455SOL    HW1 8264   5.183   1.903   6.314
 2455SOL    HW2 8265   5.066   1.789   6.316
 2456SOL     OW 8266   1.367   2.896   5.838
 2456SOL    HW1 8267   1.276   2.858   5.821
 2456SOL    HW2 8268   1.358   2.992   5.865
 2457SOL     OW 8269   5.822   1.567   6.142
 2457SOL    HW1 8270   5.806   1.649   6.196
 2457SOL    HW2 8271   5.792   1.487   6.193
 2458SOL     OW 8272   1.380   6.927   1.389
 2458SOL    HW1 8273   1.448   6.998   1.370
 2458SOL    HW2 8274   1.354   6.931   1.485
 2459SOL     OW 8275   1.807   0.429   1.182
 2459SOL    HW1 8276   1.773   0.523   1.176
 2459SOL    HW2 8277   1.907   0.431   1.194
 2460SOL     OW 8278   0.536   1.214   4.257
 2460SOL    HW1 8279   0.485   1.131   4.279
 2460SOL    HW2 8280   0.546   1.269   4.339
 2461SOL     OW 8281   2.134   1.832   3.186
 2461SOL    HW1 8282   2.062   1.763   3.177
 2461SOL    HW2 8283   2.158   1.866   3.095
 2462SOL     OW 8284   0.306   5.353   0.804
 2462SOL    HW1 8285   0.223   5.300   0.785
 2462SOL    HW2 8286   0.299   5.442   0.761
 2463SOL     OW 8287   6.728   6.139   0.077
 2463SOL    HW1 8288   6.818   6.146   0.121
 2463SOL    HW2 8289   6.658   6.181   0.135
 2464SOL     OW 8290   0.946   2.768   4.664
 2464SOL    HW1 8291   1.033   2.731   4.633
 2464SOL    HW2 8292   0.937   2.755   4.763
 2465SOL     OW 8293   6.795   1.272   6.732
 2465SOL    HW1 8294   6.700   1.253   6.706
 2465SOL    HW2 8295   6.829   1.349   6.679
 2466SOL     OW 8296   1.106   1.661   1.385
 2466SOL    HW1 8297   1.016   1.689   1.351
 2466SOL    HW2 8298   1.175   1.727   1.353
 2467SOL     OW 8299   4.943   3.367   4.573
 2467SOL    HW1 8300   4.948   3.376   4.473
 2467SOL    HW2 8301   4.923   3.272   4.597
 2468SOL     OW 8302   3.498   6.521   4.380
 2468SOL    HW1 8303   3.592   6.526   4.346
 2468SOL    HW2 8304   3.499   6.508   4.479
 2469SOL     OW 8305   2.925   1.970   6.093
 2469SOL    HW1 8306   2.922   2.052   6.036
 2469SOL    HW2 8307   2.847   1.970   6.155
 2470SOL     OW 8308   1.886   5.343   6.454
 2470SOL    HW1 8309   1.974   5.334   6.409
 2470SOL    HW2 8310   1.843   5.253   6.464
 2471SOL     OW 8311   2.493   5.912   2.606
 2471SOL    HW1 8312   2.412   5.958   2.640
 2471SOL    HW2 8313   2.468   5.822   2.569
 2472SOL     OW 8314   4.976   0.679   2.243
 2472SOL    HW1 8315   4.994   0.590   2.287
 2472SOL    HW2 8316   4.911   0.666   2.168
 2473SOL     OW 8317   0.558   4.134   5.095
 2473SOL    HW1 8318   0.498   4.186   5.156
 2473SOL    HW2 8319   0.614   4.198   5.042
 2474SOL     OW 8320   1.986   0.491   0.775
 2474SOL    HW1 8321   1.959   0.557   0.844
 2474SOL    HW2 8322   2.004   0.538   0.688
 2475SOL     OW 8323   5.568   1.912   0.442
 2475SOL    HW1 8324   5.618   1.991   0.478
 2475SOL    HW2 8325   5.483   1.901   0.493
 2476SOL     OW 8326   4.140   6.900   0.079
 2476SOL    HW1 8327   4.198   6.863   0.152
 2476SOL    HW2 8328   4.070   6.958   0.120
 2477SOL     OW 8329   4.331   1.779   4.188
 2477SOL    HW1 8330   4.371   1.769   4.279
 2477SOL    HW2 8331   4.380   1.721   4.123
 2478SOL     OW 8332   3.159   0.508   3.948
 2478SOL    HW1 8333   3.256   0.483   3.951
 2478SOL    HW2 8334   3.113   0.454   3.877
 2479SOL     OW 8335   6.302   4.127   2.375
 2479SOL    HW1 8336   6.381   4.103   2.431
 2479SOL    HW2 8337   6.243   4.191   2.426
 2480SOL     OW 8338   2.590   2.081   1.761
 2480SOL    HW1 8339   2.672   2.129   1.793
 2480SOL    HW2 8340   2.560   2.119   1.674
 2481SOL     OW 8341   3.200   6.936   2.364
 2481SOL    HW1 8342   3.266   6.912   2.294
 2481SOL    HW2 8343   3.237   6.913   2.454
 2482SOL     OW 8344   6.981   3.291   6.924
 2482SOL    HW1 8345   7.000   3.246   7.011
 2482SOL    HW2 8346   6.928   3.374   6.941
 2483SOL     OW 8347   2.904   1.724   1.176
 2483SOL    HW1 8348   2.978   1.760   1.234
 2483SOL    HW2 8349   2.944   1.677   1.097
 2484SOL     OW 8350   4.392   1.291   5.713
 2484SOL    HW1 8351   4.433   1.223   5.652
 2484SOL    HW2 8352   4.326   1.247   5.773
 2485SOL     OW 8353   0.272   1.472   7.006
 2485SOL    HW1 8354   0.180   1.440   6.980
 2485SOL    HW2 8355   0.271   1.571   7.018
 2486SOL     OW 8356   6.655   5.343   2.375
 2486SOL    HW1 8357   6.648   5.294   2.288
 2486SOL    HW2 8358   6.568   5.387   2.396
 2487SOL     OW 8359   3.899   6.244   6.836
 2487SOL    HW1 8360   3.916   6.229   6.933
 2487SOL    HW2 8361   3.801   6.239   6.818
 2488SOL     OW 8362   0.648   3.530   0.705
 2488SOL    HW1 8363   0.624   3.603   0.641
 2488SOL    HW2 8364   0.568   3.470   0.717
 2489SOL     OW 8365   5.671   6.093   4.765
 2489SOL    HW1 8366   5.621   6.074   4.850
 2489SOL    HW2 8367   5.767   6.113   4.786
 2490SOL     OW 8368   3.172   5.856   3.044
 2490SOL    HW1 8369   3.177   5.948   3.005
 2490SOL    HW2 8370   3.247   5.800   3.008
 2491SOL     OW 8371   3.928   4.440   1.481
 2491SOL    HW1 8372   3.854   4.451   1.547
 2491SOL    HW2 8373   3.899   4.379   1.407
 2492SOL     OW 8374   0.158   4.513   2.239
 2492SOL    HW1 8375   0.209   4.535   2.323
 2492SOL    HW2 8376   0.076   4.569   2.234
 2493SOL     OW 8377   6.162   6.142   1.071
 2493SOL    HW1 8378   6.212   6.178   0.993
 2493SOL    HW2 8379   6.227   6.112   1.141
 2494SOL     OW 8380   6.871   3.082   1.398
 2494SOL    HW1 8381   6.953   3.035   1.366
 2494SOL    HW2 8382   6.895   3.174   1.429
 2495SOL     OW 8383   6.561   3.008   2.161
 2495SOL    HW1 8384   6.583   2.947   2.085
 2495SOL    HW2 8385   6.563   2.956   2.247
 2496SOL     OW 8386   5.287   3.956   5.890
 2496SOL    HW1 8387   5.285   3.857   5.877
 2496SOL    HW2 8388   5.232   3.981   5.970
 2497SOL     OW 8389   0.696   0.081   3.857
 2497SOL    HW1 8390   0.713   0.171   3.817
 2497SOL    HW2 8391   0.686   0.090   3.957
 2498SOL     OW 8392   1.857   2.988   4.385
 2498SOL    HW1 8393   1.849   2.973   4.287
 2498SOL    HW2 8394   1.806   3.071   4.410
 2499SOL     OW 8395   6.107   2.306   0.572
 2499SOL    HW1 8396   6.100   2.219   0.621
 2499SOL    HW2 8397   6.191   2.353   0.600
 2500SOL     OW 8398   3.562   3.632   2.974
 2500SOL    HW1 8399   3.489   3.650   2.908
 2500SOL    HW2 8400   3.547   3.688   3.056
 2501SOL     OW 8401   6.190   5.199   4.161
 2501SOL    HW1 8402   6.269   5.249   4.127
 2501SOL    HW2 8403   6.171   5.226   4.255
 2502SOL     OW 8404   2.240   5.929   3.323
 2502SOL    HW1 8405   2.301   5.958   3.397
 2502SOL    HW2 8406   2.193   6.009   3.286
 2503SOL     OW 8407   2.361   6.826   5.208
 2503SOL    HW1 8408   2.337   6.830   5.305
 2503SOL    HW2 8409   2.364   6.918   5.170
 2504SOL     OW 8410   4.322   1.071   2.380
 2504SOL    HW1 8411   4.352   1.162   2.406
 2504SOL    HW2 8412   4.309   1.015   2.462
 2505SOL     OW 8413   5.552   4.406   4.127
 2505SOL    HW1 8414   5.470   4.462   4.117
 2505SOL    HW2 8415   5.536   4.335   4.195
 2506SOL     OW 8416   5.985   4.841   6.488
 2506SOL    HW1 8417   5.899   4.876   6.450
 2506SOL    HW2 8418   5.992   4.743   6.467
 2507SOL     OW 8419   5.979   3.445   3.743
 2507SOL    HW1 8420   6.075   3.446   3.713
 2507SOL    HW2 8421   5.957   3.533   3.786
 2508SOL     OW 8422   5.622   0.708   4.137
 2508SOL    HW1 8423   5.586   0.622   4.173
 2508SOL    HW2 8424   5.624   0.704   4.037
 2509SOL     OW 8425   0.357   3.857   6.247
 2509SOL    HW1 8426   0.413   3.783   6.283
 2509SOL    HW2 8427   0.369   3.863   6.148
 2510SOL     OW 8428   3.623   3.783   2.176
 2510SOL    HW1 8429   3.721   3.793   2.194
 2510SOL    HW2 8430   3.589   3.698   2.216
 2511SOL     OW 8431   2.282   1.147   4.974
 2511SOL    HW1 8432   2.266   1.051   4.994
 2511SOL    HW2 8433   2.289   1.160   4.875
 2512SOL     OW 8434   2.589   4.834   3.492
 2512SOL    HW1 8435   2.506   4.802   3.538
 2512SOL    HW2 8436   2.609   4.928   3.519
 2513SOL     OW 8437   2.148   5.374   6.331
 2513SOL    HW1 8438   2.166   5.383   6.233
 2513SOL    HW2 8439   2.218   5.316   6.373
 2514SOL     OW 8440   1.237   2.848   2.306
 2514SOL    HW1 8441   1.179   2.919   2.347
 2514SOL    HW2 8442   1.189   2.761   2.308
 2515SOL     OW 8443   0.144   1.848   0.959
 2515SOL    HW1 8444   0.181   1.940   0.949
 2515SOL    HW2 8445   0.050   1.853   0.994
 2516SOL     OW 8446   0.122   2.626   4.967
 2516SOL    HW1 8447   0.035   2.661   5.000
 2516SOL    HW2 8448   0.156   2.684   4.893
 2517SOL     OW 8449   0.426   1.760   4.430
 2517SOL    HW1 8450   0.478   1.834   4.472
 2517SOL    HW2 8451   0.340   1.796   4.393
 2518SOL     OW 8452   3.343   3.429   1.009
 2518SOL    HW1 8453   3.262   3.437   1.068
 2518SOL    HW2 8454   3.320   3.376   0.928
 2519SOL     OW 8455   1.480   0.575   0.405
 2519SOL    HW1 8456   1.525   0.571   0.494
 2519SOL    HW2 8457   1.483   0.669   0.370
 2520SOL     OW 8458   2.598   3.101   1.303
 2520SOL    HW1 8459   2.593   3.139   1.211
 2520SOL    HW2 8460   2.691   3.112   1.338
 2521SOL     OW 8461   5.813   1.783   4.899
 2521SOL    HW1 8462   5.758   1.716   4.949
 2521SOL    HW2 8463   5.876   1.828   4.962
 2522SOL     OW 8464   1.700   2.047   0.528
 2522SOL    HW1 8465   1.623   2.021   0.470
 2522SOL    HW2 8466   1.700   2.146   0.542
 2523SOL     OW 8467   1.197   5.085   4.673
 2523SOL    HW1 8468   1.103   5.077   4.640
 2523SOL    HW2 8469   1.254   5.129   4.603
 2524SOL     OW 8470   1.056   2.253   4.649
 2524SOL    HW1 8471   1.058   2.325   4.580
 2524SOL    HW2 8472   1.148   2.235   4.682
 2525SOL     OW 8473   6.942   3.391   6.510
 2525SOL    HW1 8474   7.004   3.385   6.589
 2525SOL    HW2 8475   6.890   3.476   6.515
 2526SOL     OW 8476   2.393   1.132   1.296
 2526SOL    HW1 8477   2.308   1.102   1.252
 2526SOL    HW2 8478   2.404   1.231   1.280
 2527SOL     OW 8479   3.833   5.409   0.092
 2527SOL    HW1 8480   3.891   5.340   0.050
 2527SOL    HW2 8481   3.772   5.366   0.158
 2528SOL     OW 8482   4.434   5.811   6.443
 2528SOL    HW1 8483   4.398   5.724   6.409
 2528SOL    HW2 8484   4.496   5.794   6.519
 2529SOL     OW 8485   0.326   6.306   5.687
 2529SOL    HW1 8486   0.294   6.398   5.708
 2529SOL    HW2 8487   0.389   6.309   5.610
 2530SOL     OW 8488   2.362   6.188   6.380
 2530SOL    HW1 8489   2.352   6.101   6.428
 2530SOL    HW2 8490   2.321   6.262   6.433
 2531SOL     OW 8491   0.378   4.081   6.392
 2531SOL    HW1 8492   0.425   4.156   6.346
 2531SOL    HW2 8493   0.357   4.009   6.326
 2532SOL     OW 8494   5.165   6.604   2.924
 2532SOL    HW1 8495   5.181   6.508   2.900
 2532SOL    HW2 8496   5.067   6.619   2.938
 2533SOL     OW 8497   4.680   0.384   3.764
 2533SOL    HW1 8498   4.696   0.456   3.831
 2533SOL    HW2 8499   4.753   0.315   3.771
 2534SOL     OW 8500   4.421   1.887   2.433
 2534SOL    HW1 8501   4.397   1.840   2.348
 2534SOL    HW2 8502   4.395   1.830   2.511
 2535SOL     OW 8503   3.960   3.011   6.008
 2535SOL    HW1 8504   3.942   3.003   5.910
 2535SOL    HW2 8505   3.873   3.019   6.057
 2536SOL     OW 8506   0.819   0.688   1.106
 2536SOL    HW1 8507   0.877   0.622   1.153
 2536SOL    HW2 8508   0.874   0.768   1.079
 2537SOL     OW 8509   4.372   6.904   5.170
 2537SOL    HW1 8510   4.278   6.937   5.161
 2537SOL    HW2 8511   4.416   6.906   5.080
 2538SOL     OW 8512   6.240   4.077   3.731
 2538SOL    HW1 8513   6.146   4.075   3.699
 2538SOL    HW2 8514   6.265   4.171   3.754
 2539SOL     OW 8515   4.823   1.983   4.717
 2539SOL    HW1 8516   4.859   2.049   4.782
 2539SOL    HW2 8517   4.888   1.970   4.642
 2540SOL     OW 8518   2.498   2.312   1.641
 2540SOL    HW1 8519   2.549   2.369   1.705
 2540SOL    HW2 8520   2.485   2.362   1.555
 2541SOL     OW 8521   3.075   6.943   4.529
 2541SOL    HW1 8522   3.083   0.013   4.551
 2541SOL    HW2 8523   3.044   6.893   4.609
 2542SOL     OW 8524   1.904   5.611   5.823
 2542SOL    HW1 8525   1.877   5.525   5.866
 2542SOL    HW2 8526   1.853   5.624   5.738
 2543SOL     OW 8527   1.017   0.983   3.677
 2543SOL    HW1 8528   0.991   1.056   3.740
 2543SOL    HW2 8529   0.982   1.003   3.585
 2544SOL     OW 8530   1.130   5.884   6.232
 2544SOL    HW1 8531   1.223   5.846   6.229
 2544SOL    HW2 8532   1.133   5.980   6.206
 2545SOL     OW 8533   3.074   6.437   2.686
 2545SOL    HW1 8534   3.094   6.495   2.765
 2545SOL    HW2 8535   3.070   6.494   2.604
 2546SOL     OW 8536   6.821   1.139   2.656
 2546SOL    HW1 8537   6.804   1.204   2.581
 2546SOL    HW2 8538   6.799   1.182   2.743
 2547SOL     OW 8539   0.156   4.201   4.660
 2547SOL    HW1 8540   0.125   4.146   4.583
 2547SOL    HW2 8541   0.082   4.211   4.726
 2548SOL     OW 8542   6.769   0.778   5.440
 2548SOL    HW1 8543   6.703   0.839   5.482
 2548SOL    HW2 8544   6.759   0.781   5.340
 2549SOL     OW 8545   5.673   2.436   3.534
 2549SOL    HW1 8546   5.691   2.534   3.526
 2549SOL    HW2 8547   5.754   2.385   3.504
 2550SOL     OW 8548   5.730   5.098   0.264
 2550SOL    HW1 8549   5.777   5.177   0.226
 2550SOL    HW2 8550   5.632   5.115   0.266
 2551SOL     OW 8551   1.098   4.706   6.121
 2551SOL    HW1 8552   1.048   4.784   6.159
 2551SOL    HW2 8553   1.092   4.709   6.021
 2552SOL     OW 8554   1.480   6.280   3.312
 2552SOL    HW1 8555   1.561   6.249   3.362
 2552SOL    HW2 8556   1.495   6.269   3.214
 2553SOL     OW 8557   4.564   2.831   0.581
 2553SOL    HW1 8558   4.632   2.873   0.521
 2553SOL    HW2 8559   4.473   2.866   0.559
 2554SOL     OW 8560   0.585   1.920   0.493
 2554SOL    HW1 8561   0.522   1.843   0.501
 2554SOL    HW2 8562   0.547   1.987   0.429
 2555SOL     OW 8563   0.190   0.031   5.734
 2555SOL    HW1 8564   0.221   0.105   5.794
 2555SOL    HW2 8565   0.093   0.043   5.714
 2556SOL     OW 8566   4.134   5.006   7.023
 2556SOL    HW1 8567   4.215   5.054   6.989
 2556SOL    HW2 8568   4.148   4.908   7.015
 2557SOL     OW 8569   2.205   4.859   6.678
 2557SOL    HW1 8570   2.173   4.770   6.710
 2557SOL    HW2 8571   2.262   4.902   6.748
 2558SOL     OW 8572   4.273   0.790   5.163
 2558SOL    HW1 8573   4.311   0.725   5.097
 2558SOL    HW2 8574   4.338   0.803   5.238
 2559SOL     OW 8575   6.768   4.900   5.144
 2559SOL    HW1 8576   6.832   4.827   5.120
 2559SOL    HW2 8577   6.771   4.971   5.073
 2560SOL     OW 8578   6.395   0.059   0.368
 2560SOL    HW1 8579   6.295   0.059   0.363
 2560SOL    HW2 8580   6.433   0.006   0.292
 2561SOL     OW 8581   3.255   6.286   3.882
 2561SOL    HW1 8582   3.198   6.227   3.939
 2561SOL    HW2 8583   3.242   6.382   3.910
 2562SOL     OW 8584   1.916   3.848   0.155
 2562SOL    HW1 8585   1.816   3.838   0.148
 2562SOL    HW2 8586   1.938   3.936   0.197
 2563SOL     OW 8587   1.608   0.629   1.652
 2563SOL    HW1 8588   1.673   0.557   1.676
 2563SOL    HW2 8589   1.574   0.614   1.559
 2564SOL     OW 8590   1.078   6.000   2.544
 2564SOL    HW1 8591   0.996   5.944   2.537
 2564SOL    HW2 8592   1.126   5.978   2.629
 2565SOL     OW 8593   0.968   1.222   0.814
 2565SOL    HW1 8594   0.901   1.231   0.888
 2565SOL    HW2 8595   1.060   1.214   0.852
 2566SOL     OW 8596   2.618   6.423   5.219
 2566SOL    HW1 8597   2.652   6.507   5.262
 2566SOL    HW2 8598   2.580   6.362   5.289
 2567SOL     OW 8599   1.198   0.325   0.666
 2567SOL    HW1 8600   1.242   0.243   0.629
 2567SOL    HW2 8601   1.221   0.404   0.610
 2568SOL     OW 8602   5.936   3.591   0.365
 2568SOL    HW1 8603   5.948   3.554   0.273
 2568SOL    HW2 8604   6.021   3.636   0.395
 2569SOL     OW 8605   2.393   1.152   2.377
 2569SOL    HW1 8606   2.458   1.176   2.305
 2569SOL    HW2 8607   2.411   1.209   2.458
 2570SOL     OW 8608   6.541   2.994   6.217
 2570SOL    HW1 8609   6.558   2.912   6.163
 2570SOL    HW2 8610   6.615   3.060   6.205
 2571SOL     OW 8611   1.516   4.502   3.996
 2571SOL    HW1 8612   1.477   4.411   4.002
 2571SOL    HW2 8613   1.596   4.509   4.055
 2572SOL     OW 8614   1.453   4.921   3.148
 2572SOL    HW1 8615   1.458   4.957   3.055
 2572SOL    HW2 8616   1.537   4.872   3.170
 2573SOL     OW 8617   1.153   6.790   0.410
 2573SOL    HW1 8618   1.210   6.727   0.356
 2573SOL    HW2 8619   1.171   6.775   0.507
 2574SOL     OW 8620   6.602   3.083   1.589
 2574SOL    HW1 8621   6.628   3.098   1.685
 2574SOL    HW2 8622   6.679   3.041   1.540
 2575SOL     OW 8623   0.974   0.305   4.888
 2575SOL    HW1 8624   0.891   0.269   4.847
 2575SOL    HW2 8625   1.032   0.229   4.918
 2576SOL     OW 8626   4.485   6.656   5.280
 2576SOL    HW1 8627   4.441   6.743   5.258
 2576SOL    HW2 8628   4.533   6.621   5.200
 2577SOL     OW 8629   1.963   3.814   2.171
 2577SOL    HW1 8630   1.884   3.814   2.232
 2577SOL    HW2 8631   2.038   3.763   2.213
 2578SOL     OW 8632   3.977   1.708   1.792
 2578SOL    HW1 8633   4.056   1.650   1.773
 2578SOL    HW2 8634   3.896   1.651   1.805
 2579SOL     OW 8635   0.265   6.392   3.047
 2579SOL    HW1 8636   0.316   6.326   3.101
 2579SOL    HW2 8637   0.326   6.438   2.982
 2580SOL     OW 8638   3.110   2.264   5.616
 2580SOL    HW1 8639   3.038   2.329   5.638
 2580SOL    HW2 8640   3.186   2.275   5.679
 2581SOL     OW 8641   3.828   0.730   6.050
 2581SOL    HW1 8642   3.752   0.672   6.079
 2581SOL    HW2 8643   3.792   0.815   6.012
 2582SOL     OW 8644   0.291   3.384   0.241
 2582SOL    HW1 8645   0.351   3.424   0.309
 2582SOL    HW2 8646   0.196   3.389   0.271
 2583SOL     OW 8647   4.686   0.942   1.068
 2583SOL    HW1 8648   4.739   0.989   0.997
 2583SOL    HW2 8649   4.732   0.951   1.156
 2584SOL     OW 8650   3.087   4.211   6.862
 2584SOL    HW1 8651   3.142   4.156   6.799
 2584SOL    HW2 8652   3.037   4.151   6.925
 2585SOL     OW 8653   1.895   5.185   0.190
 2585SOL    HW1 8654   1.899   5.186   0.090
 2585SOL    HW2 8655   1.906   5.092   0.223
 2586SOL     OW 8656   1.910   1.537   2.625
 2586SOL    HW1 8657   1.826   1.589   2.613
 2586SOL    HW2 8658   1.916   1.502   2.719
 2587SOL     OW 8659   6.003   1.135   4.057
 2587SOL    HW1 8660   6.044   1.189   3.983
 2587SOL    HW2 8661   5.933   1.075   4.019
 2588SOL     OW 8662   4.900   1.698   6.195
 2588SOL    HW1 8663   4.839   1.763   6.241
 2588SOL    HW2 8664   4.878   1.605   6.224
 2589SOL     OW 8665   1.316   5.994   0.290
 2589SOL    HW1 8666   1.401   6.045   0.305
 2589SOL    HW2 8667   1.283   5.958   0.377
 2590SOL     OW 8668   2.976   4.347   0.903
 2590SOL    HW1 8669   2.956   4.250   0.891
 2590SOL    HW2 8670   3.061   4.357   0.955
 2591SOL     OW 8671   4.789   6.527   2.688
 2591SOL    HW1 8672   4.854   6.602   2.696
 2591SOL    HW2 8673   4.696   6.564   2.682
 2592SOL     OW 8674   3.532   3.622   1.099
 2592SOL    HW1 8675   3.472   3.553   1.058
 2592SOL    HW2 8676   3.620   3.622   1.051
 2593SOL     OW 8677   2.372   4.392   6.870
 2593SOL    HW1 8678   2.443   4.437   6.816
 2593SOL    HW2 8679   2.411   4.361   6.957
 2594SOL     OW 8680   2.406   2.752   3.383
 2594SOL    HW1 8681   2.357   2.777   3.467
 2594SOL    HW2 8682   2.357   2.788   3.304
 2595SOL     OW 8683   1.089   1.074   2.387
 2595SOL    HW1 8684   1.135   1.163   2.393
 2595SOL    HW2 8685   1.134   1.009   2.448
 2596SOL     OW 8686   6.807   0.422   0.716
 2596SOL    HW1 8687   6.797   0.325   0.738
 2596SOL    HW2 8688   6.871   0.464   0.781
 2597SOL     OW 8689   5.962   5.939   0.333
 2597SOL    HW1 8690   5.900   6.015   0.315
 2597SOL    HW2 8691   5.911   5.861   0.367
 2598SOL     OW 8692   4.738   2.789   2.093
 2598SOL    HW1 8693   4.819   2.749   2.049
 2598SOL    HW2 8694   4.722   2.881   2.056
 2599SOL     OW 8695   2.183   5.687   1.803
 2599SOL    HW1 8696   2.153   5.631   1.880
 2599SOL    HW2 8697   2.108   5.748   1.776
 2600SOL     OW 8698   5.532   5.921   4.606
 2600SOL    HW1 8699   5.585   5.839   4.584
 2600SOL    HW2 8700   5.592   5.990   4.646
 2601SOL     OW 8701   0.014   1.381   3.115
 2601SOL    HW1 8702   0.001   1.473   3.078
 2601SOL    HW2 8703   0.108   1.370   3.147
 2602SOL     OW 8704   2.012   4.553   3.151
 2602SOL    HW1 8705   2.016   4.454   3.138
 2602SOL    HW2 8706   1.962   4.573   3.235
 2603SOL     OW 8707   1.716   6.229   1.726
 2603SOL    HW1 8708   1.720   6.201   1.822
 2603SOL    HW2 8709   1.679   6.322   1.721
 2604SOL     OW 8710   5.259   3.189   2.671
 2604SOL    HW1 8711   5.234   3.219   2.764
 2604SOL    HW2 8712   5.279   3.270   2.615
 2605SOL     OW 8713   1.157   2.261   0.816
 2605SOL    HW1 8714   1.078   2.322   0.824
 2605SOL    HW2 8715   1.206   2.281   0.731
 2606SOL     OW 8716   5.278   3.794   1.038
 2606SOL    HW1 8717   5.230   3.742   1.108
 2606SOL    HW2 8718   5.232   3.882   1.025
 2607SOL     OW 8719   2.169   2.715   2.066
 2607SOL    HW1 8720   2.133   2.804   2.036
 2607SOL    HW2 8721   2.095   2.648   2.069
 2608SOL     OW 8722   3.270   4.737   5.207
 2608SOL    HW1 8723   3.195   4.753   5.271
 2608SOL    HW2 8724   3.239   4.678   5.133
 2609SOL     OW 8725   6.675   1.751   2.116
 2609SOL    HW1 8726   6.676   1.847   2.088
 2609SOL    HW2 8727   6.748   1.702   2.069
 2610SOL     OW 8728   1.136   4.777   5.395
 2610SOL    HW1 8729   1.217   4.832   5.373
 2610SOL    HW2 8730   1.163   4.680   5.401
 2611SOL     OW 8731   4.832   2.291   5.589
 2611SOL    HW1 8732   4.913   2.339   5.624
 2611SOL    HW2 8733   4.751   2.325   5.636
 2612SOL     OW 8734   6.444   5.926   0.256
 2612SOL    HW1 8735   6.520   5.870   0.223
 2612SOL    HW2 8736   6.363   5.907   0.201
 2613SOL     OW 8737   1.801   0.068   0.550
 2613SOL    HW1 8738   1.812   0.167   0.563
 2613SOL    HW2 8739   1.716   0.051   0.500
 2614SOL     OW 8740   6.192   1.609   0.472
 2614SOL    HW1 8741   6.174   1.511   0.465
 2614SOL    HW2 8742   6.271   1.624   0.531
 2615SOL     OW 8743   1.251   2.894   0.146
 2615SOL    HW1 8744   1.283   2.988   0.137
 2615SOL    HW2 8745   1.153   2.894   0.166
 2616SOL     OW 8746   1.297   1.398   5.141
 2616SOL    HW1 8747   1.319   1.479   5.195
 2616SOL    HW2 8748   1.298   1.420   5.044
 2617SOL     OW 8749   6.384   0.078   6.551
 2617SOL    HW1 8750   6.306   0.057   6.492
 2617SOL    HW2 8751   6.382   0.021   6.633
 2618SOL     OW 8752   1.928   6.844   0.543
 2618SOL    HW1 8753   1.878   6.926   0.570
 2618SOL    HW2 8754   2.024   6.869   0.526
 2619SOL     OW 8755   4.225   0.925   2.612
 2619SOL    HW1 8756   4.243   0.839   2.660
 2619SOL    HW2 8757   4.133   0.923   2.574
 2620SOL     OW 8758   5.621   2.497   1.949
 2620SOL    HW1 8759   5.572   2.556   2.013
 2620SOL    HW2 8760   5.562   2.423   1.920
 2621SOL     OW 8761   2.393   6.017   1.164
 2621SOL    HW1 8762   2.438   6.002   1.076
 2621SOL    HW2 8763   2.361   5.929   1.201
 2622SOL     OW 8764   2.275   3.391   7.027
 2622SOL    HW1 8765   2.189   3.344   7.005
 2622SOL    HW2 8766   2.267   3.435   0.089
 2623SOL     OW 8767   0.704   1.769   3.968
 2623SOL    HW1 8768   0.661   1.805   3.886
 2623SOL    HW2 8769   0.673   1.676   3.985
 2624SOL     OW 8770   1.547   0.854   5.671
 2624SOL    HW1 8771   1.630   0.860   5.726
 2624SOL    HW2 8772   1.571   0.837   5.576
 2625SOL     OW 8773   3.291   5.713   5.970
 2625SOL    HW1 8774   3.350   5.641   5.934
 2625SOL    HW2 8775   3.198   5.699   5.939
 2626SOL     OW 8776   0.055   6.967   0.354
 2626SOL    HW1 8777   7.016   6.956   0.280
 2626SOL    HW2 8778   0.105   0.025   0.342
 2627SOL     OW 8779   2.919   0.124   5.411
 2627SOL    HW1 8780   2.982   0.056   5.450
 2627SOL    HW2 8781   2.971   0.191   5.358
 2628SOL     OW 8782   7.021   5.703   1.798
 2628SOL    HW1 8783   0.078   5.751   1.823
 2628SOL    HW2 8784   6.950   5.770   1.776
 2629SOL     OW 8785   3.280   3.645   2.410
 2629SOL    HW1 8786   3.290   3.640   2.311
 2629SOL    HW2 8787   3.184   3.634   2.435
 2630SOL     OW 8788   3.348   1.603   4.841
 2630SOL    HW1 8789   3.304   1.552   4.915
 2630SOL    HW2 8790   3.279   1.656   4.792
 2631SOL     OW 8791   5.224   5.599   0.561
 2631SOL    HW1 8792   5.275   5.536   0.502
 2631SOL    HW2 8793   5.261   5.595   0.654
 2632SOL     OW 8794   4.212   5.649   2.077
 2632SOL    HW1 8795   4.299   5.698   2.081
 2632SOL    HW2 8796   4.179   5.634   2.171
 2633SOL     OW 8797   6.805   3.129   6.211
 2633SOL    HW1 8798   6.794   3.154   6.308
 2633SOL    HW2 8799   6.824   3.211   6.158
 2634SOL     OW 8800   2.114   1.955   6.218
 2634SOL    HW1 8801   2.180   1.935   6.290
 2634SOL    HW2 8802   2.159   2.001   6.142
 2635SOL     OW 8803   4.342   5.677   3.112
 2635SOL    HW1 8804   4.245   5.693   3.094
 2635SOL    HW2 8805   4.387   5.647   3.028
 2636SOL     OW 8806   3.595   6.669   6.019
 2636SOL    HW1 8807   3.550   6.682   6.107
 2636SOL    HW2 8808   3.688   6.635   6.033
 2637SOL     OW 8809   6.249   0.996   2.845
 2637SOL    HW1 8810   6.332   1.023   2.796
 2637SOL    HW2 8811   6.185   1.073   2.848
 2638SOL     OW 8812   0.141   6.218   4.520
 2638SOL    HW1 8813   0.239   6.225   4.537
 2638SOL    HW2 8814   0.102   6.146   4.577
 2639SOL     OW 8815   5.126   5.342   4.825
 2639SOL    HW1 8816   5.056   5.377   4.886
 2639SOL    HW2 8817   5.088   5.329   4.733
 2640SOL     OW 8818   1.611   0.919   2.869
 2640SOL    HW1 8819   1.547   0.972   2.813
 2640SOL    HW2 8820   1.563   0.844   2.913
 2641SOL     OW 8821   4.745   2.240   1.094
 2641SOL    HW1 8822   4.844   2.229   1.084
 2641SOL    HW2 8823   4.721   2.238   1.191
 2642SOL     OW 8824   0.363   0.707   2.959
 2642SOL    HW1 8825   0.383   0.650   2.880
 2642SOL    HW2 8826   0.319   0.792   2.928
 2643SOL     OW 8827   1.687   4.931   4.832
 2643SOL    HW1 8828   1.697   5.001   4.761
 2643SOL    HW2 8829   1.590   4.908   4.843
 2644SOL     OW 8830   5.677   5.614   3.625
 2644SOL    HW1 8831   5.605   5.588   3.689
 2644SOL    HW2 8832   5.660   5.707   3.591
 2645SOL     OW 8833   4.440   5.481   2.662
 2645SOL    HW1 8834   4.444   5.510   2.566
 2645SOL    HW2 8835   4.364   5.417   2.674
 2646SOL     OW 8836   1.164   1.272   6.360
 2646SOL    HW1 8837   1.202   1.180   6.372
 2646SOL    HW2 8838   1.136   1.308   6.448
 2647SOL     OW 8839   4.374   0.280   2.701
 2647SOL    HW1 8840   4.385   0.233   2.789
 2647SOL    HW2 8841   4.277   0.302   2.687
 2648SOL     OW 8842   1.771   0.333   5.785
 2648SOL    HW1 8843   1.740   0.416   5.740
 2648SOL    HW2 8844   1.751   0.338   5.883
 2649SOL     OW 8845   5.899   1.974   3.554
 2649SOL    HW1 8846   5.997   1.991   3.564
 2649SOL    HW2 8847   5.879   1.949   3.459
 2650SOL     OW 8848   1.481   6.619   4.544
 2650SOL    HW1 8849   1.574   6.614   4.582
 2650SOL    HW2 8850   1.476   6.695   4.479
 2651SOL     OW 8851   2.870   1.906   2.367
 2651SOL    HW1 8852   2.923   1.921   2.450
 2651SOL    HW2 8853   2.875   1.987   2.309
 2652SOL     OW 8854   3.997   3.628   6.498
 2652SOL    HW1 8855   3.960   3.676   6.419
 2652SOL    HW2 8856   3.991   3.529   6.482
 2653SOL     OW 8857   2.596   6.788   0.957
 2653SOL    HW1 8858   2.665   6.734   1.006
 2653SOL    HW2 8859   2.509   6.783   1.006
 2654SOL     OW 8860   6.640   0.116   1.629
 2654SOL    HW1 8861   6.639   0.016   1.620
 2654SOL    HW2 8862   6.727   0.145   1.669
 2655SOL     OW 8863   5.487   6.707   4.448
 2655SOL    HW1 8864   5.407   6.647   4.440
 2655SOL    HW2 8865   5.563   6.655   4.488
 2656SOL     OW 8866   5.517   6.853   4.714
 2656SOL    HW1 8867   5.616   6.849   4.726
 2656SOL    HW2 8868   5.493   6.820   4.622
 2657SOL     OW 8869   2.054   3.499   5.930
 2657SOL    HW1 8870   1.994   3.470   6.004
 2657SOL    HW2 8871   2.007   3.490   5.842
 2658SOL     OW 8872   3.514   4.036   0.879
 2658SOL    HW1 8873   3.438   4.002   0.824
 2658SOL    HW2 8874   3.482   4.112   0.936
 2659SOL     OW 8875   0.402   2.458   5.171
 2659SOL    HW1 8876   0.361   2.396   5.104
 2659SOL    HW2 8877   0.432   2.405   5.251
 2660SOL     OW 8878   0.665   1.155   0.263
 2660SOL    HW1 8879   0.610   1.098   0.325
 2660SOL    HW2 8880   0.663   1.250   0.295
 2661SOL     OW 8881   1.825   1.226   1.576
 2661SOL    HW1 8882   1.738   1.275   1.577
 2661SOL    HW2 8883   1.878   1.251   1.657
 2662SOL     OW 8884   3.008   1.544   1.440
 2662SOL    HW1 8885   3.047   1.619   1.387
 2662SOL    HW2 8886   2.979   1.579   1.530
 2663SOL     OW 8887   3.509   0.171   0.893
 2663SOL    HW1 8888   3.509   0.270   0.881
 2663SOL    HW2 8889   3.537   0.127   0.808
 2664SOL     OW 8890   4.818   3.336   5.233
 2664SOL    HW1 8891   4.906   3.365   5.197
 2664SOL    HW2 8892   4.749   3.407   5.215
 2665SOL     OW 8893   1.452   3.525   4.447
 2665SOL    HW1 8894   1.524   3.507   4.514
 2665SOL    HW2 8895   1.409   3.613   4.467
 2666SOL     OW 8896   1.912   3.517   2.081
 2666SOL    HW1 8897   1.961   3.569   2.152
 2666SOL    HW2 8898   1.817   3.504   2.110
 2667SOL     OW 8899   6.392   2.775   4.592
 2667SOL    HW1 8900   6.302   2.733   4.599
 2667SOL    HW2 8901   6.412   2.795   4.496
 2668SOL     OW 8902   5.876   0.802   3.271
 2668SOL    HW1 8903   5.904   0.854   3.190
 2668SOL    HW2 8904   5.943   0.815   3.344
 2669SOL     OW 8905   2.373   2.208   1.884
 2669SOL    HW1 8906   2.402   2.287   1.831
 2669SOL    HW2 8907   2.439   2.133   1.872
 2670SOL     OW 8908   0.653   6.571   1.192
 2670SOL    HW1 8909   0.657   6.592   1.290
 2670SOL    HW2 8910   0.699   6.644   1.141
 2671SOL     OW 8911   4.957   4.349   6.496
 2671SOL    HW1 8912   4.879   4.409   6.482
 2671SOL    HW2 8913   5.042   4.401   6.489
 2672SOL     OW 8914   1.485   0.812   2.536
 2672SOL    HW1 8915   1.508   0.737   2.599
 2672SOL    HW2 8916   1.542   0.805   2.455
 2673SOL     OW 8917   3.114   0.935   3.657
 2673SOL    HW1 8918   3.076   1.012   3.709
 2673SOL    HW2 8919   3.071   0.931   3.567
 2674SOL     OW 8920   5.301   5.648   2.477
 2674SOL    HW1 8921   5.394   5.640   2.442
 2674SOL    HW2 8922   5.256   5.727   2.436
 2675SOL     OW 8923   4.590   1.219   3.698
 2675SOL    HW1 8924   4.632   1.135   3.664
 2675SOL    HW2 8925   4.612   1.231   3.795
 2676SOL     OW 8926   3.575   3.633   6.033
 2676SOL    HW1 8927   3.536   3.654   5.944
 2676SOL    HW2 8928   3.672   3.609   6.023
 2677SOL     OW 8929   1.995   5.423   1.179
 2677SOL    HW1 8930   1.904   5.420   1.137
 2677SOL    HW2 8931   2.059   5.469   1.116
 2678SOL     OW 8932   3.497   1.830   1.648
 2678SOL    HW1 8933   3.572   1.785   1.600
 2678SOL    HW2 8934   3.443   1.762   1.698
 2679SOL     OW 8935   2.407   4.780   2.682
 2679SOL    HW1 8936   2.398   4.868   2.728
 2679SOL    HW2 8937   2.503   4.762   2.663
 2680SOL     OW 8938   6.268   1.732   6.600
 2680SOL    HW1 8939   6.178   1.766   6.570
 2680SOL    HW2 8940   6.295   1.655   6.543
 2681SOL     OW 8941   2.214   2.677   2.946
 2681SOL    HW1 8942   2.179   2.705   2.856
 2681SOL    HW2 8943   2.311   2.654   2.938
 2682SOL     OW 8944   4.054   3.816   2.743
 2682SOL    HW1 8945   4.003   3.895   2.709
 2682SOL    HW2 8946   4.106   3.842   2.824
 2683SOL     OW 8947   2.264   3.394   1.417
 2683SOL    HW1 8948   2.279   3.488   1.385
 2683SOL    HW2 8949   2.213   3.343   1.348
 2684SOL     OW 8950   5.861   0.566   3.415
 2684SOL    HW1 8951   5.862   0.468   3.394
 2684SOL    HW2 8952   5.883   0.618   3.333
 2685SOL     OW 8953   2.070   6.797   5.795
 2685SOL    HW1 8954   2.008   6.737   5.845
 2685SOL    HW2 8955   2.031   6.818   5.705
 2686SOL     OW 8956   2.232   2.047   6.012
 2686SOL    HW1 8957   2.325   2.014   6.030
 2686SOL    HW2 8958   2.235   2.143   5.983
 2687SOL     OW 8959   3.696   2.560   1.728
 2687SOL    HW1 8960   3.603   2.594   1.712
 2687SOL    HW2 8961   3.691   2.475   1.780
 2688SOL     OW 8962   4.516   2.394   0.450
 2688SOL    HW1 8963   4.506   2.297   0.425
 2688SOL    HW2 8964   4.510   2.404   0.549
 2689SOL     OW 8965   0.607   3.689   2.308
 2689SOL    HW1 8966   0.549   3.655   2.234
 2689SOL    HW2 8967   0.597   3.788   2.315
 2690SOL     OW 8968   5.202   0.926   3.893
 2690SOL    HW1 8969   5.195   0.827   3.875
 2690SOL    HW2 8970   5.228   0.973   3.809
 2691SOL     OW 8971   5.654   3.930   3.721
 2691SOL    HW1 8972   5.639   4.004   3.656
 2691SOL    HW2 8973   5.691   3.850   3.674
 2692SOL     OW 8974   1.350   5.849   1.264
 2692SOL    HW1 8975   1.265   5.797   1.256
 2692SOL    HW2 8976   1.395   5.852   1.175
 2693SOL     OW 8977   0.916   5.767   2.717
 2693SOL    HW1 8978   0.875   5.803   2.633
 2693SOL    HW2 8979   0.853   5.780   2.793
 2694SOL     OW 8980   2.943   0.728   2.456
 2694SOL    HW1 8981   2.966   0.632   2.441
 2694SOL    HW2 8982   2.849   0.745   2.429
 2695SOL     OW 8983   6.422   6.024   2.829
 2695SOL    HW1 8984   6.337   5.990   2.870
 2695SOL    HW2 8985   6.493   6.025   2.899
 2696SOL     OW 8986   3.842   4.549   6.197
 2696SOL    HW1 8987   3.780   4.569   6.272
 2696SOL    HW2 8988   3.927   4.511   6.233
 2697SOL     OW 8989   4.763   3.385   0.121
 2697SOL    HW1 8990   4.722   3.416   0.035
 2697SOL    HW2 8991   4.691   3.353   0.183
 2698SOL     OW 8992   2.190   5.422   0.306
 2698SOL    HW1 8993   2.095   5.445   0.325
 2698SOL    HW2 8994   2.203   5.413   0.208
 2699SOL     OW 8995   2.899   0.016   3.024
 2699SOL    HW1 8996   2.824   6.990   2.986
 2699SOL    HW2 8997   2.986   7.009   2.989
 2700SOL     OW 8998   4.559   2.174   0.878
 2700SOL    HW1 8999   4.618   2.208   0.951
 2700SOL    HW2 9000   4.593   2.085   0.847
 2701SOL     OW 9001   5.179   3.912   5.478
 2701SOL    HW1 9002   5.175   3.992   5.537
 2701SOL    HW2 9003   5.099   3.854   5.495
 2702SOL     OW 9004   1.541   2.233   4.874
 2702SOL    HW1 9005   1.543   2.296   4.796
 2702SOL    HW2 9006   1.621   2.248   4.932
 2703SOL     OW 9007   2.074   6.376   1.317
 2703SOL    HW1 9008   1.975   6.376   1.334
 2703SOL    HW2 9009   2.118   6.310   1.379
 2704SOL     OW 9010   4.633   0.857   3.223
 2704SOL    HW1 9011   4.670   0.811   3.142
 2704SOL    HW2 9012   4.696   0.930   3.252
 2705SOL     OW 9013   1.005   0.863   5.267
 2705SOL    HW1 9014   1.084   0.823   5.221
 2705SOL    HW2 9015   1.026   0.957   5.293
 2706SOL     OW 9016   1.036   4.203   4.672
 2706SOL    HW1 9017   1.111   4.258   4.634
 2706SOL    HW2 9018   1.067   4.159   4.756
 2707SOL     OW 9019   3.934   0.684   2.766
 2707SOL    HW1 9020   3.908   0.689   2.669
 2707SOL    HW2 9021   3.865   0.728   2.822
 2708SOL     OW 9022   5.373   3.095   5.195
 2708SOL    HW1 9023   5.368   3.075   5.097
 2708SOL    HW2 9024   5.304   3.165   5.217
 2709SOL     OW 9025   5.250   1.473   5.346
 2709SOL    HW1 9026   5.239   1.375   5.358
 2709SOL    HW2 9027   5.213   1.521   5.425
 2710SOL     OW 9028   0.950   3.050   4.150
 2710SOL    HW1 9029   1.001   2.974   4.190
 2710SOL    HW2 9030   1.011   3.129   4.140
 2711SOL     OW 9031   4.611   0.512   1.050
 2711SOL    HW1 9032   4.702   0.495   1.014
 2711SOL    HW2 9033   4.613   0.587   1.115
 2712SOL     OW 9034   4.559   6.379   1.701
 2712SOL    HW1 9035   4.508   6.449   1.650
 2712SOL    HW2 9036   4.497   6.305   1.728
 2713SOL     OW 9037   4.003   4.095   5.401
 2713SOL    HW1 9038   4.024   4.005   5.364
 2713SOL    HW2 9039   4.056   4.164   5.352
 2714SOL     OW 9040   3.188   4.314   6.050
 2714SOL    HW1 9041   3.142   4.312   6.139
 2714SOL    HW2 9042   3.121   4.337   5.979
 2715SOL     OW 9043   4.832   6.709   0.339
 2715SOL    HW1 9044   4.827   6.662   0.427
 2715SOL    HW2 9045   4.791   6.652   0.268
 2716SOL     OW 9046   4.418   0.579   2.134
 2716SOL    HW1 9047   4.407   0.651   2.203
 2716SOL    HW2 9048   4.339   0.518   2.136
 2717SOL     OW 9049   6.845   1.648   1.894
 2717SOL    HW1 9050   6.757   1.644   1.847
 2717SOL    HW2 9051   6.901   1.721   1.854
 2718SOL     OW 9052   6.068   1.047   6.599
 2718SOL    HW1 9053   6.088   1.036   6.696
 2718SOL    HW2 9054   5.999   0.981   6.571
 2719SOL     OW 9055   1.456   4.581   4.486
 2719SOL    HW1 9056   1.398   4.661   4.502
 2719SOL    HW2 9057   1.546   4.596   4.526
 2720SOL     OW 9058   2.024   4.734   6.052
 2720SOL    HW1 9059   1.929   4.703   6.061
 2720SOL    HW2 9060   2.049   4.787   6.133
 2721SOL     OW 9061   2.433   6.262   3.604
 2721SOL    HW1 9062   2.402   6.344   3.652
 2721SOL    HW2 9063   2.361   6.193   3.605
 2722SOL     OW 9064   3.495   4.693   6.704
 2722SOL    HW1 9065   3.499   4.741   6.792
 2722SOL    HW2 9066   3.437   4.612   6.713
 2723SOL     OW 9067   4.661   5.068   0.287
 2723SOL    HW1 9068   4.736   5.006   0.308
 2723SOL    HW2 9069   4.574   5.026   0.313
 2724SOL     OW 9070   0.218   6.339   1.025
 2724SOL    HW1 9071   0.243   6.406   1.095
 2724SOL    HW2 9072   0.130   6.363   0.984
 2725SOL     OW 9073   6.066   4.221   3.024
 2725SOL    HW1 9074   6.060   4.139   2.967
 2725SOL    HW2 9075   6.063   4.195   3.120
 2726SOL     OW 9076   6.264   2.317   2.556
 2726SOL    HW1 9077   6.189   2.277   2.503
 2726SOL    HW2 9078   6.266   2.274   2.646
 2727SOL     OW 9079   1.262   4.319   3.750
 2727SOL    HW1 9080   1.216   4.237   3.716
 2727SOL    HW2 9081   1.296   4.302   3.842
 2728SOL     OW 9082   4.486   4.038   6.662
 2728SOL    HW1 9083   4.412   3.986   6.703
 2728SOL    HW2 9084   4.450   4.097   6.590
 2729SOL     OW 9085   0.496   0.314   0.966
 2729SOL    HW1 9086   0.564   0.338   0.896
 2729SOL    HW2 9087   0.542   0.305   1.054
 2730SOL     OW 9088   1.184   5.319   3.032
 2730SOL    HW1 9089   1.283   5.323   3.026
 2730SOL    HW2 9090   1.154   5.224   3.026
 2731SOL     OW 9091   4.028   3.982   5.665
 2731SOL    HW1 9092   4.113   3.965   5.715
 2731SOL    HW2 9093   4.047   4.040   5.586
 2732SOL     OW 9094   4.247   1.082   2.114
 2732SOL    HW1 9095   4.345   1.072   2.097
 2732SOL    HW2 9096   4.229   1.085   2.212
 2733SOL     OW 9097   0.533   0.474   0.269
 2733SOL    HW1 9098   0.465   0.417   0.223
 2733SOL    HW2 9099   0.598   0.509   0.201
 2734SOL     OW 9100   3.712   0.061   1.863
 2734SOL    HW1 9101   3.799   0.021   1.834
 2734SOL    HW2 9102   3.668   0.104   1.785
 2735SOL     OW 9103   1.002   3.050   3.099
 2735SOL    HW1 9104   1.057   2.968   3.107
 2735SOL    HW2 9105   1.036   3.106   3.024
 2736SOL     OW 9106   5.488   4.403   1.856
 2736SOL    HW1 9107   5.412   4.361   1.805
 2736SOL    HW2 9108   5.526   4.478   1.801
 2737SOL     OW 9109   2.955   0.284   6.515
 2737SOL    HW1 9110   3.012   0.230   6.578
 2737SOL    HW2 9111   2.900   0.222   6.460
 2738SOL     OW 9112   4.890   5.612   1.477
 2738SOL    HW1 9113   4.933   5.523   1.485
 2738SOL    HW2 9114   4.955   5.676   1.435
 2739SOL     OW 9115   0.770   5.627   1.874
 2739SOL    HW1 9116   0.692   5.688   1.891
 2739SOL    HW2 9117   0.810   5.600   1.961
 2740SOL     OW 9118   6.427   5.897   5.278
 2740SOL    HW1 9119   6.361   5.850   5.220
 2740SOL    HW2 9120   6.428   5.855   5.369
 2741SOL     OW 9121   6.929   6.837   0.146
 2741SOL    HW1 9122   6.928   6.773   0.223
 2741SOL    HW2 9123   7.018   6.831   0.100
 2742SOL     OW 9124   2.807   4.913   1.589
 2742SOL    HW1 9125   2.736   4.947   1.526
 2742SOL    HW2 9126   2.776   4.827   1.629
 2743SOL     OW 9127   4.823   2.164   3.750
 2743SOL    HW1 9128   4.906   2.108   3.750
 2743SOL    HW2 9129   4.791   2.178   3.656
 2744SOL     OW 9130   3.277   3.765   3.312
 2744SOL    HW1 9131   3.297   3.783   3.408
 2744SOL    HW2 9132   3.207   3.830   3.280
 2745SOL     OW 9133   0.988   6.380   6.528
 2745SOL    HW1 9134   1.074   6.407   6.485
 2745SOL    HW2 9135   0.987   6.281   6.541
 2746SOL     OW 9136   1.956   1.112   4.002
 2746SOL    HW1 9137   2.053   1.088   4.010
 2746SOL    HW2 9138   1.901   1.045   4.051
 2747SOL     OW 9139   5.141   5.160   0.714
 2747SOL    HW1 9140   5.138   5.107   0.630
 2747SOL    HW2 9141   5.096   5.248   0.701
 2748SOL     OW 9142   4.562   0.658   0.166
 2748SOL    HW1 9143   4.649   0.609   0.165
 2748SOL    HW2 9144   4.533   0.678   0.073
 2749SOL     OW 9145   4.697   0.947   6.608
 2749SOL    HW1 9146   4.734   0.898   6.687
 2749SOL    HW2 9147   4.597   0.941   6.609
 2750SOL     OW 9148   2.133   6.470   1.782
 2750SOL    HW1 9149   2.097   6.398   1.722
 2750SOL    HW2 9150   2.182   6.429   1.858
 2751SOL     OW 9151   6.469   5.646   2.162
 2751SOL    HW1 9152   6.520   5.621   2.080
 2751SOL    HW2 9153   6.421   5.733   2.146
 2752SOL     OW 9154   3.767   5.287   6.394
 2752SOL    HW1 9155   3.688   5.226   6.393
 2752SOL    HW2 9156   3.735   5.382   6.394
 2753SOL     OW 9157   4.310   5.049   4.911
 2753SOL    HW1 9158   4.294   4.951   4.923
 2753SOL    HW2 9159   4.283   5.077   4.819
 2754SOL     OW 9160   1.052   1.070   4.194
 2754SOL    HW1 9161   0.953   1.064   4.200
 2754SOL    HW2 9162   1.092   0.979   4.209
 2755SOL     OW 9163   3.378   0.568   2.402
 2755SOL    HW1 9164   3.461   0.543   2.453
 2755SOL    HW2 9165   3.355   0.494   2.339
 2756SOL     OW 9166   4.161   5.533   6.188
 2756SOL    HW1 9167   4.101   5.495   6.117
 2756SOL    HW2 9168   4.200   5.619   6.156
 2757SOL     OW 9169   1.458   5.041   0.720
 2757SOL    HW1 9170   1.448   5.054   0.818
 2757SOL    HW2 9171   1.374   5.000   0.683
 2758SOL     OW 9172   5.668   0.118   5.243
 2758SOL    HW1 9173   5.670   0.081   5.150
 2758SOL    HW2 9174   5.579   0.098   5.285
 2759SOL     OW 9175   4.556   4.836   2.764
 2759SOL    HW1 9176   4.587   4.899   2.692
 2759SOL    HW2 9177   4.636   4.792   2.805
 2760SOL     OW 9178   0.285   0.181   3.345
 2760SOL    HW1 9179   0.332   0.122   3.279
 2760SOL    HW2 9180   0.189   0.189   3.321
 2761SOL     OW 9181   2.730   4.766   4.843
 2761SOL    HW1 9182   2.757   4.691   4.903
 2761SOL    HW2 9183   2.757   4.853   4.883
 2762SOL     OW 9184   1.582   2.474   5.484
 2762SOL    HW1 9185   1.502   2.492   5.542
 2762SOL    HW2 9186   1.651   2.544   5.500
 2763SOL     OW 9187   5.989   0.236   1.815
 2763SOL    HW1 9188   5.900   0.245   1.770
 2763SOL    HW2 9189   5.983   0.165   1.885
 2764SOL     OW 9190   6.414   0.418   1.218
 2764SOL    HW1 9191   6.460   0.400   1.305
 2764SOL    HW2 9192   6.480   0.417   1.143
 2765SOL     OW 9193   5.169   1.947   3.362
 2765SOL    HW1 9194   5.268   1.956   3.376
 2765SOL    HW2 9195   5.137   1.863   3.406
 2766SOL     OW 9196   4.969   6.696   2.007
 2766SOL    HW1 9197   5.026   6.765   1.962
 2766SOL    HW2 9198   4.873   6.719   1.995
 2767SOL     OW 9199   6.882   4.483   5.675
 2767SOL    HW1 9200   6.832   4.555   5.722
 2767SOL    HW2 9201   6.970   4.469   5.718
 2768SOL     OW 9202   5.425   0.449   5.678
 2768SOL    HW1 9203   5.350   0.383   5.682
 2768SOL    HW2 9204   5.485   0.426   5.601
 2769SOL     OW 9205   0.746   4.345   1.944
 2769SOL    HW1 9206   0.684   4.321   1.869
 2769SOL    HW2 9207   0.841   4.328   1.916
 2770SOL     OW 9208   4.487   6.703   2.263
 2770SOL    HW1 9209   4.399   6.746   2.282
 2770SOL    HW2 9210   4.501   6.626   2.326
 2771SOL     OW 9211   4.613   0.730   1.212
 2771SOL    HW1 9212   4.522   0.745   1.250
 2771SOL    HW2 9213   4.641   0.809   1.157
 2772SOL     OW 9214   3.691   0.412   0.600
 2772SOL    HW1 9215   3.782   0.391   0.637
 2772SOL    HW2 9216   3.637   0.460   0.669
 2773SOL     OW 9217   3.187   5.303   1.380
 2773SOL    HW1 9218   3.223   5.285   1.288
 2773SOL    HW2 9219   3.257   5.351   1.434
 2774SOL     OW 9220   4.862   2.910   1.774
 2774SOL    HW1 9221   4.933   2.976   1.751
 2774SOL    HW2 9222   4.797   2.951   1.838
 2775SOL     OW 9223   1.010   0.192   1.475
 2775SOL    HW1 9224   0.928   0.248   1.491
 2775SOL    HW2 9225   1.001   0.145   1.387
 2776SOL     OW 9226   2.895   5.702   0.096
 2776SOL    HW1 9227   2.914   5.693   7.025
 2776SOL    HW2 9228   2.813   5.650   0.119
 2777SOL     OW 9229   0.817   2.450   4.282
 2777SOL    HW1 9230   0.760   2.470   4.203
 2777SOL    HW2 9231   0.826   2.531   4.339
 2778SOL     OW 9232   3.429   2.331   5.377
 2778SOL    HW1 9233   3.362   2.361   5.309
 2778SOL    HW2 9234   3.407   2.238   5.407
 2779SOL     OW 9235   6.254   0.650   0.423
 2779SOL    HW1 9236   6.272   0.555   0.398
 2779SOL    HW2 9237   6.165   0.678   0.386
 2780SOL     OW 9238   2.626   6.416   6.078
 2780SOL    HW1 9239   2.710   6.419   6.131
 2780SOL    HW2 9240   2.644   6.379   5.987
 2781SOL     OW 9241   5.488   3.568   6.555
 2781SOL    HW1 9242   5.570   3.622   6.537
 2781SOL    HW2 9243   5.445   3.599   6.639
 2782SOL     OW 9244   3.655   0.600   6.241
 2782SOL    HW1 9245   3.610   0.615   6.328
 2782SOL    HW2 9246   3.674   0.503   6.229
 2783SOL     OW 9247   0.523   3.825   5.352
 2783SOL    HW1 9248   0.608   3.781   5.382
 2783SOL    HW2 9249   0.456   3.755   5.329
 2784SOL     OW 9250   2.654   1.924   1.964
 2784SOL    HW1 9251   2.749   1.894   1.967
 2784SOL    HW2 9252   2.629   1.947   1.870
 2785SOL     OW 9253   5.423   3.053   2.114
 2785SOL    HW1 9254   5.450   2.996   2.193
 2785SOL    HW2 9255   5.367   2.999   2.052
 2786SOL     OW 9256   4.002   0.581   0.787
 2786SOL    HW1 9257   3.969   0.495   0.747
 2786SOL    HW2 9258   3.948   0.603   0.869
 2787SOL     OW 9259   1.452   4.439   5.822
 2787SOL    HW1 9260   1.530   4.385   5.790
 2787SOL    HW2 9261   1.374   4.423   5.762
 2788SOL     OW 9262   1.732   1.928   1.040
 2788SOL    HW1 9263   1.725   1.835   1.004
 2788SOL    HW2 9264   1.658   1.984   1.003
 2789SOL     OW 9265   6.586   3.401   3.076
 2789SOL    HW1 9266   6.638   3.354   3.148
 2789SOL    HW2 9267   6.636   3.393   2.989
 2790SOL     OW 9268   3.288   6.479   5.066
 2790SOL    HW1 9269   3.214   6.432   5.017
 2790SOL    HW2 9270   3.265   6.576   5.075
 2791SOL     OW 9271   2.131   3.600   2.229
 2791SOL    HW1 9272   2.175   3.590   2.140
 2791SOL    HW2 9273   2.201   3.617   2.299
 2792SOL     OW 9274   0.082   1.845   5.888
 2792SOL    HW1 9275   0.086   1.800   5.799
 2792SOL    HW2 9276   0.175   1.853   5.925
 2793SOL     OW 9277   5.335   0.415   5.011
 2793SOL    HW1 9278   5.301   0.380   5.099
 2793SOL    HW2 9279   5.382   0.341   4.962
 2794SOL     OW 9280   0.365   1.330   2.622
 2794SOL    HW1 9281   0.356   1.234   2.597
 2794SOL    HW2 9282   0.403   1.382   2.545
 2795SOL     OW 9283   1.551   3.532   0.854
 2795SOL    HW1 9284   1.503   3.568   0.934
 2795SOL    HW2 9285   1.503   3.450   0.821
 2796SOL     OW 9286   3.914   5.331   2.261
 2796SOL    HW1 9287   3.937   5.378   2.346
 2796SOL    HW2 9288   3.908   5.398   2.187
 2797SOL     OW 9289   5.288   4.495   5.505
 2797SOL    HW1 9290   5.195   4.519   5.531
 2797SOL    HW2 9291   5.287   4.443   5.419
 2798SOL     OW 9292   2.098   3.841   3.041
 2798SOL    HW1 9293   2.100   3.916   2.975
 2798SOL    HW2 9294   2.030   3.773   3.012
 2799SOL     OW 9295   7.008   5.999   0.194
 2799SOL    HW1 9296   0.022   5.918   0.235
 2799SOL    HW2 9297   7.012   5.993   0.095
 2800SOL     OW 9298   2.931   0.929   6.519
 2800SOL    HW1 9299   2.862   0.988   6.561
 2800SOL    HW2 9300   3.015   0.933   6.573
 2801SOL     OW 9301   4.037   5.691   1.655
 2801SOL    HW1 9302   4.115   5.663   1.600
 2801SOL    HW2 9303   4.069   5.739   1.737
 2802SOL     OW 9304   6.144   0.055   6.411
 2802SOL    HW1 9305   6.153   0.098   6.322
 2802SOL    HW2 9306   6.120   6.986   6.399
 2803SOL     OW 9307   3.226   5.932   4.555
 2803SOL    HW1 9308   3.135   5.968   4.536
 2803SOL    HW2 9309   3.219   5.860   4.625
 2804SOL     OW 9310   0.796   5.075   2.431
 2804SOL    HW1 9311   0.886   5.108   2.404
 2804SOL    HW2 9312   0.783   4.982   2.397
 2805SOL     OW 9313   6.941   4.457   6.599
 2805SOL    HW1 9314   6.955   4.362   6.626
 2805SOL    HW2 9315   7.006   4.515   6.648
 2806SOL     OW 9316   5.496   3.979   2.436
 2806SOL    HW1 9317   5.539   4.069   2.438
 2806SOL    HW2 9318   5.417   3.981   2.375
 2807SOL     OW 9319   4.017   4.855   4.006
 2807SOL    HW1 9320   3.930   4.871   3.959
 2807SOL    HW2 9321   4.090   4.846   3.939
 2808SOL     OW 9322   4.669   0.194   4.154
 2808SOL    HW1 9323   4.721   0.275   4.182
 2808SOL    HW2 9324   4.624   0.155   4.234
 2809SOL     OW 9325   5.256   1.719   0.632
 2809SOL    HW1 9326   5.296   1.810   0.647
 2809SOL    HW2 9327   5.168   1.729   0.585
 2810SOL     OW 9328   2.667   0.953   6.085
 2810SOL    HW1 9329   2.643   0.856   6.090
 2810SOL    HW2 9330   2.767   0.962   6.079
 2811SOL     OW 9331   0.091   0.484   4.164
 2811SOL    HW1 9332   0.006   0.509   4.118
 2811SOL    HW2 9333   0.164   0.546   4.135
 2812SOL     OW 9334   4.734   4.417   2.499
 2812SOL    HW1 9335   4.758   4.383   2.408
 2812SOL    HW2 9336   4.794   4.374   2.567
 2813SOL     OW 9337   6.408   1.762   6.258
 2813SOL    HW1 9338   6.460   1.834   6.305
 2813SOL    HW2 9339   6.431   1.673   6.298
 2814SOL     OW 9340   5.756   4.738   5.377
 2814SOL    HW1 9341   5.785   4.833   5.362
 2814SOL    HW2 9342   5.662   4.738   5.413
 2815SOL     OW 9343   1.508   1.509   4.208
 2815SOL    HW1 9344   1.571   1.494   4.284
 2815SOL    HW2 9345   1.539   1.586   4.153
 2816SOL     OW 9346   3.994   6.227   3.553
 2816SOL    HW1 9347   3.983   6.158   3.624
 2816SOL    HW2 9348   3.980   6.186   3.463
 2817SOL     OW 9349   1.261   1.205   1.140
 2817SOL    HW1 9350   1.213   1.289   1.116
 2817SOL    HW2 9351   1.335   1.226   1.205
 2818SOL     OW 9352   1.320   2.194   6.386
 2818SOL    HW1 9353   1.311   2.266   6.317
 2818SOL    HW2 9354   1.276   2.223   6.471
 2819SOL     OW 9355   6.446   3.179   2.618
 2819SOL    HW1 9356   6.443   3.275   2.589
 2819SOL    HW2 9357   6.429   3.120   2.539
 2820SOL     OW 9358   5.620   3.280   3.988
 2820SOL    HW1 9359   5.688   3.352   4.001
 2820SOL    HW2 9360   5.537   3.302   4.041
 2821SOL     OW 9361   1.335   3.159   2.883
 2821SOL    HW1 9362   1.337   3.231   2.814
 2821SOL    HW2 9363   1.271   3.087   2.855
 2822SOL     OW 9364   3.393   2.025   0.356
 2822SOL    HW1 9365   3.385   2.075   0.442
 2822SOL    HW2 9366   3.304   2.023   0.311
 2823SOL     OW 9367   1.789   0.927   4.367
 2823SOL    HW1 9368   1.772   1.012   4.317
 2823SOL    HW2 9369   1.719   0.915   4.437
 2824SOL     OW 9370   3.115   2.974   6.087
 2824SOL    HW1 9371   3.166   2.888   6.081
 2824SOL    HW2 9372   3.144   3.035   6.012
 2825SOL     OW 9373   5.819   5.994   1.317
 2825SOL    HW1 9374   5.852   5.946   1.399
 2825SOL    HW2 9375   5.775   6.079   1.343
 2826SOL     OW 9376   5.960   4.134   4.872
 2826SOL    HW1 9377   5.974   4.229   4.843
 2826SOL    HW2 9378   5.865   4.122   4.901
 2827SOL     OW 9379   0.658   7.000   5.981
 2827SOL    HW1 9380   0.740   6.944   5.980
 2827SOL    HW2 9381   0.677   0.062   5.942
 2828SOL     OW 9382   3.422   2.369   6.559
 2828SOL    HW1 9383   3.427   2.416   6.470
 2828SOL    HW2 9384   3.481   2.289   6.557
 2829SOL     OW 9385   3.076   1.241   0.311
 2829SOL    HW1 9386   3.082   1.144   0.332
 2829SOL    HW2 9387   3.087   1.294   0.395
 2830SOL     OW 9388   3.115   4.031   0.354
 2830SOL    HW1 9389   3.042   4.098   0.337
 2830SOL    HW2 9390   3.180   4.032   0.279
 2831SOL     OW 9391   6.316   6.403   4.311
 2831SOL    HW1 9392   6.327   6.478   4.246
 2831SOL    HW2 9393   6.397   6.396   4.368
 2832SOL     OW 9394   0.632   0.640   2.187
 2832SOL    HW1 9395   0.549   0.608   2.232
 2832SOL    HW2 9396   0.673   0.564   2.136
 2833SOL     OW 9397   5.212   2.919   1.993
 2833SOL    HW1 9398   5.205   3.012   1.956
 2833SOL    HW2 9399   5.123   2.875   1.991
 2834SOL     OW 9400   4.988   0.824   5.096
 2834SOL    HW1 9401   5.056   0.868   5.038
 2834SOL    HW2 9402   4.907   0.882   5.101
 2835SOL     OW 9403   6.294   6.241   3.243
 2835SOL    HW1 9404   6.254   6.314   3.188
 2835SOL    HW2 9405   6.237   6.159   3.236
 2836SOL     OW 9406   6.596   6.578   1.167
 2836SOL    HW1 9407   6.593   6.598   1.264
 2836SOL    HW2 9408   6.677   6.621   1.126
 2837SOL     OW 9409   6.286   2.091   4.398
 2837SOL    HW1 9410   6.243   2.146   4.469
 2837SOL    HW2 9411   6.295   2.144   4.314
 2838SOL     OW 9412   2.303   4.722   4.055
 2838SOL    HW1 9413   2.353   4.808   4.053
 2838SOL    HW2 9414   2.205   4.740   4.063
 2839SOL     OW 9415   4.725   3.078   1.390
 2839SOL    HW1 9416   4.787   3.133   1.445
 2839SOL    HW2 9417   4.711   2.989   1.435
 2840SOL     OW 9418   0.909   2.646   4.924
 2840SOL    HW1 9419   0.903   2.692   5.012
 2840SOL    HW2 9420   0.820   2.606   4.901
 2841SOL     OW 9421   0.299   6.091   0.106
 2841SOL    HW1 9422   0.225   6.075   0.041
 2841SOL    HW2 9423   0.322   6.006   0.152
 2842SOL     OW 9424   5.214   3.209   2.198
 2842SOL    HW1 9425   5.133   3.206   2.139
 2842SOL    HW2 9426   5.288   3.155   2.156
 2843SOL     OW 9427   3.871   0.486   3.675
 2843SOL    HW1 9428   3.967   0.461   3.661
 2843SOL    HW2 9429   3.812   0.409   3.651
 2844SOL     OW 9430   1.714   3.907   4.717
 2844SOL    HW1 9431   1.750   3.946   4.801
 2844SOL    HW2 9432   1.619   3.936   4.705
 2845SOL     OW 9433   1.096   4.266   6.420
 2845SOL    HW1 9434   1.073   4.300   6.512
 2845SOL    HW2 9435   1.188   4.296   6.396
 2846SOL     OW 9436   5.846   0.872   5.814
 2846SOL    HW1 9437   5.866   0.927   5.733
 2846SOL    HW2 9438   5.932   0.839   5.853
 2847SOL     OW 9439   4.004   5.102   4.935
 2847SOL    HW1 9440   3.972   5.192   4.966
 2847SOL    HW2 9441   4.068   5.113   4.859
 2848SOL     OW 9442   2.636   6.849   6.206
 2848SOL    HW1 9443   2.717   6.858   6.146
 2848SOL    HW2 9444   2.616   6.752   6.220
 2849SOL     OW 9445   2.140   2.505   1.234
 2849SOL    HW1 9446   2.075   2.433   1.214
 2849SOL    HW2 9447   2.195   2.479   1.313
 2850SOL     OW 9448   4.720   1.174   0.573
 2850SOL    HW1 9449   4.687   1.080   0.568
 2850SOL    HW2 9450   4.690   1.225   0.493
 2851SOL     OW 9451   3.373   6.333   5.591
 2851SOL    HW1 9452   3.381   6.354   5.494
 2851SOL    HW2 9453   3.287   6.369   5.626
 2852SOL     OW 9454   0.649   2.058   6.307
 2852SOL    HW1 9455   0.623   2.110   6.225
 2852SOL    HW2 9456   0.616   2.106   6.389
 2853SOL     OW 9457   3.767   3.063   1.291
 2853SOL    HW1 9458   3.725   3.001   1.356
 2853SOL    HW2 9459   3.699   3.128   1.257
 2854SOL     OW 9460   0.905   1.402   4.060
 2854SOL    HW1 9461   0.810   1.429   4.044
 2854SOL    HW2 9462   0.922   1.393   4.158
 2855SOL     OW 9463   3.175   1.979   3.238
 2855SOL    HW1 9464   3.134   1.948   3.324
 2855SOL    HW2 9465   3.268   1.943   3.230
 2856SOL     OW 9466   3.434   1.463   5.405
 2856SOL    HW1 9467   3.344   1.502   5.386
 2856SOL    HW2 9468   3.436   1.368   5.375
 2857SOL     OW 9469   3.049   3.661   5.499
 2857SOL    HW1 9470   2.962   3.614   5.515
 2857SOL    HW2 9471   3.033   3.740   5.440
 2858SOL     OW 9472   5.673   2.901   3.066
 2858SOL    HW1 9473   5.717   2.842   2.999
 2858SOL    HW2 9474   5.627   2.845   3.136
 2859SOL     OW 9475   6.798   5.183   0.093
 2859SOL    HW1 9476   6.894   5.157   0.079
 2859SOL    HW2 9477   6.741   5.132   0.028
 2860SOL     OW 9478   4.247   2.488   0.707
 2860SOL    HW1 9479   4.263   2.563   0.771
 2860SOL    HW2 9480   4.333   2.442   0.687
 2861SOL     OW 9481   4.428   4.057   6.197
 2861SOL    HW1 9482   4.339   4.032   6.236
 2861SOL    HW2 9483   4.451   3.991   6.125
 2862SOL     OW 9484   6.517   6.668   3.337
 2862SOL    HW1 9485   6.590   6.677   3.404
 2862SOL    HW2 9486   6.495   6.571   3.324
 2863SOL     OW 9487   6.418   6.211   6.680
 2863SOL    HW1 9488   6.423   6.185   6.776
 2863SOL    HW2 9489   6.326   6.191   6.644
 2864SOL     OW 9490   4.570   2.272   0.143
 2864SOL    HW1 9491   4.486   2.234   0.180
 2864SOL    HW2 9492   4.548   2.345   0.078
 2865SOL     OW 9493   5.025   4.516   5.211
 2865SOL    HW1 9494   5.112   4.545   5.250
 2865SOL    HW2 9495   4.973   4.466   5.280
 2866SOL     OW 9496   0.421   6.939   6.185
 2866SOL    HW1 9497   0.431   6.968   6.281
 2866SOL    HW2 9498   0.510   6.944   6.140
 2867SOL     OW 9499   6.238   4.006   4.729
 2867SOL    HW1 9500   6.215   4.103   4.717
 2867SOL    HW2 9501   6.192   3.952   4.660
 2868SOL     OW 9502   1.941   4.840   4.942
 2868SOL    HW1 9503   1.954   4.741   4.941
 2868SOL    HW2 9504   1.844   4.861   4.928
 2869SOL     OW 9505   5.753   2.088   2.648
 2869SOL    HW1 9506   5.750   1.988   2.643
 2869SOL    HW2 9507   5.670   2.126   2.607
 2870SOL     OW 9508   3.976   1.928   1.352
 2870SOL    HW1 9509   3.887   1.933   1.396
 2870SOL    HW2 9510   4.004   1.832   1.344
 2871SOL     OW 9511   1.183   1.026   5.762
 2871SOL    HW1 9512   1.127   1.082   5.822
 2871SOL    HW2 9513   1.266   0.998   5.811
 2872SOL     OW 9514   1.625   0.254   4.190
 2872SOL    HW1 9515   1.636   0.329   4.124
 2872SOL    HW2 9516   1.586   0.174   4.143
 2873SOL     OW 9517   6.505   5.003   2.555
 2873SOL    HW1 9518   6.432   5.044   2.501
 2873SOL    HW2 9519   6.470   4.978   2.645
 2874SOL     OW 9520   5.093   1.825   1.746
 2874SOL    HW1 9521   5.143   1.794   1.827
 2874SOL    HW2 9522   5.033   1.901   1.771
 2875SOL     OW 9523   2.727   5.375   0.337
 2875SOL    HW1 9524   2.659   5.323   0.387
 2875SOL    HW2 9525   2.818   5.358   0.377
 2876SOL     OW 9526   5.541   1.967   1.367
 2876SOL    HW1 9527   5.477   1.908   1.318
 2876SOL    HW2 9528   5.631   1.964   1.322
 2877SOL     OW 9529   1.191   3.289   5.925
 2877SOL    HW1 9530   1.245   3.228   5.867
 2877SOL    HW2 9531   1.246   3.368   5.951
 2878SOL     OW 9532   4.979   4.706   0.734
 2878SOL    HW1 9533   5.001   4.619   0.778
 2878SOL    HW2 9534   5.050   4.773   0.756
 2879SOL     OW 9535   5.500   4.870   6.989
 2879SOL    HW1 9536   5.551   4.807   0.020
 2879SOL    HW2 9537   5.514   4.847   6.893
 2880SOL     OW 9538   1.736   0.653   3.881
 2880SOL    HW1 9539   1.832   0.624   3.881
 2880SOL    HW2 9540   1.726   0.733   3.939
 2881SOL     OW 9541   0.182   0.202   6.985
 2881SOL    HW1 9542   0.097   0.149   6.981
 2881SOL    HW2 9543   0.159   0.299   6.993
 2882SOL     OW 9544   6.551   4.644   3.411
 2882SOL    HW1 9545   6.552   4.743   3.401
 2882SOL    HW2 9546   6.487   4.604   3.345
 2883SOL     OW 9547   3.279   6.431   2.457
 2883SOL    HW1 9548   3.374   6.424   2.487
 2883SOL    HW2 9549   3.219   6.440   2.536
 2884SOL     OW 9550   1.937   4.775   2.912
 2884SOL    HW1 9551   1.903   4.735   2.997
 2884SOL    HW2 9552   2.025   4.734   2.888
 2885SOL     OW 9553   1.044   1.946   4.193
 2885SOL    HW1 9554   1.137   1.976   4.169
 2885SOL    HW2 9555   0.988   2.025   4.214
 2886SOL     OW 9556   2.652   2.339   6.226
 2886SOL    HW1 9557   2.555   2.354   6.207
 2886SOL    HW2 9558   2.662   2.302   6.318
 2887SOL     OW 9559   2.231   0.109   5.440
 2887SOL    HW1 9560   2.270   0.017   5.444
 2887SOL    HW2 9561   2.302   0.175   5.415
 2888SOL     OW 9562   0.301   5.497   6.934
 2888SOL    HW1 9563   0.302   5.528   6.839
 2888SOL    HW2 9564   0.394   5.478   6.965
 2889SOL     OW 9565   0.897   1.343   0.585
 2889SOL    HW1 9566   0.943   1.317   0.671
 2889SOL    HW2 9567   0.839   1.267   0.555
 2890SOL     OW 9568   2.267   0.638   0.295
 2890SOL    HW1 9569   2.204   0.610   0.223
 2890SOL    HW2 9570   2.232   0.720   0.340
 2891SOL     OW 9571   3.026   4.728   5.364
 2891SOL    HW1 9572   2.966   4.650   5.346
 2891SOL    HW2 9573   3.063   4.720   5.457
 2892SOL     OW 9574   3.971   3.959   5.091
 2892SOL    HW1 9575   3.916   3.878   5.113
 2892SOL    HW2 9576   4.062   3.950   5.131
 2893SOL     OW 9577   3.087   0.764   5.007
 2893SOL    HW1 9578   3.182   0.760   5.036
 2893SOL    HW2 9579   3.082   0.798   4.913
 2894SOL     OW 9580   3.430   2.896   2.497
 2894SOL    HW1 9581   3.360   2.824   2.498
 2894SOL    HW2 9582   3.408   2.963   2.426
 2895SOL     OW 9583   3.685   3.005   0.240
 2895SOL    HW1 9584   3.687   2.921   0.294
 2895SOL    HW2 9585   3.723   2.988   0.149
 2896SOL     OW 9586   1.210   4.901   0.658
 2896SOL    HW1 9587   1.164   4.827   0.707
 2896SOL    HW2 9588   1.181   4.902   0.563
 2897SOL     OW 9589   0.160   0.507   3.041
 2897SOL    HW1 9590   0.225   0.583   3.032
 2897SOL    HW2 9591   0.067   0.544   3.050
 2898SOL     OW 9592   1.469   4.724   2.916
 2898SOL    HW1 9593   1.376   4.741   2.883
 2898SOL    HW2 9594   1.478   4.629   2.944
 2899SOL     OW 9595   5.165   1.295   0.672
 2899SOL    HW1 9596   5.118   1.361   0.613
 2899SOL    HW2 9597   5.199   1.343   0.754
 2900SOL     OW 9598   2.125   5.657   6.464
 2900SOL    HW1 9599   2.103   5.579   6.405
 2900SOL    HW2 9600   2.061   5.660   6.540
 2901SOL     OW 9601   2.870   0.058   1.310
 2901SOL    HW1 9602   2.952   0.038   1.256
 2901SOL    HW2 9603   2.865   7.022   1.387
 2902SOL     OW 9604   4.537   4.983   1.517
 2902SOL    HW1 9605   4.514   5.030   1.603
 2902SOL    HW2 9606   4.634   4.995   1.497
 2903SOL     OW 9607   3.066   2.549   1.690
 2903SOL    HW1 9608   3.008   2.507   1.760
 2903SOL    HW2 9609   3.155   2.503   1.689
 2904SOL     OW 9610   2.954   2.156   4.427
 2904SOL    HW1 9611   2.899   2.131   4.507
 2904SOL    HW2 9612   3.038   2.201   4.458
 2905SOL     OW 9613   0.786   2.237   2.428
 2905SOL    HW1 9614   0.742   2.148   2.423
 2905SOL    HW2 9615   0.862   2.234   2.493
 2906SOL     OW 9616   5.588   5.162   2.745
 2906SOL    HW1 9617   5.602   5.227   2.820
 2906SOL    HW2 9618   5.648   5.083   2.759
 2907SOL     OW 9619   6.371   0.167   4.364
 2907SOL    HW1 9620   6.291   0.226   4.349
 2907SOL    HW2 9621   6.451   0.207   4.320
 2908SOL     OW 9622   4.460   5.902   4.694
 2908SOL    HW1 9623   4.449   5.831   4.763
 2908SOL    HW2 9624   4.550   5.892   4.650
 2909SOL     OW 9625   2.116   6.186   6.226
 2909SOL    HW1 9626   2.124   6.197   6.127
 2909SOL    HW2 9627   2.206   6.197   6.268
 2910SOL     OW 9628   4.183   5.466   5.418
 2910SOL    HW1 9629   4.143   5.531   5.482
 2910SOL    HW2 9630   4.115   5.398   5.392
 2911SOL     OW 9631   2.647   4.845   2.920
 2911SOL    HW1 9632   2.569   4.863   2.980
 2911SOL    HW2 9633   2.659   4.922   2.857
 2912SOL     OW 9634   3.077   5.266   0.977
 2912SOL    HW1 9635   3.021   5.320   1.040
 2912SOL    HW2 9636   3.033   5.263   0.887
 2913SOL     OW 9637   0.208   2.064   1.435
 2913SOL    HW1 9638   0.275   2.067   1.361
 2913SOL    HW2 9639   0.119   2.036   1.399
 2914SOL     OW 9640   4.904   4.742   6.274
 2914SOL    HW1 9641   4.858   4.829   6.293
 2914SOL    HW2 9642   4.985   4.734   6.332
 2915SOL     OW 9643   4.299   0.595   3.043
 2915SOL    HW1 9644   4.344   0.506   3.049
 2915SOL    HW2 9645   4.369   0.665   3.026
 2916SOL     OW 9646   5.093   0.765   4.361
 2916SOL    HW1 9647   5.148   0.833   4.312
 2916SOL    HW2 9648   5.035   0.716   4.295
 2917SOL     OW 9649   3.751   0.376   2.165
 2917SOL    HW1 9650   3.800   0.462   2.181
 2917SOL    HW2 9651   3.667   0.394   2.116
 2918SOL     OW 9652   1.209   3.097   4.543
 2918SOL    HW1 9653   1.215   3.080   4.444
 2918SOL    HW2 9654   1.262   3.028   4.592
 2919SOL     OW 9655   5.991   5.307   0.449
 2919SOL    HW1 9656   6.038   5.222   0.471
 2919SOL    HW2 9657   5.951   5.300   0.358
 2920SOL     OW 9658   4.711   1.486   2.875
 2920SOL    HW1 9659   4.754   1.501   2.786
 2920SOL    HW2 9660   4.749   1.404   2.917
 2921SOL     OW 9661   6.590   0.736   0.013
 2921SOL    HW1 9662   6.611   0.676   6.964
 2921SOL    HW2 9663   6.598   0.831   7.011
 2922SOL     OW 9664   4.602   0.672   3.757
 2922SOL    HW1 9665   4.588   0.646   3.853
 2922SOL    HW2 9666   4.534   0.741   3.732
 2923SOL     OW 9667   6.691   4.003   0.769
 2923SOL    HW1 9668   6.679   3.946   0.688
 2923SOL    HW2 9669   6.771   3.971   0.820
 2924SOL     OW 9670   6.413   6.473   6.496
 2924SOL    HW1 9671   6.355   6.459   6.576
 2924SOL    HW2 9672   6.356   6.483   6.414
 2925SOL     OW 9673   6.498   4.549   0.880
 2925SOL    HW1 9674   6.405   4.582   0.899
 2925SOL    HW2 9675   6.556   4.565   0.960
 2926SOL     OW 9676   6.692   1.411   3.110
 2926SOL    HW1 9677   6.755   1.414   3.188
 2926SOL    HW2 9678   6.745   1.404   3.025
 2927SOL     OW 9679   6.847   2.926   3.354
 2927SOL    HW1 9680   6.929   2.871   3.335
 2927SOL    HW2 9681   6.799   2.945   3.268
 2928SOL     OW 9682   5.759   5.992   0.781
 2928SOL    HW1 9683   5.704   5.918   0.821
 2928SOL    HW2 9684   5.813   6.036   0.854
 2929SOL     OW 9685   0.059   0.346   5.654
 2929SOL    HW1 9686   0.043   0.422   5.591
 2929SOL    HW2 9687   7.003   0.328   5.707
 2930SOL     OW 9688   2.366   0.151   4.432
 2930SOL    HW1 9689   2.273   0.173   4.461
 2930SOL    HW2 9690   2.428   0.222   4.463
 2931SOL     OW 9691   5.053   4.941   6.675
 2931SOL    HW1 9692   4.955   4.929   6.694
 2931SOL    HW2 9693   5.104   4.936   6.760
 2932SOL     OW 9694   0.952   5.335   1.694
 2932SOL    HW1 9695   0.901   5.267   1.746
 2932SOL    HW2 9696   0.888   5.397   1.648
 2933SOL     OW 9697   3.931   2.202   3.198
 2933SOL    HW1 9698   3.901   2.262   3.124
 2933SOL    HW2 9699   3.858   2.194   3.267
 2934SOL     OW 9700   1.804   0.970   1.064
 2934SOL    HW1 9701   1.849   1.058   1.073
 2934SOL    HW2 9702   1.712   0.983   1.028
 2935SOL     OW 9703   6.690   1.175   0.611
 2935SOL    HW1 9704   6.776   1.146   0.567
 2935SOL    HW2 9705   6.613   1.132   0.565
 2936SOL     OW 9706   4.163   4.330   1.353
 2936SOL    HW1 9707   4.259   4.353   1.366
 2936SOL    HW2 9708   4.106   4.403   1.391
 2937SOL     OW 9709   2.295   4.154   0.750
 2937SOL    HW1 9710   2.320   4.058   0.765
 2937SOL    HW2 9711   2.344   4.211   0.815
 2938SOL     OW 9712   4.719   5.728   6.973
 2938SOL    HW1 9713   4.650   5.764   0.007
 2938SOL    HW2 9714   4.742   5.796   6.904
 2939SOL     OW 9715   6.788   6.292   6.886
 2939SOL    HW1 9716   6.739   6.238   6.954
 2939SOL    HW2 9717   6.741   6.285   6.798
 2940SOL     OW 9718   3.828   6.765   5.681
 2940SOL    HW1 9719   3.780   6.695   5.733
 2940SOL    HW2 9720   3.823   6.744   5.584
 2941SOL     OW 9721   3.913   1.090   5.675
 2941SOL    HW1 9722   3.845   1.156   5.706
 2941SOL    HW2 9723   4.002   1.134   5.668
 2942SOL     OW 9724   2.809   6.435   3.837
 2942SOL    HW1 9725   2.878   6.431   3.910
 2942SOL    HW2 9726   2.842   6.383   3.758
 2943SOL     OW 9727   5.148   4.508   3.170
 2943SOL    HW1 9728   5.208   4.576   3.211
 2943SOL    HW2 9729   5.053   4.538   3.177
 2944SOL     OW 9730   5.345   5.308   0.816
 2944SOL    HW1 9731   5.425   5.257   0.848
 2944SOL    HW2 9732   5.276   5.244   0.783
 2945SOL     OW 9733   3.150   3.793   4.301
 2945SOL    HW1 9734   3.147   3.877   4.246
 2945SOL    HW2 9735   3.116   3.813   4.393
 2946SOL     OW 9736   1.490   6.338   5.476
 2946SOL    HW1 9737   1.458   6.245   5.493
 2946SOL    HW2 9738   1.452   6.370   5.389
 2947SOL     OW 9739   0.413   5.185   0.087
 2947SOL    HW1 9740   0.440   5.238   0.167
 2947SOL    HW2 9741   0.409   5.246   0.007
 2948SOL     OW 9742   6.894   3.103   4.994
 2948SOL    HW1 9743   6.855   3.068   4.909
 2948SOL    HW2 9744   6.846   3.061   5.072
 2949SOL     OW 9745   0.664   6.854   1.003
 2949SOL    HW1 9746   0.763   6.843   0.993
 2949SOL    HW2 9747   0.617   6.787   0.945
 2950SOL     OW 9748   5.406   4.174   5.056
 2950SOL    HW1 9749   5.341   4.247   5.077
 2950SOL    HW2 9750   5.376   4.089   5.099
 2951SOL     OW 9751   6.873   0.536   6.816
 2951SOL    HW1 9752   6.908   0.604   6.752
 2951SOL    HW2 9753   6.814   0.471   6.767
 2952SOL     OW 9754   0.590   3.746   1.704
 2952SOL    HW1 9755   0.499   3.772   1.737
 2952SOL    HW2 9756   0.580   3.692   1.620
 2953SOL     OW 9757   5.817   1.570   1.686
 2953SOL    HW1 9758   5.844   1.655   1.733
 2953SOL    HW2 9759   5.750   1.591   1.616
 2954SOL     OW 9760   5.223   6.058   1.804
 2954SOL    HW1 9761   5.293   6.018   1.745
 2954SOL    HW2 9762   5.245   6.153   1.822
 2955SOL     OW 9763   5.335   1.738   1.387
 2955SOL    HW1 9764   5.315   1.732   1.289
 2955SOL    HW2 9765   5.255   1.708   1.439
 2956SOL     OW 9766   4.672   5.907   2.757
 2956SOL    HW1 9767   4.637   5.851   2.682
 2956SOL    HW2 9768   4.661   5.858   2.843
 2957SOL     OW 9769   1.077   5.184   1.466
 2957SOL    HW1 9770   1.177   5.180   1.464
 2957SOL    HW2 9771   1.048   5.244   1.540
 2958SOL     OW 9772   1.988   4.709   6.460
 2958SOL    HW1 9773   1.937   4.779   6.410
 2958SOL    HW2 9774   1.923   4.641   6.497
 2959SOL     OW 9775   2.804   5.855   6.700
 2959SOL    HW1 9776   2.876   5.893   6.643
 2959SOL    HW2 9777   2.714   5.881   6.663
 2960SOL     OW 9778   3.395   1.152   0.047
 2960SOL    HW1 9779   3.366   1.079   0.108
 2960SOL    HW2 9780   3.376   1.240   0.089
 2961SOL     OW 9781   6.145   1.285   3.881
 2961SOL    HW1 9782   6.141   1.331   3.792
 2961SOL    HW2 9783   6.240   1.279   3.912
 2962SOL     OW 9784   4.373   0.008   2.271
 2962SOL    HW1 9785   4.278   7.023   2.297
 2962SOL    HW2 9786   4.421   0.059   2.343
 2963SOL     OW 9787   2.409   2.512   4.754
 2963SOL    HW1 9788   2.397   2.455   4.674
 2963SOL    HW2 9789   2.491   2.483   4.804
 2964SOL     OW 9790   2.322   6.090   6.881
 2964SOL    HW1 9791   2.308   5.996   6.913
 2964SOL    HW2 9792   2.373   6.142   6.950
 2965SOL     OW 9793   0.782   2.700   5.599
 2965SOL    HW1 9794   0.810   2.794   5.579
 2965SOL    HW2 9795   0.747   2.695   5.693
 2966SOL     OW 9796   4.647   5.216   2.331
 2966SOL    HW1 9797   4.715   5.250   2.396
 2966SOL    HW2 9798   4.595   5.293   2.294
 2967SOL     OW 9799   5.619   3.214   4.913
 2967SOL    HW1 9800   5.641   3.230   4.817
 2967SOL    HW2 9801   5.631   3.299   4.964
 2968SOL     OW 9802   6.727   4.252   4.415
 2968SOL    HW1 9803   6.632   4.221   4.424
 2968SOL    HW2 9804   6.735   4.311   4.335
 2969SOL     OW 9805   3.708   1.315   5.262
 2969SOL    HW1 9806   3.800   1.276   5.254
 2969SOL    HW2 9807   3.714   1.404   5.307
 2970SOL     OW 9808   0.992   4.402   6.182
 2970SOL    HW1 9809   1.034   4.493   6.189
 2970SOL    HW2 9810   1.001   4.354   6.269
 2971SOL     OW 9811   5.821   3.011   1.641
 2971SOL    HW1 9812   5.809   3.079   1.713
 2971SOL    HW2 9813   5.743   2.948   1.640
 2972SOL     OW 9814   0.838   4.457   4.276
 2972SOL    HW1 9815   0.835   4.438   4.178
 2972SOL    HW2 9816   0.764   4.409   4.322
 2973SOL     OW 9817   6.263   0.076   3.965
 2973SOL    HW1 9818   6.345   0.036   4.007
 2973SOL    HW2 9819   6.276   0.174   3.954
 2974SOL     OW 9820   5.946   4.254   1.017
 2974SOL    HW1 9821   6.031   4.264   1.070
 2974SOL    HW2 9822   5.873   4.221   1.077
 2975SOL     OW 9823   6.349   1.926   4.007
 2975SOL    HW1 9824   6.329   2.024   4.015
 2975SOL    HW2 9825   6.283   1.884   3.945
 2976SOL     OW 9826   2.294   5.685   1.432
 2976SOL    HW1 9827   2.378   5.740   1.432
 2976SOL    HW2 9828   2.305   5.607   1.494
 2977SOL     OW 9829   2.164   0.004   3.674
 2977SOL    HW1 9830   2.106   6.973   3.730
 2977SOL    HW2 9831   2.248   0.025   3.724
 2978SOL     OW 9832   2.167   0.085   6.410
 2978SOL    HW1 9833   2.160   0.183   6.388
 2978SOL    HW2 9834   2.241   0.071   6.475
 2979SOL     OW 9835   1.887   0.875   2.795
 2979SOL    HW1 9836   1.943   0.808   2.844
 2979SOL    HW2 9837   1.791   0.863   2.820
 2980SOL     OW 9838   5.748   0.172   3.347
 2980SOL    HW1 9839   5.678   0.114   3.390
 2980SOL    HW2 9840   5.818   0.196   3.414
 2981SOL     OW 9841   0.802   0.956   5.771
 2981SOL    HW1 9842   0.727   0.925   5.829
 2981SOL    HW2 9843   0.795   1.055   5.758
 2982SOL     OW 9844   5.158   5.977   2.122
 2982SOL    HW1 9845   5.068   5.965   2.081
 2982SOL    HW2 9846   5.189   6.071   2.108
 2983SOL     OW 9847   0.270   1.542   3.092
 2983SOL    HW1 9848   0.278   1.544   2.992
 2983SOL    HW2 9849   0.297   1.452   3.127
 2984SOL     OW 9850   6.176   4.309   1.861
 2984SOL    HW1 9851   6.137   4.396   1.890
 2984SOL    HW2 9852   6.146   4.237   1.923
 2985SOL     OW 9853   6.429   2.329   3.102
 2985SOL    HW1 9854   6.332   2.305   3.112
 2985SOL    HW2 9855   6.438   2.427   3.083
 2986SOL     OW 9856   1.904   3.233   4.658
 2986SOL    HW1 9857   1.983   3.216   4.599
 2986SOL    HW2 9858   1.934   3.251   4.751
 2987SOL     OW 9859   5.044   1.507   4.842
 2987SOL    HW1 9860   5.122   1.555   4.802
 2987SOL    HW2 9861   4.975   1.491   4.771
 2988SOL     OW 9862   0.052   1.093   2.927
 2988SOL    HW1 9863   0.083   1.170   2.982
 2988SOL    HW2 9864   6.997   1.053   2.969
 2989SOL     OW 9865   0.127   4.948   1.014
 2989SOL    HW1 9866   0.155   5.034   1.056
 2989SOL    HW2 9867   0.202   4.912   0.958
 2990SOL     OW 9868   2.779   1.165   0.847
 2990SOL    HW1 9869   2.843   1.179   0.772
 2990SOL    HW2 9870   2.707   1.102   0.818
 2991SOL     OW 9871   5.789   4.300   0.162
 2991SOL    HW1 9872   5.697   4.269   0.184
 2991SOL    HW2 9873   5.797   4.398   0.182
 2992SOL     OW 9874   3.819   5.011   6.236
 2992SOL    HW1 9875   3.890   5.048   6.297
 2992SOL    HW2 9876   3.743   5.076   6.230
 2993SOL     OW 9877   0.962   3.728   0.128
 2993SOL    HW1 9878   0.865   3.737   0.151
 2993SOL    HW2 9879   0.981   3.634   0.097
 2994SOL     OW 9880   4.076   6.829   6.353
 2994SOL    HW1 9881   4.041   6.916   6.317
 2994SOL    HW2 9882   4.078   6.832   6.453
 2995SOL     OW 9883   2.575   0.794   5.234
 2995SOL    HW1 9884   2.594   0.890   5.213
 2995SOL    HW2 9885   2.611   0.736   5.160
 2996SOL     OW 9886   4.482   6.588   6.442
 2996SOL    HW1 9887   4.383   6.586   6.430
 2996SOL    HW2 9888   4.524   6.648   6.374
 2997SOL     OW 9889   3.704   5.813   0.284
 2997SOL    HW1 9890   3.611   5.816   0.249
 2997SOL    HW2 9891   3.768   5.800   0.208
 2998SOL     OW 9892   6.489   3.836   6.218
 2998SOL    HW1 9893   6.549   3.910   6.248
 2998SOL    HW2 9894   6.509   3.814   6.122
 2999SOL     OW 9895   3.069   1.295   1.129
 2999SOL    HW1 9896   3.006   1.365   1.162
 2999SOL    HW2 9897   3.158   1.307   1.173
 3000SOL     OW 9898   1.631   2.192   5.532
 3000SOL    HW1 9899   1.637   2.283   5.490
 3000SOL    HW2 9900   1.596   2.127   5.465
 3001SOL     OW 9901   4.840   5.971   6.112
 3001SOL    HW1 9902   4.884   5.998   6.027
 3001SOL    HW2 9903   4.898   5.907   6.161
 3002SOL     OW 9904   3.744   0.478   5.506
 3002SOL    HW1 9905   3.783   0.408   5.565
 3002SOL    HW2 9906   3.645   0.480   5.518
 3003SOL     OW 9907   1.409   0.299   5.724
 3003SOL    HW1 9908   1.475   0.280   5.651
 3003SOL    HW2 9909   1.449   0.363   5.790
 3004SOL     OW 9910   0.236   3.761   6.515
 3004SOL    HW1 9911   0.327   3.794   6.540
 3004SOL    HW2 9912   0.228   3.759   6.415
 3005SOL     OW 9913   4.502   2.184   1.229
 3005SOL    HW1 9914   4.425   2.170   1.166
 3005SOL    HW2 9915   4.485   2.265   1.285
 3006SOL     OW 9916   4.094   6.188   2.424
 3006SOL    HW1 9917   4.174   6.147   2.469
 3006SOL    HW2 9918   4.089   6.155   2.330
 3007SOL     OW 9919   5.556   5.519   1.966
 3007SOL    HW1 9920   5.609   5.492   1.886
 3007SOL    HW2 9921   5.461   5.492   1.953
 3008SOL     OW 9922   4.816   4.819   5.556
 3008SOL    HW1 9923   4.841   4.857   5.645
 3008SOL    HW2 9924   4.738   4.757   5.566
 3009SOL     OW 9925   1.930   0.478   1.890
 3009SOL    HW1 9926   1.884   0.445   1.808
 3009SOL    HW2 9927   1.937   0.403   1.956
 3010SOL     OW 9928   3.668   1.114   3.957
 3010SOL    HW1 9929   3.605   1.066   3.896
 3010SOL    HW2 9930   3.616   1.168   4.023
 3011SOL     OW 9931   5.830   0.201   0.261
 3011SOL    HW1 9932   5.773   0.153   0.195
 3011SOL    HW2 9933   5.923   0.210   0.224
 3012SOL     OW 9934   0.202   5.130   1.695
 3012SOL    HW1 9935   0.271   5.203   1.688
 3012SOL    HW2 9936   0.217   5.079   1.780
 3013SOL     OW 9937   5.551   4.988   1.626
 3013SOL    HW1 9938   5.631   4.952   1.578
 3013SOL    HW2 9939   5.580   5.044   1.703
 3014SOL     OW 9940   5.262   5.601   5.396
 3014SOL    HW1 9941   5.251   5.504   5.371
 3014SOL    HW2 9942   5.197   5.656   5.344
 3015SOL     OW 9943   3.377   1.367   0.595
 3015SOL    HW1 9944   3.359   1.457   0.634
 3015SOL    HW2 9945   3.379   1.373   0.495
 3016SOL     OW 9946   4.367   6.348   4.455
 3016SOL    HW1 9947   4.290   6.371   4.396
 3016SOL    HW2 9948   4.409   6.433   4.488
 3017SOL     OW 9949   0.681   6.530   2.434
 3017SOL    HW1 9950   0.769   6.497   2.468
 3017SOL    HW2 9951   0.651   6.607   2.491
 3018SOL     OW 9952   4.344   6.856   5.987
 3018SOL    HW1 9953   4.299   6.791   6.049
 3018SOL    HW2 9954   4.438   6.870   6.017
 3019SOL     OW 9955   4.952   1.005   1.711
 3019SOL    HW1 9956   4.903   0.918   1.721
 3019SOL    HW2 9957   5.036   0.990   1.660
 3020SOL     OW 9958   1.999   0.190   1.810
 3020SOL    HW1 9959   2.080   0.134   1.789
 3020SOL    HW2 9960   1.936   0.136   1.866
 3021SOL     OW 9961   4.308   0.271   6.340
 3021SOL    HW1 9962   4.218   0.252   6.379
 3021SOL    HW2 9963   4.306   0.251   6.242
 3022SOL     OW 9964   6.786   0.442   3.198
 3022SOL    HW1 9965   6.865   0.383   3.179
 3022SOL    HW2 9966   6.705   0.386   3.211
 3023SOL     OW 9967   5.676   0.320   1.803
 3023SOL    HW1 9968   5.641   0.249   1.742
 3023SOL    HW2 9969   5.633   0.312   1.893
 3024SOL     OW 9970   1.911   6.658   0.087
 3024SOL    HW1 9971   2.010   6.658   0.072
 3024SOL    HW2 9972   1.866   6.695   0.006
 3025SOL     OW 9973   1.496   2.274   2.249
 3025SOL    HW1 9974   1.512   2.369   2.277
 3025SOL    HW2 9975   1.511   2.266   2.150
 3026SOL     OW 9976   2.967   5.739   0.572
 3026SOL    HW1 9977   2.890   5.700   0.521
 3026SOL    HW2 9978   3.013   5.667   0.623
 3027SOL     OW 9979   0.720   2.364   3.838
 3027SOL    HW1 9980   0.630   2.324   3.856
 3027SOL    HW2 9981   0.729   2.383   3.741
 3028SOL     OW 9982   1.901   0.843   4.089
 3028SOL    HW1 9983   1.886   0.789   4.172
 3028SOL    HW2 9984   1.953   0.789   4.024
 3029SOL     OW 9985   6.234   4.995   6.032
 3029SOL    HW1 9986   6.214   5.073   5.973
 3029SOL    HW2 9987   6.331   4.973   6.027
 3030SOL     OW 9988   0.187   1.131   5.805
 3030SOL    HW1 9989   0.174   1.198   5.878
 3030SOL    HW2 9990   0.118   1.145   5.734
 3031SOL     OW 9991   0.048   5.156   6.029
 3031SOL    HW1 9992   0.073   5.153   6.125
 3031SOL    HW2 9993   0.131   5.161   5.973
 3032SOL     OW 9994   4.124   0.120   5.635
 3032SOL    HW1 9995   4.150   0.032   5.675
 3032SOL    HW2 9996   4.101   0.184   5.708
 3033SOL     OW 9997   5.122   4.008   6.096
 3033SOL    HW1 9998   5.111   3.962   6.184
 3033SOL    HW2 9999   5.076   4.097   6.099
 3034SOL     OW10000   2.877   6.538   4.927
 3034SOL    HW110001   2.789   6.576   4.953
 3034SOL    HW210002   2.869   6.439   4.915
 3035SOL     OW10003   5.694   6.141   6.844
 3035SOL    HW110004   5.733   6.217   6.897
 3035SOL    HW210005   5.686   6.168   6.748
 3036SOL     OW10006   0.055   4.776   5.297
 3036SOL    HW110007   7.025   4.695   5.282
 3036SOL    HW210008   0.012   4.835   5.365
 3037SOL     OW10009   5.209   6.244   6.419
 3037SOL    HW110010   5.188   6.168   6.480
 3037SOL    HW210011   5.190   6.217   6.325
 3038SOL     OW10012   5.767   5.492   5.390
 3038SOL    HW110013   5.723   5.582   5.384
 3038SOL    HW210014   5.697   5.421   5.386
 3039SOL     OW10015   0.557   4.517   0.625
 3039SOL    HW110016   0.496   4.438   0.619
 3039SOL    HW210017   0.503   4.601   0.614
 3040SOL     OW10018   2.443   0.866   0.553
 3040SOL    HW110019   2.355   0.867   0.505
 3040SOL    HW210020   2.516   0.842   0.489
 3041SOL     OW10021   1.891   1.746   6.231
 3041SOL    HW110022   1.893   1.678   6.158
 3041SOL    HW210023   1.961   1.815   6.215
 3042SOL     OW10024   5.326   0.246   0.948
 3042SOL    HW110025   5.250   0.253   1.013
 3042SOL    HW210026   5.402   0.198   0.990
 3043SOL     OW10027   0.270   4.629   0.238
 3043SOL    HW110028   0.330   4.596   0.165
 3043SOL    HW210029   0.322   4.688   0.300
 3044SOL     OW10030   2.553   2.928   6.892
 3044SOL    HW110031   2.598   3.001   6.841
 3044SOL    HW210032   2.456   2.950   6.904
 3045SOL     OW10033   4.467   2.470   4.724
 3045SOL    HW110034   4.408   2.435   4.798
 3045SOL    HW210035   4.416   2.467   4.638
 3046SOL     OW10036   2.390   2.496   5.914
 3046SOL    HW110037   2.426   2.572   5.860
 3046SOL    HW210038   2.443   2.414   5.894
 3047SOL     OW10039   6.653   5.090   1.971
 3047SOL    HW110040   6.716   5.097   1.894
 3047SOL    HW210041   6.695   5.037   2.044
 3048SOL     OW10042   3.364   3.032   2.278
 3048SOL    HW110043   3.342   3.128   2.298
 3048SOL    HW210044   3.452   3.028   2.230
 3049SOL     OW10045   0.522   0.826   0.964
 3049SOL    HW110046   0.586   0.885   1.014
 3049SOL    HW210047   0.571   0.774   0.895
 3050SOL     OW10048   1.296   0.460   4.368
 3050SOL    HW110049   1.217   0.460   4.307
 3050SOL    HW210050   1.379   0.481   4.316
 3051SOL     OW10051   2.626   5.253   5.056
 3051SOL    HW110052   2.650   5.158   5.076
 3051SOL    HW210053   2.676   5.314   5.117
 3052SOL     OW10054   4.956   6.374   2.129
 3052SOL    HW110055   4.995   6.390   2.039
 3052SOL    HW210056   4.975   6.453   2.188
 3053SOL     OW10057   3.527   6.182   1.560
 3053SOL    HW110058   3.520   6.148   1.654
 3053SOL    HW210059   3.438   6.216   1.530
 3054SOL     OW10060   1.757   4.258   5.119
 3054SOL    HW110061   1.809   4.264   5.034
 3054SOL    HW210062   1.770   4.168   5.159
 3055SOL     OW10063   5.948   6.924   2.656
 3055SOL    HW110064   5.877   6.973   2.707
 3055SOL    HW210065   5.965   6.835   2.699
 3056SOL     OW10066   5.104   0.917   2.229
 3056SOL    HW110067   5.063   0.828   2.246
 3056SOL    HW210068   5.032   0.984   2.212
 3057SOL     OW10069   0.172   4.522   2.670
 3057SOL    HW110070   0.081   4.559   2.690
 3057SOL    HW210071   0.178   4.429   2.706
 3058SOL     OW10072   5.613   0.076   1.153
 3058SOL    HW110073   5.669   0.048   1.230
 3058SOL    HW210074   5.670   0.123   1.086
 3059SOL     OW10075   2.545   2.530   0.196
 3059SOL    HW110076   2.544   2.624   0.163
 3059SOL    HW210077   2.570   2.469   0.122
 3060SOL     OW10078   0.487   6.100   6.901
 3060SOL    HW110079   0.566   6.053   6.942
 3060SOL    HW210080   0.411   6.098   6.966
 3061SOL     OW10081   6.580   0.900   5.606
 3061SOL    HW110082   6.496   0.888   5.553
 3061SOL    HW210083   6.580   0.990   5.649
 3062SOL     OW10084   3.420   6.034   5.932
 3062SOL    HW110085   3.343   5.980   5.898
 3062SOL    HW210086   3.388   6.098   6.002
 3063SOL     OW10087   3.032   6.363   1.132
 3063SOL    HW110088   2.984   6.306   1.064
 3063SOL    HW210089   2.981   6.361   1.218
 3064SOL     OW10090   6.312   4.802   3.146
 3064SOL    HW110091   6.333   4.887   3.098
 3064SOL    HW210092   6.327   4.814   3.244
 3065SOL     OW10093   3.340   1.400   1.759
 3065SOL    HW110094   3.383   1.444   1.838
 3065SOL    HW210095   3.410   1.377   1.691
 3066SOL     OW10096   5.852   5.247   0.758
 3066SOL    HW110097   5.846   5.341   0.792
 3066SOL    HW210098   5.946   5.228   0.730
 3067SOL     OW10099   3.799   6.834   3.153
 3067SOL    HW110100   3.710   6.789   3.159
 3067SOL    HW210101   3.828   6.837   3.057
 3068SOL     OW10102   6.568   4.747   6.717
 3068SOL    HW110103   6.617   4.666   6.748
 3068SOL    HW210104   6.487   4.761   6.775
 3069SOL     OW10105   0.995   5.512   3.472
 3069SOL    HW110106   1.010   5.466   3.384
 3069SOL    HW210107   1.076   5.500   3.530
 3070SOL     OW10108   4.699   2.217   4.381
 3070SOL    HW110109   4.785   2.214   4.433
 3070SOL    HW210110   4.708   2.283   4.307
 3071SOL     OW10111   5.267   0.759   3.165
 3071SOL    HW110112   5.170   0.734   3.167
 3071SOL    HW210113   5.320   0.685   3.124
 3072SOL     OW10114   0.045   0.445   1.196
 3072SOL    HW110115   0.067   0.397   1.281
 3072SOL    HW210116   0.115   0.424   1.127
 3073SOL     OW10117   1.825   1.246   4.513
 3073SOL    HW110118   1.774   1.223   4.430
 3073SOL    HW210119   1.920   1.217   4.503
 3074SOL     OW10120   4.445   3.652   5.890
 3074SOL    HW110121   4.439   3.552   5.892
 3074SOL    HW210122   4.398   3.686   5.808
 3075SOL     OW10123   6.992   5.394   1.427
 3075SOL    HW110124   7.012   5.434   1.517
 3075SOL    HW210125   6.971   5.297   1.438
 3076SOL     OW10126   0.079   1.356   5.956
 3076SOL    HW110127   0.095   1.399   6.045
 3076SOL    HW210128   7.008   1.349   5.939
 3077SOL     OW10129   4.538   4.533   3.533
 3077SOL    HW110130   4.631   4.571   3.537
 3077SOL    HW210131   4.519   4.503   3.440
 3078SOL     OW10132   2.508   2.979   0.552
 3078SOL    HW110133   2.453   2.951   0.473
 3078SOL    HW210134   2.589   2.921   0.558
 3079SOL     OW10135   5.194   3.079   5.974
 3079SOL    HW110136   5.237   3.164   6.005
 3079SOL    HW210137   5.204   3.009   6.045
 3080SOL     OW10138   5.699   6.992   2.360
 3080SOL    HW110139   5.707   0.044   2.421
 3080SOL    HW210140   5.623   6.935   2.390
 3081SOL     OW10141   0.956   4.980   5.472
 3081SOL    HW110142   1.031   4.921   5.443
 3081SOL    HW210143   0.945   4.972   5.571
 3082SOL     OW10144   3.112   6.170   2.599
 3082SOL    HW110145   3.173   6.183   2.522
 3082SOL    HW210146   3.084   6.260   2.635
 3083SOL     OW10147   3.310   6.662   3.027
 3083SOL    HW110148   3.333   6.735   2.962
 3083SOL    HW210149   3.212   6.647   3.026
 3084SOL     OW10150   4.811   0.500   3.973
 3084SOL    HW110151   4.801   0.475   4.070
 3084SOL    HW210152   4.850   0.592   3.966
 3085SOL     OW10153   1.080   4.900   2.385
 3085SOL    HW110154   1.170   4.882   2.346
 3085SOL    HW210155   1.057   4.827   2.449
 3086SOL     OW10156   6.159   1.642   4.778
 3086SOL    HW110157   6.234   1.577   4.786
 3086SOL    HW210158   6.086   1.618   4.842
 3087SOL     OW10159   5.769   3.686   0.769
 3087SOL    HW110160   5.776   3.667   0.671
 3087SOL    HW210161   5.843   3.639   0.817
 3088SOL     OW10162   2.986   3.780   6.650
 3088SOL    HW110163   3.038   3.861   6.677
 3088SOL    HW210164   3.009   3.704   6.710
 3089SOL     OW10165   3.087   2.093   2.077
 3089SOL    HW110166   3.026   2.172   2.069
 3089SOL    HW210167   3.178   2.118   2.044
 3090SOL     OW10168   6.422   1.320   1.126
 3090SOL    HW110169   6.420   1.366   1.215
 3090SOL    HW210170   6.347   1.254   1.121
 3091SOL     OW10171   2.017   6.560   6.590
 3091SOL    HW110172   2.033   6.655   6.617
 3091SOL    HW210173   1.974   6.557   6.500
 3092SOL     OW10174   4.764   5.561   6.661
 3092SOL    HW110175   4.689   5.626   6.658
 3092SOL    HW210176   4.756   5.504   6.743
 3093SOL     OW10177   4.291   6.624   2.757
 3093SOL    HW110178   4.299   6.525   2.747
 3093SOL    HW210179   4.377   6.668   2.730
 3094SOL     OW10180   4.244   5.122   4.657
 3094SOL    HW110181   4.306   5.074   4.595
 3094SOL    HW210182   4.151   5.117   4.622
 3095SOL     OW10183   2.163   5.168   4.671
 3095SOL    HW110184   2.179   5.265   4.654
 3095SOL    HW210185   2.065   5.150   4.676
 3096SOL     OW10186   0.154   2.196   5.739
 3096SOL    HW110187   0.067   2.151   5.757
 3096SOL    HW210188   0.171   2.198   5.640
 3097SOL     OW10189   1.835   0.272   6.996
 3097SOL    HW110190   1.776   0.333   0.022
 3097SOL    HW210191   1.813   0.177   7.018
 3098SOL     OW10192   3.414   3.497   0.651
 3098SOL    HW110193   3.408   3.481   0.552
 3098SOL    HW210194   3.493   3.446   0.687
 3099SOL     OW10195   1.332   5.862   4.994
 3099SOL    HW110196   1.338   5.897   5.088
 3099SOL    HW210197   1.337   5.939   4.930
 3100SOL     OW10198   6.149   6.562   5.877
 3100SOL    HW110199   6.173   6.605   5.791
 3100SOL    HW210200   6.228   6.513   5.913
 3101SOL     OW10201   2.717   0.870   1.070
 3101SOL    HW110202   2.748   0.938   1.137
 3101SOL    HW210203   2.693   0.786   1.118
 3102SOL     OW10204   0.899   5.993   0.958
 3102SOL    HW110205   0.972   6.036   1.010
 3102SOL    HW210206   0.934   5.910   0.913
 3103SOL     OW10207   4.334   4.351   1.674
 3103SOL    HW110208   4.394   4.317   1.748
 3103SOL    HW210209   4.315   4.276   1.610
 3104SOL     OW10210   5.826   5.997   3.100
 3104SOL    HW110211   5.795   6.005   3.005
 3104SOL    HW210212   5.814   5.902   3.130
 3105SOL     OW10213   5.786   6.242   3.559
 3105SOL    HW110214   5.865   6.210   3.507
 3105SOL    HW210215   5.702   6.222   3.508
 3106SOL     OW10216   0.466   3.373   4.205
 3106SOL    HW110217   0.406   3.294   4.213
 3106SOL    HW210218   0.469   3.404   4.110
 3107SOL     OW10219   2.508   6.958   4.482
 3107SOL    HW110220   2.583   6.956   4.416
 3107SOL    HW210221   2.437   7.020   4.450
 3108SOL     OW10222   1.900   6.637   2.981
 3108SOL    HW110223   1.954   6.691   3.046
 3108SOL    HW210224   1.853   6.563   3.029
 3109SOL     OW10225   4.854   5.118   3.553
 3109SOL    HW110226   4.899   5.207   3.543
 3109SOL    HW210227   4.787   5.123   3.627
 3110SOL     OW10228   0.765   2.832   1.573
 3110SOL    HW110229   0.759   2.925   1.536
 3110SOL    HW210230   0.689   2.816   1.636
 3111SOL     OW10231   0.525   4.247   2.320
 3111SOL    HW110232   0.506   4.306   2.398
 3111SOL    HW210233   0.619   4.263   2.288
 3112SOL     OW10234   3.238   3.114   5.847
 3112SOL    HW110235   3.309   3.185   5.848
 3112SOL    HW210236   3.170   3.136   5.778
 3113SOL     OW10237   4.112   0.357   3.738
 3113SOL    HW110238   4.138   0.261   3.724
 3113SOL    HW210239   4.187   0.416   3.711
 3114SOL     OW10240   5.388   5.565   1.071
 3114SOL    HW110241   5.329   5.487   1.093
 3114SOL    HW210242   5.464   5.568   1.136
 3115SOL     OW10243   3.329   3.137   3.106
 3115SOL    HW110244   3.242   3.111   3.065
 3115SOL    HW210245   3.345   3.235   3.090
 3116SOL     OW10246   0.372   1.521   6.556
 3116SOL    HW110247   0.457   1.494   6.601
 3116SOL    HW210248   0.393   1.581   6.479
 3117SOL     OW10249   2.993   4.760   6.314
 3117SOL    HW110250   3.073   4.703   6.327
 3117SOL    HW210251   2.958   4.790   6.403
 3118SOL     OW10252   6.143   5.193   6.861
 3118SOL    HW110253   6.145   5.185   6.961
 3118SOL    HW210254   6.134   5.101   6.821
 3119SOL     OW10255   2.195   4.015   6.904
 3119SOL    HW110256   2.153   4.084   6.964
 3119SOL    HW210257   2.200   3.928   6.952
 3120SOL     OW10258   2.495   5.350   6.615
 3120SOL    HW110259   2.513   5.410   6.537
 3120SOL    HW210260   2.579   5.337   6.667
 3121SOL     OW10261   6.778   6.400   3.559
 3121SOL    HW110262   6.777   6.345   3.643
 3121SOL    HW210263   6.863   6.385   3.510
 3122SOL     OW10264   3.165   5.906   1.427
 3122SOL    HW110265   3.164   5.956   1.341
 3122SOL    HW210266   3.109   5.823   1.417
 3123SOL     OW10267   2.895   6.701   4.028
 3123SOL    HW110268   2.979   6.648   4.028
 3123SOL    HW210269   2.846   6.688   4.114
 3124SOL     OW10270   4.109   0.087   4.896
 3124SOL    HW110271   4.160   0.092   4.810
 3124SOL    HW210272   4.079   0.179   4.922
 3125SOL     OW10273   6.758   2.473   5.852
 3125SOL    HW110274   6.805   2.458   5.939
 3125SOL    HW210275   6.660   2.460   5.865
 3126SOL     OW10276   3.702   5.852   6.616
 3126SOL    HW110277   3.756   5.797   6.553
 3126SOL    HW210278   3.719   5.949   6.599
 3127SOL     OW10279   0.875   1.161   4.423
 3127SOL    HW110280   0.831   1.142   4.335
 3127SOL    HW210281   0.813   1.137   4.498
 3128SOL     OW10282   2.155   1.047   1.182
 3128SOL    HW110283   2.094   1.100   1.124
 3128SOL    HW210284   2.116   1.040   1.274
 3129SOL     OW10285   1.831   3.530   2.755
 3129SOL    HW110286   1.883   3.471   2.693
 3129SOL    HW210287   1.738   3.540   2.720
 3130SOL     OW10288   3.242   5.746   2.674
 3130SOL    HW110289   3.172   5.816   2.687
 3130SOL    HW210290   3.265   5.705   2.762
 3131SOL     OW10291   0.926   3.349   3.694
 3131SOL    HW110292   0.877   3.359   3.607
 3131SOL    HW210293   0.989   3.271   3.688
 3132SOL     OW10294   4.817   3.255   5.588
 3132SOL    HW110295   4.760   3.334   5.568
 3132SOL    HW210296   4.809   3.230   5.684
 3133SOL     OW10297   1.896   1.153   3.320
 3133SOL    HW110298   1.813   1.097   3.321
 3133SOL    HW210299   1.954   1.126   3.397
 3134SOL     OW10300   5.613   2.091   1.591
 3134SOL    HW110301   5.607   2.020   1.661
 3134SOL    HW210302   5.564   2.062   1.509
 3135SOL     OW10303   1.137   2.227   3.208
 3135SOL    HW110304   1.142   2.139   3.163
 3135SOL    HW210305   1.067   2.224   3.279
 3136SOL     OW10306   0.168   1.231   4.501
 3136SOL    HW110307   0.267   1.235   4.485
 3136SOL    HW210308   0.128   1.320   4.481
 3137SOL     OW10309   0.428   1.661   4.875
 3137SOL    HW110310   0.445   1.657   4.974
 3137SOL    HW210311   0.440   1.755   4.843
 3138SOL     OW10312   6.786   2.735   4.826
 3138SOL    HW110313   6.735   2.768   4.906
 3138SOL    HW210314   6.821   2.813   4.774
 3139SOL     OW10315   5.403   5.358   5.652
 3139SOL    HW110316   5.430   5.345   5.747
 3139SOL    HW210317   5.480   5.396   5.601
 3140SOL     OW10318   6.636   6.160   5.839
 3140SOL    HW110319   6.661   6.064   5.829
 3140SOL    HW210320   6.716   6.212   5.869
 3141SOL     OW10321   1.246   0.292   1.785
 3141SOL    HW110322   1.345   0.293   1.790
 3141SOL    HW210323   1.214   0.201   1.759
 3142SOL     OW10324   3.791   6.763   1.219
 3142SOL    HW110325   3.725   6.795   1.288
 3142SOL    HW210326   3.779   6.665   1.205
 3143SOL     OW10327   0.272   2.180   0.160
 3143SOL    HW110328   0.304   2.257   0.215
 3143SOL    HW210329   0.201   2.131   0.209
 3144SOL     OW10330   2.726   3.472   0.251
 3144SOL    HW110331   2.815   3.467   0.207
 3144SOL    HW210332   2.678   3.385   0.239
 3145SOL     OW10333   1.816   4.930   2.519
 3145SOL    HW110334   1.754   4.958   2.592
 3145SOL    HW210335   1.904   4.977   2.530
 3146SOL     OW10336   1.875   6.660   4.219
 3146SOL    HW110337   1.916   6.640   4.130
 3146SOL    HW210338   1.945   6.656   4.290
 3147SOL     OW10339   4.035   4.556   0.531
 3147SOL    HW110340   3.944   4.575   0.567
 3147SOL    HW210341   4.089   4.509   0.601
 3148SOL     OW10342   3.239   5.812   4.295
 3148SOL    HW110343   3.317   5.806   4.233
 3148SOL    HW210344   3.263   5.869   4.374
 3149SOL     OW10345   1.858   5.958   5.432
 3149SOL    HW110346   1.835   5.984   5.525
 3149SOL    HW210347   1.844   5.859   5.420
 3150SOL     OW10348   6.545   0.817   4.780
 3150SOL    HW110349   6.528   0.719   4.792
 3150SOL    HW210350   6.488   0.852   4.706
 3151SOL     OW10351   3.663   6.441   1.440
 3151SOL    HW110352   3.619   6.468   1.525
 3151SOL    HW210353   3.610   6.369   1.395
 3152SOL     OW10354   1.156   4.688   5.856
 3152SOL    HW110355   1.239   4.741   5.845
 3152SOL    HW210356   1.148   4.622   5.782
 3153SOL     OW10357   0.365   4.126   3.124
 3153SOL    HW110358   0.390   4.048   3.181
 3153SOL    HW210359   0.350   4.206   3.182
 3154SOL     OW10360   6.104   2.799   6.921
 3154SOL    HW110361   6.167   2.726   6.895
 3154SOL    HW210362   6.049   2.825   6.841
 3155SOL     OW10363   4.176   5.651   0.543
 3155SOL    HW110364   4.176   5.742   0.504
 3155SOL    HW210365   4.103   5.596   0.503
 3156SOL     OW10366   3.032   3.446   3.701
 3156SOL    HW110367   3.127   3.459   3.675
 3156SOL    HW210368   3.026   3.433   3.800
 3157SOL     OW10369   2.223   1.996   5.183
 3157SOL    HW110370   2.138   1.946   5.201
 3157SOL    HW210371   2.266   2.022   5.270
 3158SOL     OW10372   4.860   6.445   1.270
 3158SOL    HW110373   4.954   6.416   1.250
 3158SOL    HW210374   4.802   6.364   1.282
 3159SOL     OW10375   5.171   4.675   0.128
 3159SOL    HW110376   5.117   4.596   0.158
 3159SOL    HW210377   5.186   4.737   0.204
 3160SOL     OW10378   6.090   4.640   0.747
 3160SOL    HW110379   6.113   4.589   0.664
 3160SOL    HW210380   5.998   4.614   0.778
 3161SOL     OW10381   0.066   2.014   4.106
 3161SOL    HW110382   0.151   2.062   4.127
 3161SOL    HW210383   0.012   2.003   4.189
 3162SOL     OW10384   0.211   0.604   5.935
 3162SOL    HW110385   0.291   0.545   5.949
 3162SOL    HW210386   0.128   0.552   5.954
 3163SOL     OW10387   1.531   4.238   5.615
 3163SOL    HW110388   1.545   4.303   5.540
 3163SOL    HW210389   1.579   4.153   5.594
 3164SOL     OW10390   6.038   5.011   6.227
 3164SOL    HW110391   6.103   4.996   6.152
 3164SOL    HW210392   6.068   4.960   6.307
 3165SOL     OW10393   0.105   2.609   1.354
 3165SOL    HW110394   0.145   2.523   1.319
 3165SOL    HW210395   0.174   2.681   1.350
 3166SOL     OW10396   3.956   3.257   6.539
 3166SOL    HW110397   3.871   3.207   6.555
 3166SOL    HW210398   3.987   3.297   6.625
 3167SOL     OW10399   0.018   4.718   1.930
 3167SOL    HW110400   7.027   4.752   2.022
 3167SOL    HW210401   0.114   4.689   1.923
 3168SOL     OW10402   6.572   3.559   0.433
 3168SOL    HW110403   6.541   3.575   0.340
 3168SOL    HW210404   6.499   3.517   0.486
 3169SOL     OW10405   3.333   1.833   5.579
 3169SOL    HW110406   3.390   1.776   5.638
 3169SOL    HW210407   3.274   1.775   5.524
 3170SOL     OW10408   3.306   0.849   4.415
 3170SOL    HW110409   3.265   0.912   4.350
 3170SOL    HW210410   3.239   0.781   4.444
 3171SOL     OW10411   6.397   5.437   2.412
 3171SOL    HW110412   6.368   5.479   2.326
 3171SOL    HW210413   6.346   5.477   2.488
 3172SOL     OW10414   5.419   6.705   4.951
 3172SOL    HW110415   5.409   6.787   4.895
 3172SOL    HW210416   5.396   6.726   5.046
 3173SOL     OW10417   1.771   0.685   1.221
 3173SOL    HW110418   1.800   0.759   1.282
 3173SOL    HW210419   1.701   0.718   1.158
 3174SOL     OW10420   2.358   2.925   0.272
 3174SOL    HW110421   2.418   2.879   0.208
 3174SOL    HW210422   2.290   2.861   0.307
 3175SOL     OW10423   0.391   5.614   0.684
 3175SOL    HW110424   0.465   5.631   0.749
 3175SOL    HW210425   0.331   5.694   0.681
 3176SOL     OW10426   1.014   5.208   0.016
 3176SOL    HW110427   0.956   5.264   0.075
 3176SOL    HW210428   1.094   5.261   7.015
 3177SOL     OW10429   1.145   0.478   3.586
 3177SOL    HW110430   1.240   0.494   3.562
 3177SOL    HW210431   1.088   0.481   3.504
 3178SOL     OW10432   3.549   3.526   0.171
 3178SOL    HW110433   3.596   3.473   0.101
 3178SOL    HW210434   3.513   3.465   0.241
 3179SOL     OW10435   1.158   2.700   4.521
 3179SOL    HW110436   1.091   2.752   4.468
 3179SOL    HW210437   1.250   2.721   4.488
 3180SOL     OW10438   6.533   1.203   6.675
 3180SOL    HW110439   6.507   1.156   6.590
 3180SOL    HW210440   6.526   1.301   6.661
 3181SOL     OW10441   6.363   1.728   1.966
 3181SOL    HW110442   6.322   1.769   2.047
 3181SOL    HW210443   6.420   1.650   1.993
 3182SOL     OW10444   1.057   6.598   5.858
 3182SOL    HW110445   1.101   6.646   5.782
 3182SOL    HW210446   0.994   6.660   5.904
 3183SOL     OW10447   4.780   3.630   1.038
 3183SOL    HW110448   4.805   3.538   1.008
 3183SOL    HW210449   4.701   3.662   0.985
 3184SOL     OW10450   6.819   1.940   2.478
 3184SOL    HW110451   6.825   1.846   2.445
 3184SOL    HW210452   6.723   1.964   2.494
 3185SOL     OW10453   0.204   6.221   0.341
 3185SOL    HW110454   0.250   6.188   0.259
 3185SOL    HW210455   0.155   6.146   0.385
 3186SOL     OW10456   3.583   0.416   1.035
 3186SOL    HW110457   3.499   0.444   0.987
 3186SOL    HW210458   3.659   0.476   1.007
 3187SOL     OW10459   3.611   4.450   0.818
 3187SOL    HW110460   3.634   4.364   0.772
 3187SOL    HW210461   3.518   4.446   0.853
 3188SOL     OW10462   3.403   0.395   3.969
 3188SOL    HW110463   3.482   0.351   3.927
 3188SOL    HW210464   3.415   0.398   4.068
 3189SOL     OW10465   5.422   6.269   1.378
 3189SOL    HW110466   5.425   6.338   1.306
 3189SOL    HW210467   5.370   6.305   1.456
 3190SOL     OW10468   0.748   0.665   2.682
 3190SOL    HW110469   0.709   0.573   2.687
 3190SOL    HW210470   0.763   0.690   2.586
 3191SOL     OW10471   3.352   1.661   0.964
 3191SOL    HW110472   3.307   1.716   1.034
 3191SOL    HW210473   3.445   1.640   0.992
 3192SOL     OW10474   5.748   3.455   4.172
 3192SOL    HW110475   5.843   3.428   4.189
 3192SOL    HW210476   5.742   3.555   4.172
 3193SOL     OW10477   5.761   4.242   1.949
 3193SOL    HW110478   5.793   4.335   1.931
 3193SOL    HW210479   5.669   4.231   1.913
 3194SOL     OW10480   3.415   5.209   4.851
 3194SOL    HW110481   3.484   5.278   4.834
 3194SOL    HW210482   3.455   5.118   4.838
 3195SOL     OW10483   0.010   4.258   4.154
 3195SOL    HW110484   0.058   4.260   4.066
 3195SOL    HW210485   6.952   4.207   4.144
 3196SOL     OW10486   0.024   6.024   6.961
 3196SOL    HW110487   0.005   6.119   6.933
 3196SOL    HW210488   0.068   5.976   6.885
 3197SOL     OW10489   0.560   4.316   5.778
 3197SOL    HW110490   0.630   4.251   5.807
 3197SOL    HW210491   0.498   4.336   5.854
 3198SOL     OW10492   5.580   0.408   0.921
 3198SOL    HW110493   5.632   0.389   0.838
 3198SOL    HW210494   5.485   0.377   0.908
 3199SOL     OW10495   2.838   2.196   3.350
 3199SOL    HW110496   2.835   2.102   3.384
 3199SOL    HW210497   2.889   2.253   3.415
 3200SOL     OW10498   6.546   1.507   6.975
 3200SOL    HW110499   6.624   1.552   6.931
 3200SOL    HW210500   6.523   1.556   0.032
 3201SOL     OW10501   4.052   5.590   3.680
 3201SOL    HW110502   4.082   5.500   3.647
 3201SOL    HW210503   4.043   5.652   3.603
 3202SOL     OW10504   1.334   4.940   2.237
 3202SOL    HW110505   1.406   4.874   2.216
 3202SOL    HW210506   1.367   5.032   2.218
 3203SOL     OW10507   5.171   6.869   0.593
 3203SOL    HW110508   5.210   6.945   0.645
 3203SOL    HW210509   5.114   6.905   0.519
 3204SOL     OW10510   6.287   6.503   2.385
 3204SOL    HW110511   6.247   6.584   2.342
 3204SOL    HW210512   6.231   6.423   2.365
 3205SOL     OW10513   2.000   4.411   4.651
 3205SOL    HW110514   1.938   4.334   4.638
 3205SOL    HW210515   2.087   4.379   4.688
 3206SOL     OW10516   2.149   6.515   0.440
 3206SOL    HW110517   2.231   6.563   0.469
 3206SOL    HW210518   2.081   6.516   0.514
 3207SOL     OW10519   1.684   0.979   3.244
 3207SOL    HW110520   1.595   0.964   3.287
 3207SOL    HW210521   1.743   0.901   3.264
 3208SOL     OW10522   6.167   6.135   6.162
 3208SOL    HW110523   6.085   6.078   6.168
 3208SOL    HW210524   6.248   6.079   6.173
 3209SOL     OW10525   0.897   6.457   3.229
 3209SOL    HW110526   0.992   6.478   3.205
 3209SOL    HW210527   0.895   6.412   3.318
 3210SOL     OW10528   0.538   5.940   2.140
 3210SOL    HW110529   0.476   6.013   2.167
 3210SOL    HW210530   0.553   5.878   2.216
 3211SOL     OW10531   0.206   4.735   3.954
 3211SOL    HW110532   0.255   4.817   3.985
 3211SOL    HW210533   0.252   4.653   3.988
 3212SOL     OW10534   4.653   2.272   4.762
 3212SOL    HW110535   4.633   2.177   4.738
 3212SOL    HW210536   4.581   2.332   4.727
 3213SOL     OW10537   5.517   0.237   2.042
 3213SOL    HW110538   5.573   0.284   2.111
 3213SOL    HW210539   5.446   0.183   2.088
 3214SOL     OW10540   4.604   3.625   0.706
 3214SOL    HW110541   4.534   3.688   0.740
 3214SOL    HW210542   4.564   3.561   0.640
 3215SOL     OW10543   6.794   1.595   6.869
 3215SOL    HW110544   6.803   1.554   6.778
 3215SOL    HW210545   6.855   1.674   6.876
 3216SOL     OW10546   5.252   6.952   5.614
 3216SOL    HW110547   5.338   6.900   5.621
 3216SOL    HW210548   5.177   6.890   5.591
 3217SOL     OW10549   0.143   4.591   6.820
 3217SOL    HW110550   0.226   4.647   6.831
 3217SOL    HW210551   0.063   4.647   6.839
 3218SOL     OW10552   4.109   2.412   1.121
 3218SOL    HW110553   4.069   2.359   1.195
 3218SOL    HW210554   4.036   2.454   1.067
 3219SOL     OW10555   0.692   2.280   2.877
 3219SOL    HW110556   0.729   2.351   2.817
 3219SOL    HW210557   0.617   2.317   2.931
 3220SOL     OW10558   6.871   2.616   6.221
 3220SOL    HW110559   6.878   2.713   6.198
 3220SOL    HW210560   6.957   2.571   6.200
 3221SOL     OW10561   3.887   0.680   1.016
 3221SOL    HW110562   3.982   0.697   1.042
 3221SOL    HW210563   3.829   0.753   1.053
 3222SOL     OW10564   6.128   3.808   2.243
 3222SOL    HW110565   6.157   3.871   2.171
 3222SOL    HW210566   6.029   3.797   2.240
 3223SOL     OW10567   1.133   4.470   5.652
 3223SOL    HW110568   1.038   4.500   5.651
 3223SOL    HW210569   1.146   4.400   5.722
 3224SOL     OW10570   2.662   7.007   1.754
 3224SOL    HW110571   2.666   0.065   1.806
 3224SOL    HW210572   2.576   7.002   1.704
 3225SOL     OW10573   1.017   1.480   0.198
 3225SOL    HW110574   1.084   1.436   0.139
 3225SOL    HW210575   0.933   1.496   0.147
 3226SOL     OW10576   6.899   1.425   3.360
 3226SOL    HW110577   6.979   1.405   3.304
 3226SOL    HW210578   6.891   1.523   3.373
 3227SOL     OW10579   2.215   1.683   5.064
 3227SOL    HW110580   2.284   1.694   5.136
 3227SOL    HW210581   2.128   1.657   5.106
 3228SOL     OW10582   5.154   3.497   4.743
 3228SOL    HW110583   5.236   3.502   4.799
 3228SOL    HW210584   5.161   3.420   4.679
 3229SOL     OW10585   4.698   1.579   4.653
 3229SOL    HW110586   4.677   1.490   4.694
 3229SOL    HW210587   4.615   1.620   4.616
 3230SOL     OW10588   1.204   6.763   4.522
 3230SOL    HW110589   1.165   6.844   4.566
 3230SOL    HW210590   1.284   6.789   4.469
 3231SOL     OW10591   3.949   4.521   0.292
 3231SOL    HW110592   3.993   4.533   0.381
 3231SOL    HW210593   3.861   4.569   0.292
 3232SOL     OW10594   1.283   3.995   3.727
 3232SOL    HW110595   1.296   3.988   3.826
 3232SOL    HW210596   1.358   3.949   3.680
 3233SOL     OW10597   2.853   3.987   1.208
 3233SOL    HW110598   2.866   4.086   1.215
 3233SOL    HW210599   2.792   3.967   1.132
 3234SOL     OW10600   0.015   2.411   4.246
 3234SOL    HW110601   7.017   2.373   4.156
 3234SOL    HW210602   6.959   2.438   4.294
 3235SOL     OW10603   6.479   0.501   1.967
 3235SOL    HW110604   6.413   0.489   1.892
 3235SOL    HW210605   6.452   0.445   2.045
 3236SOL     OW10606   0.377   1.401   0.951
 3236SOL    HW110607   0.404   1.392   0.855
 3236SOL    HW210608   0.277   1.401   0.957
 3237SOL     OW10609   2.954   5.130   4.937
 3237SOL    HW110610   2.939   5.147   5.034
 3237SOL    HW210611   3.024   5.059   4.926
 3238SOL     OW10612   0.283   6.247   6.765
 3238SOL    HW110613   0.373   6.212   6.789
 3238SOL    HW210614   0.216   6.172   6.769
 3239SOL     OW10615   2.244   6.838   6.504
 3239SOL    HW110616   2.275   6.832   6.409
 3239SOL    HW210617   2.291   6.914   6.549
 3240SOL     OW10618   1.066   2.420   4.453
 3240SOL    HW110619   1.090   2.513   4.484
 3240SOL    HW210620   0.996   2.426   4.382
 3241SOL     OW10621   4.004   5.920   5.188
 3241SOL    HW110622   3.958   5.837   5.155
 3241SOL    HW210623   3.959   6.001   5.150
 3242SOL     OW10624   3.114   1.306   0.869
 3242SOL    HW110625   3.205   1.265   0.857
 3242SOL    HW210626   3.082   1.290   0.962
 3243SOL     OW10627   3.457   6.147   2.689
 3243SOL    HW110628   3.385   6.135   2.757
 3243SOL    HW210629   3.474   6.245   2.676
 3244SOL     OW10630   1.564   0.320   5.121
 3244SOL    HW110631   1.513   0.327   5.206
 3244SOL    HW210632   1.639   0.386   5.121
 3245SOL     OW10633   3.559   2.388   6.162
 3245SOL    HW110634   3.650   2.354   6.187
 3245SOL    HW210635   3.568   2.463   6.096
 3246SOL     OW10636   6.338   0.083   1.479
 3246SOL    HW110637   6.297   0.102   1.568
 3246SOL    HW210638   6.437   0.102   1.484
 3247SOL     OW10639   5.927   2.930   4.702
 3247SOL    HW110640   5.926   2.918   4.801
 3247SOL    HW210641   5.972   2.851   4.660
 3248SOL     OW10642   5.163   3.796   3.284
 3248SOL    HW110643   5.091   3.728   3.281
 3248SOL    HW210644   5.133   3.879   3.236
 3249SOL     OW10645   3.614   4.875   5.917
 3249SOL    HW110646   3.526   4.902   5.956
 3249SOL    HW210647   3.642   4.787   5.955
 3250SOL     OW10648   3.873   4.847   0.602
 3250SOL    HW110649   3.838   4.759   0.633
 3250SOL    HW210650   3.973   4.848   0.612
 3251SOL     OW10651   2.390   1.382   3.026
 3251SOL    HW110652   2.356   1.473   3.002
 3251SOL    HW210653   2.489   1.378   3.007
 3252SOL     OW10654   3.393   2.090   2.841
 3252SOL    HW110655   3.462   2.125   2.778
 3252SOL    HW210656   3.306   2.135   2.824
 3253SOL     OW10657   5.206   4.111   2.040
 3253SOL    HW110658   5.300   4.120   2.075
 3253SOL    HW210659   5.164   4.202   2.036
 3254SOL     OW10660   6.097   3.838   3.224
 3254SOL    HW110661   6.026   3.791   3.276
 3254SOL    HW210662   6.065   3.853   3.131
 3255SOL     OW10663   2.712   4.497   0.729
 3255SOL    HW110664   2.803   4.455   0.726
 3255SOL    HW210665   2.721   4.593   0.755
 3256SOL     OW10666   6.264   6.309   5.537
 3256SOL    HW110667   6.329   6.330   5.610
 3256SOL    HW210668   6.253   6.210   5.529
 3257SOL     OW10669   2.566   0.677   1.677
 3257SOL    HW110670   2.631   0.652   1.606
 3257SOL    HW210671   2.585   0.770   1.709
 3258SOL     OW10672   4.662   6.722   2.019
 3258SOL    HW110673   4.604   6.803   2.013
 3258SOL    HW210674   4.637   6.668   2.099
 3259SOL     OW10675   5.684   5.934   3.836
 3259SOL    HW110676   5.671   5.898   3.929
 3259SOL    HW210677   5.779   5.920   3.808
 3260SOL     OW10678   1.752   1.395   0.985
 3260SOL    HW110679   1.743   1.374   1.082
 3260SOL    HW210680   1.730   1.491   0.969
 3261SOL     OW10681   4.992   6.525   4.496
 3261SOL    HW110682   4.967   6.434   4.461
 3261SOL    HW210683   4.916   6.588   4.481
 3262SOL     OW10684   4.820   2.713   3.720
 3262SOL    HW110685   4.810   2.767   3.636
 3262SOL    HW210686   4.814   2.616   3.697
 3263SOL     OW10687   3.177   4.894   2.730
 3263SOL    HW110688   3.250   4.843   2.775
 3263SOL    HW210689   3.089   4.869   2.770
 3264SOL     OW10690   4.973   3.780   5.979
 3264SOL    HW110691   5.053   3.838   5.964
 3264SOL    HW210692   4.998   3.685   5.961
 3265SOL     OW10693   5.528   6.826   5.393
 3265SOL    HW110694   5.610   6.780   5.358
 3265SOL    HW210695   5.533   6.831   5.493
 3266SOL     OW10696   1.645   2.609   5.979
 3266SOL    HW110697   1.601   2.671   5.915
 3266SOL    HW210698   1.628   2.515   5.950
 3267SOL     OW10699   5.307   4.044   0.662
 3267SOL    HW110700   5.355   3.964   0.696
 3267SOL    HW210701   5.223   4.016   0.614
 3268SOL     OW10702   2.410   5.329   0.633
 3268SOL    HW110703   2.482   5.367   0.690
 3268SOL    HW210704   2.450   5.268   0.564
 3269SOL     OW10705   4.590   3.715   1.651
 3269SOL    HW110706   4.502   3.714   1.603
 3269SOL    HW210707   4.621   3.809   1.661
 3270SOL     OW10708   6.099   6.040   3.200
 3270SOL    HW110709   6.123   5.942   3.201
 3270SOL    HW210710   6.018   6.054   3.144
 3271SOL     OW10711   4.797   6.980   0.160
 3271SOL    HW110712   4.805   0.033   0.102
 3271SOL    HW210713   4.877   6.921   0.148
 3272SOL     OW10714   4.513   6.313   6.663
 3272SOL    HW110715   4.492   6.376   6.739
 3272SOL    HW210716   4.443   6.322   6.593
 3273SOL     OW10717   6.300   0.773   2.691
 3273SOL    HW110718   6.396   0.799   2.697
 3273SOL    HW210719   6.245   0.835   2.748
 3274SOL     OW10720   3.337   0.121   1.668
 3274SOL    HW110721   3.283   0.176   1.604
 3274SOL    HW210722   3.291   0.118   1.757
 3275SOL     OW10723   4.895   0.431   5.989
 3275SOL    HW110724   4.810   0.379   5.981
 3275SOL    HW210725   4.876   0.520   6.031
 3276SOL     OW10726   1.894   5.465   1.580
 3276SOL    HW110727   1.928   5.511   1.498
 3276SOL    HW210728   1.971   5.421   1.627
 3277SOL     OW10729   1.010   6.072   6.546
 3277SOL    HW110730   1.105   6.075   6.576
 3277SOL    HW210731   0.951   6.057   6.626
 3278SOL     OW10732   0.940   6.540   6.929
 3278SOL    HW110733   0.869   6.538   6.858
 3278SOL    HW210734   0.947   6.633   6.966
 3279SOL     OW10735   1.952   6.625   2.111
 3279SOL    HW110736   2.008   6.687   2.058
 3279SOL    HW210737   1.933   6.666   2.201
 3280SOL     OW10738   3.076   5.749   3.625
 3280SOL    HW110739   3.023   5.813   3.568
 3280SOL    HW210740   3.067   5.775   3.721
 3281SOL     OW10741   1.921   7.002   1.454
 3281SOL    HW110742   1.965   0.041   1.394
 3281SOL    HW210743   1.871   6.935   1.400
 3282SOL     OW10744   1.088   4.565   2.347
 3282SOL    HW110745   1.079   4.472   2.312
 3282SOL    HW210746   1.030   4.626   2.293
 3283SOL     OW10747   1.842   0.484   3.681
 3283SOL    HW110748   1.762   0.543   3.690
 3283SOL    HW210749   1.921   0.539   3.655
 3284SOL     OW10750   2.303   6.510   5.983
 3284SOL    HW110751   2.367   6.525   6.058
 3284SOL    HW210752   2.212   6.490   6.020
 3285SOL     OW10753   1.084   3.619   4.050
 3285SOL    HW110754   1.034   3.655   3.972
 3285SOL    HW210755   1.022   3.606   4.128
 3286SOL     OW10756   4.976   4.652   0.385
 3286SOL    HW110757   4.882   4.618   0.378
 3286SOL    HW210758   5.016   4.622   0.472
 3287SOL     OW10759   0.295   1.839   1.205
 3287SOL    HW110760   0.321   1.935   1.219
 3287SOL    HW210761   0.238   1.832   1.123
 3288SOL     OW10762   1.392   6.534   0.719
 3288SOL    HW110763   1.318   6.467   0.721
 3288SOL    HW210764   1.356   6.623   0.689
 3289SOL     OW10765   1.647   0.882   3.996
 3289SOL    HW110766   1.732   0.881   4.049
 3289SOL    HW210767   1.608   0.974   3.997
 3290SOL     OW10768   0.277   4.632   4.681
 3290SOL    HW110769   0.346   4.663   4.614
 3290SOL    HW210770   0.288   4.534   4.696
 3291SOL     OW10771   1.550   1.315   1.900
 3291SOL    HW110772   1.519   1.324   1.994
 3291SOL    HW210773   1.594   1.400   1.871
 3292SOL     OW10774   1.230   6.744   3.791
 3292SOL    HW110775   1.301   6.785   3.733
 3292SOL    HW210776   1.251   6.762   3.887
 3293SOL     OW10777   5.379   1.393   3.355
 3293SOL    HW110778   5.344   1.485   3.343
 3293SOL    HW210779   5.479   1.396   3.362
 3294SOL     OW10780   0.076   6.518   1.784
 3294SOL    HW110781   0.081   6.551   1.690
 3294SOL    HW210782   0.006   6.446   1.791
 3295SOL     OW10783   2.792   3.214   6.500
 3295SOL    HW110784   2.837   3.163   6.573
 3295SOL    HW210785   2.820   3.176   6.411
 3296SOL     OW10786   1.192   6.584   1.805
 3296SOL    HW110787   1.104   6.575   1.852
 3296SOL    HW210788   1.217   6.496   1.763
 3297SOL     OW10789   3.777   0.555   5.245
 3297SOL    HW110790   3.771   0.526   5.341
 3297SOL    HW210791   3.709   0.627   5.228
 3298SOL     OW10792   6.760   5.080   3.382
 3298SOL    HW110793   6.854   5.093   3.413
 3298SOL    HW210794   6.698   5.087   3.461
 3299SOL     OW10795   2.471   1.544   4.929
 3299SOL    HW110796   2.548   1.512   4.985
 3299SOL    HW210797   2.392   1.560   4.987
 3300SOL     OW10798   0.599   6.925   4.250
 3300SOL    HW110799   0.568   6.988   4.180
 3300SOL    HW210800   0.604   6.972   4.338
 3301SOL     OW10801   6.177   4.276   2.136
 3301SOL    HW110802   6.261   4.222   2.137
 3301SOL    HW210803   6.198   4.372   2.155
 3302SOL     OW10804   1.914   6.017   5.713
 3302SOL    HW110805   1.828   5.982   5.751
 3302SOL    HW210806   1.975   6.042   5.788
 3303SOL     OW10807   3.239   3.537   5.309
 3303SOL    HW110808   3.302   3.612   5.287
 3303SOL    HW210809   3.181   3.564   5.386
 3304SOL     OW10810   2.350   1.109   3.779
 3304SOL    HW110811   2.329   1.075   3.688
 3304SOL    HW210812   2.402   1.040   3.830
 3305SOL     OW10813   1.773   2.364   0.879
 3305SOL    HW110814   1.826   2.449   0.877
 3305SOL    HW210815   1.829   2.288   0.846
 3306SOL     OW10816   0.947   1.625   0.735
 3306SOL    HW110817   0.964   1.607   0.638
 3306SOL    HW210818   1.031   1.659   0.777
 3307SOL     OW10819   0.264   6.391   0.559
 3307SOL    HW110820   0.234   6.342   0.477
 3307SOL    HW210821   0.355   6.430   0.542
 3308SOL     OW10822   5.661   5.141   0.612
 3308SOL    HW110823   5.653   5.201   0.533
 3308SOL    HW210824   5.728   5.178   0.676
 3309SOL     OW10825   0.339   4.189   1.988
 3309SOL    HW110826   0.405   4.261   2.008
 3309SOL    HW210827   0.272   4.185   2.062
 3310SOL     OW10828   2.177   0.482   2.480
 3310SOL    HW110829   2.166   0.512   2.386
 3310SOL    HW210830   2.274   0.484   2.505
 3311SOL     OW10831   3.818   5.068   0.761
 3311SOL    HW110832   3.780   5.012   0.835
 3311SOL    HW210833   3.852   5.008   0.688
 3312SOL     OW10834   1.964   2.439   5.759
 3312SOL    HW110835   2.020   2.390   5.692
 3312SOL    HW210836   1.894   2.493   5.711
 3313SOL     OW10837   5.215   6.021   5.479
 3313SOL    HW110838   5.152   5.993   5.406
 3313SOL    HW210839   5.303   5.974   5.466
 3314SOL     OW10840   0.628   4.350   6.791
 3314SOL    HW110841   0.693   4.359   6.715
 3314SOL    HW210842   0.673   4.378   6.876
 3315SOL     OW10843   6.877   3.542   3.590
 3315SOL    HW110844   6.929   3.596   3.656
 3315SOL    HW210845   6.817   3.602   3.538
 3316SOL     OW10846   3.778   6.952   6.594
 3316SOL    HW110847   3.743   6.963   6.501
 3316SOL    HW210848   3.874   6.980   6.597
 3317SOL     OW10849   6.364   2.342   1.232
 3317SOL    HW110850   6.368   2.270   1.163
 3317SOL    HW210851   6.275   2.341   1.277
 3318SOL     OW10852   2.285   4.930   6.211
 3318SOL    HW110853   2.375   4.974   6.213
 3318SOL    HW210854   2.285   4.854   6.277
 3319SOL     OW10855   1.398   6.179   6.209
 3319SOL    HW110856   1.406   6.270   6.168
 3319SOL    HW210857   1.302   6.149   6.204
 3320SOL     OW10858   1.746   0.774   0.812
 3320SOL    HW110859   1.691   0.858   0.814
 3320SOL    HW210860   1.813   0.776   0.886
 3321SOL     OW10861   4.092   3.803   4.693
 3321SOL    HW110862   4.104   3.721   4.637
 3321SOL    HW210863   4.159   3.872   4.668
 3322SOL     OW10864   5.586   3.555   2.647
 3322SOL    HW110865   5.527   3.478   2.669
 3322SOL    HW210866   5.531   3.633   2.618
 3323SOL     OW10867   1.999   3.791   0.443
 3323SOL    HW110868   1.921   3.757   0.496
 3323SOL    HW210869   1.965   3.827   0.355
 3324SOL     OW10870   6.172   3.271   1.421
 3324SOL    HW110871   6.261   3.226   1.425
 3324SOL    HW210872   6.145   3.300   1.513
 3325SOL     OW10873   1.418   4.763   5.764
 3325SOL    HW110874   1.486   4.703   5.805
 3325SOL    HW210875   1.428   4.763   5.664
 3326SOL     OW10876   4.099   6.988   2.311
 3326SOL    HW110877   4.116   6.893   2.284
 3326SOL    HW210878   4.017   7.021   2.264
 3327SOL     OW10879   4.970   6.616   2.283
 3327SOL    HW110880   4.899   6.664   2.334
 3327SOL    HW210881   4.959   6.635   2.185
 3328SOL     OW10882   6.526   6.109   3.354
 3328SOL    HW110883   6.509   6.010   3.362
 3328SOL    HW210884   6.458   6.149   3.293
 3329SOL     OW10885   5.871   7.002   5.747
 3329SOL    HW110886   5.804   6.964   5.811
 3329SOL    HW210887   5.957   6.952   5.756
 3330SOL     OW10888   5.542   0.930   3.556
 3330SOL    HW110889   5.589   0.861   3.610
 3330SOL    HW210890   5.574   0.926   3.461
 3331SOL     OW10891   0.705   3.372   2.768
 3331SOL    HW110892   0.744   3.407   2.683
 3331SOL    HW210893   0.757   3.407   2.846
 3332SOL     OW10894   4.287   5.011   1.467
 3332SOL    HW110895   4.254   4.919   1.489
 3332SOL    HW210896   4.382   5.006   1.436
 3333SOL     OW10897   2.124   3.686   1.086
 3333SOL    HW110898   2.091   3.672   1.179
 3333SOL    HW210899   2.141   3.783   1.071
 3334SOL     OW10900   1.957   2.529   2.114
 3334SOL    HW110901   1.866   2.569   2.104
 3334SOL    HW210902   1.951   2.446   2.169
 3335SOL     OW10903   4.311   3.879   6.765
 3335SOL    HW110904   4.288   3.918   6.854
 3335SOL    HW210905   4.277   3.785   6.761
 3336SOL     OW10906   3.408   6.190   6.250
 3336SOL    HW110907   3.487   6.236   6.209
 3336SOL    HW210908   3.373   6.246   6.325
 3337SOL     OW10909   3.050   3.868   4.538
 3337SOL    HW110910   3.062   3.883   4.636
 3337SOL    HW210911   2.966   3.816   4.523
 3338SOL     OW10912   3.337   2.912   1.567
 3338SOL    HW110913   3.271   2.873   1.631
 3338SOL    HW210914   3.316   3.008   1.550
 3339SOL     OW10915   0.769   6.836   5.641
 3339SOL    HW110916   0.816   6.913   5.599
 3339SOL    HW210917   0.800   6.824   5.735
 3340SOL     OW10918   4.522   2.291   6.384
 3340SOL    HW110919   4.433   2.247   6.394
 3340SOL    HW210920   4.510   2.385   6.354
 3341SOL     OW10921   1.124   3.880   1.596
 3341SOL    HW110922   1.220   3.866   1.618
 3341SOL    HW210923   1.090   3.800   1.546
 3342SOL     OW10924   5.913   0.289   3.501
 3342SOL    HW110925   6.004   0.289   3.458
 3342SOL    HW210926   5.916   0.341   3.586
 3343SOL     OW10927   2.926   5.273   6.932
 3343SOL    HW110928   2.863   5.216   6.985
 3343SOL    HW210929   2.999   5.307   6.993
 3344SOL     OW10930   2.360   3.830   0.227
 3344SOL    HW110931   2.400   3.740   0.242
 3344SOL    HW210932   2.336   3.871   0.315
 3345SOL     OW10933   4.030   5.218   0.404
 3345SOL    HW110934   4.032   5.263   0.314
 3345SOL    HW210935   4.028   5.288   0.476
 3346SOL     OW10936   0.748   0.850   0.487
 3346SOL    HW110937   0.790   0.835   0.398
 3346SOL    HW210938   0.664   0.795   0.494
 3347SOL     OW10939   1.215   3.168   6.209
 3347SOL    HW110940   1.196   3.190   6.114
 3347SOL    HW210941   1.135   3.125   6.251
 3348SOL     OW10942   2.795   4.320   5.768
 3348SOL    HW110943   2.736   4.399   5.750
 3348SOL    HW210944   2.870   4.348   5.828
 3349SOL     OW10945   2.517   5.359   1.747
 3349SOL    HW110946   2.572   5.283   1.714
 3349SOL    HW210947   2.575   5.421   1.801
 3350SOL     OW10948   3.320   5.081   4.209
 3350SOL    HW110949   3.302   5.148   4.281
 3350SOL    HW210950   3.377   5.008   4.244
 3351SOL     OW10951   4.159   6.734   1.948
 3351SOL    HW110952   4.217   6.657   1.924
 3351SOL    HW210953   4.169   6.806   1.879
 3352SOL     OW10954   5.756   0.654   0.503
 3352SOL    HW110955   5.772   0.656   0.601
 3352SOL    HW210956   5.803   0.575   0.463
 3353SOL     OW10957   5.220   0.001   5.903
 3353SOL    HW110958   5.199   7.018   5.806
 3353SOL    HW210959   5.145   0.050   5.948
 3354SOL     OW10960   3.816   1.645   0.529
 3354SOL    HW110961   3.880   1.649   0.452
 3354SOL    HW210962   3.838   1.718   0.595
 3355SOL     OW10963   0.862   1.962   5.818
 3355SOL    HW110964   0.834   1.953   5.722
 3355SOL    HW210965   0.919   1.884   5.844
 3356SOL     OW10966   3.040   0.315   5.248
 3356SOL    HW110967   3.010   0.391   5.191
 3356SOL    HW210968   3.136   0.329   5.274
 3357SOL     OW10969   3.096   3.363   4.361
 3357SOL    HW110970   3.038   3.290   4.398
 3357SOL    HW210971   3.184   3.325   4.335
 3358SOL     OW10972   0.213   1.905   1.649
 3358SOL    HW110973   0.220   1.940   1.556
 3358SOL    HW210974   0.297   1.926   1.699
 3359SOL     OW10975   0.635   0.138   2.980
 3359SOL    HW110976   0.647   0.128   2.882
 3359SOL    HW210977   0.696   0.075   3.028
 3360SOL     OW10978   1.470   5.773   4.616
 3360SOL    HW110979   1.439   5.812   4.529
 3360SOL    HW210980   1.429   5.824   4.692
 3361SOL     OW10981   0.844   0.175   4.572
 3361SOL    HW110982   0.935   0.134   4.575
 3361SOL    HW210983   0.850   0.267   4.534
 3362SOL     OW10984   4.090   0.548   5.252
 3362SOL    HW110985   3.992   0.532   5.248
 3362SOL    HW210986   4.112   0.634   5.204
 3363SOL     OW10987   5.072   3.347   0.382
 3363SOL    HW110988   5.103   3.334   0.476
 3363SOL    HW210989   5.075   3.444   0.358
 3364SOL     OW10990   2.553   3.528   1.301
 3364SOL    HW110991   2.617   3.502   1.373
 3364SOL    HW210992   2.543   3.452   1.237
 3365SOL     OW10993   0.191   3.475   2.856
 3365SOL    HW110994   0.273   3.529   2.839
 3365SOL    HW210995   0.213   3.399   2.919
 3366SOL     OW10996   5.502   2.793   3.574
 3366SOL    HW110997   5.587   2.740   3.578
 3366SOL    HW210998   5.472   2.802   3.479
 3367SOL     OW10999   3.309   4.075   3.180
 3367SOL    HW111000   3.228   4.043   3.230
 3367SOL    HW211001   3.286   4.086   3.083
 3368SOL     OW11002   1.306   0.981   3.741
 3368SOL    HW111003   1.235   0.952   3.676
 3368SOL    HW211004   1.266   1.042   3.809
 3369SOL     OW11005   6.243   3.040   0.492
 3369SOL    HW111006   6.241   3.123   0.548
 3369SOL    HW211007   6.284   2.966   0.545
 3370SOL     OW11008   0.241   5.864   3.497
 3370SOL    HW111009   0.211   5.815   3.580
 3370SOL    HW211010   0.162   5.878   3.437
 3371SOL     OW11011   2.885   2.582   1.272
 3371SOL    HW111012   2.888   2.637   1.188
 3371SOL    HW211013   2.905   2.487   1.250
 3372SOL     OW11014   5.819   2.835   3.742
 3372SOL    HW111015   5.751   2.891   3.789
 3372SOL    HW211016   5.897   2.819   3.802
 3373SOL     OW11017   0.839   4.737   1.349
 3373SOL    HW111018   0.850   4.670   1.423
 3373SOL    HW211019   0.890   4.819   1.372
 3374SOL     OW11020   0.863   5.341   4.291
 3374SOL    HW111021   0.950   5.344   4.340
 3374SOL    HW211022   0.830   5.246   4.287
 3375SOL     OW11023   0.017   6.582   5.615
 3375SOL    HW111024   0.114   6.586   5.591
 3375SOL    HW211025   7.022   6.659   5.675
 3376SOL     OW11026   3.248   3.480   4.778
 3376SOL    HW111027   3.158   3.524   4.769
 3376SOL    HW211028   3.317   3.550   4.801
 3377SOL     OW11029   5.689   5.681   4.547
 3377SOL    HW111030   5.782   5.668   4.580
 3377SOL    HW211031   5.635   5.598   4.565
 3378SOL     OW11032   0.750   5.750   6.759
 3378SOL    HW111033   0.785   5.659   6.783
 3378SOL    HW211034   0.764   5.766   6.662
 3379SOL     OW11035   6.024   4.482   3.712
 3379SOL    HW111036   5.990   4.522   3.797
 3379SOL    HW211037   6.054   4.555   3.651
 3380SOL     OW11038   1.176   4.319   1.987
 3380SOL    HW111039   1.233   4.401   1.985
 3380SOL    HW211040   1.124   4.312   1.902
 3381SOL     OW11041   2.768   4.931   0.251
 3381SOL    HW111042   2.798   4.868   0.180
 3381SOL    HW211043   2.845   4.988   0.280
 3382SOL     OW11044   0.402   3.295   7.017
 3382SOL    HW111045   0.349   3.310   0.074
 3382SOL    HW211046   0.491   3.257   0.013
 3383SOL     OW11047   3.396   5.996   6.660
 3383SOL    HW111048   3.392   5.945   6.574
 3383SOL    HW211049   3.489   5.992   6.696
 3384SOL     OW11050   2.696   2.883   6.557
 3384SOL    HW111051   2.671   2.814   6.625
 3384SOL    HW211052   2.771   2.939   6.592
 3385SOL     OW11053   6.741   1.635   4.209
 3385SOL    HW111054   6.653   1.670   4.176
 3385SOL    HW211055   6.727   1.587   4.295
 3386SOL     OW11056   6.910   4.525   5.365
 3386SOL    HW111057   6.919   4.426   5.353
 3386SOL    HW211058   6.912   4.547   5.463
 3387SOL     OW11059   5.654   1.504   2.838
 3387SOL    HW111060   5.617   1.420   2.878
 3387SOL    HW211061   5.579   1.560   2.803
 3388SOL     OW11062   1.303   3.986   1.351
 3388SOL    HW111063   1.266   3.904   1.396
 3388SOL    HW211064   1.227   4.044   1.321
 3389SOL     OW11065   6.126   5.382   6.668
 3389SOL    HW111066   6.113   5.352   6.574
 3389SOL    HW211067   6.123   5.303   6.729
 3390SOL     OW11068   3.326   4.491   0.887
 3390SOL    HW111069   3.377   4.428   0.945
 3390SOL    HW211070   3.254   4.536   0.941
 3391SOL     OW11071   6.118   4.149   5.815
 3391SOL    HW111072   6.173   4.232   5.823
 3391SOL    HW211073   6.036   4.168   5.761
 3392SOL     OW11074   4.608   5.696   6.044
 3392SOL    HW111075   4.669   5.652   6.110
 3392SOL    HW211076   4.517   5.705   6.084
 3393SOL     OW11077   3.357   1.185   0.802
 3393SOL    HW111078   3.420   1.112   0.772
 3393SOL    HW211079   3.343   1.249   0.727
 3394SOL     OW11080   3.397   5.614   2.092
 3394SOL    HW111081   3.490   5.649   2.104
 3394SOL    HW211082   3.340   5.643   2.169
 3395SOL     OW11083   1.505   5.861   3.017
 3395SOL    HW111084   1.425   5.818   2.976
 3395SOL    HW211085   1.476   5.926   3.087
 3396SOL     OW11086   3.952   0.084   3.777
 3396SOL    HW111087   4.050   0.089   3.758
 3396SOL    HW211088   3.933   0.120   3.868
 3397SOL     OW11089   3.172   6.232   2.318
 3397SOL    HW111090   3.219   6.312   2.354
 3397SOL    HW211091   3.093   6.262   2.264
 3398SOL     OW11092   6.492   0.321   0.926
 3398SOL    HW111093   6.591   0.331   0.931
 3398SOL    HW211094   6.468   0.224   0.928
 3399SOL     OW11095   5.917   6.653   2.789
 3399SOL    HW111096   6.000   6.605   2.759
 3399SOL    HW211097   5.847   6.647   2.718
 3400SOL     OW11098   3.258   2.945   5.624
 3400SOL    HW111099   3.256   2.984   5.716
 3400SOL    HW211100   3.165   2.944   5.586
 3401SOL     OW11101   6.432   3.975   3.538
 3401SOL    HW111102   6.404   4.040   3.466
 3401SOL    HW211103   6.381   3.995   3.622
 3402SOL     OW11104   6.721   3.673   0.658
 3402SOL    HW111105   6.698   3.639   0.567
 3402SOL    HW211106   6.807   3.630   0.688
 3403SOL     OW11107   5.626   7.003   4.121
 3403SOL    HW111108   5.564   0.036   4.172
 3403SOL    HW211109   5.695   0.031   4.074
 3404SOL     OW11110   5.250   4.723   2.798
 3404SOL    HW111111   5.251   4.730   2.898
 3404SOL    HW211112   5.335   4.680   2.767
 3405SOL     OW11113   4.812   0.557   0.154
 3405SOL    HW111114   4.868   0.556   0.072
 3405SOL    HW211115   4.861   0.513   0.229
 3406SOL     OW11116   4.677   4.225   0.796
 3406SOL    HW111117   4.638   4.316   0.808
 3406SOL    HW211118   4.603   4.158   0.792
 3407SOL     OW11119   2.389   1.664   0.837
 3407SOL    HW111120   2.388   1.568   0.807
 3407SOL    HW211121   2.348   1.670   0.928
 3408SOL     OW11122   3.361   6.864   4.505
 3408SOL    HW111123   3.277   6.910   4.535
 3408SOL    HW211124   3.440   6.916   4.536
 3409SOL     OW11125   5.003   2.318   0.405
 3409SOL    HW111126   5.067   2.332   0.330
 3409SOL    HW211127   4.941   2.242   0.382
 3410SOL     OW11128   6.047   2.175   2.415
 3410SOL    HW111129   6.063   2.121   2.498
 3410SOL    HW211130   5.978   2.129   2.359
 3411SOL     OW11131   5.125   2.960   6.626
 3411SOL    HW111132   5.154   2.951   6.721
 3411SOL    HW211133   5.145   3.052   6.594
 3412SOL     OW11134   5.278   3.462   2.612
 3412SOL    HW111135   5.327   3.537   2.569
 3412SOL    HW211136   5.186   3.493   2.640
 3413SOL     OW11137   1.242   2.056   0.273
 3413SOL    HW111138   1.183   2.133   0.251
 3413SOL    HW211139   1.247   1.994   0.195
 3414SOL     OW11140   3.350   3.519   1.948
 3414SOL    HW111141   3.363   3.592   1.881
 3414SOL    HW211142   3.323   3.435   1.901
 3415SOL     OW11143   2.684   1.141   0.178
 3415SOL    HW111144   2.616   1.079   0.216
 3415SOL    HW211145   2.652   1.235   0.188
 3416SOL     OW11146   5.054   5.631   6.744
 3416SOL    HW111147   4.992   5.695   6.700
 3416SOL    HW211148   5.014   5.539   6.744
 3417SOL     OW11149   5.460   0.445   2.665
 3417SOL    HW111150   5.365   0.421   2.645
 3417SOL    HW211151   5.470   0.461   2.763
 3418SOL     OW11152   4.333   6.331   1.457
 3418SOL    HW111153   4.313   6.287   1.370
 3418SOL    HW211154   4.299   6.274   1.532
 3419SOL     OW11155   2.514   4.649   5.076
 3419SOL    HW111156   2.611   4.628   5.065
 3419SOL    HW211157   2.490   4.644   5.173
 3420SOL     OW11158   4.774   0.128   2.163
 3420SOL    HW111159   4.752   0.083   2.076
 3420SOL    HW211160   4.827   0.067   2.221
 3421SOL     OW11161   0.924   1.045   4.818
 3421SOL    HW111162   1.015   1.003   4.809
 3421SOL    HW211163   0.876   1.003   4.895
 3422SOL     OW11164   3.152   4.934   1.594
 3422SOL    HW111165   3.097   5.017   1.592
 3422SOL    HW211166   3.173   4.911   1.689
 3423SOL     OW11167   1.938   5.809   6.019
 3423SOL    HW111168   1.906   5.746   5.949
 3423SOL    HW211169   1.920   5.770   6.110
 3424SOL     OW11170   6.395   4.957   2.801
 3424SOL    HW111171   6.379   4.985   2.896
 3424SOL    HW211172   6.440   4.868   2.800
 3425SOL     OW11173   6.092   3.518   6.177
 3425SOL    HW111174   6.150   3.510   6.096
 3425SOL    HW211175   6.020   3.449   6.174
 3426SOL     OW11176   6.866   4.983   6.342
 3426SOL    HW111177   6.803   4.914   6.378
 3426SOL    HW211178   6.951   4.939   6.313
 3427SOL     OW11179   1.877   0.950   6.426
 3427SOL    HW111180   1.939   0.882   6.388
 3427SOL    HW211181   1.920   0.994   6.505
 3428SOL     OW11182   3.940   1.333   4.211
 3428SOL    HW111183   4.013   1.269   4.234
 3428SOL    HW211184   3.875   1.289   4.149
 3429SOL     OW11185   6.155   5.484   0.604
 3429SOL    HW111186   6.223   5.519   0.540
 3429SOL    HW211187   6.115   5.400   0.568
 3430SOL     OW11188   2.503   4.700   0.368
 3430SOL    HW111189   2.494   4.750   0.282
 3430SOL    HW211190   2.412   4.682   0.406
 3431SOL     OW11191   1.754   3.559   1.557
 3431SOL    HW111192   1.833   3.501   1.536
 3431SOL    HW211193   1.785   3.650   1.585
 3432SOL     OW11194   0.163   5.728   7.008
 3432SOL    HW111195   0.222   5.648   6.993
 3432SOL    HW211196   0.194   5.803   6.949
 3433SOL     OW11197   0.312   1.155   0.243
 3433SOL    HW111198   0.386   1.154   0.174
 3433SOL    HW211199   0.336   1.094   0.318
 3434SOL     OW11200   3.954   2.901   1.511
 3434SOL    HW111201   3.894   2.969   1.552
 3434SOL    HW211202   4.002   2.851   1.583
 3435SOL     OW11203   3.256   2.718   1.345
 3435SOL    HW111204   3.268   2.763   1.434
 3435SOL    HW211205   3.240   2.621   1.359
 3436SOL     OW11206   4.953   5.413   5.029
 3436SOL    HW111207   4.934   5.346   5.101
 3436SOL    HW211208   4.903   5.498   5.049
 3437SOL     OW11209   3.103   5.920   0.283
 3437SOL    HW111210   3.114   5.983   0.206
 3437SOL    HW211211   3.006   5.901   0.298
 3438SOL     OW11212   2.140   3.955   1.002
 3438SOL    HW111213   2.196   3.953   1.085
 3438SOL    HW211214   2.121   4.051   0.978
 3439SOL     OW11215   3.106   5.631   1.067
 3439SOL    HW111216   3.147   5.542   1.045
 3439SOL    HW211217   3.088   5.636   1.165
 3440SOL     OW11218   3.924   4.482   5.741
 3440SOL    HW111219   3.969   4.430   5.813
 3440SOL    HW211220   3.826   4.486   5.759
 3441SOL     OW11221   0.641   5.849   5.380
 3441SOL    HW111222   0.734   5.883   5.363
 3441SOL    HW211223   0.577   5.896   5.319
 3442SOL     OW11224   1.740   2.201   6.768
 3442SOL    HW111225   1.657   2.176   6.817
 3442SOL    HW211226   1.716   2.239   6.678
 3443SOL     OW11227   6.883   6.530   2.039
 3443SOL    HW111228   6.888   6.605   1.973
 3443SOL    HW211229   6.904   6.444   1.994
 3444SOL     OW11230   1.512   3.700   6.080
 3444SOL    HW111231   1.500   3.603   6.104
 3444SOL    HW211232   1.594   3.709   6.023
 3445SOL     OW11233   5.906   4.287   3.561
 3445SOL    HW111234   5.963   4.347   3.618
 3445SOL    HW211235   5.878   4.336   3.479
 3446SOL     OW11236   5.829   1.183   6.897
 3446SOL    HW111237   5.793   1.156   6.807
 3446SOL    HW211238   5.826   1.283   6.906
 3447SOL     OW11239   5.620   1.536   6.531
 3447SOL    HW111240   5.570   1.621   6.513
 3447SOL    HW211241   5.555   1.461   6.541
 3448SOL     OW11242   0.881   5.688   5.025
 3448SOL    HW111243   0.863   5.626   4.948
 3448SOL    HW211244   0.962   5.743   5.004
 3449SOL     OW11245   1.277   4.377   4.555
 3449SOL    HW111246   1.340   4.310   4.595
 3449SOL    HW211247   1.328   4.458   4.527
 3450SOL     OW11248   2.302   6.787   3.571
 3450SOL    HW111249   2.285   6.799   3.473
 3450SOL    HW211250   2.245   6.851   3.622
 3451SOL     OW11251   2.641   1.668   1.271
 3451SOL    HW111252   2.740   1.677   1.261
 3451SOL    HW211253   2.601   1.652   1.181
 3452SOL     OW11254   4.707   1.095   4.990
 3452SOL    HW111255   4.627   1.155   4.989
 3452SOL    HW211256   4.790   1.150   4.982
 3453SOL     OW11257   4.741   6.266   5.958
 3453SOL    HW111258   4.839   6.254   5.974
 3453SOL    HW211259   4.718   6.229   5.869
 3454SOL     OW11260   1.766   3.328   3.835
 3454SOL    HW111261   1.705   3.313   3.913
 3454SOL    HW211262   1.861   3.326   3.866
 3455SOL     OW11263   2.203   3.812   6.244
 3455SOL    HW111264   2.188   3.906   6.275
 3455SOL    HW211265   2.256   3.763   6.313
 3456SOL     OW11266   5.104   4.942   2.714
 3456SOL    HW111267   5.178   5.002   2.746
 3456SOL    HW211268   5.116   4.851   2.753
 3457SOL     OW11269   4.481   4.423   0.103
 3457SOL    HW111270   4.417   4.418   0.180
 3457SOL    HW211271   4.566   4.376   0.126
 3458SOL     OW11272   4.435   1.594   1.021
 3458SOL    HW111273   4.381   1.678   1.028
 3458SOL    HW211274   4.521   1.614   0.974
 3459SOL     OW11275   6.208   1.283   2.346
 3459SOL    HW111276   6.114   1.296   2.378
 3459SOL    HW211277   6.208   1.227   2.264
 3460SOL     OW11278   5.016   1.943   5.045
 3460SOL    HW111279   5.000   1.879   5.120
 3460SOL    HW211280   4.986   2.035   5.073
 3461SOL     OW11281   5.159   4.314   5.040
 3461SOL    HW111282   5.158   4.271   4.950
 3461SOL    HW211283   5.066   4.344   5.064
 3462SOL     OW11284   1.071   3.531   6.812
 3462SOL    HW111285   1.040   3.452   6.758
 3462SOL    HW211286   1.096   3.605   6.750
 3463SOL     OW11287   6.275   3.588   0.051
 3463SOL    HW111288   6.375   3.595   0.054
 3463SOL    HW211289   6.246   3.559   6.987
 3464SOL     OW11290   0.936   4.675   4.812
 3464SOL    HW111291   0.948   4.704   4.717
 3464SOL    HW211292   1.018   4.697   4.865
 3465SOL     OW11293   0.942   2.467   0.845
 3465SOL    HW111294   0.919   2.525   0.923
 3465SOL    HW211295   0.869   2.471   0.777
 3466SOL     OW11296   4.934   3.617   3.203
 3466SOL    HW111297   4.906   3.664   3.119
 3466SOL    HW211298   4.890   3.660   3.282
 3467SOL     OW11299   1.711   1.295   6.526
 3467SOL    HW111300   1.769   1.375   6.539
 3467SOL    HW211301   1.625   1.308   6.575
 3468SOL     OW11302   5.854   5.391   1.950
 3468SOL    HW111303   5.788   5.457   1.914
 3468SOL    HW211304   5.915   5.436   2.015
 3469SOL     OW11305   5.683   3.036   0.652
 3469SOL    HW111306   5.771   2.988   0.646
 3469SOL    HW211307   5.696   3.132   0.629
 3470SOL     OW11308   6.008   5.877   6.269
 3470SOL    HW111309   5.970   5.882   6.362
 3470SOL    HW211310   5.936   5.898   6.203
 3471SOL     OW11311   4.123   6.834   4.848
 3471SOL    HW111312   4.102   6.932   4.852
 3471SOL    HW211313   4.038   6.782   4.840
 3472SOL     OW11314   3.507   0.587   3.786
 3472SOL    HW111315   3.474   0.523   3.856
 3472SOL    HW211316   3.601   0.614   3.807
 3473SOL     OW11317   4.397   0.016   3.502
 3473SOL    HW111318   4.475   0.060   3.547
 3473SOL    HW211319   4.430   6.969   3.444
 3474SOL     OW11320   6.543   5.328   1.192
 3474SOL    HW111321   6.543   5.379   1.278
 3474SOL    HW211322   6.630   5.281   1.180
 3475SOL     OW11323   2.257   5.746   4.943
 3475SOL    HW111324   2.188   5.730   5.014
 3475SOL    HW211325   2.211   5.765   4.856
 3476SOL     OW11326   1.926   2.166   3.158
 3476SOL    HW111327   1.907   2.068   3.151
 3476SOL    HW211328   1.841   2.217   3.145
 3477SOL     OW11329   4.973   5.692   2.303
 3477SOL    HW111330   4.932   5.701   2.212
 3477SOL    HW211331   5.023   5.606   2.309
 3478SOL     OW11332   3.681   5.071   7.000
 3478SOL    HW111333   3.774   5.088   6.969
 3478SOL    HW211334   3.667   5.117   0.061
 3479SOL     OW11335   1.804   1.414   0.433
 3479SOL    HW111336   1.795   1.469   0.516
 3479SOL    HW211337   1.900   1.394   0.416
 3480SOL     OW11338   2.370   0.033   5.082
 3480SOL    HW111339   2.332   0.115   5.125
 3480SOL    HW211340   2.382   0.048   4.984
 3481SOL     OW11341   1.500   4.114   6.915
 3481SOL    HW111342   1.444   4.107   6.832
 3481SOL    HW211343   1.513   4.023   6.954
 3482SOL     OW11344   0.234   2.103   0.934
 3482SOL    HW111345   0.239   2.077   0.837
 3482SOL    HW211346   0.192   2.194   0.941
 3483SOL     OW11347   3.879   1.413   1.641
 3483SOL    HW111348   3.858   1.352   1.718
 3483SOL    HW211349   3.964   1.385   1.598
 3484SOL     OW11350   3.630   4.190   4.649
 3484SOL    HW111351   3.554   4.167   4.589
 3484SOL    HW211352   3.597   4.248   4.724
 3485SOL     OW11353   6.168   3.129   3.951
 3485SOL    HW111354   6.206   3.174   4.032
 3485SOL    HW211355   6.160   3.031   3.968
 3486SOL     OW11356   6.020   2.039   2.651
 3486SOL    HW111357   5.927   2.072   2.665
 3486SOL    HW211358   6.017   1.945   2.616
 3487SOL     OW11359   1.891   6.184   2.099
 3487SOL    HW111360   1.834   6.239   2.160
 3487SOL    HW211361   1.984   6.180   2.134
 3488SOL     OW11362   0.119   3.191   4.874
 3488SOL    HW111363   0.032   3.160   4.911
 3488SOL    HW211364   0.167   3.113   4.832
 3489SOL     OW11365   1.766   5.983   6.554
 3489SOL    HW111366   1.674   6.019   6.537
 3489SOL    HW211367   1.831   6.058   6.559
 3490SOL     OW11368   5.079   2.739   0.018
 3490SOL    HW111369   5.111   2.645   0.030
 3490SOL    HW211370   5.101   2.793   0.100
 3491SOL     OW11371   6.355   2.508   5.417
 3491SOL    HW111372   6.369   2.538   5.511
 3491SOL    HW211373   6.257   2.502   5.398
 3492SOL     OW11374   1.401   4.278   6.385
 3492SOL    HW111375   1.411   4.246   6.291
 3492SOL    HW211376   1.480   4.336   6.408
 3493SOL     OW11377   0.473   5.098   1.119
 3493SOL    HW111378   0.390   5.129   1.166
 3493SOL    HW211379   0.538   5.064   1.186
 3494SOL     OW11380   3.411   6.604   0.996
 3494SOL    HW111381   3.337   6.630   1.058
 3494SOL    HW211382   3.482   6.675   0.997
 3495SOL     OW11383   5.473   4.411   5.919
 3495SOL    HW111384   5.438   4.364   5.838
 3495SOL    HW211385   5.511   4.500   5.892
 3496SOL     OW11386   0.674   6.292   1.410
 3496SOL    HW111387   0.643   6.297   1.315
 3496SOL    HW211388   0.769   6.263   1.413
 3497SOL     OW11389   3.002   0.577   4.786
 3497SOL    HW111390   3.000   0.495   4.728
 3497SOL    HW211391   3.088   0.578   4.838
 3498SOL     OW11392   1.555   1.911   0.747
 3498SOL    HW111393   1.549   1.955   0.836
 3498SOL    HW211394   1.614   1.965   0.687
 3499SOL     OW11395   0.075   4.316   3.181
 3499SOL    HW111396   0.130   4.343   3.101
 3499SOL    HW211397   7.025   4.378   3.191
 3500SOL     OW11398   6.789   2.407   0.346
 3500SOL    HW111399   6.790   2.311   0.376
 3500SOL    HW211400   6.743   2.414   0.257
 3501SOL     OW11401   6.980   4.761   3.171
 3501SOL    HW111402   6.946   4.851   3.145
 3501SOL    HW211403   6.913   4.692   3.144
 3502SOL     OW11404   0.672   6.564   1.480
 3502SOL    HW111405   0.758   6.582   1.528
 3502SOL    HW211406   0.666   6.467   1.459
 3503SOL     OW11407   2.987   0.733   3.299
 3503SOL    HW111408   2.973   0.823   3.258
 3503SOL    HW211409   2.905   0.706   3.349
 3504SOL     OW11410   1.604   2.297   1.980
 3504SOL    HW111411   1.598   2.382   1.927
 3504SOL    HW211412   1.609   2.219   1.917
 3505SOL     OW11413   3.980   0.461   3.976
 3505SOL    HW111414   3.965   0.560   3.977
 3505SOL    HW211415   4.009   0.433   3.884
 3506SOL     OW11416   6.114   3.286   3.498
 3506SOL    HW111417   6.183   3.309   3.566
 3506SOL    HW211418   6.158   3.264   3.411
 3507SOL     OW11419   0.039   6.486   4.974
 3507SOL    HW111420   6.984   6.533   4.942
 3507SOL    HW211421   0.096   6.461   4.896
 3508SOL     OW11422   0.803   4.372   0.398
 3508SOL    HW111423   0.825   4.307   0.326
 3508SOL    HW211424   0.752   4.449   0.359
 3509SOL     OW11425   3.803   0.267   0.138
 3509SOL    HW111426   3.877   0.293   0.200
 3509SOL    HW211427   3.840   0.217   0.060
 3510SOL     OW11428   2.610   1.827   2.889
 3510SOL    HW111429   2.527   1.865   2.849
 3510SOL    HW211430   2.640   1.748   2.836
 3511SOL     OW11431   0.224   1.178   3.779
 3511SOL    HW111432   0.219   1.097   3.720
 3511SOL    HW211433   0.320   1.202   3.793
 3512SOL     OW11434   3.132   2.982   2.154
 3512SOL    HW111435   3.218   3.003   2.199
 3512SOL    HW211436   3.089   2.904   2.200
 3513SOL     OW11437   6.775   4.710   0.091
 3513SOL    HW111438   6.793   4.742   0.184
 3513SOL    HW211439   6.680   4.679   0.083
 3514SOL     OW11440   2.842   5.369   3.685
 3514SOL    HW111441   2.912   5.415   3.629
 3514SOL    HW211442   2.887   5.317   3.758
 3515SOL     OW11443   3.811   5.479   4.288
 3515SOL    HW111444   3.759   5.416   4.231
 3515SOL    HW211445   3.891   5.511   4.238
 3516SOL     OW11446   1.468   1.301   0.043
 3516SOL    HW111447   1.497   1.230   7.006
 3516SOL    HW211448   1.543   1.365   0.058
 3517SOL     OW11449   0.571   1.227   6.428
 3517SOL    HW111450   0.561   1.185   6.338
 3517SOL    HW211451   0.481   1.236   6.471
 3518SOL     OW11452   4.576   3.680   6.144
 3518SOL    HW111453   4.551   3.671   6.047
 3518SOL    HW211454   4.654   3.743   6.153
 3519SOL     OW11455   4.139   0.596   6.449
 3519SOL    HW111456   4.232   0.563   6.464
 3519SOL    HW211457   4.098   0.548   6.372
 3520SOL     OW11458   4.064   4.774   1.517
 3520SOL    HW111459   4.078   4.684   1.559
 3520SOL    HW211460   3.966   4.795   1.517
 3521SOL     OW11461   0.098   1.647   5.159
 3521SOL    HW111462   0.193   1.619   5.145
 3521SOL    HW211463   0.065   1.609   5.245
 3522SOL     OW11464   2.400   0.390   0.865
 3522SOL    HW111465   2.471   0.401   0.935
 3522SOL    HW211466   2.400   0.471   0.805
 3523SOL     OW11467   2.373   4.269   4.215
 3523SOL    HW111468   2.427   4.297   4.294
 3523SOL    HW211469   2.294   4.331   4.205
 3524SOL     OW11470   2.628   1.302   2.808
 3524SOL    HW111471   2.535   1.326   2.779
 3524SOL    HW211472   2.687   1.383   2.801
 3525SOL     OW11473   1.698   3.149   3.608
 3525SOL    HW111474   1.750   3.065   3.626
 3525SOL    HW211475   1.722   3.218   3.676
 3526SOL     OW11476   3.832   6.240   4.258
 3526SOL    HW111477   3.774   6.184   4.318
 3526SOL    HW211478   3.804   6.226   4.163
 3527SOL     OW11479   6.759   4.041   0.119
 3527SOL    HW111480   6.688   4.085   0.064
 3527SOL    HW211481   6.757   4.080   0.212
 3528SOL     OW11482   0.931   6.734   3.965
 3528SOL    HW111483   0.833   6.732   3.987
 3528SOL    HW211484   0.942   6.740   3.866
 3529SOL     OW11485   3.573   0.285   0.247
 3529SOL    HW111486   3.567   0.268   0.345
 3529SOL    HW211487   3.662   0.255   0.214
 3530SOL     OW11488   2.135   5.712   2.307
 3530SOL    HW111489   2.163   5.755   2.220
 3530SOL    HW211490   2.049   5.664   2.294
 3531SOL     OW11491   5.127   3.993   0.031
 3531SOL    HW111492   5.051   3.979   6.994
 3531SOL    HW211493   5.197   4.050   7.015
 3532SOL     OW11494   2.147   0.362   6.363
 3532SOL    HW111495   2.121   0.397   6.453
 3532SOL    HW211496   2.079   0.389   6.295
 3533SOL     OW11497   1.272   1.292   2.402
 3533SOL    HW111498   1.289   1.285   2.500
 3533SOL    HW211499   1.337   1.357   2.362
 3534SOL     OW11500   4.776   6.809   4.766
 3534SOL    HW111501   4.827   6.739   4.816
 3534SOL    HW211502   4.830   6.893   4.763
 3535SOL     OW11503   3.454   4.187   7.017
 3535SOL    HW111504   3.402   4.115   6.970
 3535SOL    HW211505   3.526   4.220   6.957
 3536SOL     OW11506   1.872   2.850   2.239
 3536SOL    HW111507   1.887   2.897   2.326
 3536SOL    HW211508   1.883   2.751   2.253
 3537SOL     OW11509   3.456   5.179   1.598
 3537SOL    HW111510   3.435   5.276   1.582
 3537SOL    HW211511   3.444   5.128   1.512
 3538SOL     OW11512   2.840   0.334   4.466
 3538SOL    HW111513   2.902   0.354   4.542
 3538SOL    HW211514   2.892   0.298   4.389
 3539SOL     OW11515   5.232   5.084   6.043
 3539SOL    HW111516   5.281   5.141   6.109
 3539SOL    HW211517   5.270   4.991   6.045
 3540SOL     OW11518   5.364   3.726   6.744
 3540SOL    HW111519   5.319   3.711   6.833
 3540SOL    HW211520   5.299   3.768   6.681
 3541SOL     OW11521   0.372   3.028   2.759
 3541SOL    HW111522   0.339   3.029   2.665
 3541SOL    HW211523   0.415   2.940   2.779
 3542SOL     OW11524   5.825   0.734   6.698
 3542SOL    HW111525   5.843   0.783   6.613
 3542SOL    HW211526   5.852   0.791   6.776
 3543SOL     OW11527   0.482   3.401   5.048
 3543SOL    HW111528   0.419   3.369   5.119
 3543SOL    HW211529   0.433   3.410   4.962
 3544SOL     OW11530   4.545   4.928   5.865
 3544SOL    HW111531   4.566   5.026   5.872
 3544SOL    HW211532   4.508   4.908   5.775
 3545SOL     OW11533   2.394   6.667   1.892
 3545SOL    HW111534   2.423   6.718   1.810
 3545SOL    HW211535   2.294   6.664   1.896
 3546SOL     OW11536   6.578   3.602   1.439
 3546SOL    HW111537   6.618   3.678   1.489
 3546SOL    HW211538   6.609   3.515   1.479
 3547SOL     OW11539   2.076   4.453   3.981
 3547SOL    HW111540   2.035   4.542   3.999
 3547SOL    HW211541   2.135   4.427   4.057
 3548SOL     OW11542   6.608   6.096   5.508
 3548SOL    HW111543   6.557   6.053   5.583
 3548SOL    HW211544   6.697   6.128   5.542
 3549SOL     OW11545   0.811   6.765   0.353
 3549SOL    HW111546   0.788   6.668   0.341
 3549SOL    HW211547   0.910   6.774   0.362
 3550SOL     OW11548   6.852   2.990   4.725
 3550SOL    HW111549   6.904   2.961   4.645
 3550SOL    HW211550   6.769   3.038   4.695
 3551SOL     OW11551   6.068   1.900   4.989
 3551SOL    HW111552   6.078   1.996   5.014
 3551SOL    HW211553   6.126   1.844   5.048
 3552SOL     OW11554   6.563   1.170   4.306
 3552SOL    HW111555   6.545   1.161   4.208
 3552SOL    HW211556   6.568   1.079   4.347
 3553SOL     OW11557   5.506   5.529   6.648
 3553SOL    HW111558   5.431   5.553   6.709
 3553SOL    HW211559   5.514   5.597   6.576
 3554SOL     OW11560   5.654   3.245   0.398
 3554SOL    HW111561   5.706   3.275   0.318
 3554SOL    HW211562   5.563   3.287   0.396
 3555SOL     OW11563   3.134   1.305   4.783
 3555SOL    HW111564   3.140   1.223   4.839
 3555SOL    HW211565   3.043   1.346   4.793
 3556SOL     OW11566   5.036   1.745   0.460
 3556SOL    HW111567   5.026   1.716   0.364
 3556SOL    HW211568   4.952   1.787   0.492
 3557SOL     OW11569   4.883   0.500   0.954
 3557SOL    HW111570   4.898   0.555   0.872
 3557SOL    HW211571   4.890   0.403   0.931
 3558SOL     OW11572   4.587   5.817   3.801
 3558SOL    HW111573   4.528   5.886   3.759
 3558SOL    HW211574   4.659   5.790   3.737
 3559SOL     OW11575   4.274   6.669   0.213
 3559SOL    HW111576   4.281   6.658   0.114
 3559SOL    HW211577   4.196   6.616   0.248
 3560SOL     OW11578   2.002   5.741   4.505
 3560SOL    HW111579   2.092   5.732   4.549
 3560SOL    HW211580   1.942   5.797   4.563
 3561SOL     OW11581   4.641   3.126   6.793
 3561SOL    HW111582   4.612   3.174   6.710
 3561SOL    HW211583   4.728   3.079   6.776
 3562SOL     OW11584   3.072   0.893   0.759
 3562SOL    HW111585   3.084   0.985   0.798
 3562SOL    HW211586   3.127   0.828   0.811
 3563SOL     OW11587   5.853   2.499   6.807
 3563SOL    HW111588   5.850   2.478   6.904
 3563SOL    HW211589   5.833   2.417   6.754
 3564SOL     OW11590   5.858   2.696   3.268
 3564SOL    HW111591   5.899   2.632   3.202
 3564SOL    HW211592   5.906   2.784   3.264
 3565SOL     OW11593   5.308   5.982   5.144
 3565SOL    HW111594   5.269   6.058   5.195
 3565SOL    HW211595   5.408   5.991   5.140
 3566SOL     OW11596   0.916   0.869   4.436
 3566SOL    HW111597   1.002   0.818   4.450
 3566SOL    HW211598   0.937   0.967   4.431
 3567SOL     OW11599   1.726   4.154   0.435
 3567SOL    HW111600   1.673   4.072   0.456
 3567SOL    HW211601   1.666   4.234   0.436
 3568SOL     OW11602   1.823   3.250   5.865
 3568SOL    HW111603   1.856   3.329   5.813
 3568SOL    HW211604   1.901   3.194   5.892
 3569SOL     OW11605   0.592   0.292   3.398
 3569SOL    HW111606   0.690   0.273   3.405
 3569SOL    HW211607   0.566   0.295   3.302
 3570SOL     OW11608   6.972   2.048   5.126
 3570SOL    HW111609   6.980   2.129   5.067
 3570SOL    HW211610   6.891   2.057   5.184
 3571SOL     OW11611   0.397   5.566   5.275
 3571SOL    HW111612   0.420   5.609   5.188
 3571SOL    HW211613   0.341   5.629   5.329
 3572SOL     OW11614   5.326   7.007   5.303
 3572SOL    HW111615   5.257   7.012   5.374
 3572SOL    HW211616   5.396   6.940   5.328
 3573SOL     OW11617   0.579   2.718   1.779
 3573SOL    HW111618   0.568   2.621   1.758
 3573SOL    HW211619   0.491   2.758   1.804
 3574SOL     OW11620   1.346   3.359   0.604
 3574SOL    HW111621   1.358   3.311   0.691
 3574SOL    HW211622   1.317   3.295   0.534
 3575SOL     OW11623   6.532   0.869   2.389
 3575SOL    HW111624   6.526   0.959   2.347
 3575SOL    HW211625   6.451   0.815   2.364
 3576SOL     OW11626   0.422   1.075   0.893
 3576SOL    HW111627   0.507   1.117   0.926
 3576SOL    HW211628   0.425   0.976   0.910
 3577SOL     OW11629   2.282   4.372   0.956
 3577SOL    HW111630   2.369   4.331   0.984
 3577SOL    HW211631   2.245   4.428   1.030
 3578SOL     OW11632   3.835   5.390   1.441
 3578SOL    HW111633   3.760   5.324   1.431
 3578SOL    HW211634   3.922   5.344   1.429
 3579SOL     OW11635   2.106   2.713   6.963
 3579SOL    HW111636   2.170   2.694   0.010
 3579SOL    HW211637   2.147   2.689   6.876
 3580SOL     OW11638   5.902   0.878   2.568
 3580SOL    HW111639   5.984   0.882   2.512
 3580SOL    HW211640   5.823   0.854   2.510
 3581SOL     OW11641   6.792   1.647   2.824
 3581SOL    HW111642   6.736   1.680   2.900
 3581SOL    HW211643   6.748   1.670   2.738
 3582SOL     OW11644   0.517   0.905   5.939
 3582SOL    HW111645   0.434   0.926   5.991
 3582SOL    HW211646   0.503   0.824   5.884
 3583SOL     OW11647   0.589   6.729   2.591
 3583SOL    HW111648   0.489   6.739   2.587
 3583SOL    HW211649   0.626   6.796   2.655
 3584SOL     OW11650   5.948   6.897   4.272
 3584SOL    HW111651   5.856   6.859   4.277
 3584SOL    HW211652   5.961   6.940   4.182
 3585SOL     OW11653   2.010   5.102   2.529
 3585SOL    HW111654   1.976   5.192   2.556
 3585SOL    HW211655   2.109   5.098   2.545
 3586SOL     OW11656   1.591   0.905   6.346
 3586SOL    HW111657   1.667   0.960   6.378
 3586SOL    HW211658   1.617   0.856   6.262
 3587SOL     OW11659   3.395   5.893   5.542
 3587SOL    HW111660   3.439   5.971   5.586
 3587SOL    HW211661   3.459   5.816   5.537
 3588SOL     OW11662   2.685   2.325   5.580
 3588SOL    HW111663   2.740   2.254   5.624
 3588SOL    HW211664   2.715   2.337   5.486
 3589SOL     OW11665   3.082   6.252   4.777
 3589SOL    HW111666   3.075   6.195   4.859
 3589SOL    HW211667   3.034   6.208   4.701
 3590SOL     OW11668   1.065   6.807   0.039
 3590SOL    HW111669   1.135   6.789   6.996
 3590SOL    HW211670   1.103   6.870   0.108
 3591SOL     OW11671   5.139   2.177   4.728
 3591SOL    HW111672   5.186   2.089   4.733
 3591SOL    HW211673   5.112   2.195   4.634
 3592SOL     OW11674   5.742   0.805   1.205
 3592SOL    HW111675   5.643   0.793   1.192
 3592SOL    HW211676   5.772   0.749   1.282
 3593SOL     OW11677   1.255   5.064   4.961
 3593SOL    HW111678   1.177   5.028   5.011
 3593SOL    HW211679   1.228   5.085   4.867
 3594SOL     OW11680   4.832   1.363   4.401
 3594SOL    HW111681   4.857   1.414   4.319
 3594SOL    HW211682   4.870   1.408   4.482
 3595SOL     OW11683   1.977   6.839   6.652
 3595SOL    HW111684   2.001   6.929   6.689
 3595SOL    HW211685   1.982   6.842   6.552
 3596SOL     OW11686   6.216   3.160   2.806
 3596SOL    HW111687   6.286   3.183   2.739
 3596SOL    HW211688   6.157   3.088   2.770
 3597SOL     OW11689   4.354   0.479   3.371
 3597SOL    HW111690   4.416   0.412   3.329
 3597SOL    HW211691   4.403   0.565   3.384
 3598SOL     OW11692   2.281   0.141   0.686
 3598SOL    HW111693   2.319   0.228   0.654
 3598SOL    HW211694   2.356   0.081   0.715
 3599SOL     OW11695   0.283   2.152   4.488
 3599SOL    HW111696   0.310   2.126   4.581
 3599SOL    HW211697   0.187   2.180   4.488
 3600SOL     OW11698   6.399   6.106   1.316
 3600SOL    HW111699   6.472   6.137   1.377
 3600SOL    HW211700   6.410   6.149   1.227
 3601SOL     OW11701   0.643   3.841   6.307
 3601SOL    HW111702   0.675   3.934   6.326
 3601SOL    HW211703   0.680   3.810   6.220
 3602SOL     OW11704   4.095   2.099   0.723
 3602SOL    HW111705   4.028   2.079   0.795
 3602SOL    HW211706   4.134   2.190   0.739
 3603SOL     OW11707   3.361   5.384   5.203
 3603SOL    HW111708   3.327   5.464   5.155
 3603SOL    HW211709   3.379   5.407   5.299
 3604SOL     OW11710   5.576   4.511   3.407
 3604SOL    HW111711   5.485   4.545   3.386
 3604SOL    HW211712   5.581   4.483   3.503
 3605SOL     OW11713   5.650   1.205   6.440
 3605SOL    HW111714   5.647   1.115   6.397
 3605SOL    HW211715   5.733   1.253   6.411
 3606SOL     OW11716   1.552   4.360   2.147
 3606SOL    HW111717   1.547   4.420   2.227
 3606SOL    HW211718   1.648   4.339   2.128
 3607SOL     OW11719   4.475   6.371   4.922
 3607SOL    HW111720   4.387   6.384   4.967
 3607SOL    HW211721   4.466   6.304   4.848
 3608SOL     OW11722   0.477   2.754   2.968
 3608SOL    HW111723   0.516   2.836   3.010
 3608SOL    HW211724   0.383   2.742   2.998
 3609SOL     OW11725   1.416   1.019   4.351
 3609SOL    HW111726   1.414   0.951   4.278
 3609SOL    HW211727   1.324   1.056   4.365
 3610SOL     OW11728   1.477   4.704   5.464
 3610SOL    HW111729   1.562   4.663   5.497
 3610SOL    HW211730   1.492   4.751   5.378
 3611SOL     OW11731   4.524   4.716   0.137
 3611SOL    HW111732   4.520   4.787   0.067
 3611SOL    HW211733   4.495   4.628   0.097
 3612SOL     OW11734   3.190   5.799   1.817
 3612SOL    HW111735   3.112   5.803   1.754
 3612SOL    HW211736   3.274   5.788   1.764
 3613SOL     OW11737   5.034   4.091   6.589
 3613SOL    HW111738   4.986   4.079   6.676
 3613SOL    HW211739   4.995   4.171   6.541
 3614SOL     OW11740   3.774   3.109   5.206
 3614SOL    HW111741   3.872   3.122   5.197
 3614SOL    HW211742   3.748   3.022   5.165
 3615SOL     OW11743   6.146   6.734   6.642
 3615SOL    HW111744   6.204   6.658   6.670
 3615SOL    HW211745   6.167   6.815   6.697
 3616SOL     OW11746   0.269   1.534   4.233
 3616SOL    HW111747   0.290   1.632   4.233
 3616SOL    HW211748   0.201   1.515   4.304
 3617SOL     OW11749   0.404   0.963   1.558
 3617SOL    HW111750   0.381   0.938   1.464
 3617SOL    HW211751   0.465   0.894   1.597
 3618SOL     OW11752   3.629   5.515   6.287
 3618SOL    HW111753   3.603   5.594   6.231
 3618SOL    HW211754   3.546   5.475   6.327
 3619SOL     OW11755   4.965   3.371   3.537
 3619SOL    HW111756   5.050   3.386   3.487
 3619SOL    HW211757   4.901   3.320   3.480
 3620SOL     OW11758   5.759   2.127   5.786
 3620SOL    HW111759   5.827   2.172   5.844
 3620SOL    HW211760   5.723   2.047   5.833
 3621SOL     OW11761   2.225   2.619   6.725
 3621SOL    HW111762   2.286   2.554   6.772
 3621SOL    HW211763   2.238   2.610   6.626
 3622SOL     OW11764   1.437   3.643   1.099
 3622SOL    HW111765   1.462   3.737   1.124
 3622SOL    HW211766   1.495   3.579   1.149
 3623SOL     OW11767   5.786   4.849   4.649
 3623SOL    HW111768   5.838   4.926   4.684
 3623SOL    HW211769   5.776   4.780   4.721
 3624SOL     OW11770   2.051   6.946   1.721
 3624SOL    HW111771   1.967   6.954   1.774
 3624SOL    HW211772   2.048   7.010   1.644
 3625SOL     OW11773   1.642   2.650   4.686
 3625SOL    HW111774   1.697   2.706   4.624
 3625SOL    HW211775   1.680   2.656   4.778
 3626SOL     OW11776   2.246   2.752   5.088
 3626SOL    HW111777   2.200   2.709   5.010
 3626SOL    HW211778   2.300   2.830   5.055
 3627SOL     OW11779   4.065   3.328   4.549
 3627SOL    HW111780   4.085   3.338   4.647
 3627SOL    HW211781   4.041   3.233   4.530
 3628SOL     OW11782   2.833   5.351   4.002
 3628SOL    HW111783   2.800   5.260   3.976
 3628SOL    HW211784   2.894   5.344   4.080
 3629SOL     OW11785   6.206   4.191   4.989
 3629SOL    HW111786   6.154   4.276   4.981
 3629SOL    HW211787   6.147   4.113   4.969
 3630SOL     OW11788   6.510   2.283   4.545
 3630SOL    HW111789   6.489   2.379   4.561
 3630SOL    HW211790   6.440   2.225   4.587
 3631SOL     OW11791   2.282   1.179   4.672
 3631SOL    HW111792   2.380   1.195   4.665
 3631SOL    HW211793   2.232   1.248   4.620
 3632SOL     OW11794   5.136   6.483   6.588
 3632SOL    HW111795   5.181   6.408   6.539
 3632SOL    HW211796   5.204   6.537   6.637
 3633SOL     OW11797   0.826   2.902   5.934
 3633SOL    HW111798   0.797   2.965   6.006
 3633SOL    HW211799   0.841   2.952   5.849
 3634SOL     OW11800   2.068   4.334   6.641
 3634SOL    HW111801   2.085   4.369   6.733
 3634SOL    HW211802   1.996   4.388   6.598
 3635SOL     OW11803   1.294   2.013   4.145
 3635SOL    HW111804   1.383   2.043   4.110
 3635SOL    HW211805   1.306   1.928   4.197
 3636SOL     OW11806   0.932   6.794   1.048
 3636SOL    HW111807   0.973   6.821   1.135
 3636SOL    HW211808   1.000   6.745   0.993
 3637SOL     OW11809   5.458   1.635   2.471
 3637SOL    HW111810   5.540   1.627   2.415
 3637SOL    HW211811   5.449   1.729   2.506
 3638SOL     OW11812   6.704   5.343   3.049
 3638SOL    HW111813   6.655   5.315   3.132
 3638SOL    HW211814   6.802   5.346   3.068
 3639SOL     OW11815   2.365   5.702   6.611
 3639SOL    HW111816   2.303   5.672   6.538
 3639SOL    HW211817   2.424   5.626   6.638
 3640SOL     OW11818   2.593   6.980   3.471
 3640SOL    HW111819   2.508   6.954   3.517
 3640SOL    HW211820   2.655   6.902   3.471
 3641SOL     OW11821   2.625   0.030   5.405
 3641SOL    HW111822   2.717   0.049   5.437
 3641SOL    HW211823   2.563   0.103   5.434
 3642SOL     OW11824   5.814   0.960   2.813
 3642SOL    HW111825   5.741   1.018   2.777
 3642SOL    HW211826   5.865   0.920   2.736
 3643SOL     OW11827   3.686   6.262   3.406
 3643SOL    HW111828   3.697   6.226   3.499
 3643SOL    HW211829   3.685   6.362   3.409
 3644SOL     OW11830   5.989   0.644   1.057
 3644SOL    HW111831   5.949   0.733   1.079
 3644SOL    HW211832   5.923   0.572   1.076
 3645SOL     OW11833   4.900   5.376   3.606
 3645SOL    HW111834   4.809   5.389   3.644
 3645SOL    HW211835   4.962   5.446   3.642
 3646SOL     OW11836   0.176   5.974   4.782
 3646SOL    HW111837   0.170   5.887   4.734
 3646SOL    HW211838   0.085   6.015   4.790
 3647SOL     OW11839   3.871   2.678   0.341
 3647SOL    HW111840   3.892   2.691   0.244
 3647SOL    HW211841   3.936   2.615   0.382
 3648SOL     OW11842   2.186   6.188   3.995
 3648SOL    HW111843   2.269   6.244   4.002
 3648SOL    HW211844   2.208   6.093   4.016
 3649SOL     OW11845   3.352   2.924   3.268
 3649SOL    HW111846   3.371   2.855   3.198
 3649SOL    HW211847   3.360   3.015   3.228
 3650SOL     OW11848   5.818   5.857   2.300
 3650SOL    HW111849   5.828   5.762   2.271
 3650SOL    HW211850   5.816   5.916   2.220
 3651SOL     OW11851   1.797   5.740   1.719
 3651SOL    HW111852   1.859   5.727   1.641
 3651SOL    HW211853   1.799   5.658   1.777
 3652SOL     OW11854   3.788   6.985   3.605
 3652SOL    HW111855   3.851   0.001   3.670
 3652SOL    HW211856   3.831   6.983   3.515
 3653SOL     OW11857   0.045   3.785   3.326
 3653SOL    HW111858   0.047   3.823   3.233
 3653SOL    HW211859   0.026   3.687   3.321
 3654SOL     OW11860   1.875   0.255   2.350
 3654SOL    HW111861   1.881   0.184   2.280
 3654SOL    HW211862   1.787   0.249   2.397
 3655SOL     OW11863   6.562   1.221   4.049
 3655SOL    HW111864   6.648   1.270   4.054
 3655SOL    HW211865   6.488   1.285   4.028
 3656SOL     OW11866   1.451   1.513   2.738
 3656SOL    HW111867   1.502   1.565   2.807
 3656SOL    HW211868   1.378   1.571   2.701
 3657SOL     OW11869   6.362   5.110   1.226
 3657SOL    HW111870   6.430   5.182   1.222
 3657SOL    HW211871   6.367   5.054   1.143
 3658SOL     OW11872   2.732   4.107   5.253
 3658SOL    HW111873   2.650   4.055   5.273
 3658SOL    HW211874   2.769   4.145   5.338
 3659SOL     OW11875   1.261   3.155   0.423
 3659SOL    HW111876   1.214   3.077   0.462
 3659SOL    HW211877   1.360   3.139   0.425
 3660SOL     OW11878   5.380   3.667   0.678
 3660SOL    HW111879   5.371   3.652   0.580
 3660SOL    HW211880   5.289   3.682   0.718
 3661SOL     OW11881   5.315   0.852   2.390
 3661SOL    HW111882   5.395   0.824   2.335
 3661SOL    HW211883   5.237   0.865   2.329
 3662SOL     OW11884   2.047   6.565   4.464
 3662SOL    HW111885   2.065   6.536   4.558
 3662SOL    HW211886   2.058   6.488   4.401
 3663SOL     OW11887   2.981   2.608   6.180
 3663SOL    HW111888   3.029   2.555   6.111
 3663SOL    HW211889   2.954   2.697   6.142
 3664SOL     OW11890   3.918   0.006   1.633
 3664SOL    HW111891   4.006   6.996   1.602
 3664SOL    HW211892   3.844   6.997   1.576
 3665SOL     OW11893   2.421   1.734   5.267
 3665SOL    HW111894   2.412   1.783   5.354
 3665SOL    HW211895   2.516   1.738   5.237
 3666SOL     OW11896   0.921   4.710   3.090
 3666SOL    HW111897   0.874   4.785   3.137
 3666SOL    HW211898   1.016   4.706   3.122
 3667SOL     OW11899   0.265   1.098   6.808
 3667SOL    HW111900   0.201   1.137   6.873
 3667SOL    HW211901   0.283   1.002   6.832
 3668SOL     OW11902   2.134   0.345   0.936
 3668SOL    HW111903   2.075   0.394   0.871
 3668SOL    HW211904   2.230   0.358   0.909
 3669SOL     OW11905   5.295   1.641   4.765
 3669SOL    HW111906   5.367   1.590   4.811
 3669SOL    HW211907   5.277   1.726   4.814
 3670SOL     OW11908   3.438   4.676   6.326
 3670SOL    HW111909   3.516   4.618   6.348
 3670SOL    HW211910   3.366   4.622   6.283
 3671SOL     OW11911   1.320   1.251   2.675
 3671SOL    HW111912   1.359   1.341   2.693
 3671SOL    HW211913   1.221   1.253   2.693
 3672SOL     OW11914   5.938   6.165   7.001
 3672SOL    HW111915   5.956   6.257   6.967
 3672SOL    HW211916   5.904   6.171   0.068
 3673SOL     OW11917   3.825   0.272   5.740
 3673SOL    HW111918   3.801   0.183   5.700
 3673SOL    HW211919   3.907   0.263   5.796
 3674SOL     OW11920   1.807   6.552   0.952
 3674SOL    HW111921   1.883   6.572   1.014
 3674SOL    HW211922   1.821   6.600   0.865
 3675SOL     OW11923   1.689   1.952   4.116
 3675SOL    HW111924   1.766   2.000   4.073
 3675SOL    HW211925   1.607   2.010   4.111
 3676SOL     OW11926   0.468   4.405   2.528
 3676SOL    HW111927   0.410   4.485   2.512
 3676SOL    HW211928   0.562   4.436   2.543
 3677SOL     OW11929   6.667   1.358   3.500
 3677SOL    HW111930   6.735   1.405   3.443
 3677SOL    HW211931   6.702   1.268   3.525
 3678SOL     OW11932   0.856   2.547   3.976
 3678SOL    HW111933   0.835   2.636   3.935
 3678SOL    HW211934   0.813   2.475   3.921
 3679SOL     OW11935   6.451   1.023   1.168
 3679SOL    HW111936   6.430   1.088   1.241
 3679SOL    HW211937   6.366   0.985   1.131
 3680SOL     OW11938   6.664   4.627   5.370
 3680SOL    HW111939   6.687   4.718   5.404
 3680SOL    HW211940   6.749   4.578   5.348
 3681SOL     OW11941   5.458   0.401   3.882
 3681SOL    HW111942   5.369   0.446   3.882
 3681SOL    HW211943   5.446   0.302   3.890
 3682SOL     OW11944   0.603   1.710   6.768
 3682SOL    HW111945   0.678   1.731   6.832
 3682SOL    HW211946   0.621   1.622   6.724
 3683SOL     OW11947   4.390   6.864   4.215
 3683SOL    HW111948   4.360   6.867   4.310
 3683SOL    HW211949   4.385   6.770   4.182
 3684SOL     OW11950   2.107   4.008   2.031
 3684SOL    HW111951   2.176   4.048   2.091
 3684SOL    HW211952   2.056   3.938   2.079
 3685SOL     OW11953   5.452   5.852   6.187
 3685SOL    HW111954   5.473   5.892   6.097
 3685SOL    HW211955   5.488   5.911   6.259
 3686SOL     OW11956   0.568   4.141   0.417
 3686SOL    HW111957   0.653   4.099   0.447
 3686SOL    HW211958   0.507   4.071   0.380
 3687SOL     OW11959   3.987   1.151   1.013
 3687SOL    HW111960   3.927   1.201   1.076
 3687SOL    HW211961   3.932   1.110   0.940
 3688SOL     OW11962   0.387   1.948   6.269
 3688SOL    HW111963   0.302   1.997   6.246
 3688SOL    HW211964   0.462   2.014   6.277
 3689SOL     OW11965   1.200   6.561   3.609
 3689SOL    HW111966   1.105   6.553   3.580
 3689SOL    HW211967   1.206   6.629   3.682
 3690SOL     OW11968   4.972   4.303   6.089
 3690SOL    HW111969   4.887   4.308   6.141
 3690SOL    HW211970   5.013   4.395   6.083
 3691SOL     OW11971   3.247   3.239   6.457
 3691SOL    HW111972   3.237   3.334   6.428
 3691SOL    HW211973   3.181   3.182   6.408
 3692SOL     OW11974   6.577   0.706   5.078
 3692SOL    HW111975   6.505   0.701   5.009
 3692SOL    HW211976   6.563   0.633   5.146
 3693SOL     OW11977   1.703   1.664   3.281
 3693SOL    HW111978   1.714   1.763   3.267
 3693SOL    HW211979   1.689   1.620   3.193
 3694SOL     OW11980   2.008   4.332   3.632
 3694SOL    HW111981   2.105   4.332   3.608
 3694SOL    HW211982   1.990   4.257   3.697
 3695SOL     OW11983   2.662   1.745   0.818
 3695SOL    HW111984   2.681   1.663   0.764
 3695SOL    HW211985   2.563   1.750   0.837
 3696SOL     OW11986   2.746   5.720   6.038
 3696SOL    HW111987   2.690   5.771   5.973
 3696SOL    HW211988   2.802   5.784   6.091
 3697SOL     OW11989   5.302   1.594   3.666
 3697SOL    HW111990   5.325   1.497   3.668
 3697SOL    HW211991   5.371   1.646   3.717
 3698SOL     OW11992   2.714   0.891   5.551
 3698SOL    HW111993   2.680   0.949   5.477
 3698SOL    HW211994   2.736   0.948   5.630
 3699SOL     OW11995   1.167   5.163   2.412
 3699SOL    HW111996   1.251   5.188   2.364
 3699SOL    HW211997   1.156   5.064   2.411
 3700SOL     OW11998   6.216   6.660   3.820
 3700SOL    HW111999   6.292   6.683   3.881
 3700SOL    HW212000   6.163   6.585   3.860
 3701SOL     OW12001   4.374   1.721   3.737
 3701SOL    HW112002   4.402   1.699   3.643
 3701SOL    HW212003   4.319   1.805   3.737
 3702SOL     OW12004   5.263   0.812   6.198
 3702SOL    HW112005   5.317   0.765   6.129
 3702SOL    HW212006   5.266   0.760   6.283
 3703SOL     OW12007   3.329   4.640   0.385
 3703SOL    HW112008   3.381   4.618   0.468
 3703SOL    HW212009   3.336   4.564   0.320
 3704SOL     OW12010   3.623   5.873   0.906
 3704SOL    HW112011   3.543   5.821   0.874
 3704SOL    HW212012   3.702   5.812   0.911
 3705SOL     OW12013   6.762   1.384   4.058
 3705SOL    HW112014   6.791   1.473   4.093
 3705SOL    HW212015   6.792   1.373   3.964
 3706SOL     OW12016   2.455   2.566   2.958
 3706SOL    HW112017   2.510   2.603   3.032
 3706SOL    HW212018   2.459   2.466   2.959
 3707SOL     OW12019   4.048   1.226   5.293
 3707SOL    HW112020   4.046   1.316   5.250
 3707SOL    HW212021   4.062   1.237   5.391
 3708SOL     OW12022   6.223   6.207   0.675
 3708SOL    HW112023   6.238   6.245   0.767
 3708SOL    HW212024   6.311   6.190   0.632
 3709SOL     OW12025   1.128   6.160   6.190
 3709SOL    HW112026   1.042   6.135   6.235
 3709SOL    HW212027   1.111   6.235   6.126
 3710SOL     OW12028   0.996   5.279   6.414
 3710SOL    HW112029   0.988   5.195   6.360
 3710SOL    HW212030   1.016   5.356   6.353
 3711SOL     OW12031   6.537   4.439   2.008
 3711SOL    HW112032   6.628   4.405   1.986
 3711SOL    HW212033   6.492   4.470   1.924
 3712SOL     OW12034   1.470   0.438   5.393
 3712SOL    HW112035   1.371   0.448   5.400
 3712SOL    HW212036   1.514   0.510   5.446
 3713SOL     OW12037   2.935   4.671   5.845
 3713SOL    HW112038   2.855   4.713   5.802
 3713SOL    HW212039   2.973   4.734   5.913
 3714SOL     OW12040   4.536   2.703   5.052
 3714SOL    HW112041   4.451   2.744   5.085
 3714SOL    HW212042   4.606   2.712   5.123
 3715SOL     OW12043   4.378   4.635   4.373
 3715SOL    HW112044   4.416   4.547   4.401
 3715SOL    HW212045   4.311   4.620   4.300
 3716SOL     OW12046   1.595   1.332   4.736
 3716SOL    HW112047   1.624   1.372   4.649
 3716SOL    HW212048   1.523   1.388   4.776
 3717SOL     OW12049   6.028   0.446   6.466
 3717SOL    HW112050   5.991   0.447   6.373
 3717SOL    HW212051   5.965   0.397   6.526
 3718SOL     OW12052   0.919   6.993   6.155
 3718SOL    HW112053   0.915   0.018   6.069
 3718SOL    HW212054   0.888   0.023   6.230
 3719SOL     OW12055   3.304   4.025   0.175
 3719SOL    HW112056   3.335   4.109   0.130
 3719SOL    HW212057   3.268   3.962   0.106
 3720SOL     OW12058   6.473   1.263   6.004
 3720SOL    HW112059   6.411   1.208   6.060
 3720SOL    HW212060   6.566   1.225   6.009
 3721SOL     OW12061   5.705   2.262   0.674
 3721SOL    HW112062   5.760   2.345   0.682
 3721SOL    HW212063   5.611   2.280   0.702
 3722SOL     OW12064   4.544   5.706   1.097
 3722SOL    HW112065   4.591   5.711   1.185
 3722SOL    HW212066   4.568   5.785   1.041
 3723SOL     OW12067   3.319   1.605   0.651
 3723SOL    HW112068   3.298   1.683   0.592
 3723SOL    HW212069   3.332   1.637   0.745
 3724SOL     OW12070   1.553   3.658   6.485
 3724SOL    HW112071   1.598   3.698   6.565
 3724SOL    HW212072   1.517   3.731   6.427
 3725SOL     OW12073   4.780   6.179   2.134
 3725SOL    HW112074   4.827   6.096   2.104
 3725SOL    HW212075   4.838   6.258   2.118
 3726SOL     OW12076   6.219   3.654   2.491
 3726SOL    HW112077   6.287   3.712   2.536
 3726SOL    HW212078   6.190   3.697   2.405
 3727SOL     OW12079   2.073   2.039   5.615
 3727SOL    HW112080   2.016   2.085   5.548
 3727SOL    HW212081   2.015   1.992   5.682
 3728SOL     OW12082   0.972   3.466   0.030
 3728SOL    HW112083   1.007   3.486   6.966
 3728SOL    HW212084   0.873   3.484   0.033
 3729SOL     OW12085   1.486   3.420   3.554
 3729SOL    HW112086   1.488   3.471   3.640
 3729SOL    HW212087   1.540   3.470   3.486
 3730SOL     OW12088   2.031   0.171   1.302
 3730SOL    HW112089   2.103   0.163   1.371
 3730SOL    HW212090   2.072   0.174   1.211
 3731SOL     OW12091   2.450   5.920   0.299
 3731SOL    HW112092   2.379   5.854   0.276
 3731SOL    HW212093   2.465   5.920   0.398
 3732SOL     OW12094   1.876   4.084   4.119
 3732SOL    HW112095   1.804   4.150   4.098
 3732SOL    HW212096   1.920   4.110   4.205
 3733SOL     OW12097   3.577   3.563   1.578
 3733SOL    HW112098   3.633   3.640   1.547
 3733SOL    HW212099   3.597   3.482   1.523
 3734SOL     OW12100   4.196   1.511   3.528
 3734SOL    HW112101   4.184   1.465   3.440
 3734SOL    HW212102   4.108   1.543   3.561
 3735SOL     OW12103   3.530   2.263   1.657
 3735SOL    HW112104   3.589   2.298   1.584
 3735SOL    HW212105   3.562   2.298   1.745
 3736SOL     OW12106   5.186   0.566   5.861
 3736SOL    HW112107   5.119   0.548   5.789
 3736SOL    HW212108   5.215   0.480   5.902
 3737SOL     OW12109   2.761   6.778   3.421
 3737SOL    HW112110   2.835   6.842   3.399
 3737SOL    HW212111   2.776   6.692   3.372
 3738SOL     OW12112   0.399   0.342   4.695
 3738SOL    HW112113   0.481   0.344   4.753
 3738SOL    HW212114   0.424   0.312   4.603
 3739SOL     OW12115   6.826   3.412   0.473
 3739SOL    HW112116   6.761   3.466   0.419
 3739SOL    HW212117   6.780   3.332   0.512
 3740SOL     OW12118   5.812   6.547   0.165
 3740SOL    HW112119   5.767   6.487   0.098
 3740SOL    HW212120   5.870   6.492   0.225
 3741SOL     OW12121   4.321   0.631   6.747
 3741SOL    HW112122   4.405   0.601   6.792
 3741SOL    HW212123   4.243   0.609   6.806
 3742SOL     OW12124   3.680   3.351   6.275
 3742SOL    HW112125   3.661   3.324   6.370
 3742SOL    HW212126   3.764   3.404   6.271
 3743SOL     OW12127   1.529   5.804   5.233
 3743SOL    HW112128   1.453   5.827   5.294
 3743SOL    HW212129   1.563   5.713   5.255
 3744SOL     OW12130   6.011   5.030   3.818
 3744SOL    HW112131   5.979   5.051   3.910
 3744SOL    HW212132   5.933   5.024   3.756
 3745SOL     OW12133   5.206   4.902   1.590
 3745SOL    HW112134   5.169   4.940   1.675
 3745SOL    HW212135   5.305   4.917   1.587
 3746SOL     OW12136   4.227   1.286   1.253
 3746SOL    HW112137   4.297   1.356   1.268
 3746SOL    HW212138   4.261   1.220   1.186
 3747SOL     OW12139   3.392   6.677   1.403
 3747SOL    HW112140   3.382   6.740   1.326
 3747SOL    HW212141   3.333   6.598   1.390
 3748SOL     OW12142   5.333   0.348   1.605
 3748SOL    HW112143   5.338   0.439   1.563
 3748SOL    HW212144   5.275   0.351   1.686
 3749SOL     OW12145   0.924   0.759   3.888
 3749SOL    HW112146   0.966   0.827   3.827
 3749SOL    HW212147   0.952   0.668   3.861
 3750SOL     OW12148   0.387   3.918   0.345
 3750SOL    HW112149   0.399   3.838   0.287
 3750SOL    HW212150   0.336   3.892   0.427
 3751SOL     OW12151   2.280   5.061   1.766
 3751SOL    HW112152   2.369   5.015   1.766
 3751SOL    HW212153   2.282   5.137   1.832
 3752SOL     OW12154   5.755   5.451   6.765
 3752SOL    HW112155   5.807   5.525   6.808
 3752SOL    HW212156   5.732   5.476   6.671
 3753SOL     OW12157   0.314   1.272   3.483
 3753SOL    HW112158   0.237   1.256   3.545
 3753SOL    HW212159   0.393   1.303   3.537
 3754SOL     OW12160   3.749   0.993   1.659
 3754SOL    HW112161   3.711   1.071   1.708
 3754SOL    HW212162   3.689   0.970   1.582
 3755SOL     OW12163   2.744   6.533   4.670
 3755SOL    HW112164   2.759   6.435   4.686
 3755SOL    HW212165   2.650   6.548   4.641
 3756SOL     OW12166   0.990   6.225   0.734
 3756SOL    HW112167   0.999   6.290   0.658
 3756SOL    HW212168   0.988   6.132   0.698
 3757SOL     OW12169   1.435   5.407   0.223
 3757SOL    HW112170   1.446   5.438   0.128
 3757SOL    HW212171   1.458   5.310   0.229
 3758SOL     OW12172   7.006   5.627   4.214
 3758SOL    HW112173   0.035   5.700   4.251
 3758SOL    HW212174   6.978   5.649   4.120
 3759SOL     OW12175   4.867   0.636   3.463
 3759SOL    HW112176   4.957   0.591   3.463
 3759SOL    HW212177   4.879   0.734   3.482
 3760SOL     OW12178   0.491   0.951   3.663
 3760SOL    HW112179   0.398   0.927   3.690
 3760SOL    HW212180   0.498   0.953   3.563
 3761SOL     OW12181   4.230   0.985   4.458
 3761SOL    HW112182   4.217   1.081   4.433
 3761SOL    HW212183   4.252   0.979   4.555
 3762SOL     OW12184   6.254   2.192   3.896
 3762SOL    HW112185   6.162   2.163   3.873
 3762SOL    HW212186   6.296   2.236   3.817
 3763SOL     OW12187   0.476   0.029   6.408
 3763SOL    HW112188   0.389   0.076   6.424
 3763SOL    HW212189   0.504   7.007   6.490
 3764SOL     OW12190   4.759   2.352   2.998
 3764SOL    HW112191   4.685   2.419   2.997
 3764SOL    HW212192   4.840   2.390   2.953
 3765SOL     OW12193   5.290   3.651   1.659
 3765SOL    HW112194   5.336   3.690   1.579
 3765SOL    HW212195   5.316   3.702   1.741
 3766SOL     OW12196   2.230   2.202   2.434
 3766SOL    HW112197   2.214   2.231   2.340
 3766SOL    HW212198   2.176   2.257   2.496
 3767SOL     OW12199   1.683   5.581   5.171
 3767SOL    HW112200   1.736   5.499   5.192
 3767SOL    HW212201   1.738   5.662   5.191
 3768SOL     OW12202   1.366   6.704   4.028
 3768SOL    HW112203   1.347   6.789   4.076
 3768SOL    HW212204   1.450   6.715   3.974
 3769SOL     OW12205   4.546   5.251   5.858
 3769SOL    HW112206   4.568   5.226   5.764
 3769SOL    HW212207   4.542   5.351   5.866
 3770SOL     OW12208   2.418   0.278   6.851
 3770SOL    HW112209   2.383   0.205   6.791
 3770SOL    HW212210   2.350   0.297   6.922
 3771SOL     OW12211   6.463   5.762   5.972
 3771SOL    HW112212   6.413   5.692   6.023
 3771SOL    HW212213   6.551   5.780   6.016
 3772SOL     OW12214   2.754   5.378   1.510
 3772SOL    HW112215   2.669   5.425   1.535
 3772SOL    HW212216   2.742   5.333   1.421
 3773SOL     OW12217   4.959   3.976   6.839
 3773SOL    HW112218   5.012   3.902   6.797
 3773SOL    HW212219   4.861   3.957   6.829
 3774SOL     OW12220   0.196   4.178   1.617
 3774SOL    HW112221   0.144   4.094   1.631
 3774SOL    HW212222   0.271   4.161   1.554
 3775SOL     OW12223   6.422   6.235   4.815
 3775SOL    HW112224   6.360   6.212   4.889
 3775SOL    HW212225   6.375   6.227   4.727
 3776SOL     OW12226   4.204   2.562   6.486
 3776SOL    HW112227   4.142   2.629   6.526
 3776SOL    HW212228   4.278   2.542   6.551
 3777SOL     OW12229   3.218   5.236   3.231
 3777SOL    HW112230   3.132   5.225   3.280
 3777SOL    HW212231   3.213   5.188   3.143
 3778SOL     OW12232   2.634   4.985   6.869
 3778SOL    HW112233   2.672   5.034   6.947
 3778SOL    HW212234   2.642   4.886   6.883
 3779SOL     OW12235   6.582   4.814   6.439
 3779SOL    HW112236   6.530   4.897   6.461
 3779SOL    HW212237   6.572   4.747   6.512
 3780SOL     OW12238   6.006   1.766   0.929
 3780SOL    HW112239   6.044   1.727   0.845
 3780SOL    HW212240   5.914   1.802   0.910
 3781SOL     OW12241   1.027   0.740   6.507
 3781SOL    HW112242   1.020   0.834   6.475
 3781SOL    HW212243   1.094   0.734   6.581
 3782SOL     OW12244   2.728   5.413   6.787
 3782SOL    HW112245   2.790   5.479   6.746
 3782SOL    HW212246   2.781   5.343   6.836
 3783SOL     OW12247   4.359   5.187   5.533
 3783SOL    HW112248   4.307   5.272   5.528
 3783SOL    HW212249   4.324   5.131   5.609
 3784SOL     OW12250   5.456   4.151   5.431
 3784SOL    HW112251   5.409   4.069   5.463
 3784SOL    HW212252   5.466   4.215   5.507
 3785SOL     OW12253   0.764   3.389   2.031
 3785SOL    HW112254   0.738   3.484   2.046
 3785SOL    HW212255   0.763   3.369   1.933
 3786SOL     OW12256   3.688   2.659   6.239
 3786SOL    HW112257   3.716   2.588   6.303
 3786SOL    HW212258   3.706   2.628   6.145
 3787SOL     OW12259   5.421   5.833   5.821
 3787SOL    HW112260   5.345   5.778   5.787
 3787SOL    HW212261   5.483   5.774   5.873
 3788SOL     OW12262   5.379   2.760   5.704
 3788SOL    HW112263   5.391   2.661   5.701
 3788SOL    HW212264   5.339   2.786   5.792
 3789SOL     OW12265   1.886   4.789   2.147
 3789SOL    HW112266   1.924   4.699   2.123
 3789SOL    HW212267   1.881   4.846   2.066
 3790SOL     OW12268   3.157   0.110   1.880
 3790SOL    HW112269   3.141   0.146   1.972
 3790SOL    HW212270   3.146   0.010   1.881
 3791SOL     OW12271   4.831   0.813   4.157
 3791SOL    HW112272   4.897   0.867   4.106
 3791SOL    HW212273   4.740   0.854   4.149
 3792SOL     OW12274   5.927   0.586   3.097
 3792SOL    HW112275   5.878   0.593   3.009
 3792SOL    HW212276   5.897   0.659   3.158
 3793SOL     OW12277   4.810   3.610   0.330
 3793SOL    HW112278   4.713   3.635   0.339
 3793SOL    HW212279   4.818   3.525   0.278
 3794SOL     OW12280   1.743   4.898   5.624
 3794SOL    HW112281   1.782   4.809   5.602
 3794SOL    HW212282   1.720   4.947   5.540
 3795SOL     OW12283   3.815   6.067   0.280
 3795SOL    HW112284   3.755   5.993   0.310
 3795SOL    HW212285   3.792   6.151   0.331
 3796SOL     OW12286   5.072   0.756   0.182
 3796SOL    HW112287   5.036   0.830   0.125
 3796SOL    HW212288   5.172   0.758   0.181
 3797SOL     OW12289   6.868   1.511   0.733
 3797SOL    HW112290   6.949   1.484   0.680
 3797SOL    HW212291   6.863   1.610   0.737
 3798SOL     OW12292   0.110   3.816   4.156
 3798SOL    HW112293   0.117   3.900   4.102
 3798SOL    HW212294   0.135   3.835   4.251
 3799SOL     OW12295   6.503   2.589   2.110
 3799SOL    HW112296   6.596   2.566   2.082
 3799SOL    HW212297   6.484   2.685   2.089
 3800SOL     OW12298   5.718   3.231   1.451
 3800SOL    HW112299   5.737   3.290   1.372
 3800SOL    HW212300   5.787   3.159   1.455
 3801SOL     OW12301   4.968   0.943   0.012
 3801SOL    HW112302   4.988   1.026   6.986
 3801SOL    HW212303   4.906   0.965   0.087
 3802SOL     OW12304   6.184   3.625   3.587
 3802SOL    HW112305   6.225   3.656   3.673
 3802SOL    HW212306   6.255   3.623   3.516
 3803SOL     OW12307   3.787   4.453   6.534
 3803SOL    HW112308   3.814   4.535   6.584
 3803SOL    HW212309   3.861   4.425   6.473
 3804SOL     OW12310   3.962   5.993   3.719
 3804SOL    HW112311   4.053   5.958   3.742
 3804SOL    HW212312   3.908   6.002   3.803
 3805SOL     OW12313   2.614   1.775   0.008
 3805SOL    HW112314   2.619   1.784   0.107
 3805SOL    HW212315   2.521   1.795   7.005
 3806SOL     OW12316   2.244   4.606   2.093
 3806SOL    HW112317   2.250   4.705   2.078
 3806SOL    HW212318   2.147   4.579   2.095
 3807SOL     OW12319   6.915   4.119   4.555
 3807SOL    HW112320   6.860   4.175   4.493
 3807SOL    HW212321   6.985   4.071   4.502
 3808SOL     OW12322   2.868   6.862   6.469
 3808SOL    HW112323   2.948   6.872   6.411
 3808SOL    HW212324   2.851   6.765   6.487
 3809SOL     OW12325   5.233   1.951   1.236
 3809SOL    HW112326   5.156   1.890   1.217
 3809SOL    HW212327   5.199   2.033   1.281
 3810SOL     OW12328   4.968   1.961   4.409
 3810SOL    HW112329   4.967   2.057   4.381
 3810SOL    HW212330   4.887   1.914   4.373
 3811SOL     OW12331   0.724   6.181   5.643
 3811SOL    HW112332   0.633   6.180   5.602
 3811SOL    HW212333   0.763   6.272   5.636
 3812SOL     OW12334   4.661   5.517   0.164
 3812SOL    HW112335   4.665   5.573   0.247
 3812SOL    HW212336   4.750   5.518   0.119
 3813SOL     OW12337   0.182   4.031   6.568
 3813SOL    HW112338   0.259   4.079   6.525
 3813SOL    HW212339   0.196   3.932   6.562
 3814SOL     OW12340   0.355   0.297   5.070
 3814SOL    HW112341   0.448   0.298   5.108
 3814SOL    HW212342   0.346   0.222   5.005
 3815SOL     OW12343   4.633   1.805   5.667
 3815SOL    HW112344   4.681   1.723   5.697
 3815SOL    HW212345   4.695   1.884   5.674
 3816SOL     OW12346   6.518   6.672   2.236
 3816SOL    HW112347   6.437   6.695   2.290
 3816SOL    HW212348   6.491   6.614   2.159
 3817SOL     OW12349   4.139   3.280   2.876
 3817SOL    HW112350   4.055   3.232   2.901
 3817SOL    HW212351   4.135   3.374   2.908
 3818SOL     OW12352   4.671   5.592   2.060
 3818SOL    HW112353   4.597   5.659   2.060
 3818SOL    HW212354   4.759   5.638   2.047
 3819SOL     OW12355   6.236   3.048   3.031
 3819SOL    HW112356   6.256   3.106   3.110
 3819SOL    HW212357   6.231   3.104   2.949
 3820SOL     OW12358   4.112   6.770   6.097
 3820SOL    HW112359   4.086   6.842   6.033
 3820SOL    HW212360   4.092   6.800   6.190
 3821SOL     OW12361   1.324   6.445   1.508
 3821SOL    HW112362   1.387   6.523   1.512
 3821SOL    HW212363   1.230   6.478   1.504
 3822SOL     OW12364   6.565   6.186   0.891
 3822SOL    HW112365   6.594   6.094   0.864
 3822SOL    HW212366   6.637   6.229   0.945
 3823SOL     OW12367   6.148   5.063   4.448
 3823SOL    HW112368   6.149   4.978   4.395
 3823SOL    HW212369   6.242   5.091   4.467
 3824SOL     OW12370   1.742   2.640   0.835
 3824SOL    HW112371   1.818   2.666   0.775
 3824SOL    HW212372   1.666   2.606   0.780
 3825SOL     OW12373   0.581   4.822   5.777
 3825SOL    HW112374   0.515   4.800   5.705
 3825SOL    HW212375   0.616   4.738   5.818
 3826SOL     OW12376   4.432   4.579   3.781
 3826SOL    HW112377   4.479   4.512   3.839
 3826SOL    HW212378   4.473   4.580   3.690
 3827SOL     OW12379   0.911   1.066   0.169
 3827SOL    HW112380   0.908   0.974   0.130
 3827SOL    HW212381   0.825   1.086   0.215
 3828SOL     OW12382   2.507   3.561   5.938
 3828SOL    HW112383   2.427   3.612   5.970
 3828SOL    HW212384   2.487   3.521   5.848
 3829SOL     OW12385   6.922   2.163   1.059
 3829SOL    HW112386   6.869   2.222   1.120
 3829SOL    HW212387   6.979   2.219   0.998
 3830SOL     OW12388   5.261   6.297   3.792
 3830SOL    HW112389   5.227   6.276   3.884
 3830SOL    HW212390   5.342   6.242   3.774
 3831SOL     OW12391   5.382   1.789   4.494
 3831SOL    HW112392   5.373   1.752   4.402
 3831SOL    HW212393   5.477   1.781   4.523
 3832SOL     OW12394   6.140   1.575   4.104
 3832SOL    HW112395   6.082   1.501   4.138
 3832SOL    HW212396   6.187   1.619   4.181
 3833SOL     OW12397   2.134   3.369   5.351
 3833SOL    HW112398   2.145   3.468   5.358
 3833SOL    HW212399   2.133   3.329   5.443
 3834SOL     OW12400   4.171   5.091   0.594
 3834SOL    HW112401   4.140   5.125   0.505
 3834SOL    HW212402   4.172   4.991   0.594
 3835SOL     OW12403   4.779   5.123   4.442
 3835SOL    HW112404   4.712   5.175   4.389
 3835SOL    HW212405   4.861   5.179   4.455
 3836SOL     OW12406   0.802   0.201   5.659
 3836SOL    HW112407   0.891   0.199   5.614
 3836SOL    HW212408   0.736   0.147   5.606
 3837SOL     OW12409   4.774   4.494   5.595
 3837SOL    HW112410   4.852   4.545   5.558
 3837SOL    HW212411   4.800   4.399   5.608
 3838SOL     OW12412   0.428   1.926   3.293
 3838SOL    HW112413   0.367   2.001   3.268
 3838SOL    HW212414   0.518   1.963   3.317
 3839SOL     OW12415   4.528   1.632   3.489
 3839SOL    HW112416   4.627   1.645   3.486
 3839SOL    HW212417   4.508   1.535   3.501
 3840SOL     OW12418   4.210   2.314   6.019
 3840SOL    HW112419   4.232   2.290   6.114
 3840SOL    HW212420   4.112   2.308   6.004
 3841SOL     OW12421   5.904   4.249   2.731
 3841SOL    HW112422   5.829   4.184   2.737
 3841SOL    HW212423   5.912   4.298   2.817
 3842SOL     OW12424   1.693   3.828   5.348
 3842SOL    HW112425   1.758   3.786   5.284
 3842SOL    HW212426   1.603   3.788   5.335
 3843SOL     OW12427   5.576   2.403   6.875
 3843SOL    HW112428   5.534   2.486   6.837
 3843SOL    HW212429   5.656   2.429   6.930
 3844SOL     OW12430   5.482   6.001   0.388
 3844SOL    HW112431   5.490   6.012   0.487
 3844SOL    HW212432   5.494   6.090   0.344
 3845SOL     OW12433   2.167   5.775   0.503
 3845SOL    HW112434   2.067   5.777   0.500
 3845SOL    HW212435   2.199   5.683   0.526
 3846SOL     OW12436   6.766   3.171   2.799
 3846SOL    HW112437   6.776   3.268   2.822
 3846SOL    HW212438   6.687   3.134   2.847
 3847SOL     OW12439   7.005   0.905   6.685
 3847SOL    HW112440   6.907   0.911   6.706
 3847SOL    HW212441   0.015   0.997   6.674
 3848SOL     OW12442   5.949   5.278   2.673
 3848SOL    HW112443   5.984   5.231   2.592
 3848SOL    HW212444   5.884   5.218   2.720
 3849SOL     OW12445   0.360   3.419   5.761
 3849SOL    HW112446   0.275   3.414   5.814
 3849SOL    HW212447   0.338   3.419   5.664
 3850SOL     OW12448   3.101   3.095   1.039
 3850SOL    HW112449   3.038   3.023   1.066
 3850SOL    HW212450   3.068   3.183   1.072
 3851SOL     OW12451   0.402   5.035   2.182
 3851SOL    HW112452   0.342   4.956   2.192
 3851SOL    HW212453   0.495   5.004   2.162
 3852SOL     OW12454   3.453   0.466   5.549
 3852SOL    HW112455   3.429   0.552   5.504
 3852SOL    HW212456   3.438   0.475   5.648
 3853SOL     OW12457   1.888   0.791   3.377
 3853SOL    HW112458   1.853   0.792   3.470
 3853SOL    HW212459   1.977   0.837   3.374
 3854SOL     OW12460   6.984   1.572   2.135
 3854SOL    HW112461   6.970   1.487   2.185
 3854SOL    HW212462   6.939   1.567   2.046
 3855SOL     OW12463   2.549   5.963   6.622
 3855SOL    HW112464   2.475   5.911   6.665
 3855SOL    HW212465   2.521   6.058   6.613
 3856SOL     OW12466   7.026   2.789   6.421
 3856SOL    HW112467   0.092   2.807   6.388
 3856SOL    HW212468   6.998   2.863   6.482
 3857SOL     OW12469   1.249   0.129   5.874
 3857SOL    HW112470   1.207   0.184   5.945
 3857SOL    HW212471   1.301   0.188   5.812
 3858SOL     OW12472   3.205   1.068   4.918
 3858SOL    HW112473   3.283   1.053   4.979
 3858SOL    HW212474   3.198   0.991   4.854
 3859SOL     OW12475   5.555   6.274   3.408
 3859SOL    HW112476   5.603   6.333   3.343
 3859SOL    HW212477   5.470   6.318   3.436
 3860SOL     OW12478   1.900   6.750   4.941
 3860SOL    HW112479   1.887   6.667   4.996
 3860SOL    HW212480   1.950   6.818   4.994
 3861SOL     OW12481   2.255   6.285   2.705
 3861SOL    HW112482   2.343   6.306   2.747
 3861SOL    HW212483   2.182   6.328   2.758
 3862SOL     OW12484   2.235   0.552   4.076
 3862SOL    HW112485   2.279   0.474   4.032
 3862SOL    HW212486   2.197   0.523   4.164
 3863SOL     OW12487   4.330   6.791   1.395
 3863SOL    HW112488   4.340   6.760   1.301
 3863SOL    HW212489   4.374   6.880   1.406
 3864SOL     OW12490   0.573   1.045   5.040
 3864SOL    HW112491   0.532   0.984   4.972
 3864SOL    HW212492   0.507   1.117   5.064
 3865SOL     OW12493   4.848   1.353   0.131
 3865SOL    HW112494   4.802   1.284   0.075
 3865SOL    HW212495   4.851   1.440   0.081
 3866SOL     OW12496   3.801   1.185   6.714
 3866SOL    HW112497   3.753   1.122   6.653
 3866SOL    HW212498   3.762   1.181   6.805
 3867SOL     OW12499   6.689   3.479   2.412
 3867SOL    HW112500   6.737   3.393   2.431
 3867SOL    HW212501   6.691   3.496   2.313
 3868SOL     OW12502   4.240   0.902   0.011
 3868SOL    HW112503   4.163   0.951   6.997
 3868SOL    HW212504   4.211   0.810   0.037
 3869SOL     OW12505   2.878   1.006   3.491
 3869SOL    HW112506   2.807   1.013   3.421
 3869SOL    HW212507   2.835   0.991   3.581
 3870SOL     OW12508   6.508   2.003   5.980
 3870SOL    HW112509   6.470   1.925   5.929
 3870SOL    HW212510   6.435   2.068   6.000
 3871SOL     OW12511   2.977   5.054   4.291
 3871SOL    HW112512   3.042   5.007   4.350
 3871SOL    HW212513   2.990   5.025   4.196
 3872SOL     OW12514   3.012   3.895   5.344
 3872SOL    HW112515   2.940   3.896   5.275
 3872SOL    HW212516   3.078   3.968   5.324
 3873SOL     OW12517   5.758   2.990   6.684
 3873SOL    HW112518   5.675   2.953   6.726
 3873SOL    HW212519   5.814   2.914   6.649
 3874SOL     OW12520   1.694   0.381   2.046
 3874SOL    HW112521   1.623   0.447   2.023
 3874SOL    HW212522   1.771   0.428   2.089
 3875SOL     OW12523   0.387   0.731   6.356
 3875SOL    HW112524   0.483   0.759   6.363
 3875SOL    HW212525   0.382   0.637   6.322
 3876SOL     OW12526   3.301   5.145   1.813
 3876SOL    HW112527   3.366   5.148   1.738
 3876SOL    HW212528   3.321   5.067   1.872
 3877SOL     OW12529   0.865   1.715   5.646
 3877SOL    HW112530   0.776   1.759   5.653
 3877SOL    HW212531   0.886   1.667   5.731
 3878SOL     OW12532   4.115   1.466   5.178
 3878SOL    HW112533   4.123   1.469   5.078
 3878SOL    HW212534   4.086   1.555   5.212
 3879SOL     OW12535   5.631   5.211   6.794
 3879SOL    HW112536   5.694   5.286   6.775
 3879SOL    HW212537   5.554   5.216   6.730
 3880SOL     OW12538   4.710   5.729   3.226
 3880SOL    HW112539   4.674   5.638   3.251
 3880SOL    HW212540   4.807   5.733   3.250
 3881SOL     OW12541   2.026   2.995   0.009
 3881SOL    HW112542   1.944   3.036   0.050
 3881SOL    HW212543   2.001   2.913   6.986
 3882SOL     OW12544   0.313   2.795   5.909
 3882SOL    HW112545   0.282   2.887   5.882
 3882SOL    HW212546   0.280   2.775   6.001
 3883SOL     OW12547   3.741   5.836   4.373
 3883SOL    HW112548   3.729   5.737   4.378
 3883SOL    HW212549   3.821   5.863   4.427
 3884SOL     OW12550   6.731   2.772   1.731
 3884SOL    HW112551   6.723   2.704   1.658
 3884SOL    HW212552   6.795   2.844   1.703
 3885SOL     OW12553   4.114   5.639   2.316
 3885SOL    HW112554   4.051   5.716   2.310
 3885SOL    HW212555   4.087   5.579   2.391
 3886SOL     OW12556   2.708   5.211   6.350
 3886SOL    HW112557   2.702   5.310   6.363
 3886SOL    HW212558   2.710   5.166   6.439
 3887SOL     OW12559   2.131   5.860   2.088
 3887SOL    HW112560   2.053   5.872   2.027
 3887SOL    HW212561   2.193   5.938   2.078
 3888SOL     OW12562   5.180   5.282   2.997
 3888SOL    HW112563   5.156   5.272   3.094
 3888SOL    HW212564   5.250   5.354   2.988
 3889SOL     OW12565   5.230   2.697   0.526
 3889SOL    HW112566   5.209   2.726   0.619
 3889SOL    HW212567   5.307   2.751   0.491
 3890SOL     OW12568   4.610   4.453   3.950
 3890SOL    HW112569   4.617   4.480   4.046
 3890SOL    HW212570   4.667   4.372   3.934
 3891SOL     OW12571   4.903   4.476   3.776
 3891SOL    HW112572   4.881   4.490   3.679
 3891SOL    HW212573   4.986   4.526   3.799
 3892SOL     OW12574   0.131   1.603   1.276
 3892SOL    HW112575   0.170   1.665   1.208
 3892SOL    HW212576   0.053   1.555   1.236
 3893SOL     OW12577   3.065   3.138   3.013
 3893SOL    HW112578   3.062   3.223   3.067
 3893SOL    HW212579   3.003   3.071   3.053
 3894SOL     OW12580   4.318   0.395   6.057
 3894SOL    HW112581   4.391   0.455   6.025
 3894SOL    HW212582   4.320   0.310   6.004
 3895SOL     OW12583   1.148   0.220   4.568
 3895SOL    HW112584   1.221   0.187   4.627
 3895SOL    HW212585   1.186   0.252   4.482
 3896SOL     OW12586   1.948   2.048   6.595
 3896SOL    HW112587   1.884   1.991   6.544
 3896SOL    HW212588   1.900   2.093   6.670
 3897SOL     OW12589   3.474   5.954   1.125
 3897SOL    HW112590   3.512   5.898   1.051
 3897SOL    HW212591   3.480   5.905   1.211
 3898SOL     OW12592   4.317   3.377   0.746
 3898SOL    HW112593   4.388   3.386   0.676
 3898SOL    HW212594   4.330   3.291   0.795
 3899SOL     OW12595   3.288   6.848   4.899
 3899SOL    HW112596   3.337   6.798   4.971
 3899SOL    HW212597   3.329   6.827   4.810
 3900SOL     OW12598   4.078   4.724   2.462
 3900SOL    HW112599   4.086   4.765   2.371
 3900SOL    HW212600   4.140   4.646   2.469
 3901SOL     OW12601   3.605   1.569   6.791
 3901SOL    HW112602   3.585   1.654   6.743
 3901SOL    HW212603   3.525   1.509   6.788
 3902SOL     OW12604   4.769   2.787   2.689
 3902SOL    HW112605   4.775   2.780   2.590
 3902SOL    HW212606   4.785   2.882   2.717
 3903SOL     OW12607   3.677   5.097   6.738
 3903SOL    HW112608   3.688   5.064   6.832
 3903SOL    HW212609   3.634   5.187   6.739
 3904SOL     OW12610   1.552   6.457   1.218
 3904SOL    HW112611   1.619   6.511   1.268
 3904SOL    HW212612   1.528   6.504   1.133
 3905SOL     OW12613   0.544   6.403   5.313
 3905SOL    HW112614   0.452   6.441   5.318
 3905SOL    HW212615   0.610   6.472   5.343
 3906SOL     OW12616   0.701   6.337   5.067
 3906SOL    HW112617   0.794   6.357   5.100
 3906SOL    HW212618   0.642   6.318   5.145
 3907SOL     OW12619   5.378   2.330   4.195
 3907SOL    HW112620   5.295   2.380   4.221
 3907SOL    HW212621   5.454   2.395   4.188
 3908SOL     OW12622   2.734   4.019   6.157
 3908SOL    HW112623   2.657   3.956   6.166
 3908SOL    HW212624   2.811   3.971   6.114
 3909SOL     OW12625   4.534   6.132   4.080
 3909SOL    HW112626   4.592   6.142   3.999
 3909SOL    HW212627   4.556   6.205   4.144
 3910SOL     OW12628   3.318   3.722   2.833
 3910SOL    HW112629   3.326   3.661   2.754
 3910SOL    HW212630   3.225   3.758   2.838
 3911SOL     OW12631   5.415   2.188   5.461
 3911SOL    HW112632   5.488   2.121   5.475
 3911SOL    HW212633   5.334   2.142   5.426
 3912SOL     OW12634   5.644   3.290   6.482
 3912SOL    HW112635   5.595   3.351   6.545
 3912SOL    HW212636   5.653   3.334   6.393
 3913SOL     OW12637   0.939   0.094   0.898
 3913SOL    HW112638   1.037   0.078   0.895
 3913SOL    HW212639   0.893   0.029   0.837
 3914SOL     OW12640   2.956   5.877   5.733
 3914SOL    HW112641   2.928   5.954   5.789
 3914SOL    HW212642   3.024   5.907   5.666
 3915SOL     OW12643   5.285   5.518   2.038
 3915SOL    HW112644   5.249   5.471   2.118
 3915SOL    HW212645   5.296   5.616   2.058
 3916SOL     OW12646   6.852   0.249   3.427
 3916SOL    HW112647   6.755   0.226   3.434
 3916SOL    HW212648   6.874   0.320   3.493
 3917SOL     OW12649   3.100   0.126   6.737
 3917SOL    HW112650   3.064   0.033   6.731
 3917SOL    HW212651   3.200   0.123   6.743
 3918SOL     OW12652   6.354   3.254   0.297
 3918SOL    HW112653   6.344   3.347   0.333
 3918SOL    HW212654   6.275   3.199   0.324
 3919SOL     OW12655   3.384   6.303   0.724
 3919SOL    HW112656   3.326   6.298   0.805
 3919SOL    HW212657   3.479   6.282   0.750
 3920SOL     OW12658   2.138   1.144   6.273
 3920SOL    HW112659   2.180   1.223   6.229
 3920SOL    HW212660   2.209   1.086   6.313
 3921SOL     OW12661   0.412   3.249   1.024
 3921SOL    HW112662   0.372   3.160   1.045
 3921SOL    HW212663   0.441   3.251   0.929
 3922SOL     OW12664   0.201   5.160   1.214
 3922SOL    HW112665   0.180   5.141   1.311
 3922SOL    HW212666   0.162   5.248   1.189
 3923SOL     OW12667   0.482   5.595   0.416
 3923SOL    HW112668   0.541   5.676   0.411
 3923SOL    HW212669   0.447   5.585   0.509
 3924SOL     OW12670   6.571   5.021   4.177
 3924SOL    HW112671   6.518   5.015   4.093
 3924SOL    HW212672   6.520   5.071   4.246
 3925SOL     OW12673   0.635   5.027   1.340
 3925SOL    HW112674   0.731   4.999   1.330
 3925SOL    HW212675   0.595   4.979   1.418
 3926SOL     OW12676   2.933   6.186   3.114
 3926SOL    HW112677   2.909   6.137   3.030
 3926SOL    HW212678   3.021   6.231   3.103
 3927SOL     OW12679   2.441   3.503   6.516
 3927SOL    HW112680   2.427   3.421   6.571
 3927SOL    HW212681   2.389   3.579   6.557
 3928SOL     OW12682   0.254   6.759   6.439
 3928SOL    HW112683   0.353   6.757   6.454
 3928SOL    HW212684   0.208   6.783   6.525
 3929SOL     OW12685   1.118   1.524   4.832
 3929SOL    HW112686   1.127   1.542   4.734
 3929SOL    HW212687   1.080   1.433   4.846
 3930SOL     OW12688   3.177   1.644   3.976
 3930SOL    HW112689   3.251   1.581   3.998
 3930SOL    HW212690   3.211   1.738   3.974
 3931SOL     OW12691   3.883   6.310   2.175
 3931SOL    HW112692   3.878   6.210   2.170
 3931SOL    HW212693   3.878   6.339   2.270
 3932SOL     OW12694   2.150   3.837   3.333
 3932SOL    HW112695   2.167   3.844   3.235
 3932SOL    HW212696   2.155   3.741   3.360
 3933SOL     OW12697   2.199   0.616   5.837
 3933SOL    HW112698   2.285   0.666   5.828
 3933SOL    HW212699   2.130   0.659   5.778
 3934SOL     OW12700   5.085   5.829   0.473
 3934SOL    HW112701   4.998   5.782   0.458
 3934SOL    HW212702   5.154   5.763   0.505
 3935SOL     OW12703   4.485   6.952   2.059
 3935SOL    HW112704   4.448   7.002   2.137
 3935SOL    HW212705   4.439   6.864   2.050
 3936SOL     OW12706   0.942   3.873   2.636
 3936SOL    HW112707   0.863   3.837   2.685
 3936SOL    HW212708   0.911   3.941   2.569
 3937SOL     OW12709   0.066   1.883   3.008
 3937SOL    HW112710   0.072   1.803   3.068
 3937SOL    HW212711   6.997   1.910   2.998
 3938SOL     OW12712   5.933   3.224   2.430
 3938SOL    HW112713   5.959   3.320   2.442
 3938SOL    HW212714   5.949   3.196   2.335
 3939SOL     OW12715   1.450   2.722   1.870
 3939SOL    HW112716   1.445   2.805   1.814
 3939SOL    HW212717   1.522   2.662   1.835
 3940SOL     OW12718   4.417   4.385   1.410
 3940SOL    HW112719   4.409   4.404   1.508
 3940SOL    HW212720   4.505   4.420   1.377
 3941SOL     OW12721   5.414   3.379   0.429
 3941SOL    HW112722   5.389   3.342   0.519
 3941SOL    HW212723   5.396   3.478   0.427
 3942SOL     OW12724   6.193   6.680   1.032
 3942SOL    HW112725   6.181   6.707   0.936
 3942SOL    HW212726   6.103   6.671   1.075
 3943SOL     OW12727   0.102   3.313   4.422
 3943SOL    HW112728   0.167   3.389   4.418
 3943SOL    HW212729   0.136   3.236   4.368
 3944SOL     OW12730   5.404   2.433   5.113
 3944SOL    HW112731   5.498   2.405   5.127
 3944SOL    HW212732   5.401   2.512   5.052
 3945SOL     OW12733   0.140   0.180   0.932
 3945SOL    HW112734   0.218   0.200   0.992
 3945SOL    HW212735   0.174   0.148   0.843
 3946SOL     OW12736   3.743   5.007   3.599
 3946SOL    HW112737   3.827   4.953   3.591
 3946SOL    HW212738   3.707   4.998   3.691
 3947SOL     OW12739   0.273   4.537   6.008
 3947SOL    HW112740   0.339   4.473   6.044
 3947SOL    HW212741   0.315   4.627   5.998
 3948SOL     OW12742   6.099   3.261   1.717
 3948SOL    HW112743   6.051   3.223   1.796
 3948SOL    HW212744   6.121   3.357   1.734
 3949SOL     OW12745   5.386   6.361   2.557
 3949SOL    HW112746   5.433   6.449   2.549
 3949SOL    HW212747   5.445   6.297   2.608
 3950SOL     OW12748   2.003   6.401   0.214
 3950SOL    HW112749   1.924   6.447   0.173
 3950SOL    HW212750   2.036   6.455   0.291
 3951SOL     OW12751   5.612   5.785   2.005
 3951SOL    HW112752   5.553   5.842   2.061
 3951SOL    HW212753   5.608   5.690   2.038
 3952SOL     OW12754   6.356   0.589   0.128
 3952SOL    HW112755   6.438   0.636   0.095
 3952SOL    HW212756   6.347   0.605   0.227
 3953SOL     OW12757   3.057   3.852   2.559
 3953SOL    HW112758   3.004   3.853   2.474
 3953SOL    HW212759   3.154   3.859   2.537
 3954SOL     OW12760   4.435   4.104   5.842
 3954SOL    HW112761   4.391   4.187   5.877
 3954SOL    HW212762   4.405   4.025   5.895
 3955SOL     OW12763   4.092   1.448   4.914
 3955SOL    HW112764   4.015   1.387   4.932
 3955SOL    HW212765   4.151   1.408   4.843
 3956SOL     OW12766   2.415   1.412   0.758
 3956SOL    HW112767   2.481   1.375   0.694
 3956SOL    HW212768   2.356   1.339   0.792
 3957SOL     OW12769   4.532   2.127   4.073
 3957SOL    HW112770   4.518   2.213   4.025
 3957SOL    HW212771   4.624   2.125   4.113
 3958SOL     OW12772   5.326   6.589   5.806
 3958SOL    HW112773   5.354   6.503   5.850
 3958SOL    HW212774   5.260   6.569   5.734
 3959SOL     OW12775   5.757   6.248   6.603
 3959SOL    HW112776   5.703   6.299   6.536
 3959SOL    HW212777   5.794   6.166   6.561
 3960SOL     OW12778   6.473   2.749   4.301
 3960SOL    HW112779   6.452   2.749   4.204
 3960SOL    HW212780   6.565   2.713   4.315
 3961SOL     OW12781   5.101   0.018   4.286
 3961SOL    HW112782   5.077   6.948   4.296
 3961SOL    HW212783   5.193   0.033   4.321
 3962SOL     OW12784   6.453   5.315   4.239
 3962SOL    HW112785   6.435   5.404   4.196
 3962SOL    HW212786   6.437   5.321   4.337
 3963SOL     OW12787   3.581   6.134   1.831
 3963SOL    HW112788   3.603   6.037   1.837
 3963SOL    HW212789   3.582   6.174   1.923
 3964SOL     OW12790   6.332   2.269   4.201
 3964SOL    HW112791   6.315   2.255   4.103
 3964SOL    HW212792   6.318   2.366   4.223
 3965SOL     OW12793   4.992   4.372   4.322
 3965SOL    HW112794   4.940   4.433   4.382
 3965SOL    HW212795   4.928   4.319   4.267
 3966SOL     OW12796   3.318   6.253   6.702
 3966SOL    HW112797   3.341   6.162   6.669
 3966SOL    HW212798   3.361   6.268   6.791
 3967SOL     OW12799   2.168   3.818   3.889
 3967SOL    HW112800   2.207   3.872   3.963
 3967SOL    HW212801   2.182   3.865   3.802
 3968SOL     OW12802   4.551   6.496   0.517
 3968SOL    HW112803   4.650   6.507   0.526
 3968SOL    HW212804   4.512   6.576   0.472
 3969SOL     OW12805   0.336   4.301   3.345
 3969SOL    HW112806   0.376   4.318   3.435
 3969SOL    HW212807   0.237   4.301   3.352
 3970SOL     OW12808   4.478   6.648   1.193
 3970SOL    HW112809   4.451   6.682   1.103
 3970SOL    HW212810   4.401   6.598   1.234
 3971SOL     OW12811   1.043   6.154   3.602
 3971SOL    HW112812   1.069   6.195   3.690
 3971SOL    HW212813   1.123   6.152   3.542
 3972SOL     OW12814   1.327   3.629   6.947
 3972SOL    HW112815   1.242   3.606   6.900
 3972SOL    HW212816   1.388   3.550   6.947
 3973SOL     OW12817   1.725   4.263   1.205
 3973SOL    HW112818   1.811   4.214   1.193
 3973SOL    HW212819   1.666   4.212   1.267
 3974SOL     OW12820   2.894   0.334   6.032
 3974SOL    HW112821   2.981   0.380   6.048
 3974SOL    HW212822   2.907   0.235   6.027
 3975SOL     OW12823   6.913   2.772   0.114
 3975SOL    HW112824   6.875   2.746   0.203
 3975SOL    HW212825   6.848   2.749   0.042
 3976SOL     OW12826   0.804   4.095   2.477
 3976SOL    HW112827   0.867   4.169   2.450
 3976SOL    HW212828   0.755   4.122   2.559
 3977SOL     OW12829   6.991   2.797   6.828
 3977SOL    HW112830   6.970   2.860   6.903
 3977SOL    HW212831   7.017   2.850   6.747
 3978SOL     OW12832   5.391   4.088   3.595
 3978SOL    HW112833   5.480   4.131   3.584
 3978SOL    HW212834   5.369   4.037   3.511
 3979SOL     OW12835   3.414   6.372   5.891
 3979SOL    HW112836   3.502   6.335   5.862
 3979SOL    HW212837   3.382   6.439   5.823
 3980SOL     OW12838   5.172   4.800   5.663
 3980SOL    HW112839   5.134   4.790   5.571
 3980SOL    HW212840   5.099   4.819   5.728
 3981SOL     OW12841   4.576   5.754   6.666
 3981SOL    HW112842   4.520   5.751   6.749
 3981SOL    HW212843   4.667   5.789   6.688
 3982SOL     OW12844   2.878   5.966   2.955
 3982SOL    HW112845   2.895   5.876   2.997
 3982SOL    HW212846   2.790   5.963   2.907
 3983SOL     OW12847   3.683   6.094   4.456
 3983SOL    HW112848   3.701   6.007   4.410
 3983SOL    HW212849   3.592   6.092   4.495
 3984SOL     OW12850   6.258   3.201   3.260
 3984SOL    HW112851   6.278   3.285   3.209
 3984SOL    HW212852   6.343   3.168   3.303
 3985SOL     OW12853   4.414   5.474   6.296
 3985SOL    HW112854   4.318   5.494   6.279
 3985SOL    HW212855   4.438   5.387   6.254
 3986SOL     OW12856   5.437   0.735   2.706
 3986SOL    HW112857   5.352   0.694   2.736
 3986SOL    HW212858   5.457   0.708   2.612
 3987SOL     OW12859   3.424   5.279   5.707
 3987SOL    HW112860   3.345   5.225   5.734
 3987SOL    HW212861   3.487   5.222   5.654
 3988SOL     OW12862   4.656   5.776   0.572
 3988SOL    HW112863   4.583   5.711   0.550
 3988SOL    HW212864   4.618   5.869   0.574
 3989SOL     OW12865   0.024   2.742   1.072
 3989SOL    HW112866   0.002   2.811   1.004
 3989SOL    HW212867   6.987   2.748   1.149
 3990SOL     OW12868   6.909   1.698   1.489
 3990SOL    HW112869   6.954   1.742   1.568
 3990SOL    HW212870   6.964   1.620   1.460
 3991SOL     OW12871   4.770   1.417   3.271
 3991SOL    HW112872   4.698   1.417   3.340
 3991SOL    HW212873   4.759   1.497   3.212
 3992SOL     OW12874   3.886   1.920   1.637
 3992SOL    HW112875   3.879   2.010   1.678
 3992SOL    HW212876   3.926   1.856   1.703
 3993SOL     OW12877   1.365   3.417   1.649
 3993SOL    HW112878   1.359   3.344   1.718
 3993SOL    HW212879   1.410   3.381   1.567
 3994SOL     OW12880   3.054   5.619   4.386
 3994SOL    HW112881   3.122   5.688   4.362
 3994SOL    HW212882   3.089   5.528   4.363
 3995SOL     OW12883   1.253   1.869   3.893
 3995SOL    HW112884   1.252   1.933   3.970
 3995SOL    HW212885   1.289   1.915   3.812
 3996SOL     OW12886   6.569   5.572   4.710
 3996SOL    HW112887   6.651   5.519   4.730
 3996SOL    HW212888   6.579   5.616   4.621
 3997SOL     OW12889   2.855   0.260   3.148
 3997SOL    HW112890   2.879   0.335   3.085
 3997SOL    HW212891   2.873   0.172   3.103
 3998SOL     OW12892   4.005   1.957   3.291
 3998SOL    HW112893   3.984   2.047   3.253
 3998SOL    HW212894   4.057   1.968   3.376
 3999SOL     OW12895   4.563   1.280   4.469
 3999SOL    HW112896   4.577   1.262   4.566
 3999SOL    HW212897   4.647   1.317   4.429
 4000SOL     OW12898   4.967   5.375   4.612
 4000SOL    HW112899   4.937   5.468   4.592
 4000SOL    HW212900   4.904   5.333   4.677
 4001SOL     OW12901   0.761   1.730   4.853
 4001SOL    HW112902   0.700   1.806   4.830
 4001SOL    HW212903   0.850   1.746   4.810
 4002SOL     OW12904   2.052   5.024   2.249
 4002SOL    HW112905   2.064   5.023   2.348
 4002SOL    HW212906   2.003   4.942   2.220
 4003SOL     OW12907   3.674   1.757   4.487
 4003SOL    HW112908   3.585   1.723   4.455
 4003SOL    HW212909   3.731   1.780   4.408
 4004SOL     OW12910   6.789   1.906   6.382
 4004SOL    HW112911   6.834   1.969   6.319
 4004SOL    HW212912   6.691   1.927   6.386
 4005SOL     OW12913   6.810   5.072   4.932
 4005SOL    HW112914   6.820   5.016   4.850
 4005SOL    HW212915   6.871   5.151   4.926
 4006SOL     OW12916   3.464   5.908   3.243
 4006SOL    HW112917   3.416   5.862   3.317
 4006SOL    HW212918   3.463   6.007   3.259
 4007SOL     OW12919   0.269   1.721   5.402
 4007SOL    HW112920   0.221   1.778   5.469
 4007SOL    HW212921   0.296   1.777   5.324
 4008SOL     OW12922   3.315   1.308   5.049
 4008SOL    HW112923   3.297   1.407   5.052
 4008SOL    HW212924   3.291   1.273   4.959
 4009SOL     OW12925   3.883   4.043   3.007
 4009SOL    HW112926   3.792   4.023   2.969
 4009SOL    HW212927   3.916   4.130   2.970
 4010SOL     OW12928   1.106   3.308   0.977
 4010SOL    HW112929   1.083   3.321   1.073
 4010SOL    HW212930   1.024   3.325   0.921
 4011SOL     OW12931   0.465   1.426   0.691
 4011SOL    HW112932   0.452   1.400   0.596
 4011SOL    HW212933   0.520   1.509   0.696
 4012SOL     OW12934   5.229   3.368   3.441
 4012SOL    HW112935   5.322   3.352   3.475
 4012SOL    HW212936   5.233   3.392   3.344
 4013SOL     OW12937   5.353   3.001   3.009
 4013SOL    HW112938   5.360   2.961   2.918
 4013SOL    HW212939   5.440   2.990   3.057
 4014SOL     OW12940   5.416   4.551   2.651
 4014SOL    HW112941   5.397   4.511   2.740
 4014SOL    HW212942   5.504   4.518   2.617
 4015SOL     OW12943   5.141   3.834   0.269
 4015SOL    HW112944   5.129   3.838   0.368
 4015SOL    HW212945   5.160   3.926   0.234
 4016SOL     OW12946   3.156   6.483   4.680
 4016SOL    HW112947   3.143   6.395   4.725
 4016SOL    HW212948   3.117   6.480   4.588
 4017SOL     OW12949   5.030   6.553   6.118
 4017SOL    HW112950   4.978   6.535   6.202
 4017SOL    HW212951   4.966   6.567   6.042
 4018SOL     OW12952   1.723   7.015   6.971
 4018SOL    HW112953   1.751   0.043   6.892
 4018SOL    HW212954   1.738   6.918   6.951
 4019SOL     OW12955   5.376   6.855   3.974
 4019SOL    HW112956   5.360   6.843   4.072
 4019SOL    HW212957   5.469   6.888   3.960
 4020SOL     OW12958   5.678   1.846   4.648
 4020SOL    HW112959   5.724   1.837   4.736
 4020SOL    HW212960   5.615   1.923   4.650
 4021SOL     OW12961   4.583   2.931   6.979
 4021SOL    HW112962   4.602   3.001   6.911
 4021SOL    HW212963   4.613   2.963   0.042
 4022SOL     OW12964   5.068   1.044   1.099
 4022SOL    HW112965   5.053   1.137   1.067
 4022SOL    HW212966   5.042   0.979   1.027
 4023SOL     OW12967   7.006   5.650   5.363
 4023SOL    HW112968   6.961   5.712   5.427
 4023SOL    HW212969   6.938   5.599   5.311
 4024SOL     OW12970   4.303   4.322   5.936
 4024SOL    HW112971   4.344   4.343   6.025
 4024SOL    HW212972   4.213   4.281   5.950
 4025SOL     OW12973   0.313   4.080   4.205
 4025SOL    HW112974   0.311   4.162   4.147
 4025SOL    HW212975   0.404   4.038   4.199
 4026SOL     OW12976   5.831   1.118   5.334
 4026SOL    HW112977   5.735   1.107   5.308
 4026SOL    HW212978   5.876   1.182   5.272
 4027SOL     OW12979   2.612   5.303   2.571
 4027SOL    HW112980   2.709   5.323   2.557
 4027SOL    HW212981   2.557   5.378   2.533
 4028SOL     OW12982   1.219   5.445   2.719
 4028SOL    HW112983   1.181   5.354   2.701
 4028SOL    HW212984   1.203   5.470   2.814
 4029SOL     OW12985   1.953   4.218   3.366
 4029SOL    HW112986   2.028   4.152   3.363
 4029SOL    HW212987   1.972   4.287   3.435
 4030SOL     OW12988   2.483   1.147   6.012
 4030SOL    HW112989   2.556   1.083   6.035
 4030SOL    HW212990   2.394   1.101   6.021
 4031SOL     OW12991   6.765   6.200   3.986
 4031SOL    HW112992   6.810   6.140   4.052
 4031SOL    HW212993   6.810   6.193   3.898
 4032SOL     OW12994   3.800   0.145   4.751
 4032SOL    HW112995   3.738   0.224   4.755
 4032SOL    HW212996   3.894   0.176   4.759
 4033SOL     OW12997   3.589   3.937   6.585
 4033SOL    HW112998   3.619   3.897   6.671
 4033SOL    HW212999   3.637   4.023   6.569
 4034SOL     OW13000   6.215   3.717   5.203
 4034SOL    HW113001   6.163   3.659   5.266
 4034SOL    HW213002   6.159   3.735   5.121
 4035SOL     OW13003   0.133   6.214   2.333
 4035SOL    HW113004   0.209   6.231   2.396
 4035SOL    HW213005   0.164   6.228   2.239
 4036SOL     OW13006   5.948   6.244   1.458
 4036SOL    HW113007   6.010   6.167   1.440
 4036SOL    HW213008   5.895   6.264   1.375
 4037SOL     OW13009   0.938   4.061   6.308
 4037SOL    HW113010   1.003   4.129   6.343
 4037SOL    HW213011   0.928   3.987   6.375
 4038SOL     OW13012   6.357   5.248   3.454
 4038SOL    HW113013   6.290   5.241   3.528
 4038SOL    HW213014   6.428   5.178   3.466
 4039SOL     OW13015   2.601   5.007   1.443
 4039SOL    HW113016   2.607   5.106   1.432
 4039SOL    HW213017   2.513   4.983   1.483
 4040SOL     OW13018   2.974   0.121   0.183
 4040SOL    HW113019   3.070   0.109   0.209
 4040SOL    HW213020   2.915   0.071   0.246
 4041SOL     OW13021   0.223   6.092   3.146
 4041SOL    HW113022   0.262   6.129   3.230
 4041SOL    HW213023   0.290   6.034   3.101
 4042SOL     OW13024   5.181   5.182   1.502
 4042SOL    HW113025   5.268   5.192   1.454
 4042SOL    HW213026   5.165   5.086   1.523
 4043SOL     OW13027   7.012   3.317   0.837
 4043SOL    HW113028   6.979   3.241   0.781
 4043SOL    HW213029   0.010   3.283   0.928
 4044SOL     OW13030   5.224   4.681   2.433
 4044SOL    HW113031   5.189   4.588   2.422
 4044SOL    HW213032   5.296   4.681   2.502
 4045SOL     OW13033   3.063   5.293   5.439
 4045SOL    HW113034   3.110   5.205   5.434
 4045SOL    HW213035   3.058   5.322   5.534
 4046SOL     OW13036   0.855   3.894   0.882
 4046SOL    HW113037   0.950   3.898   0.914
 4046SOL    HW213038   0.841   3.810   0.829
 4047SOL     OW13039   3.446   4.151   3.738
 4047SOL    HW113040   3.353   4.174   3.709
 4047SOL    HW213041   3.507   4.154   3.660
 4048SOL     OW13042   5.097   2.488   0.915
 4048SOL    HW113043   5.093   2.476   0.816
 4048SOL    HW213044   5.005   2.476   0.954
 4049SOL     OW13045   6.218   6.167   0.175
 4049SOL    HW113046   6.193   6.074   0.148
 4049SOL    HW213047   6.315   6.169   0.201
 4050SOL     OW13048   2.143   1.146   1.931
 4050SOL    HW113049   2.176   1.068   1.877
 4050SOL    HW213050   2.076   1.115   1.999
 4051SOL     OW13051   3.163   4.156   1.044
 4051SOL    HW113052   3.208   4.090   1.103
 4051SOL    HW213053   3.118   4.109   0.968
 4052SOL     OW13054   1.227   0.058   0.865
 4052SOL    HW113055   1.252   0.000   0.943
 4052SOL    HW213056   1.281   0.033   0.785
 4053SOL     OW13057   2.800   5.778   1.986
 4053SOL    HW113058   2.737   5.754   2.060
 4053SOL    HW213059   2.893   5.786   2.023
 4054SOL     OW13060   5.385   1.639   6.807
 4054SOL    HW113061   5.405   1.625   6.904
 4054SOL    HW213062   5.338   1.559   6.770
 4055SOL     OW13063   4.773   3.851   6.141
 4055SOL    HW113064   4.795   3.895   6.228
 4055SOL    HW213065   4.858   3.822   6.097
 4056SOL     OW13066   4.339   3.451   0.013
 4056SOL    HW113067   4.383   3.531   7.000
 4056SOL    HW213068   4.378   3.368   7.002
 4057SOL     OW13069   6.716   2.441   0.822
 4057SOL    HW113070   6.676   2.350   0.835
 4057SOL    HW213071   6.779   2.439   0.745
 4058SOL     OW13072   1.557   3.903   3.972
 4058SOL    HW113073   1.595   3.966   3.904
 4058SOL    HW213074   1.599   3.813   3.961
 4059SOL     OW13075   7.020   2.254   4.951
 4059SOL    HW113076   0.055   2.332   4.941
 4059SOL    HW213077   6.927   2.288   4.966
 4060SOL     OW13078   2.287   6.801   6.231
 4060SOL    HW113079   2.363   6.739   6.211
 4060SOL    HW213080   2.275   6.865   6.156
 4061SOL     OW13081   1.777   2.780   1.852
 4061SOL    HW113082   1.773   2.682   1.838
 4061SOL    HW213083   1.714   2.807   1.924
 4062SOL     OW13084   2.498   0.854   3.206
 4062SOL    HW113085   2.447   0.932   3.169
 4062SOL    HW213086   2.594   0.861   3.178
 4063SOL     OW13087   3.952   6.487   5.631
 4063SOL    HW113088   3.973   6.389   5.634
 4063SOL    HW213089   3.855   6.501   5.648
 4064SOL     OW13090   6.416   6.972   4.494
 4064SOL    HW113091   6.382   0.025   4.446
 4064SOL    HW213092   6.340   6.927   4.541
 4065SOL     OW13093   0.648   4.558   5.845
 4065SOL    HW113094   0.644   4.564   5.945
 4065SOL    HW213095   0.605   4.473   5.815
 4066SOL     OW13096   4.967   3.794   2.284
 4066SOL    HW113097   4.953   3.869   2.220
 4066SOL    HW213098   4.928   3.818   2.373
 4067SOL     OW13099   5.062   0.247   1.475
 4067SOL    HW113100   5.120   0.217   1.400
 4067SOL    HW213101   5.115   0.301   1.540
 4068SOL     OW13102   5.318   0.070   4.436
 4068SOL    HW113103   5.373   0.152   4.420
 4068SOL    HW213104   5.277   0.074   4.527
 4069SOL     OW13105   6.604   5.917   0.791
 4069SOL    HW113106   6.560   5.853   0.728
 4069SOL    HW213107   6.699   5.889   0.805
 4070SOL     OW13108   0.422   3.729   2.991
 4070SOL    HW113109   0.455   3.806   2.937
 4070SOL    HW213110   0.446   3.643   2.944
 4071SOL     OW13111   2.798   6.892   4.603
 4071SOL    HW113112   2.784   6.990   4.611
 4071SOL    HW213113   2.823   6.869   4.509
 4072SOL     OW13114   0.158   0.548   4.796
 4072SOL    HW113115   0.070   0.570   4.838
 4072SOL    HW213116   0.154   0.456   4.758
 4073SOL     OW13117   2.559   4.344   1.579
 4073SOL    HW113118   2.536   4.374   1.487
 4073SOL    HW213119   2.657   4.324   1.584
 4074SOL     OW13120   6.989   2.538   1.581
 4074SOL    HW113121   7.005   2.621   1.635
 4074SOL    HW213122   0.022   2.538   1.502
 4075SOL     OW13123   6.525   0.737   3.804
 4075SOL    HW113124   6.574   0.659   3.843
 4075SOL    HW213125   6.571   0.822   3.832
 4076SOL     OW13126   1.647   3.479   3.331
 4076SOL    HW113127   1.626   3.420   3.253
 4076SOL    HW213128   1.745   3.496   3.334
 4077SOL     OW13129   3.530   0.573   1.848
 4077SOL    HW113130   3.589   0.522   1.786
 4077SOL    HW213131   3.571   0.662   1.868
 4078SOL     OW13132   4.908   4.071   2.513
 4078SOL    HW113133   4.995   4.032   2.542
 4078SOL    HW213134   4.913   4.095   2.416
 4079SOL     OW13135   4.470   0.774   2.888
 4079SOL    HW113136   4.527   0.842   2.843
 4079SOL    HW213137   4.389   0.756   2.832
 4080SOL     OW13138   4.042   3.627   4.219
 4080SOL    HW113139   3.948   3.595   4.213
 4080SOL    HW213140   4.049   3.719   4.181
 4081SOL     OW13141   2.633   6.640   0.432
 4081SOL    HW113142   2.664   6.688   0.351
 4081SOL    HW213143   2.533   6.644   0.438
 4082SOL     OW13144   1.309   1.444   6.226
 4082SOL    HW113145   1.243   1.389   6.277
 4082SOL    HW213146   1.373   1.486   6.290
 4083SOL     OW13147   5.843   3.873   2.169
 4083SOL    HW113148   5.797   3.876   2.257
 4083SOL    HW213149   5.903   3.952   2.160
 4084SOL     OW13150   4.113   5.890   3.278
 4084SOL    HW113151   4.076   5.982   3.275
 4084SOL    HW213152   4.083   5.839   3.197
 4085SOL     OW13153   1.376   4.454   2.897
 4085SOL    HW113154   1.427   4.403   2.829
 4085SOL    HW213155   1.334   4.391   2.962
 4086SOL     OW13156   6.054   5.063   5.608
 4086SOL    HW113157   6.126   4.999   5.580
 4086SOL    HW213158   5.965   5.017   5.605
 4087SOL     OW13159   1.087   1.351   1.321
 4087SOL    HW113160   1.094   1.444   1.287
 4087SOL    HW213161   1.142   1.290   1.265
 4088SOL     OW13162   0.317   2.094   4.762
 4088SOL    HW113163   0.382   2.165   4.787
 4088SOL    HW213164   0.244   2.089   4.829
 4089SOL     OW13165   6.880   6.546   2.705
 4089SOL    HW113166   6.956   6.483   2.716
 4089SOL    HW213167   6.821   6.514   2.631
 4090SOL     OW13168   3.466   2.273   5.658
 4090SOL    HW113169   3.465   2.307   5.564
 4090SOL    HW213170   3.442   2.347   5.720
 4091SOL     OW13171   4.198   6.941   3.360
 4091SOL    HW113172   4.233   6.993   3.282
 4091SOL    HW213173   4.264   6.945   3.436
 4092SOL     OW13174   3.965   1.823   6.812
 4092SOL    HW113175   3.983   1.893   6.743
 4092SOL    HW213176   4.041   1.758   6.814
 4093SOL     OW13177   5.629   4.490   0.960
 4093SOL    HW113178   5.641   4.395   0.987
 4093SOL    HW213179   5.532   4.510   0.946
 4094SOL     OW13180   6.056   5.895   0.592
 4094SOL    HW113181   6.146   5.933   0.615
 4094SOL    HW213182   6.034   5.916   0.497
 4095SOL     OW13183   1.404   4.704   0.352
 4095SOL    HW113184   1.464   4.684   0.429
 4095SOL    HW213185   1.360   4.620   0.321
 4096SOL     OW13186   1.016   6.139   5.815
 4096SOL    HW113187   1.059   6.221   5.778
 4096SOL    HW213188   0.927   6.125   5.773
 4097SOL     OW13189   1.588   4.148   5.861
 4097SOL    HW113190   1.681   4.114   5.876
 4097SOL    HW213191   1.578   4.179   5.767
 4098SOL     OW13192   1.330   5.722   2.259
 4098SOL    HW113193   1.407   5.773   2.220
 4098SOL    HW213194   1.256   5.786   2.281
 4099SOL     OW13195   0.262   2.566   5.775
 4099SOL    HW113196   0.272   2.656   5.816
 4099SOL    HW213197   0.336   2.550   5.710
 4100SOL     OW13198   1.640   1.292   2.882
 4100SOL    HW113199   1.559   1.346   2.858
 4100SOL    HW213200   1.638   1.272   2.980
 4101SOL     OW13201   5.663   5.799   5.959
 4101SOL    HW113202   5.668   5.832   6.053
 4101SOL    HW213203   5.734   5.842   5.904
 4102SOL     OW13204   3.082   5.559   0.779
 4102SOL    HW113205   3.171   5.515   0.768
 4102SOL    HW213206   3.081   5.610   0.865
 4103SOL     OW13207   2.319   5.589   2.524
 4103SOL    HW113208   2.276   5.627   2.442
 4103SOL    HW213209   2.416   5.574   2.507
 4104SOL     OW13210   2.494   5.619   5.073
 4104SOL    HW113211   2.409   5.671   5.064
 4104SOL    HW213212   2.522   5.584   4.984
 4105SOL     OW13213   3.967   0.447   1.492
 4105SOL    HW113214   3.987   0.544   1.485
 4105SOL    HW213215   3.961   0.421   1.589
 4106SOL     OW13216   1.654   7.007   2.898
 4106SOL    HW113217   1.595   6.982   2.821
 4106SOL    HW213218   1.715   0.054   2.871
 4107SOL     OW13219   2.848   2.074   1.190
 4107SOL    HW113220   2.760   2.048   1.230
 4107SOL    HW213221   2.909   1.995   1.188
 4108SOL     OW13222   0.911   5.709   5.729
 4108SOL    HW113223   0.906   5.631   5.668
 4108SOL    HW213224   0.831   5.768   5.716
 4109SOL     OW13225   5.887   0.188   4.638
 4109SOL    HW113226   5.832   0.219   4.715
 4109SOL    HW213227   5.845   0.220   4.553
 4110SOL     OW13228   4.880   2.636   0.226
 4110SOL    HW113229   4.956   2.700   0.219
 4110SOL    HW213230   4.851   2.629   0.321
 4111SOL     OW13231   6.300   4.486   4.297
 4111SOL    HW113232   6.219   4.538   4.270
 4111SOL    HW213233   6.339   4.526   4.380
 4112SOL     OW13234   3.531   4.365   5.261
 4112SOL    HW113235   3.626   4.338   5.274
 4112SOL    HW213236   3.498   4.412   5.343
 4113SOL     OW13237   5.465   5.933   5.521
 4113SOL    HW113238   5.521   6.012   5.498
 4113SOL    HW213239   5.476   5.912   5.619
 4114SOL     OW13240   5.560   1.742   3.649
 4114SOL    HW113241   5.612   1.756   3.565
 4114SOL    HW213242   5.622   1.725   3.725
 4115SOL     OW13243   4.912   0.640   4.846
 4115SOL    HW113244   4.924   0.661   4.749
 4115SOL    HW213245   4.962   0.706   4.901
 4116SOL     OW13246   5.734   3.768   2.799
 4116SOL    HW113247   5.781   3.721   2.874
 4116SOL    HW213248   5.658   3.712   2.766
 4117SOL     OW13249   0.452   2.436   2.662
 4117SOL    HW113250   0.398   2.506   2.616
 4117SOL    HW213251   0.527   2.407   2.604
 4118SOL     OW13252   0.828   1.429   1.732
 4118SOL    HW113253   0.928   1.431   1.721
 4118SOL    HW213254   0.785   1.459   1.646
 4119SOL     OW13255   6.299   1.219   4.444
 4119SOL    HW113256   6.377   1.216   4.381
 4119SOL    HW213257   6.214   1.230   4.391
 4120SOL     OW13258   1.591   0.075   0.345
 4120SOL    HW113259   1.498   0.045   0.323
 4120SOL    HW213260   1.596   0.175   0.340
 4121SOL     OW13261   6.784   6.796   1.398
 4121SOL    HW113262   6.855   6.852   1.439
 4121SOL    HW213263   6.727   6.853   1.338
 4122SOL     OW13264   1.123   4.653   3.392
 4122SOL    HW113265   1.134   4.659   3.293
 4122SOL    HW213266   1.113   4.557   3.419
 4123SOL     OW13267   6.076   4.800   2.044
 4123SOL    HW113268   6.050   4.724   1.984
 4123SOL    HW213269   6.134   4.864   1.994
 4124SOL     OW13270   5.498   5.702   0.440
 4124SOL    HW113271   5.485   5.693   0.539
 4124SOL    HW213272   5.491   5.798   0.414
 4125SOL     OW13273   1.518   3.132   0.318
 4125SOL    HW113274   1.573   3.215   0.323
 4125SOL    HW213275   1.498   3.110   0.223
 4126SOL     OW13276   2.118   4.650   2.780
 4126SOL    HW113277   2.044   4.615   2.723
 4126SOL    HW213278   2.167   4.722   2.732
 4127SOL     OW13279   4.697   2.627   4.821
 4127SOL    HW113280   4.674   2.624   4.918
 4127SOL    HW213281   4.622   2.589   4.767
 4128SOL     OW13282   6.293   3.018   6.732
 4128SOL    HW113283   6.251   3.008   6.642
 4128SOL    HW213284   6.289   2.931   6.781
 4129SOL     OW13285   3.106   6.406   2.007
 4129SOL    HW113286   3.203   6.382   2.001
 4129SOL    HW213287   3.064   6.397   1.916
 4130SOL     OW13288   4.828   1.566   7.007
 4130SOL    HW113289   4.774   1.546   6.925
 4130SOL    HW213290   4.907   1.621   6.983
 4131SOL     OW13291   5.373   5.911   4.391
 4131SOL    HW113292   5.440   5.903   4.465
 4131SOL    HW213293   5.313   5.831   4.393
 4132SOL     OW13294   0.134   3.230   2.443
 4132SOL    HW113295   0.196   3.245   2.366
 4132SOL    HW213296   0.072   3.154   2.421
 4133SOL     OW13297   5.094   6.625   3.872
 4133SOL    HW113298   5.152   6.543   3.872
 4133SOL    HW213299   5.113   6.679   3.790
 4134SOL     OW13300   2.303   3.050   1.423
 4134SOL    HW113301   2.385   3.100   1.393
 4134SOL    HW213302   2.330   2.961   1.461
 4135SOL     OW13303   6.329   0.494   0.789
 4135SOL    HW113304   6.370   0.584   0.806
 4135SOL    HW213305   6.388   0.423   0.827
 4136SOL     OW13306   0.842   5.096   0.410
 4136SOL    HW113307   0.774   5.054   0.349
 4136SOL    HW213308   0.858   5.036   0.488
 4137SOL     OW13309   0.409   2.046   5.266
 4137SOL    HW113310   0.480   1.984   5.299
 4137SOL    HW213311   0.425   2.137   5.304
 4138SOL     OW13312   5.609   6.466   6.362
 4138SOL    HW113313   5.556   6.531   6.417
 4138SOL    HW213314   5.649   6.514   6.284
 4139SOL     OW13315   1.178   4.055   2.020
 4139SOL    HW113316   1.081   4.032   2.019
 4139SOL    HW213317   1.189   4.155   2.018
 4140SOL     OW13318   2.208   6.772   0.864
 4140SOL    HW113319   2.305   6.788   0.880
 4140SOL    HW213320   2.165   6.856   0.832
 4141SOL     OW13321   5.336   0.201   5.588
 4141SOL    HW113322   5.295   0.115   5.618
 4141SOL    HW213323   5.412   0.182   5.526
 4142SOL     OW13324   0.447   6.588   2.127
 4142SOL    HW113325   0.472   6.682   2.150
 4142SOL    HW213326   0.527   6.529   2.136
 4143SOL     OW13327   6.008   3.669   0.067
 4143SOL    HW113328   6.099   3.627   0.068
 4143SOL    HW213329   6.006   3.748   0.128
 4144SOL     OW13330   5.028   0.703   1.824
 4144SOL    HW113331   4.994   0.609   1.819
 4144SOL    HW213332   5.119   0.708   1.785
 4145SOL     OW13333   4.255   1.132   0.971
 4145SOL    HW113334   4.156   1.130   0.989
 4145SOL    HW213335   4.273   1.095   0.880
 4146SOL     OW13336   3.235   1.275   1.525
 4146SOL    HW113337   3.234   1.340   1.601
 4146SOL    HW213338   3.147   1.228   1.521
 4147SOL     OW13339   5.541   4.193   0.189
 4147SOL    HW113340   5.541   4.134   0.108
 4147SOL    HW213341   5.477   4.156   0.256
 4148SOL     OW13342   3.348   0.364   6.330
 4148SOL    HW113343   3.260   0.410   6.342
 4148SOL    HW213344   3.343   0.271   6.366
 4149SOL     OW13345   1.570   2.438   6.233
 4149SOL    HW113346   1.560   2.488   6.147
 4149SOL    HW213347   1.593   2.343   6.214
 4150SOL     OW13348   6.492   0.986   0.909
 4150SOL    HW113349   6.418   1.038   0.865
 4150SOL    HW213350   6.494   1.006   1.007
 4151SOL     OW13351   3.454   5.807   4.133
 4151SOL    HW113352   3.453   5.890   4.076
 4151SOL    HW213353   3.524   5.816   4.204
 4152SOL     OW13354   3.021   3.622   1.457
 4152SOL    HW113355   3.052   3.622   1.552
 4152SOL    HW213356   2.935   3.572   1.450
 4153SOL     OW13357   6.097   6.659   6.954
 4153SOL    HW113358   6.051   6.570   6.948
 4153SOL    HW213359   6.031   6.732   6.933
 4154SOL     OW13360   0.788   0.024   3.602
 4154SOL    HW113361   0.744   0.024   3.692
 4154SOL    HW213362   0.870   6.995   3.606
 4155SOL     OW13363   5.203   1.438   2.669
 4155SOL    HW113364   5.136   1.491   2.617
 4155SOL    HW213365   5.209   1.346   2.631
 4156SOL     OW13366   0.507   5.744   6.086
 4156SOL    HW113367   0.492   5.737   5.988
 4156SOL    HW213368   0.560   5.665   6.118
 4157SOL     OW13369   4.150   6.289   0.581
 4157SOL    HW113370   4.250   6.292   0.573
 4157SOL    HW213371   4.111   6.253   0.496
 4158SOL     OW13372   6.552   0.744   6.144
 4158SOL    HW113373   6.591   0.771   6.232
 4158SOL    HW213374   6.601   0.789   6.070
 4159SOL     OW13375   3.766   0.951   4.201
 4159SOL    HW113376   3.718   1.034   4.229
 4159SOL    HW213377   3.862   0.957   4.229
 4160SOL     OW13378   1.058   0.767   5.800
 4160SOL    HW113379   0.972   0.818   5.793
 4160SOL    HW213380   1.133   0.822   5.764
 4161SOL     OW13381   2.917   3.369   5.038
 4161SOL    HW113382   2.982   3.340   5.108
 4161SOL    HW213383   2.838   3.414   5.082
 4162SOL     OW13384   4.728   6.976   0.894
 4162SOL    HW113385   4.731   6.938   0.986
 4162SOL    HW213386   4.815   6.960   0.848
 4163SOL     OW13387   4.438   6.575   1.527
 4163SOL    HW113388   4.386   6.659   1.510
 4163SOL    HW213389   4.386   6.496   1.492
 4164SOL     OW13390   5.480   1.145   7.025
 4164SOL    HW113391   5.564   1.197   7.011
 4164SOL    HW213392   5.468   1.125   0.095
 4165SOL     OW13393   3.414   0.855   4.789
 4165SOL    HW113394   3.473   0.840   4.709
 4165SOL    HW213395   3.321   0.825   4.768
 4166SOL     OW13396   5.533   2.236   2.579
 4166SOL    HW113397   5.472   2.209   2.653
 4166SOL    HW213398   5.560   2.332   2.591
 4167SOL     OW13399   3.737   6.133   4.807
 4167SOL    HW113400   3.796   6.054   4.790
 4167SOL    HW213401   3.777   6.213   4.763
 4168SOL     OW13402   5.833   3.227   6.791
 4168SOL    HW113403   5.818   3.142   6.740
 4168SOL    HW213404   5.865   3.206   6.883
 4169SOL     OW13405   5.301   4.452   7.015
 4169SOL    HW113406   5.277   4.524   0.052
 4169SOL    HW213407   5.325   4.492   6.927
 4170SOL     OW13408   1.038   3.004   5.305
 4170SOL    HW113409   0.985   2.927   5.269
 4170SOL    HW213410   0.980   3.085   5.310
 4171SOL     OW13411   7.024   6.795   5.832
 4171SOL    HW113412   6.989   6.875   5.783
 4171SOL    HW213413   0.059   6.825   5.905
 4172SOL     OW13414   3.330   3.686   0.184
 4172SOL    HW113415   3.424   3.655   0.194
 4172SOL    HW213416   3.305   3.744   0.262
 4173SOL     OW13417   5.651   1.625   5.935
 4173SOL    HW113418   5.560   1.592   5.960
 4173SOL    HW213419   5.712   1.618   6.014
 4174SOL     OW13420   2.481   6.758   3.833
 4174SOL    HW113421   2.578   6.767   3.856
 4174SOL    HW213422   2.471   6.703   3.750
 4175SOL     OW13423   1.861   3.122   6.569
 4175SOL    HW113424   1.916   3.042   6.548
 4175SOL    HW213425   1.884   3.197   6.507
 4176SOL     OW13426   5.014   7.007   4.992
 4176SOL    HW113427   4.999   7.006   4.893
 4176SOL    HW213428   5.016   0.075   5.024
 4177SOL     OW13429   5.148   6.217   4.131
 4177SOL    HW113430   5.111   6.308   4.110
 4177SOL    HW213431   5.072   6.155   4.153
 4178SOL     OW13432   2.604   6.286   1.136
 4178SOL    HW113433   2.588   6.312   1.231
 4178SOL    HW213434   2.682   6.337   1.100
 4179SOL     OW13435   3.766   2.043   0.115
 4179SOL    HW113436   3.707   2.101   0.171
 4179SOL    HW213437   3.720   2.024   0.028
 4180SOL     OW13438   3.747   4.440   7.003
 4180SOL    HW113439   3.747   4.387   0.061
 4180SOL    HW213440   3.660   4.488   6.994
 4181SOL     OW13441   5.122   6.286   6.024
 4181SOL    HW113442   5.143   6.382   6.044
 4181SOL    HW213443   5.135   6.269   5.927
 4182SOL     OW13444   5.928   5.237   5.782
 4182SOL    HW113445   6.007   5.298   5.787
 4182SOL    HW213446   5.945   5.166   5.714
 4183SOL     OW13447   4.912   2.726   6.794
 4183SOL    HW113448   4.977   2.719   6.869
 4183SOL    HW213449   4.819   2.731   6.831
 4184SOL     OW13450   3.620   5.680   3.523
 4184SOL    HW113451   3.526   5.682   3.490
 4184SOL    HW213452   3.663   5.594   3.497
 4185SOL     OW13453   4.462   4.666   3.197
 4185SOL    HW113454   4.493   4.571   3.194
 4185SOL    HW213455   4.540   4.726   3.215
 4186SOL     OW13456   2.065   4.966   1.055
 4186SOL    HW113457   2.037   5.018   0.974
 4186SOL    HW213458   2.006   4.989   1.132
 4187SOL     OW13459   1.320   3.468   6.069
 4187SOL    HW113460   1.395   3.453   6.133
 4187SOL    HW213461   1.235   3.483   6.119
 4188SOL     OW13462   5.314   0.357   6.016
 4188SOL    HW113463   5.293   0.415   6.094
 4188SOL    HW213464   5.379   0.287   6.042
 4189SOL     OW13465   3.840   5.175   4.027
 4189SOL    HW113466   3.934   5.202   4.005
 4189SOL    HW213467   3.840   5.124   4.113
 4190SOL     OW13468   6.831   5.629   1.978
 4190SOL    HW113469   6.910   5.640   1.918
 4190SOL    HW213470   6.747   5.633   1.923
 4191SOL     OW13471   4.991   2.796   6.276
 4191SOL    HW113472   4.992   2.810   6.375
 4191SOL    HW213473   4.899   2.815   6.241
 4192SOL     OW13474   1.956   3.687   6.362
 4192SOL    HW113475   2.050   3.720   6.366
 4192SOL    HW213476   1.895   3.752   6.408
 4193SOL     OW13477   5.161   6.611   1.315
 4193SOL    HW113478   5.160   6.531   1.375
 4193SOL    HW213479   5.181   6.583   1.222
 4194SOL     OW13480   5.945   0.138   6.875
 4194SOL    HW113481   5.912   0.046   6.850
 4194SOL    HW213482   6.038   0.150   6.842
 4195SOL     OW13483   1.996   6.175   0.633
 4195SOL    HW113484   2.005   6.260   0.684
 4195SOL    HW213485   2.079   6.160   0.578
 4196SOL     OW13486   6.268   3.458   3.081
 4196SOL    HW113487   6.180   3.502   3.062
 4196SOL    HW213488   6.335   3.485   3.011
 4197SOL     OW13489   4.191   0.886   6.698
 4197SOL    HW113490   4.125   0.894   6.773
 4197SOL    HW213491   4.254   0.811   6.718
 4198SOL     OW13492   6.188   2.111   1.583
 4198SOL    HW113493   6.202   2.012   1.597
 4198SOL    HW213494   6.175   2.129   1.485
 4199SOL     OW13495   1.181   3.388   0.325
 4199SOL    HW113496   1.224   3.308   0.367
 4199SOL    HW213497   1.241   3.467   0.336
 4200SOL     OW13498   5.110   2.032   2.827
 4200SOL    HW113499   5.127   2.030   2.925
 4200SOL    HW213500   5.065   2.117   2.802
 4201SOL     OW13501   4.782   0.503   5.299
 4201SOL    HW113502   4.682   0.493   5.295
 4201SOL    HW213503   4.825   0.418   5.268
 4202SOL     OW13504   4.533   3.981   1.349
 4202SOL    HW113505   4.633   3.976   1.347
 4202SOL    HW213506   4.499   3.939   1.433
 4203SOL     OW13507   6.385   3.999   4.425
 4203SOL    HW113508   6.390   4.098   4.407
 4203SOL    HW213509   6.460   3.972   4.485
 4204SOL     OW13510   2.629   4.242   5.967
 4204SOL    HW113511   2.696   4.258   5.895
 4204SOL    HW213512   2.661   4.169   6.027
 4205SOL     OW13513   5.405   5.042   6.374
 4205SOL    HW113514   5.308   5.020   6.358
 4205SOL    HW213515   5.423   5.135   6.342
 4206SOL     OW13516   2.418   2.492   5.093
 4206SOL    HW113517   2.404   2.419   5.026
 4206SOL    HW213518   2.350   2.564   5.079
 4207SOL     OW13519   2.636   2.646   1.397
 4207SOL    HW113520   2.712   2.596   1.355
 4207SOL    HW213521   2.662   2.673   1.490
 4208SOL     OW13522   1.464   2.191   3.179
 4208SOL    HW113523   1.437   2.281   3.214
 4208SOL    HW213524   1.544   2.200   3.120
 4209SOL     OW13525   6.826   5.182   2.797
 4209SOL    HW113526   6.840   5.084   2.808
 4209SOL    HW213527   6.782   5.219   2.879
 4210SOL     OW13528   3.335   5.453   5.486
 4210SOL    HW113529   3.251   5.432   5.536
 4210SOL    HW213530   3.414   5.421   5.538
 4211SOL     OW13531   4.765   3.352   6.231
 4211SOL    HW113532   4.687   3.352   6.169
 4211SOL    HW213533   4.752   3.282   6.302
 4212SOL     OW13534   0.112   2.958   2.705
 4212SOL    HW113535   0.073   3.014   2.778
 4212SOL    HW213536   0.208   2.939   2.725
 4213SOL     OW13537   3.098   1.052   3.941
 4213SOL    HW113538   3.002   1.051   3.972
 4213SOL    HW213539   3.152   0.992   3.999
 4214SOL     OW13540   6.462   6.002   4.105
 4214SOL    HW113541   6.385   6.050   4.147
 4214SOL    HW213542   6.523   5.970   4.177
 4215SOL     OW13543   6.185   6.857   4.621
 4215SOL    HW113544   6.210   6.863   4.718
 4215SOL    HW213545   6.086   6.855   4.612
 4216SOL     OW13546   1.358   5.459   2.497
 4216SOL    HW113547   1.325   5.451   2.591
 4216SOL    HW213548   1.437   5.399   2.485
 4217SOL     OW13549   0.753   0.568   2.930
 4217SOL    HW113550   0.716   0.613   2.849
 4217SOL    HW213551   0.813   0.632   2.979
 4218SOL     OW13552   2.689   0.416   2.088
 4218SOL    HW113553   2.700   0.399   2.186
 4218SOL    HW213554   2.717   0.335   2.037
 4219SOL     OW13555   2.750   4.863   1.884
 4219SOL    HW113556   2.822   4.914   1.932
 4219SOL    HW213557   2.768   4.765   1.893
 4220SOL     OW13558   5.528   1.991   1.039
 4220SOL    HW113559   5.453   1.935   1.004
 4220SOL    HW213560   5.494   2.051   1.112
 4221SOL     OW13561   0.566   6.648   0.852
 4221SOL    HW113562   0.509   6.712   0.800
 4221SOL    HW213563   0.521   6.558   0.853
 4222SOL     OW13564   5.562   3.700   4.376
 4222SOL    HW113565   5.627   3.691   4.301
 4222SOL    HW213566   5.582   3.784   4.427
 4223SOL     OW13567   3.610   4.057   2.601
 4223SOL    HW113568   3.662   4.087   2.521
 4223SOL    HW213569   3.512   4.054   2.579
 4224SOL     OW13570   4.592   4.195   5.304
 4224SOL    HW113571   4.680   4.150   5.316
 4224SOL    HW213572   4.528   4.162   5.374
 4225SOL     OW13573   0.558   1.468   5.940
 4225SOL    HW113574   0.525   1.546   5.887
 4225SOL    HW213575   0.542   1.384   5.888
 4226SOL     OW13576   4.826   5.466   4.084
 4226SOL    HW113577   4.792   5.478   4.177
 4226SOL    HW213578   4.912   5.516   4.073
 4227SOL     OW13579   6.658   5.718   1.035
 4227SOL    HW113580   6.693   5.751   0.948
 4227SOL    HW213581   6.709   5.636   1.062
 4228SOL     OW13582   1.605   5.276   3.729
 4228SOL    HW113583   1.549   5.229   3.797
 4228SOL    HW213584   1.566   5.261   3.638
 4229SOL     OW13585   6.299   6.329   6.016
 4229SOL    HW113586   6.371   6.376   6.067
 4229SOL    HW213587   6.260   6.257   6.073
 4230SOL     OW13588   0.149   2.074   2.377
 4230SOL    HW113589   0.051   2.094   2.377
 4230SOL    HW213590   0.177   2.044   2.286
 4231SOL     OW13591   0.241   0.263   5.894
 4231SOL    HW113592   0.157   0.316   5.908
 4231SOL    HW213593   0.294   0.304   5.820
 4232SOL     OW13594   2.351   4.395   2.281
 4232SOL    HW113595   2.339   4.482   2.233
 4232SOL    HW213596   2.410   4.409   2.360
 4233SOL     OW13597   4.786   5.264   2.551
 4233SOL    HW113598   4.881   5.250   2.524
 4233SOL    HW213599   4.776   5.245   2.648
 4234SOL     OW13600   2.991   5.287   6.288
 4234SOL    HW113601   3.006   5.383   6.264
 4234SOL    HW213602   2.895   5.274   6.315
 4235SOL     OW13603   6.347   5.937   0.561
 4235SOL    HW113604   6.368   5.924   0.464
 4235SOL    HW213605   6.400   6.013   0.597
 4236SOL     OW13606   0.417   5.342   4.203
 4236SOL    HW113607   0.358   5.328   4.283
 4236SOL    HW213608   0.485   5.412   4.224
 4237SOL     OW13609   0.110   4.892   5.031
 4237SOL    HW113610   0.030   4.833   5.048
 4237SOL    HW213611   0.173   4.885   5.109
 4238SOL     OW13612   1.706   5.752   3.595
 4238SOL    HW113613   1.798   5.760   3.557
 4238SOL    HW213614   1.640   5.743   3.520
 4239SOL     OW13615   4.067   1.169   3.456
 4239SOL    HW113616   4.122   1.250   3.438
 4239SOL    HW213617   4.066   1.110   3.375
 4240SOL     OW13618   4.266   0.509   1.281
 4240SOL    HW113619   4.256   0.576   1.355
 4240SOL    HW213620   4.207   0.431   1.298
 4241SOL     OW13621   0.774   4.513   6.354
 4241SOL    HW113622   0.803   4.459   6.275
 4241SOL    HW213623   0.855   4.554   6.397
 4242SOL     OW13624   3.507   1.970   2.503
 4242SOL    HW113625   3.456   1.910   2.565
 4242SOL    HW213626   3.582   2.013   2.553
 4243SOL     OW13627   2.342   2.161   2.700
 4243SOL    HW113628   2.399   2.090   2.742
 4243SOL    HW213629   2.356   2.159   2.601
 4244SOL     OW13630   2.785   2.800   5.401
 4244SOL    HW113631   2.720   2.870   5.431
 4244SOL    HW213632   2.763   2.771   5.308
 4245SOL     OW13633   6.341   0.589   5.430
 4245SOL    HW113634   6.391   0.537   5.499
 4245SOL    HW213635   6.373   0.684   5.430
 4246SOL     OW13636   1.220   5.346   5.828
 4246SOL    HW113637   1.216   5.439   5.866
 4246SOL    HW213638   1.158   5.341   5.749
 4247SOL     OW13639   0.318   4.521   5.270
 4247SOL    HW113640   0.414   4.541   5.289
 4247SOL    HW213641   0.263   4.541   5.350
 4248SOL     OW13642   1.883   3.298   6.783
 4248SOL    HW113643   1.819   3.361   6.740
 4248SOL    HW213644   1.871   3.206   6.744
 4249SOL     OW13645   4.988   3.333   6.076
 4249SOL    HW113646   4.888   3.344   6.068
 4249SOL    HW213647   5.021   3.387   6.154
 4250SOL     OW13648   0.128   4.253   3.907
 4250SOL    HW113649   0.079   4.320   3.852
 4250SOL    HW213650   0.226   4.264   3.894
 4251SOL     OW13651   5.604   4.788   6.125
 4251SOL    HW113652   5.659   4.868   6.104
 4251SOL    HW213653   5.663   4.707   6.127
 4252SOL     OW13654   6.738   4.958   5.829
 4252SOL    HW113655   6.775   4.960   5.921
 4252SOL    HW213656   6.732   4.863   5.798
 4253SOL     OW13657   2.999   0.331   3.772
 4253SOL    HW113658   2.951   0.376   3.696
 4253SOL    HW213659   2.933   0.276   3.824
 4254SOL     OW13660   4.024   3.940   3.733
 4254SOL    HW113661   4.029   3.942   3.633
 4254SOL    HW213662   4.015   4.033   3.768
 4255SOL     OW13663   0.656   1.899   4.548
 4255SOL    HW113664   0.721   1.839   4.500
 4255SOL    HW213665   0.700   1.987   4.567
 4256SOL     OW13666   1.206   0.919   1.175
 4256SOL    HW113667   1.279   0.985   1.189
 4256SOL    HW213668   1.246   0.828   1.159
 4257SOL     OW13669   4.281   2.294   4.839
 4257SOL    HW113670   4.216   2.280   4.764
 4257SOL    HW213671   4.234   2.333   4.918
 4258SOL     OW13672   5.624   6.390   2.231
 4258SOL    HW113673   5.649   6.301   2.269
 4258SOL    HW213674   5.529   6.389   2.201
 4259SOL     OW13675   2.731   2.973   1.662
 4259SOL    HW113676   2.695   2.886   1.694
 4259SOL    HW213677   2.800   2.957   1.591
 4260SOL     OW13678   4.415   5.491   4.992
 4260SOL    HW113679   4.341   5.426   5.008
 4260SOL    HW213680   4.467   5.504   5.076
 4261SOL     OW13681   0.608   1.128   2.170
 4261SOL    HW113682   0.624   1.037   2.132
 4261SOL    HW213683   0.509   1.143   2.179
 4262SOL     OW13684   1.224   6.874   5.020
 4262SOL    HW113685   1.316   6.868   5.059
 4262SOL    HW213686   1.205   6.791   4.967
 4263SOL     OW13687   4.530   5.837   0.091
 4263SOL    HW113688   4.471   5.798   0.161
 4263SOL    HW213689   4.479   5.842   0.004
 4264SOL     OW13690   1.786   0.838   1.433
 4264SOL    HW113691   1.689   0.849   1.412
 4264SOL    HW213692   1.797   0.785   1.517
 4265SOL     OW13693   2.108   1.536   1.084
 4265SOL    HW113694   2.140   1.630   1.076
 4265SOL    HW213695   2.086   1.500   0.993
 4266SOL     OW13696   2.378   5.050   0.139
 4266SOL    HW113697   2.391   5.149   0.132
 4266SOL    HW213698   2.351   5.026   0.232
 4267SOL     OW13699   1.723   3.273   5.157
 4267SOL    HW113700   1.690   3.262   5.063
 4267SOL    HW213701   1.823   3.269   5.158
 4268SOL     OW13702   0.545   1.902   0.947
 4268SOL    HW113703   0.520   1.811   0.915
 4268SOL    HW213704   0.478   1.969   0.912
 4269SOL     OW13705   3.175   3.876   1.612
 4269SOL    HW113706   3.252   3.899   1.552
 4269SOL    HW213707   3.090   3.879   1.560
 4270SOL     OW13708   3.752   3.195   0.431
 4270SOL    HW113709   3.738   3.115   0.373
 4270SOL    HW213710   3.789   3.270   0.376
 4271SOL     OW13711   1.990   0.607   0.535
 4271SOL    HW113712   1.965   0.703   0.546
 4271SOL    HW213713   2.086   0.600   0.508
 4272SOL     OW13714   1.326   4.686   3.847
 4272SOL    HW113715   1.368   4.596   3.865
 4272SOL    HW213716   1.244   4.674   3.792
 4273SOL     OW13717   0.099   6.112   3.782
 4273SOL    HW113718   0.194   6.131   3.807
 4273SOL    HW213719   0.092   6.018   3.748
 4274SOL     OW13720   1.433   0.182   3.459
 4274SOL    HW113721   1.513   0.210   3.513
 4274SOL    HW213722   1.416   0.250   3.388
 4275SOL     OW13723   0.066   0.802   5.798
 4275SOL    HW113724   0.130   0.822   5.724
 4275SOL    HW213725   0.108   0.739   5.863
 4276SOL     OW13726   2.185   3.296   3.372
 4276SOL    HW113727   2.166   3.391   3.395
 4276SOL    HW213728   2.181   3.240   3.455
 4277SOL     OW13729   0.801   6.364   6.086
 4277SOL    HW113730   0.758   6.412   6.009
 4277SOL    HW213731   0.772   6.268   6.086
 4278SOL     OW13732   1.233   6.349   6.416
 4278SOL    HW113733   1.250   6.413   6.341
 4278SOL    HW213734   1.233   6.255   6.381
 4279SOL     OW13735   4.154   5.861   4.183
 4279SOL    HW113736   4.229   5.805   4.219
 4279SOL    HW213737   4.070   5.806   4.181
 4280SOL     OW13738   4.962   3.303   4.310
 4280SOL    HW113739   5.061   3.296   4.299
 4280SOL    HW213740   4.918   3.225   4.266
 4281SOL     OW13741   2.197   4.182   4.603
 4281SOL    HW113742   2.233   4.097   4.642
 4281SOL    HW213743   2.268   4.253   4.605
 4282SOL     OW13744   1.234   0.762   6.700
 4282SOL    HW113745   1.320   0.761   6.649
 4282SOL    HW213746   1.237   0.834   6.769
 4283SOL     OW13747   2.626   1.575   3.996
 4283SOL    HW113748   2.636   1.621   4.084
 4283SOL    HW213749   2.711   1.530   3.971
 4284SOL     OW13750   6.829   2.869   2.872
 4284SOL    HW113751   6.844   2.884   2.775
 4284SOL    HW213752   6.887   2.793   2.903
 4285SOL     OW13753   0.933   6.433   4.162
 4285SOL    HW113754   0.996   6.473   4.096
 4285SOL    HW213755   0.964   6.454   4.255
 4286SOL     OW13756   5.012   5.428   0.644
 4286SOL    HW113757   5.091   5.486   0.623
 4286SOL    HW213758   4.936   5.453   0.585
 4287SOL     OW13759   3.696   6.053   5.923
 4287SOL    HW113760   3.716   6.041   5.825
 4287SOL    HW213761   3.597   6.050   5.937
 4288SOL     OW13762   0.675   6.322   4.387
 4288SOL    HW113763   0.681   6.331   4.288
 4288SOL    HW213764   0.762   6.348   4.429
 4289SOL     OW13765   1.020   4.360   6.723
 4289SOL    HW113766   0.982   4.298   6.791
 4289SOL    HW213767   1.058   4.441   6.769
 4290SOL     OW13768   1.287   1.775   2.629
 4290SOL    HW113769   1.288   1.709   2.555
 4290SOL    HW213770   1.322   1.863   2.596
 4291SOL     OW13771   6.715   3.116   1.831
 4291SOL    HW113772   6.702   3.180   1.906
 4291SOL    HW213773   6.719   3.022   1.866
 4292SOL     OW13774   5.757   5.813   5.353
 4292SOL    HW113775   5.820   5.790   5.279
 4292SOL    HW213776   5.667   5.833   5.316
 4293SOL     OW13777   0.484   2.096   0.706
 4293SOL    HW113778   0.527   2.031   0.643
 4293SOL    HW213779   0.385   2.095   0.693
 4294SOL     OW13780   4.733   2.412   5.301
 4294SOL    HW113781   4.679   2.336   5.335
 4294SOL    HW213782   4.758   2.395   5.205
 4295SOL     OW13783   3.132   4.689   5.632
 4295SOL    HW113784   3.065   4.701   5.705
 4295SOL    HW213785   3.201   4.622   5.661
 4296SOL     OW13786   2.089   1.912   2.507
 4296SOL    HW113787   2.149   1.872   2.438
 4296SOL    HW213788   2.086   2.011   2.496
 4297SOL     OW13789   6.120   0.160   0.135
 4297SOL    HW113790   6.184   0.084   0.122
 4297SOL    HW213791   6.103   0.205   0.047
 4298SOL     OW13792   1.229   4.581   1.812
 4298SOL    HW113793   1.224   4.576   1.912
 4298SOL    HW213794   1.139   4.607   1.776
 4299SOL     OW13795   1.123   5.469   4.363
 4299SOL    HW113796   1.103   5.480   4.460
 4299SOL    HW213797   1.138   5.559   4.322
 4300SOL     OW13798   6.394   0.388   5.612
 4300SOL    HW113799   6.448   0.314   5.571
 4300SOL    HW213800   6.322   0.348   5.669
 4301SOL     OW13801   2.536   0.320   0.568
 4301SOL    HW113802   2.523   0.356   0.661
 4301SOL    HW213803   2.464   0.355   0.508
 4302SOL     OW13804   0.572   0.797   0.035
 4302SOL    HW113805   0.593   0.830   0.127
 4302SOL    HW213806   0.574   0.697   0.034
 4303SOL     OW13807   0.411   4.063   2.538
 4303SOL    HW113808   0.461   4.109   2.464
 4303SOL    HW213809   0.407   3.965   2.519
 4304SOL     OW13810   2.341   3.313   6.343
 4304SOL    HW113811   2.311   3.384   6.407
 4304SOL    HW213812   2.355   3.228   6.394
 4305SOL     OW13813   0.720   1.299   4.903
 4305SOL    HW113814   0.726   1.316   4.805
 4305SOL    HW213815   0.655   1.225   4.920
 4306SOL     OW13816   5.721   5.215   5.972
 4306SOL    HW113817   5.701   5.311   5.989
 4306SOL    HW213818   5.792   5.208   5.902
 4307SOL     OW13819   6.250   3.987   1.388
 4307SOL    HW113820   6.247   3.887   1.388
 4307SOL    HW213821   6.245   4.021   1.293
 4308SOL     OW13822   3.487   0.199   5.500
 4308SOL    HW113823   3.457   0.287   5.535
 4308SOL    HW213824   3.472   0.194   5.401
 4309SOL     OW13825   1.068   0.926   1.416
 4309SOL    HW113826   1.128   0.885   1.485
 4309SOL    HW213827   1.117   0.933   1.329
 4310SOL     OW13828   1.279   6.979   2.771
 4310SOL    HW113829   1.307   0.018   2.841
 4310SOL    HW213830   1.211   7.020   2.711
 4311SOL     OW13831   0.782   5.018   5.193
 4311SOL    HW113832   0.769   4.949   5.122
 4311SOL    HW213833   0.698   5.069   5.207
 4312SOL     OW13834   1.882   5.609   2.184
 4312SOL    HW113835   1.844   5.544   2.250
 4312SOL    HW213836   1.810   5.673   2.155
 4313SOL     OW13837   5.064   1.310   1.055
 4313SOL    HW113838   4.979   1.325   1.107
 4313SOL    HW213839   5.077   1.384   0.990
 4314SOL     OW13840   6.891   2.749   1.267
 4314SOL    HW113841   6.799   2.772   1.301
 4314SOL    HW213842   6.928   2.673   1.321
 4315SOL     OW13843   1.236   1.057   1.729
 4315SOL    HW113844   1.194   1.098   1.810
 4315SOL    HW213845   1.228   1.119   1.651
 4316SOL     OW13846   6.582   1.396   2.608
 4316SOL    HW113847   6.519   1.352   2.545
 4316SOL    HW213848   6.673   1.400   2.567
 4317SOL     OW13849   3.854   0.643   3.252
 4317SOL    HW113850   3.917   0.616   3.179
 4317SOL    HW213851   3.762   0.655   3.215
 4318SOL     OW13852   0.201   2.400   4.848
 4318SOL    HW113853   0.178   2.481   4.901
 4318SOL    HW213854   0.294   2.408   4.812
 4319SOL     OW13855   4.564   3.204   6.531
 4319SOL    HW113856   4.643   3.177   6.475
 4319SOL    HW213857   4.507   3.124   6.548
 4320SOL     OW13858   0.625   6.688   3.463
 4320SOL    HW113859   0.627   6.758   3.392
 4320SOL    HW213860   0.695   6.709   3.532
 4321SOL     OW13861   0.212   0.024   4.150
 4321SOL    HW113862   0.124   7.003   4.144
 4321SOL    HW213863   0.201   0.107   4.205
 4322SOL     OW13864   0.050   0.871   6.963
 4322SOL    HW113865   0.006   0.793   7.007
 4322SOL    HW213866   0.023   0.875   6.867
 4323SOL     OW13867   0.053   2.896   4.551
 4323SOL    HW113868   0.139   2.939   4.526
 4323SOL    HW213869   0.007   2.862   4.469
 4324SOL     OW13870   5.858   2.916   5.678
 4324SOL    HW113871   5.903   2.906   5.767
 4324SOL    HW213872   5.797   2.995   5.680
 4325SOL     OW13873   2.645   2.273   6.482
 4325SOL    HW113874   2.658   2.372   6.493
 4325SOL    HW213875   2.682   2.225   6.562
 4326SOL     OW13876   0.474   2.269   5.410
 4326SOL    HW113877   0.553   2.275   5.472
 4326SOL    HW213878   0.390   2.283   5.462
 4327SOL     OW13879   4.826   0.529   3.164
 4327SOL    HW113880   4.828   0.567   3.256
 4327SOL    HW213881   4.740   0.480   3.149
 4328SOL     OW13882   6.246   5.174   0.870
 4328SOL    HW113883   6.303   5.127   0.937
 4328SOL    HW213884   6.154   5.187   0.908
 4329SOL     OW13885   5.172   1.364   6.350
 4329SOL    HW113886   5.109   1.287   6.338
 4329SOL    HW213887   5.258   1.344   6.302
 4330SOL     OW13888   0.927   0.315   6.288
 4330SOL    HW113889   0.873   0.234   6.313
 4330SOL    HW213890   0.956   0.363   6.371
 4331SOL     OW13891   5.392   2.676   6.267
 4331SOL    HW113892   5.489   2.659   6.248
 4331SOL    HW213893   5.359   2.613   6.336
 4332SOL     OW13894   6.472   4.662   2.159
 4332SOL    HW113895   6.510   4.573   2.133
 4332SOL    HW213896   6.483   4.726   2.083
 4333SOL     OW13897   6.516   2.001   4.931
 4333SOL    HW113898   6.583   1.943   4.884
 4333SOL    HW213899   6.516   2.092   4.888
 4334SOL     OW13900   4.271   6.882   1.737
 4334SOL    HW113901   4.225   6.857   1.652
 4334SOL    HW213902   4.364   6.914   1.717
 4335SOL     OW13903   4.267   4.469   6.392
 4335SOL    HW113904   4.232   4.498   6.481
 4335SOL    HW213905   4.248   4.539   6.323
 4336SOL     OW13906   0.838   0.487   5.603
 4336SOL    HW113907   0.794   0.420   5.664
 4336SOL    HW213908   0.820   0.579   5.636
 4337SOL     OW13909   1.385   5.823   6.234
 4337SOL    HW113910   1.452   5.874   6.180
 4337SOL    HW213911   1.389   5.726   6.209
 4338SOL     OW13912   5.244   6.278   2.989
 4338SOL    HW113913   5.182   6.282   2.910
 4338SOL    HW213914   5.205   6.216   3.058
 4339SOL     OW13915   6.663   1.389   0.411
 4339SOL    HW113916   6.650   1.342   0.323
 4339SOL    HW213917   6.659   1.323   0.485
 4340SOL     OW13918   4.981   3.227   1.391
 4340SOL    HW113919   5.037   3.245   1.310
 4340SOL    HW213920   5.018   3.149   1.440
 4341SOL     OW13921   1.447   3.614   0.587
 4341SOL    HW113922   1.508   3.623   0.666
 4341SOL    HW213923   1.395   3.529   0.596
 4342SOL     OW13924   6.449   2.661   3.201
 4342SOL    HW113925   6.412   2.629   3.115
 4342SOL    HW213926   6.399   2.742   3.231
 4343SOL     OW13927   3.529   3.847   1.474
 4343SOL    HW113928   3.489   3.937   1.453
 4343SOL    HW213929   3.590   3.856   1.553
 4344SOL     OW13930   2.588   3.533   1.723
 4344SOL    HW113931   2.656   3.504   1.790
 4344SOL    HW213932   2.499   3.493   1.747
 4345SOL     OW13933   2.814   0.625   5.911
 4345SOL    HW113934   2.726   0.637   5.958
 4345SOL    HW213935   2.819   0.532   5.873
 4346SOL     OW13936   6.862   3.621   1.764
 4346SOL    HW113937   6.941   3.614   1.703
 4346SOL    HW213938   6.861   3.542   1.825
 4347SOL     OW13939   4.975   6.279   2.391
 4347SOL    HW113940   4.956   6.321   2.302
 4347SOL    HW213941   5.069   6.244   2.392
 4348SOL     OW13942   0.810   2.948   0.359
 4348SOL    HW113943   0.864   3.032   0.363
 4348SOL    HW213944   0.844   2.885   0.429
 4349SOL     OW13945   6.078   0.973   0.797
 4349SOL    HW113946   6.093   0.902   0.729
 4349SOL    HW213947   6.084   0.932   0.889
 4350SOL     OW13948   3.451   0.437   3.526
 4350SOL    HW113949   3.377   0.483   3.476
 4350SOL    HW213950   3.458   0.475   3.618
 4351SOL     OW13951   3.819   0.126   6.943
 4351SOL    HW113952   3.784   0.044   6.989
 4351SOL    HW213953   3.758   0.150   6.868
 4352SOL     OW13954   6.114   1.585   1.121
 4352SOL    HW113955   6.106   1.662   1.058
 4352SOL    HW213956   6.034   1.526   1.111
 4353SOL     OW13957   3.314   5.793   0.939
 4353SOL    HW113958   3.292   5.890   0.944
 4353SOL    HW213959   3.291   5.750   1.027
 4354SOL     OW13960   2.657   1.548   1.667
 4354SOL    HW113961   2.591   1.616   1.636
 4354SOL    HW213962   2.747   1.590   1.677
 4355SOL     OW13963   4.609   0.279   6.655
 4355SOL    HW113964   4.583   0.353   6.592
 4355SOL    HW213965   4.553   0.284   6.738
 4356SOL     OW13966   4.072   3.610   1.186
 4356SOL    HW113967   4.153   3.557   1.162
 4356SOL    HW213968   4.017   3.558   1.252
 4357SOL     OW13969   5.418   0.751   0.695
 4357SOL    HW113970   5.501   0.784   0.650
 4357SOL    HW213971   5.349   0.824   0.695
 4358SOL     OW13972   6.335   0.341   0.454
 4358SOL    HW113973   6.418   0.392   0.478
 4358SOL    HW213974   6.357   0.244   0.448
 4359SOL     OW13975   0.109   4.043   4.408
 4359SOL    HW113976   0.146   3.954   4.436
 4359SOL    HW213977   0.162   4.078   4.330
 4360SOL     OW13978   2.872   3.226   1.393
 4360SOL    HW113979   2.907   3.250   1.302
 4360SOL    HW213980   2.947   3.188   1.448
 4361SOL     OW13981   4.884   1.883   3.041
 4361SOL    HW113982   4.847   1.793   3.064
 4361SOL    HW213983   4.984   1.880   3.044
 4362SOL     OW13984   5.130   4.132   2.903
 4362SOL    HW113985   5.047   4.116   2.850
 4362SOL    HW213986   5.209   4.135   2.841
 4363SOL     OW13987   5.225   6.880   6.669
 4363SOL    HW113988   5.243   6.876   6.571
 4363SOL    HW213989   5.234   6.974   6.701
 4364SOL     OW13990   4.340   4.132   5.452
 4364SOL    HW113991   4.282   4.055   5.477
 4364SOL    HW213992   4.284   4.203   5.409
 4365SOL     OW13993   4.666   2.795   0.208
 4365SOL    HW113994   4.729   2.717   0.209
 4365SOL    HW213995   4.578   2.765   0.171
 4366SOL     OW13996   4.831   4.369   0.598
 4366SOL    HW113997   4.768   4.304   0.641
 4366SOL    HW213998   4.902   4.396   0.664
 4367SOL     OW13999   5.928   6.655   1.093
 4367SOL    HW114000   5.850   6.709   1.061
 4367SOL    HW214001   5.906   6.558   1.086
 4368SOL     OW14002   3.944   5.979   1.965
 4368SOL    HW114003   4.022   5.918   1.950
 4368SOL    HW214004   3.899   5.998   1.878
 4369SOL     OW14005   2.963   5.545   1.567
 4369SOL    HW114006   2.889   5.481   1.548
 4369SOL    HW214007   3.029   5.503   1.629
 4370SOL     OW14008   5.113   3.949   1.366
 4370SOL    HW114009   5.187   4.006   1.331
 4370SOL    HW214010   5.032   3.961   1.309
 4371SOL     OW14011   1.431   1.619   2.088
 4371SOL    HW114012   1.361   1.574   2.032
 4371SOL    HW214013   1.391   1.698   2.134
 4372SOL     OW14014   4.610   0.123   3.618
 4372SOL    HW114015   4.705   0.116   3.590
 4372SOL    HW214016   4.603   0.185   3.696
 4373SOL     OW14017   1.286   1.845   5.424
 4373SOL    HW114018   1.369   1.857   5.478
 4373SOL    HW214019   1.234   1.930   5.424
 4374SOL     OW14020   3.939   1.444   0.166
 4374SOL    HW114021   3.909   1.467   0.073
 4374SOL    HW214022   4.035   1.417   0.164
 4375SOL     OW14023   3.699   5.194   4.722
 4375SOL    HW114024   3.740   5.124   4.780
 4375SOL    HW214025   3.733   5.284   4.749
 4376SOL     OW14026   0.034   2.378   2.883
 4376SOL    HW114027   6.983   2.315   2.879
 4376SOL    HW214028   0.070   2.391   2.790
 4377SOL     OW14029   0.572   5.086   5.843
 4377SOL    HW114030   0.605   5.128   5.758
 4377SOL    HW214031   0.573   4.987   5.834
 4378SOL     OW14032   3.402   1.484   4.057
 4378SOL    HW114033   3.370   1.426   4.132
 4378SOL    HW214034   3.474   1.545   4.089
 4379SOL     OW14035   3.426   1.551   6.088
 4379SOL    HW114036   3.432   1.485   6.163
 4379SOL    HW214037   3.467   1.638   6.117
 4380SOL     OW14038   6.337   2.315   3.648
 4380SOL    HW114039   6.335   2.394   3.586
 4380SOL    HW214040   6.431   2.280   3.655
 4381SOL     OW14041   1.087   4.586   6.876
 4381SOL    HW114042   1.074   4.568   6.974
 4381SOL    HW214043   1.030   4.663   6.849
 4382SOL     OW14044   1.429   4.855   4.927
 4382SOL    HW114045   1.366   4.928   4.953
 4382SOL    HW214046   1.378   4.769   4.918
 4383SOL     OW14047   0.448   4.256   0.185
 4383SOL    HW114048   0.488   4.230   0.272
 4383SOL    HW214049   0.349   4.238   0.187
 4384SOL     OW14050   4.503   0.131   4.387
 4384SOL    HW114051   4.410   0.133   4.352
 4384SOL    HW214052   4.506   0.082   4.474
 4385SOL     OW14053   5.074   0.265   5.922
 4385SOL    HW114054   5.001   0.327   5.952
 4385SOL    HW214055   5.161   0.295   5.961
 4386SOL     OW14056   1.842   2.914   3.607
 4386SOL    HW114057   1.817   2.860   3.526
 4386SOL    HW214058   1.837   2.856   3.688
 4387SOL     OW14059   4.300   2.197   1.024
 4387SOL    HW114060   4.252   2.285   1.020
 4387SOL    HW214061   4.363   2.190   0.947
 4388SOL     OW14062   6.123   2.832   0.369
 4388SOL    HW114063   6.176   2.915   0.387
 4388SOL    HW214064   6.158   2.788   0.286
 4389SOL     OW14065   2.305   1.504   6.385
 4389SOL    HW114066   2.232   1.549   6.437
 4389SOL    HW214067   2.264   1.448   6.313
 4390SOL     OW14068   0.200   1.150   1.554
 4390SOL    HW114069   0.261   1.077   1.525
 4390SOL    HW214070   0.139   1.116   1.626
 4391SOL     OW14071   6.739   6.428   2.493
 4391SOL    HW114072   6.777   6.340   2.463
 4391SOL    HW214073   6.764   6.499   2.427
 4392SOL     OW14074   2.017   2.493   6.520
 4392SOL    HW114075   2.057   2.504   6.611
 4392SOL    HW214076   1.926   2.536   6.519
 4393SOL     OW14077   6.184   0.008   1.726
 4393SOL    HW114078   6.089   0.032   1.743
 4393SOL    HW214079   6.238   0.022   1.809
 4394SOL     OW14080   6.444   1.430   2.991
 4394SOL    HW114081   6.535   1.425   3.033
 4394SOL    HW214082   6.375   1.433   3.064
 4395SOL     OW14083   2.278   3.281   0.932
 4395SOL    HW114084   2.315   3.272   0.840
 4395SOL    HW214085   2.218   3.361   0.936
 4396SOL     OW14086   2.189   1.481   2.490
 4396SOL    HW114087   2.094   1.507   2.505
 4396SOL    HW214088   2.193   1.406   2.424
 4397SOL     OW14089   3.969   0.840   4.558
 4397SOL    HW114090   3.987   0.888   4.472
 4397SOL    HW214091   4.055   0.803   4.594
 4398SOL     OW14092   2.698   2.917   5.939
 4398SOL    HW114093   2.655   3.003   5.964
 4398SOL    HW214094   2.770   2.895   6.006
 4399SOL     OW14095   3.127   5.931   2.029
 4399SOL    HW114096   3.205   5.959   2.086
 4399SOL    HW214097   3.159   5.879   1.950
 4400SOL     OW14098   1.492   6.058   5.157
 4400SOL    HW114099   1.571   6.105   5.116
 4400SOL    HW214100   1.520   5.968   5.189
 4401SOL     OW14101   3.001   0.326   5.683
 4401SOL    HW114102   2.922   0.265   5.686
 4401SOL    HW214103   2.981   0.403   5.622
 4402SOL     OW14104   0.340   0.887   2.037
 4402SOL    HW114105   0.282   0.809   2.061
 4402SOL    HW214106   0.288   0.972   2.046
 4403SOL     OW14107   6.639   6.497   2.872
 4403SOL    HW114108   6.698   6.510   2.792
 4403SOL    HW214109   6.678   6.426   2.931
 4404SOL     OW14110   0.806   5.969   5.029
 4404SOL    HW114111   0.790   5.871   5.045
 4404SOL    HW214112   0.789   5.991   4.933
 4405SOL     OW14113   1.023   5.358   3.256
 4405SOL    HW114114   0.932   5.375   3.218
 4405SOL    HW214115   1.091   5.358   3.182
 4406SOL     OW14116   6.005   4.446   2.317
 4406SOL    HW114117   6.078   4.488   2.264
 4406SOL    HW214118   6.044   4.382   2.383
 4407SOL     OW14119   4.948   0.520   1.220
 4407SOL    HW114120   4.921   0.516   1.123
 4407SOL    HW214121   4.981   0.611   1.241
 4408SOL     OW14122   4.917   0.238   0.072
 4408SOL    HW114123   4.882   0.303   0.004
 4408SOL    HW214124   4.993   0.187   0.034
 4409SOL     OW14125   3.764   0.628   3.877
 4409SOL    HW114126   3.796   0.718   3.847
 4409SOL    HW214127   3.804   0.558   3.818
 4410SOL     OW14128   1.594   0.591   0.656
 4410SOL    HW114129   1.631   0.681   0.677
 4410SOL    HW214130   1.554   0.552   0.739
 4411SOL     OW14131   4.725   4.249   4.679
 4411SOL    HW114132   4.716   4.192   4.597
 4411SOL    HW214133   4.773   4.198   4.750
 4412SOL     OW14134   4.962   6.686   0.826
 4412SOL    HW114135   4.899   6.679   0.904
 4412SOL    HW214136   4.991   6.781   0.815
 4413SOL     OW14137   5.283   6.514   4.795
 4413SOL    HW114138   5.321   6.594   4.843
 4413SOL    HW214139   5.354   6.445   4.783
 4414SOL     OW14140   5.910   3.960   1.353
 4414SOL    HW114141   5.821   3.918   1.336
 4414SOL    HW214142   5.913   4.051   1.311
 4415SOL     OW14143   0.721   4.281   1.371
 4415SOL    HW114144   0.715   4.184   1.395
 4415SOL    HW214145   0.660   4.301   1.294
 4416SOL     OW14146   4.919   3.550   4.233
 4416SOL    HW114147   4.913   3.593   4.142
 4416SOL    HW214148   4.896   3.453   4.225
 4417SOL     OW14149   0.220   3.785   1.747
 4417SOL    HW114150   0.277   3.858   1.784
 4417SOL    HW214151   0.129   3.821   1.727
 4418SOL     OW14152   6.456   2.595   5.030
 4418SOL    HW114153   6.371   2.624   5.073
 4418SOL    HW214154   6.493   2.669   4.975
 4419SOL     OW14155   6.138   6.268   6.413
 4419SOL    HW114156   6.124   6.216   6.329
 4419SOL    HW214157   6.183   6.354   6.391
 4420SOL     OW14158   3.961   0.332   0.354
 4420SOL    HW114159   3.977   0.316   0.451
 4420SOL    HW214160   4.048   0.342   0.306
 4421SOL     OW14161   2.524   2.067   0.222
 4421SOL    HW114162   2.596   2.060   0.291
 4421SOL    HW214163   2.436   2.045   0.264
 4422SOL     OW14164   0.518   2.630   6.594
 4422SOL    HW114165   0.458   2.568   6.644
 4422SOL    HW214166   0.612   2.620   6.628
 4423SOL     OW14167   5.978   4.221   3.926
 4423SOL    HW114168   6.001   4.238   3.830
 4423SOL    HW214169   6.040   4.272   3.985
 4424SOL     OW14170   3.551   5.111   2.119
 4424SOL    HW114171   3.513   5.203   2.104
 4424SOL    HW214172   3.491   5.060   2.181
 4425SOL     OW14173   0.405   5.990   0.437
 4425SOL    HW114174   0.311   6.018   0.456
 4425SOL    HW214175   0.430   5.914   0.497
 4426SOL     OW14176   1.174   0.763   4.473
 4426SOL    HW114177   1.183   0.679   4.527
 4426SOL    HW214178   1.182   0.742   4.376
 4427SOL     OW14179   3.914   6.160   0.048
 4427SOL    HW114180   3.866   6.123   0.127
 4427SOL    HW214181   3.970   6.238   0.076
 4428SOL     OW14182   6.465   5.756   2.705
 4428SOL    HW114183   6.465   5.753   2.605
 4428SOL    HW214184   6.445   5.849   2.736
 4429SOL     OW14185   1.970   5.368   2.608
 4429SOL    HW114186   1.895   5.409   2.660
 4429SOL    HW214187   2.057   5.395   2.648
 4430SOL     OW14188   5.376   4.241   4.252
 4430SOL    HW114189   5.324   4.314   4.207
 4430SOL    HW214190   5.390   4.166   4.188
 4431SOL     OW14191   5.151   0.399   4.560
 4431SOL    HW114192   5.140   0.402   4.659
 4431SOL    HW214193   5.063   0.411   4.515
 4432SOL     OW14194   2.040   3.431   6.437
 4432SOL    HW114195   2.003   3.516   6.400
 4432SOL    HW214196   2.005   3.353   6.385
 4433SOL     OW14197   0.648   0.372   5.155
 4433SOL    HW114198   0.655   0.378   5.254
 4433SOL    HW214199   0.660   0.277   5.127
 4434SOL     OW14200   6.639   0.391   2.583
 4434SOL    HW114201   6.543   0.361   2.577
 4434SOL    HW214202   6.661   0.445   2.501
 4435SOL     OW14203   1.814   4.629   1.887
 4435SOL    HW114204   1.867   4.563   1.833
 4435SOL    HW214205   1.825   4.720   1.849
 4436SOL     OW14206   5.317   2.027   1.589
 4436SOL    HW114207   5.377   1.988   1.519
 4436SOL    HW214208   5.246   1.961   1.613
 4437SOL     OW14209   0.443   5.819   0.122
 4437SOL    HW114210   0.496   5.766   0.188
 4437SOL    HW214211   0.365   5.765   0.090
 4438SOL     OW14212   3.491   2.030   4.727
 4438SOL    HW114213   3.516   2.036   4.631
 4438SOL    HW214214   3.396   2.061   4.739
 4439SOL     OW14215   2.896   5.274   2.250
 4439SOL    HW114216   2.939   5.316   2.170
 4439SOL    HW214217   2.806   5.238   2.225
 4440SOL     OW14218   2.186   5.285   6.057
 4440SOL    HW114219   2.100   5.237   6.074
 4440SOL    HW214220   2.230   5.246   5.976
 4441SOL     OW14221   6.335   1.417   0.843
 4441SOL    HW114222   6.363   1.439   0.937
 4441SOL    HW214223   6.312   1.320   0.838
 4442SOL     OW14224   1.599   4.270   0.966
 4442SOL    HW114225   1.520   4.217   0.998
 4442SOL    HW214226   1.676   4.256   1.028
 4443SOL     OW14227   1.238   6.115   5.480
 4443SOL    HW114228   1.247   6.139   5.383
 4443SOL    HW214229   1.142   6.106   5.504
 4444SOL     OW14230   4.453   6.713   0.411
 4444SOL    HW114231   4.406   6.691   0.326
 4444SOL    HW214232   4.401   6.782   0.462
 4445SOL     OW14233   1.901   3.251   0.769
 4445SOL    HW114234   1.877   3.348   0.778
 4445SOL    HW214235   1.899   3.208   0.860
 4446SOL     OW14236   5.833   2.188   1.490
 4446SOL    HW114237   5.834   2.286   1.510
 4446SOL    HW214238   5.753   2.147   1.533
 4447SOL     OW14239   4.827   5.244   5.979
 4447SOL    HW114240   4.849   5.166   6.039
 4447SOL    HW214241   4.734   5.234   5.944
 4448SOL     OW14242   2.113   6.490   2.864
 4448SOL    HW114243   2.038   6.555   2.878
 4448SOL    HW214244   2.168   6.520   2.786
 4449SOL     OW14245   3.438   2.041   5.391
 4449SOL    HW114246   3.507   1.993   5.336
 4449SOL    HW214247   3.407   1.981   5.464
 4450SOL     OW14248   2.698   5.447   0.715
 4450SOL    HW114249   2.694   5.368   0.776
 4450SOL    HW214250   2.637   5.519   0.751
 4451SOL     OW14251   4.834   6.044   2.451
 4451SOL    HW114252   4.897   6.121   2.445
 4451SOL    HW214253   4.869   5.977   2.517
 4452SOL     OW14254   5.056   4.733   3.683
 4452SOL    HW114255   5.084   4.829   3.672
 4452SOL    HW214256   5.082   4.701   3.774
 4453SOL     OW14257   0.228   5.573   1.477
 4453SOL    HW114258   0.141   5.617   1.456
 4453SOL    HW214259   0.217   5.516   1.558
 4454SOL     OW14260   0.099   0.757   0.194
 4454SOL    HW114261   0.016   0.720   0.152
 4454SOL    HW214262   0.178   0.702   0.165
 4455SOL     OW14263   1.155   0.799   4.202
 4455SOL    HW114264   1.119   0.719   4.155
 4455SOL    HW214265   1.254   0.804   4.187
 4456SOL     OW14266   1.747   5.897   4.604
 4456SOL    HW114267   1.673   5.853   4.654
 4456SOL    HW214268   1.709   5.961   4.538
 4457SOL     OW14269   1.646   2.186   4.578
 4457SOL    HW114270   1.704   2.119   4.624
 4457SOL    HW214271   1.685   2.209   4.489
 4458SOL     OW14272   1.905   2.220   5.486
 4458SOL    HW114273   1.879   2.280   5.410
 4458SOL    HW214274   1.822   2.179   5.525
 4459SOL     OW14275   1.763   4.426   3.555
 4459SOL    HW114276   1.849   4.375   3.560
 4459SOL    HW214277   1.755   4.486   3.634
 4460SOL     OW14278   6.924   3.606   5.043
 4460SOL    HW114279   7.021   3.626   5.027
 4460SOL    HW214280   6.871   3.629   4.961
 4461SOL     OW14281   2.511   7.015   0.762
 4461SOL    HW114282   2.528   6.954   0.840
 4461SOL    HW214283   2.576   6.994   0.689
 4462SOL     OW14284   0.371   4.348   2.790
 4462SOL    HW114285   0.447   4.320   2.848
 4462SOL    HW214286   0.386   4.316   2.696
 4463SOL     OW14287   5.470   1.926   6.738
 4463SOL    HW114288   5.461   2.010   6.792
 4463SOL    HW214289   5.437   1.848   6.791
 4464SOL     OW14290   0.636   3.136   1.211
 4464SOL    HW114291   0.610   3.228   1.183
 4464SOL    HW214292   0.562   3.072   1.192
 4465SOL     OW14293   4.557   4.561   0.740
 4465SOL    HW114294   4.626   4.628   0.713
 4465SOL    HW214295   4.489   4.551   0.667
 4466SOL     OW14296   0.654   2.935   2.267
 4466SOL    HW114297   0.744   2.975   2.283
 4466SOL    HW214298   0.646   2.850   2.318
 4467SOL     OW14299   5.094   4.646   1.545
 4467SOL    HW114300   5.127   4.738   1.567
 4467SOL    HW214301   5.000   4.635   1.578
 4468SOL     OW14302   1.948   3.445   0.392
 4468SOL    HW114303   1.881   3.492   0.449
 4468SOL    HW214304   2.034   3.496   0.394
 4469SOL     OW14305   1.035   6.509   2.355
 4469SOL    HW114306   1.101   6.573   2.317
 4469SOL    HW214307   1.041   6.421   2.307
 4470SOL     OW14308   0.442   0.004   3.198
 4470SOL    HW114309   0.492   0.041   3.120
 4470SOL    HW214310   0.506   6.983   3.258
 4471SOL     OW14311   1.564   0.432   6.465
 4471SOL    HW114312   1.520   0.410   6.378
 4471SOL    HW214313   1.503   0.406   6.540
 4472SOL     OW14314   2.561   3.341   1.111
 4472SOL    HW114315   2.638   3.382   1.062
 4472SOL    HW214316   2.522   3.267   1.057
 4473SOL     OW14317   1.119   3.068   5.592
 4473SOL    HW114318   1.184   3.091   5.665
 4473SOL    HW214319   1.169   3.047   5.508
 4474SOL     OW14320   1.568   6.449   1.708
 4474SOL    HW114321   1.541   6.544   1.722
 4474SOL    HW214322   1.524   6.412   1.627
 4475SOL     OW14323   1.399   3.296   0.854
 4475SOL    HW114324   1.347   3.309   0.938
 4475SOL    HW214325   1.480   3.240   0.873
 4476SOL     OW14326   4.520   0.707   3.423
 4476SOL    HW114327   4.554   0.752   3.341
 4476SOL    HW214328   4.592   0.703   3.492
 4477SOL     OW14329   6.456   1.408   4.972
 4477SOL    HW114330   6.535   1.458   4.935
 4477SOL    HW214331   6.479   1.311   4.979
 4478SOL     OW14332   0.823   0.443   2.418
 4478SOL    HW114333   0.905   0.499   2.419
 4478SOL    HW214334   0.795   0.427   2.323
 4479SOL     OW14335   3.051   3.622   0.160
 4479SOL    HW114336   3.144   3.602   0.193
 4479SOL    HW214337   2.994   3.648   0.238
 4480SOL     OW14338   6.991   1.127   3.522
 4480SOL    HW114339   6.907   1.139   3.470
 4480SOL    HW214340   7.015   1.213   3.567
 4481SOL     OW14341   2.035   4.275   6.326
 4481SOL    HW114342   1.957   4.312   6.377
 4481SOL    HW214343   2.120   4.309   6.366
 4482SOL     OW14344   2.837   6.906   1.508
 4482SOL    HW114345   2.923   6.858   1.525
 4482SOL    HW214346   2.793   6.927   1.595
 4483SOL     OW14347   1.590   2.484   1.804
 4483SOL    HW114348   1.669   2.495   1.743
 4483SOL    HW214349   1.520   2.429   1.758
 4484SOL     OW14350   4.332   0.168   0.637
 4484SOL    HW114351   4.323   0.267   0.628
 4484SOL    HW214352   4.381   0.132   0.558
 4485SOL     OW14353   0.454   2.283   5.704
 4485SOL    HW114354   0.358   2.256   5.702
 4485SOL    HW214355   0.462   2.382   5.692
 4486SOL     OW14356   5.329   5.127   3.630
 4486SOL    HW114357   5.246   5.084   3.665
 4486SOL    HW214358   5.401   5.120   3.699
 4487SOL     OW14359   0.258   3.706   7.014
 4487SOL    HW114360   0.235   3.725   6.919
 4487SOL    HW214361   0.239   3.786   0.042
 4488SOL     OW14362   5.560   4.856   3.354
 4488SOL    HW114363   5.464   4.877   3.373
 4488SOL    HW214364   5.599   4.807   3.432
 4489SOL     OW14365   3.165   6.161   5.814
 4489SOL    HW114366   3.155   6.155   5.914
 4489SOL    HW214367   3.144   6.254   5.784
 4490SOL     OW14368   4.695   1.769   1.759
 4490SOL    HW114369   4.731   1.862   1.762
 4490SOL    HW214370   4.758   1.706   1.804
 4491SOL     OW14371   0.246   4.808   3.007
 4491SOL    HW114372   0.189   4.742   3.054
 4491SOL    HW214373   0.296   4.763   2.933
 4492SOL     OW14374   6.566   0.876   1.757
 4492SOL    HW114375   6.589   0.785   1.722
 4492SOL    HW214376   6.570   0.942   1.682
 4493SOL     OW14377   5.569   0.930   5.904
 4493SOL    HW114378   5.512   0.849   5.911
 4493SOL    HW214379   5.657   0.906   5.864
 4494SOL     OW14380   0.439   1.479   2.426
 4494SOL    HW114381   0.520   1.536   2.442
 4494SOL    HW214382   0.373   1.529   2.370
 4495SOL     OW14383   4.048   6.256   1.492
 4495SOL    HW114384   4.025   6.218   1.402
 4495SOL    HW214385   3.970   6.247   1.553
 4496SOL     OW14386   2.340   5.156   5.398
 4496SOL    HW114387   2.253   5.169   5.447
 4496SOL    HW214388   2.381   5.070   5.427
 4497SOL     OW14389   5.674   6.253   5.006
 4497SOL    HW114390   5.767   6.246   4.969
 4497SOL    HW214391   5.625   6.327   4.960
 4498SOL     OW14392   1.954   5.442   3.320
 4498SOL    HW114393   1.908   5.443   3.409
 4498SOL    HW214394   1.990   5.533   3.300
 4499SOL     OW14395   5.062   2.131   2.233
 4499SOL    HW114396   4.998   2.202   2.202
 4499SOL    HW214397   5.153   2.151   2.198
 4500SOL     OW14398   3.497   6.075   0.355
 4500SOL    HW114399   3.474   6.167   0.386
 4500SOL    HW214400   3.505   6.014   0.433
 4501SOL     OW14401   5.395   0.951   3.041
 4501SOL    HW114402   5.343   0.875   3.080
 4501SOL    HW214403   5.389   1.030   3.102
 4502SOL     OW14404   0.656   3.345   0.416
 4502SOL    HW114405   0.740   3.398   0.405
 4502SOL    HW214406   0.579   3.407   0.432
 4503SOL     OW14407   3.163   1.262   3.138
 4503SOL    HW114408   3.156   1.256   3.238
 4503SOL    HW214409   3.076   1.295   3.101
 4504SOL     OW14410   0.730   3.318   3.859
 4504SOL    HW114411   0.776   3.344   3.944
 4504SOL    HW214412   0.796   3.313   3.785
 4505SOL     OW14413   6.336   3.510   4.094
 4505SOL    HW114414   6.380   3.513   4.004
 4505SOL    HW214415   6.241   3.541   4.087
 4506SOL     OW14416   4.080   4.161   0.120
 4506SOL    HW114417   4.012   4.088   0.126
 4506SOL    HW214418   4.047   4.233   0.059
 4507SOL     OW14419   5.478   2.159   3.068
 4507SOL    HW114420   5.515   2.248   3.093
 4507SOL    HW214421   5.380   2.156   3.090
 4508SOL     OW14422   6.812   4.414   1.017
 4508SOL    HW114423   6.753   4.333   1.019
 4508SOL    HW214424   6.756   4.496   1.033
 4509SOL     OW14425   4.698   1.417   2.409
 4509SOL    HW114426   4.667   1.390   2.318
 4509SOL    HW214427   4.642   1.493   2.442
 4510SOL     OW14428   4.828   1.917   3.392
 4510SOL    HW114429   4.785   1.969   3.319
 4510SOL    HW214430   4.897   1.974   3.437
 4511SOL     OW14431   0.720   3.787   0.239
 4511SOL    HW114432   0.626   3.755   0.247
 4511SOL    HW214433   0.721   3.882   0.208
 4512SOL     OW14434   2.752   3.841   6.514
 4512SOL    HW114435   2.754   3.760   6.455
 4512SOL    HW214436   2.836   3.843   6.569
 4513SOL     OW14437   0.285   2.377   0.653
 4513SOL    HW114438   0.217   2.350   0.584
 4513SOL    HW214439   0.364   2.418   0.607
 4514SOL     OW14440   4.082   5.558   7.002
 4514SOL    HW114441   4.110   5.598   6.914
 4514SOL    HW214442   3.994   5.511   6.991
 4515SOL     OW14443   4.828   6.542   5.928
 4515SOL    HW114444   4.815   6.533   5.829
 4515SOL    HW214445   4.743   6.522   5.975
 4516SOL     OW14446   3.544   1.797   4.889
 4516SOL    HW114447   3.498   1.708   4.877
 4516SOL    HW214448   3.532   1.852   4.807
 4517SOL     OW14449   3.578   0.265   3.830
 4517SOL    HW114450   3.665   0.241   3.872
 4517SOL    HW214451   3.594   0.295   3.736
 4518SOL     OW14452   6.924   6.050   0.584
 4518SOL    HW114453   6.913   6.104   0.667
 4518SOL    HW214454   6.844   5.991   0.571
 4519SOL     OW14455   5.374   6.424   6.016
 4519SOL    HW114456   5.384   6.325   6.025
 4519SOL    HW214457   5.411   6.469   6.097
 4520SOL     OW14458   4.973   5.190   5.215
 4520SOL    HW114459   4.945   5.110   5.163
 4520SOL    HW214460   4.980   5.166   5.312
 4521SOL     OW14461   5.152   2.527   3.937
 4521SOL    HW114462   5.111   2.602   3.885
 4521SOL    HW214463   5.087   2.451   3.943
 4522SOL     OW14464   5.700   4.292   3.909
 4522SOL    HW114465   5.665   4.316   4.000
 4522SOL    HW214466   5.795   4.263   3.917
 4523SOL     OW14467   1.114   2.531   0.295
 4523SOL    HW114468   1.109   2.623   0.334
 4523SOL    HW214469   1.185   2.479   0.343
 4524SOL     OW14470   1.838   3.791   1.629
 4524SOL    HW114471   1.782   3.868   1.660
 4524SOL    HW214472   1.926   3.826   1.596
 4525SOL     OW14473   3.425   1.885   5.996
 4525SOL    HW114474   3.325   1.881   5.998
 4525SOL    HW214475   3.455   1.975   5.963
 4526SOL     OW14476   0.983   6.938   5.167
 4526SOL    HW114477   1.048   6.931   5.091
 4526SOL    HW214478   0.952   0.005   5.176
 4527SOL     OW14479   1.432   2.507   2.958
 4527SOL    HW114480   1.368   2.461   3.020
 4527SOL    HW214481   1.439   2.603   2.983
 4528SOL     OW14482   5.045   1.900   4.127
 4528SOL    HW114483   4.954   1.898   4.169
 4528SOL    HW214484   5.051   1.979   4.066
 4529SOL     OW14485   1.011   2.606   2.975
 4529SOL    HW114486   0.911   2.609   2.972
 4529SOL    HW214487   1.046   2.697   2.997
 4530SOL     OW14488   4.681   4.495   6.508
 4530SOL    HW114489   4.597   4.542   6.480
 4530SOL    HW214490   4.731   4.551   6.574
 4531SOL     OW14491   1.301   6.248   5.245
 4531SOL    HW114492   1.368   6.195   5.192
 4531SOL    HW214493   1.315   6.345   5.228
 4532SOL     OW14494   5.863   0.568   2.182
 4532SOL    HW114495   5.843   0.664   2.201
 4532SOL    HW214496   5.880   0.556   2.084
 4533SOL     OW14497   2.856   6.243   0.960
 4533SOL    HW114498   2.830   6.151   0.988
 4533SOL    HW214499   2.890   6.241   0.866
 4534SOL     OW14500   6.240   1.768   5.191
 4534SOL    HW114501   6.325   1.716   5.180
 4534SOL    HW214502   6.207   1.757   5.285
 4535SOL     OW14503   2.000   6.685   0.736
 4535SOL    HW114504   2.090   6.710   0.769
 4535SOL    HW214505   1.966   6.755   0.673
 4536SOL     OW14506   3.991   0.632   5.602
 4536SOL    HW114507   3.931   0.555   5.579
 4536SOL    HW214508   3.965   0.712   5.547
 4537SOL     OW14509   3.745   3.642   3.551
 4537SOL    HW114510   3.783   3.642   3.644
 4537SOL    HW214511   3.666   3.703   3.548
 4538SOL     OW14512   1.824   2.706   0.336
 4538SOL    HW114513   1.821   2.625   0.395
 4538SOL    HW214514   1.783   2.783   0.384
 4539SOL     OW14515   0.548   4.476   5.070
 4539SOL    HW114516   0.608   4.421   5.012
 4539SOL    HW214517   0.497   4.415   5.131
 4540SOL     OW14518   1.406   0.994   6.644
 4540SOL    HW114519   1.454   0.915   6.606
 4540SOL    HW214520   1.342   1.029   6.577
 4541SOL     OW14521   3.953   2.807   0.663
 4541SOL    HW114522   3.970   2.772   0.571
 4541SOL    HW214523   3.872   2.763   0.701
 4542SOL     OW14524   6.666   2.417   0.123
 4542SOL    HW114525   6.646   2.333   0.072
 4542SOL    HW214526   6.690   2.490   0.060
 4543SOL     OW14527   4.381   1.344   0.364
 4543SOL    HW114528   4.387   1.245   0.348
 4543SOL    HW214529   4.373   1.361   0.462
 4544SOL     OW14530   4.596   6.100   6.805
 4544SOL    HW114531   4.601   6.131   6.900
 4544SOL    HW214532   4.583   6.180   6.746
 4545SOL     OW14533   3.027   3.146   6.277
 4545SOL    HW114534   2.984   3.203   6.208
 4545SOL    HW214535   3.051   3.057   6.237
 4546SOL     OW14536   4.833   6.449   5.092
 4546SOL    HW114537   4.785   6.532   5.067
 4546SOL    HW214538   4.909   6.471   5.153
 4547SOL     OW14539   6.992   6.762   1.137
 4547SOL    HW114540   6.907   6.747   1.087
 4547SOL    HW214541   6.988   6.851   1.184
 4548SOL     OW14542   4.039   0.701   1.413
 4548SOL    HW114543   4.024   0.703   1.315
 4548SOL    HW214544   4.132   0.734   1.433
 4549SOL     OW14545   6.724   5.397   3.523
 4549SOL    HW114546   6.652   5.355   3.579
 4549SOL    HW214547   6.804   5.337   3.521
 4550SOL     OW14548   2.355   5.789   6.888
 4550SOL    HW114549   2.429   5.721   6.900
 4550SOL    HW214550   2.306   5.769   6.803
 4551SOL     OW14551   3.701   3.134   6.492
 4551SOL    HW114552   3.751   3.059   6.449
 4551SOL    HW214553   3.611   3.102   6.520
 4552SOL     OW14554   5.661   0.351   6.276
 4552SOL    HW114555   5.576   0.338   6.325
 4552SOL    HW214556   5.715   0.267   6.278
 4553SOL     OW14557   0.581   0.044   0.664
 4553SOL    HW114558   0.603   0.135   0.628
 4553SOL    HW214559   0.502   0.052   0.726
 4554SOL     OW14560   5.389   5.904   2.874
 4554SOL    HW114561   5.422   5.950   2.791
 4554SOL    HW214562   5.291   5.919   2.883
 4555SOL     OW14563   0.757   0.563   3.624
 4555SOL    HW114564   0.802   0.572   3.712
 4555SOL    HW214565   0.814   0.605   3.553
 4556SOL     OW14566   5.249   4.928   4.432
 4556SOL    HW114567   5.337   4.921   4.480
 4556SOL    HW214568   5.207   5.016   4.453
 4557SOL     OW14569   0.955   6.274   5.290
 4557SOL    HW114570   0.941   6.209   5.365
 4557SOL    HW214571   0.993   6.226   5.211
 4558SOL     OW14572   0.534   3.931   3.806
 4558SOL    HW114573   0.472   3.959   3.732
 4558SOL    HW214574   0.621   3.981   3.797
 4559SOL     OW14575   0.457   3.298   3.923
 4559SOL    HW114576   0.544   3.328   3.885
 4559SOL    HW214577   0.443   3.201   3.901
 4560SOL     OW14578   6.432   3.063   4.338
 4560SOL    HW114579   6.507   3.130   4.338
 4560SOL    HW214580   6.469   2.972   4.323
 4561SOL     OW14581   5.041   3.528   5.166
 4561SOL    HW114582   4.976   3.535   5.089
 4561SOL    HW214583   5.131   3.560   5.136
 4562SOL     OW14584   5.007   0.461   0.375
 4562SOL    HW114585   5.004   0.363   0.358
 4562SOL    HW214586   5.085   0.501   0.328
 4563SOL     OW14587   1.042   3.264   2.578
 4563SOL    HW114588   1.113   3.334   2.568
 4563SOL    HW214589   0.953   3.305   2.562
 4564SOL     OW14590   2.016   3.770   2.632
 4564SOL    HW114591   2.049   3.679   2.657
 4564SOL    HW214592   1.956   3.763   2.552
 4565SOL     OW14593   2.359   6.653   4.955
 4565SOL    HW114594   2.274   6.659   4.901
 4565SOL    HW214595   2.349   6.706   5.039
 4566SOL     OW14596   6.783   4.964   2.456
 4566SOL    HW114597   6.819   5.057   2.458
 4566SOL    HW214598   6.686   4.965   2.480
 4567SOL     OW14599   1.459   0.821   0.290
 4567SOL    HW114600   1.379   0.852   0.341
 4567SOL    HW214601   1.454   0.856   0.196
 4568SOL     OW14602   7.015   4.486   4.310
 4568SOL    HW114603   7.016   4.392   4.278
 4568SOL    HW214604   0.002   4.548   4.233
 4569SOL     OW14605   6.707   2.876   3.846
 4569SOL    HW114606   6.735   2.798   3.902
 4569SOL    HW214607   6.764   2.955   3.867
 4570SOL     OW14608   4.999   5.729   1.738
 4570SOL    HW114609   5.076   5.777   1.695
 4570SOL    HW214610   4.957   5.667   1.672
 4571SOL     OW14611   2.215   2.235   4.989
 4571SOL    HW114612   2.215   2.196   4.898
 4571SOL    HW214613   2.209   2.162   5.057
 4572SOL     OW14614   5.291   3.252   1.358
 4572SOL    HW114615   5.246   3.170   1.393
 4572SOL    HW214616   5.354   3.227   1.285
 4573SOL     OW14617   2.901   4.607   1.163
 4573SOL    HW114618   2.824   4.668   1.145
 4573SOL    HW214619   2.905   4.588   1.262
 4574SOL     OW14620   4.793   0.027   1.896
 4574SOL    HW114621   4.792   6.969   1.844
 4574SOL    HW214622   4.854   0.092   1.851
 4575SOL     OW14623   0.006   1.553   5.411
 4575SOL    HW114624   0.090   1.570   5.462
 4575SOL    HW214625   6.970   1.502   5.469
 4576SOL     OW14626   3.127   4.025   6.655
 4576SOL    HW114627   3.205   4.062   6.605
 4576SOL    HW214628   3.043   4.063   6.618
 4577SOL     OW14629   6.819   1.361   2.471
 4577SOL    HW114630   6.839   1.352   2.373
 4577SOL    HW214631   6.905   1.373   2.522
 4578SOL     OW14632   1.996   0.903   2.348
 4578SOL    HW114633   2.027   0.967   2.419
 4578SOL    HW214634   1.900   0.881   2.364
 4579SOL     OW14635   3.532   0.837   2.503
 4579SOL    HW114636   3.489   0.800   2.421
 4579SOL    HW214637   3.513   0.935   2.510
 4580SOL     OW14638   0.643   7.027   1.542
 4580SOL    HW114639   0.673   0.030   1.452
 4580SOL    HW214640   0.613   6.932   1.537
 4581SOL     OW14641   3.340   0.095   1.104
 4581SOL    HW114642   3.381   0.156   1.172
 4581SOL    HW214643   3.366   0.125   1.012
 4582SOL     OW14644   5.923   0.969   4.489
 4582SOL    HW114645   5.851   0.924   4.436
 4582SOL    HW214646   6.001   0.988   4.430
 4583SOL     OW14647   1.747   6.491   6.711
 4583SOL    HW114648   1.717   6.586   6.716
 4583SOL    HW214649   1.840   6.487   6.675
 4584SOL     OW14650   6.679   0.615   4.142
 4584SOL    HW114651   6.673   0.642   4.238
 4584SOL    HW214652   6.772   0.629   4.109
 4585SOL     OW14653   1.623   3.468   2.104
 4585SOL    HW114654   1.559   3.401   2.066
 4585SOL    HW214655   1.659   3.525   2.030
 4586SOL     OW14656   0.556   4.632   6.495
 4586SOL    HW114657   0.603   4.695   6.558
 4586SOL    HW214658   0.624   4.580   6.443
 4587SOL     OW14659   4.124   3.270   6.323
 4587SOL    HW114660   4.086   3.335   6.257
 4587SOL    HW214661   4.066   3.266   6.404
 4588SOL     OW14662   2.027   5.270   6.690
 4588SOL    HW114663   2.017   5.312   6.600
 4588SOL    HW214664   1.958   5.308   6.752
 4589SOL     OW14665   4.436   6.084   2.105
 4589SOL    HW114666   4.441   6.015   2.177
 4589SOL    HW214667   4.440   6.175   2.145
 4590SOL     OW14668   1.852   4.892   1.875
 4590SOL    HW114669   1.782   4.962   1.867
 4590SOL    HW214670   1.929   4.914   1.816
 4591SOL     OW14671   2.015   1.815   5.891
 4591SOL    HW114672   2.061   1.750   5.831
 4591SOL    HW214673   2.082   1.879   5.928
 4592SOL     OW14674   2.569   2.432   2.447
 4592SOL    HW114675   2.665   2.406   2.447
 4592SOL    HW214676   2.534   2.431   2.540
 4593SOL     OW14677   1.931   5.079   5.355
 4593SOL    HW114678   1.987   5.090   5.273
 4593SOL    HW214679   1.843   5.039   5.330
 4594SOL     OW14680   0.844   6.518   2.953
 4594SOL    HW114681   0.869   6.526   3.050
 4594SOL    HW214682   0.893   6.587   2.900
 4595SOL     OW14683   5.522   1.604   0.004
 4595SOL    HW114684   5.581   1.595   6.951
 4595SOL    HW214685   5.562   1.671   0.067
 4596SOL     OW14686   0.057   1.807   2.054
 4596SOL    HW114687   7.013   1.871   2.026
 4596SOL    HW214688   0.018   1.738   2.116
 4597SOL     OW14689   2.284   5.240   0.912
 4597SOL    HW114690   2.346   5.183   0.966
 4597SOL    HW214691   2.203   5.186   0.886
 4598SOL     OW14692   6.964   3.088   0.721
 4598SOL    HW114693   6.933   3.021   0.653
 4598SOL    HW214694   0.005   3.045   0.781
 4599SOL     OW14695   2.811   5.997   3.261
 4599SOL    HW114696   2.856   6.073   3.214
 4599SOL    HW214697   2.749   5.951   3.197
 4600SOL     OW14698   0.333   6.501   5.870
 4600SOL    HW114699   0.373   6.414   5.899
 4600SOL    HW214700   0.360   6.573   5.934
 4601SOL     OW14701   1.588   1.559   5.063
 4601SOL    HW114702   1.673   1.521   5.028
 4601SOL    HW214703   1.514   1.541   4.999
 4602SOL     OW14704   4.505   6.940   5.700
 4602SOL    HW114705   4.472   0.007   5.690
 4602SOL    HW214706   4.590   6.941   5.753
 4603SOL     OW14707   4.566   6.778   6.833
 4603SOL    HW114708   4.564   6.776   6.933
 4603SOL    HW214709   4.539   6.868   6.801
 4604SOL     OW14710   0.203   0.048   3.817
 4604SOL    HW114711   0.160   6.994   3.777
 4604SOL    HW214712   0.284   0.073   3.763
 4605SOL     OW14713   4.013   1.460   2.013
 4605SOL    HW114714   4.008   1.413   2.102
 4605SOL    HW214715   4.065   1.544   2.023
 4606SOL     OW14716   6.599   0.241   4.226
 4606SOL    HW114717   6.559   0.268   4.139
 4606SOL    HW214718   6.650   0.156   4.214
 4607SOL     OW14719   2.479   1.732   1.569
 4607SOL    HW114720   2.474   1.728   1.469
 4607SOL    HW214721   2.439   1.817   1.601
 4608SOL     OW14722   0.310   3.075   5.880
 4608SOL    HW114723   0.382   3.136   5.846
 4608SOL    HW214724   0.221   3.121   5.872
 4609SOL     OW14725   5.454   4.327   6.723
 4609SOL    HW114726   5.532   4.266   6.734
 4609SOL    HW214727   5.383   4.282   6.671
 4610SOL     OW14728   4.704   4.114   6.340
 4610SOL    HW114729   4.629   4.051   6.321
 4610SOL    HW214730   4.716   4.123   6.439
 4611SOL     OW14731   0.540   0.353   6.581
 4611SOL    HW114732   0.602   0.347   6.504
 4611SOL    HW214733   0.543   0.446   6.619
 4612SOL     OW14734   1.172   0.870   2.192
 4612SOL    HW114735   1.110   0.865   2.114
 4612SOL    HW214736   1.137   0.937   2.258
 4613SOL     OW14737   1.199   5.066   3.970
 4613SOL    HW114738   1.164   4.972   3.980
 4613SOL    HW214739   1.127   5.131   3.994
 4614SOL     OW14740   6.486   4.851   1.939
 4614SOL    HW114741   6.550   4.924   1.964
 4614SOL    HW214742   6.479   4.846   1.839
 4615SOL     OW14743   0.728   4.801   6.625
 4615SOL    HW114744   0.808   4.811   6.684
 4615SOL    HW214745   0.646   4.831   6.674
 4616SOL     OW14746   1.551   5.074   5.782
 4616SOL    HW114747   1.585   5.083   5.876
 4616SOL    HW214748   1.607   5.007   5.733
 4617SOL     OW14749   1.058   4.031   4.898
 4617SOL    HW114750   1.073   4.109   4.959
 4617SOL    HW214751   1.045   3.948   4.953
 4618SOL     OW14752   2.157   4.111   5.259
 4618SOL    HW114753   2.134   4.055   5.338
 4618SOL    HW214754   2.207   4.056   5.192
 4619SOL     OW14755   5.193   5.811   6.375
 4619SOL    HW114756   5.184   5.895   6.321
 4619SOL    HW214757   5.283   5.809   6.418
 4620SOL     OW14758   0.597   5.094   2.621
 4620SOL    HW114759   0.610   5.160   2.695
 4620SOL    HW214760   0.683   5.085   2.570
 4621SOL     OW14761   3.056   6.945   2.079
 4621SOL    HW114762   2.989   6.912   2.013
 4621SOL    HW214763   3.009   6.990   2.155
 4622SOL     OW14764   6.343   6.559   0.701
 4622SOL    HW114765   6.287   6.637   0.729
 4622SOL    HW214766   6.318   6.479   0.755
 4623SOL     OW14767   2.885   5.051   2.019
 4623SOL    HW114768   2.983   5.065   2.020
 4623SOL    HW214769   2.843   5.112   1.952
 4624SOL     OW14770   5.348   1.233   0.302
 4624SOL    HW114771   5.295   1.149   0.286
 4624SOL    HW214772   5.293   1.313   0.279
 4625SOL     OW14773   0.962   0.216   2.094
 4625SOL    HW114774   0.932   0.177   2.182
 4625SOL    HW214775   0.973   0.142   2.028
 4626SOL     OW14776   4.073   3.826   2.305
 4626SOL    HW114777   4.157   3.874   2.329
 4626SOL    HW214778   4.045   3.852   2.213
 4627SOL     OW14779   5.927   6.206   4.820
 4627SOL    HW114780   5.983   6.124   4.809
 4627SOL    HW214781   5.977   6.273   4.874
 4628SOL     OW14782   6.681   2.845   1.967
 4628SOL    HW114783   6.676   2.803   1.876
 4628SOL    HW214784   6.751   2.799   2.022
 4629SOL     OW14785   1.047   5.465   1.103
 4629SOL    HW114786   1.143   5.445   1.120
 4629SOL    HW214787   1.026   5.446   1.007
 4630SOL     OW14788   1.712   3.205   1.447
 4630SOL    HW114789   1.710   3.121   1.502
 4630SOL    HW214790   1.801   3.250   1.459
 4631SOL     OW14791   5.458   1.528   1.000
 4631SOL    HW114792   5.510   1.577   1.070
 4631SOL    HW214793   5.494   1.435   0.990
 4632SOL     OW14794   2.144   5.317   4.013
 4632SOL    HW114795   2.167   5.401   3.963
 4632SOL    HW214796   2.103   5.251   3.950
 4633SOL     OW14797   5.105   3.851   4.444
 4633SOL    HW114798   5.123   3.864   4.541
 4633SOL    HW214799   5.176   3.794   4.403
 4634SOL     OW14800   3.366   2.948   4.945
 4634SOL    HW114801   3.287   3.000   4.977
 4634SOL    HW214802   3.350   2.921   4.849
 4635SOL     OW14803   3.491   0.221   2.312
 4635SOL    HW114804   3.418   0.286   2.294
 4635SOL    HW214805   3.529   0.188   2.225
 4636SOL     OW14806   1.577   6.168   6.452
 4636SOL    HW114807   1.609   6.263   6.456
 4636SOL    HW214808   1.515   6.156   6.374
 4637SOL     OW14809   1.643   2.582   3.655
 4637SOL    HW114810   1.583   2.517   3.608
 4637SOL    HW214811   1.589   2.635   3.721
 4638SOL     OW14812   4.031   4.452   0.059
 4638SOL    HW114813   3.957   4.454   7.019
 4638SOL    HW214814   3.998   4.489   0.146
 4639SOL     OW14815   3.946   2.705   1.336
 4639SOL    HW114816   4.034   2.658   1.345
 4639SOL    HW214817   3.939   2.775   1.406
 4640SOL     OW14818   0.600   2.219   0.401
 4640SOL    HW114819   0.543   2.277   0.343
 4640SOL    HW214820   0.630   2.270   0.481
 4641SOL     OW14821   1.269   6.433   4.640
 4641SOL    HW114822   1.366   6.409   4.635
 4641SOL    HW214823   1.254   6.520   4.594
 4642SOL     OW14824   6.060   1.269   6.085
 4642SOL    HW114825   6.077   1.367   6.084
 4642SOL    HW214826   6.046   1.236   5.992
 4643SOL     OW14827   0.963   2.001   6.976
 4643SOL    HW114828   0.915   2.028   0.032
 4643SOL    HW214829   1.006   2.082   6.935
 4644SOL     OW14830   1.389   1.696   0.967
 4644SOL    HW114831   1.435   1.627   0.912
 4644SOL    HW214832   1.430   1.699   1.058
 4645SOL     OW14833   5.545   2.887   5.503
 4645SOL    HW114834   5.578   2.807   5.453
 4645SOL    HW214835   5.511   2.858   5.593
 4646SOL     OW14836   1.243   3.988   2.320
 4646SOL    HW114837   1.151   4.005   2.357
 4646SOL    HW214838   1.254   4.036   2.233
 4647SOL     OW14839   1.713   6.333   2.245
 4647SOL    HW114840   1.709   6.296   2.338
 4647SOL    HW214841   1.687   6.429   2.246
 4648SOL     OW14842   2.808   1.421   4.243
 4648SOL    HW114843   2.723   1.375   4.219
 4648SOL    HW214844   2.789   1.517   4.266
 4649SOL     OW14845   5.326   4.276   1.089
 4649SOL    HW114846   5.326   4.341   1.013
 4649SOL    HW214847   5.260   4.203   1.070
 4650SOL     OW14848   3.625   4.416   0.424
 4650SOL    HW114849   3.688   4.341   0.404
 4650SOL    HW214850   3.539   4.401   0.376
 4651SOL     OW14851   1.626   3.357   0.326
 4651SOL    HW114852   1.707   3.394   0.281
 4651SOL    HW214853   1.560   3.431   0.341
 4652SOL     OW14854   6.380   6.928   5.973
 4652SOL    HW114855   6.463   6.983   5.983
 4652SOL    HW214856   6.351   6.896   6.063
 4653SOL     OW14857   1.081   6.663   0.870
 4653SOL    HW114858   0.986   6.661   0.838
 4653SOL    HW214859   1.117   6.570   0.875
 4654SOL     OW14860   0.495   0.787   5.411
 4654SOL    HW114861   0.592   0.779   5.389
 4654SOL    HW214862   0.482   0.864   5.474
 4655SOL     OW14863   5.416   5.409   3.566
 4655SOL    HW114864   5.421   5.446   3.659
 4655SOL    HW214865   5.411   5.309   3.570
 4656SOL     OW14866   6.699   0.641   1.365
 4656SOL    HW114867   6.748   0.700   1.301
 4656SOL    HW214868   6.732   0.547   1.356
 4657SOL     OW14869   3.595   1.934   2.237
 4657SOL    HW114870   3.658   2.008   2.214
 4657SOL    HW214871   3.561   1.948   2.330
 4658SOL     OW14872   1.749   0.987   6.963
 4658SOL    HW114873   1.752   0.897   7.007
 4658SOL    HW214874   1.807   1.051   7.014
 4659SOL     OW14875   2.352   5.272   1.202
 4659SOL    HW114876   2.352   5.177   1.169
 4659SOL    HW214877   2.373   5.333   1.126
 4660SOL     OW14878   0.503   4.664   4.874
 4660SOL    HW114879   0.526   4.599   4.946
 4660SOL    HW214880   0.414   4.640   4.834
 4661SOL     OW14881   0.069   0.856   4.759
 4661SOL    HW114882   0.056   0.875   4.662
 4661SOL    HW214883   0.016   0.776   4.786
 4662SOL     OW14884   2.664   0.385   6.956
 4662SOL    HW114885   2.583   0.358   6.903
 4662SOL    HW214886   2.719   0.304   6.977
 4663SOL     OW14887   0.456   6.977   1.163
 4663SOL    HW114888   0.528   6.930   1.112
 4663SOL    HW214889   0.383   6.911   1.186
 4664SOL     OW14890   6.853   6.223   5.567
 4664SOL    HW114891   6.952   6.207   5.562
 4664SOL    HW214892   6.833   6.316   5.536
 4665SOL     OW14893   6.626   1.697   2.599
 4665SOL    HW114894   6.673   1.692   2.512
 4665SOL    HW214895   6.548   1.634   2.599
 4666SOL     OW14896   1.982   2.806   5.555
 4666SOL    HW114897   1.977   2.786   5.653
 4666SOL    HW214898   2.056   2.752   5.514
 4667SOL     OW14899   6.133   2.017   1.062
 4667SOL    HW114900   6.070   2.091   1.040
 4667SOL    HW214901   6.093   1.929   1.033
 4668SOL     OW14902   4.716   1.927   5.410
 4668SOL    HW114903   4.686   1.914   5.316
 4668SOL    HW214904   4.652   1.882   5.472
 4669SOL     OW14905   5.966   6.643   6.258
 4669SOL    HW114906   5.884   6.697   6.278
 4669SOL    HW214907   5.942   6.567   6.198
 4670SOL     OW14908   0.928   3.175   0.247
 4670SOL    HW114909   0.989   3.177   0.168
 4670SOL    HW214910   0.944   3.256   0.304
 4671SOL     OW14911   6.777   2.155   1.683
 4671SOL    HW114912   6.696   2.112   1.642
 4671SOL    HW214913   6.831   2.200   1.612
 4672SOL     OW14914   3.967   3.157   0.656
 4672SOL    HW114915   3.896   3.087   0.646
 4672SOL    HW214916   3.973   3.184   0.752
 4673SOL     OW14917   4.810   1.874   0.522
 4673SOL    HW114918   4.789   1.969   0.543
 4673SOL    HW214919   4.768   1.849   0.435
 4674SOL     OW14920   0.604   2.942   0.187
 4674SOL    HW114921   0.581   3.036   0.162
 4674SOL    HW214922   0.687   2.942   0.242
 4675SOL     OW14923   1.636   6.774   0.480
 4675SOL    HW114924   1.585   6.688   0.490
 4675SOL    HW214925   1.734   6.753   0.468
 4676SOL     OW14926   0.178   5.791   4.335
 4676SOL    HW114927   0.271   5.823   4.320
 4676SOL    HW214928   0.166   5.767   4.431
 4677SOL     OW14929   5.516   6.785   6.976
 4677SOL    HW114930   5.482   6.797   0.042
 4677SOL    HW214931   5.510   6.689   6.951
 4678SOL     OW14932   2.567   5.164   0.436
 4678SOL    HW114933   2.473   5.134   0.418
 4678SOL    HW214934   2.619   5.088   0.474
 4679SOL     OW14935   2.131   6.417   5.647
 4679SOL    HW114936   2.159   6.468   5.566
 4679SOL    HW214937   2.051   6.361   5.626
 4680SOL     OW14938   1.454   5.513   5.710
 4680SOL    HW114939   1.431   5.598   5.756
 4680SOL    HW214940   1.413   5.436   5.759
 4681SOL     OW14941   0.136   5.945   6.019
 4681SOL    HW114942   0.080   5.897   6.087
 4681SOL    HW214943   0.232   5.941   6.047
 4682SOL     OW14944   2.808   6.554   0.816
 4682SOL    HW114945   2.738   6.484   0.804
 4682SOL    HW214946   2.874   6.549   0.741
 4683SOL     OW14947   0.312   5.617   3.690
 4683SOL    HW114948   0.406   5.591   3.670
 4683SOL    HW214949   0.311   5.698   3.748
 4684SOL     OW14950   2.029   1.351   4.259
 4684SOL    HW114951   1.964   1.377   4.188
 4684SOL    HW214952   2.120   1.339   4.218
 4685SOL     OW14953   5.263   4.864   3.961
 4685SOL    HW114954   5.192   4.854   4.032
 4685SOL    HW214955   5.353   4.863   4.004
 4686SOL     OW14956   4.171   5.362   5.854
 4686SOL    HW114957   4.190   5.270   5.819
 4686SOL    HW214958   4.256   5.415   5.855
 4687SOL     OW14959   4.669   0.797   4.914
 4687SOL    HW114960   4.742   0.742   4.873
 4687SOL    HW214961   4.701   0.890   4.929
 4688SOL     OW14962   0.252   0.442   1.011
 4688SOL    HW114963   0.337   0.394   1.032
 4688SOL    HW214964   0.266   0.540   1.019
 4689SOL     OW14965   1.898   6.183   4.665
 4689SOL    HW114966   1.848   6.099   4.687
 4689SOL    HW214967   1.833   6.258   4.651
 4690SOL     OW14968   3.399   2.234   0.023
 4690SOL    HW114969   3.337   2.159   0.045
 4690SOL    HW214970   3.488   2.196   7.022
 4691SOL     OW14971   2.754   4.414   0.035
 4691SOL    HW114972   2.822   4.365   0.088
 4691SOL    HW214973   2.780   4.414   6.966
 4692SOL     OW14974   0.898   5.124   3.671
 4692SOL    HW114975   0.983   5.162   3.633
 4692SOL    HW214976   0.854   5.067   3.601
 4693SOL     OW14977   6.936   1.920   2.751
 4693SOL    HW114978   6.902   1.936   2.659
 4693SOL    HW214979   6.989   1.835   2.753
 4694SOL     OW14980   1.698   0.737   4.831
 4694SOL    HW114981   1.756   0.809   4.793
 4694SOL    HW214982   1.753   0.656   4.850
 4695SOL     OW14983   3.280   3.460   2.949
 4695SOL    HW114984   3.341   3.393   2.906
 4695SOL    HW214985   3.303   3.552   2.916
 4696SOL     OW14986   0.594   2.175   6.552
 4696SOL    HW114987   0.500   2.207   6.555
 4696SOL    HW214988   0.635   2.184   6.642
 4697SOL     OW14989   0.877   5.104   6.818
 4697SOL    HW114990   0.924   5.124   6.904
 4697SOL    HW214991   0.791   5.155   6.815
 4698SOL     OW14992   5.996   3.204   2.112
 4698SOL    HW114993   6.035   3.115   2.090
 4698SOL    HW214994   5.903   3.209   2.075
 4699SOL     OW14995   6.589   0.679   2.933
 4699SOL    HW114996   6.627   0.738   3.004
 4699SOL    HW214997   6.605   0.719   2.843
 4700SOL     OW14998   5.277   6.884   4.823
 4700SOL    HW114999   5.358   6.882   4.764
 4700SOL    HW215000   5.198   6.854   4.770
 4701SOL     OW15001   2.550   1.412   5.928
 4701SOL    HW115002   2.544   1.315   5.952
 4701SOL    HW215003   2.608   1.422   5.847
 4702SOL     OW15004   3.680   3.369   0.684
 4702SOL    HW115005   3.690   3.322   0.597
 4702SOL    HW215006   3.638   3.308   0.751
 4703SOL     OW15007   0.898   6.525   1.653
 4703SOL    HW115008   0.955   6.446   1.631
 4703SOL    HW215009   0.914   6.553   1.747
 4704SOL     OW15010   4.606   6.971   6.103
 4704SOL    HW115011   4.651   7.001   6.019
 4704SOL    HW215012   4.610   0.017   6.171
 4705SOL     OW15013   3.175   3.087   5.043
 4705SOL    HW115014   3.125   3.172   5.054
 4705SOL    HW215015   3.157   3.027   5.121
 4706SOL     OW15016   5.639   2.977   0.283
 4706SOL    HW115017   5.728   2.931   0.287
 4706SOL    HW215018   5.645   3.066   0.329
 4707SOL     OW15019   2.963   3.890   1.442
 4707SOL    HW115020   2.951   3.939   1.356
 4707SOL    HW215021   2.989   3.795   1.424
 4708SOL     OW15022   2.234   2.553   2.277
 4708SOL    HW115023   2.240   2.461   2.238
 4708SOL    HW215024   2.215   2.619   2.204
 4709SOL     OW15025   2.755   4.025   0.737
 4709SOL    HW115026   2.703   4.108   0.718
 4709SOL    HW215027   2.697   3.945   0.724
 4710SOL     OW15028   4.318   2.496   1.414
 4710SOL    HW115029   4.231   2.447   1.406
 4710SOL    HW215030   4.388   2.434   1.450
 4711SOL     OW15031   2.349   0.435   3.354
 4711SOL    HW115032   2.260   0.391   3.347
 4711SOL    HW215033   2.421   0.370   3.329
 4712SOL     OW15034   1.509   3.374   6.910
 4712SOL    HW115035   1.516   3.389   6.811
 4712SOL    HW215036   1.504   3.276   6.928
 4713SOL     OW15037   0.685   5.978   0.713
 4713SOL    HW115038   0.587   5.987   0.730
 4713SOL    HW215039   0.734   5.979   0.800
 4714SOL     OW15040   4.145   1.659   0.718
 4714SOL    HW115041   4.185   1.587   0.775
 4714SOL    HW215042   4.163   1.640   0.621
 4715SOL     OW15043   5.176   4.022   5.185
 4715SOL    HW115044   5.168   3.967   5.102
 4715SOL    HW215045   5.182   3.963   5.265
 4716SOL     OW15046   1.895   5.582   6.601
 4716SOL    HW115047   1.803   5.621   6.608
 4716SOL    HW215048   1.890   5.493   6.555
 4717SOL     OW15049   2.013   5.096   5.017
 4717SOL    HW115050   1.979   5.008   4.983
 4717SOL    HW215051   2.109   5.086   5.045
 4718SOL     OW15052   5.031   6.805   0.079
 4718SOL    HW115053   5.087   6.791   0.160
 4718SOL    HW215054   5.039   6.726   0.018
 4719SOL     OW15055   4.174   2.872   1.119
 4719SOL    HW115056   4.225   2.786   1.115
 4719SOL    HW215057   4.235   2.945   1.151
 4720SOL     OW15058   2.361   1.720   3.638
 4720SOL    HW115059   2.445   1.703   3.690
 4720SOL    HW215060   2.359   1.659   3.558
 4721SOL     OW15061   1.691   1.533   1.753
 4721SOL    HW115062   1.756   1.609   1.750
 4721SOL    HW215063   1.694   1.482   1.667
 4722SOL     OW15064   1.974   1.058   2.121
 4722SOL    HW115065   1.976   1.002   2.204
 4722SOL    HW215066   1.880   1.079   2.097
 4723SOL     OW15067   3.034   0.955   5.626
 4723SOL    HW115068   2.950   0.994   5.663
 4723SOL    HW215069   3.070   1.015   5.555
 4724SOL     OW15070   3.805   5.334   0.806
 4724SOL    HW115071   3.857   5.372   0.883
 4724SOL    HW215072   3.823   5.236   0.799
 4725SOL     OW15073   6.054   5.006   2.870
 4725SOL    HW115074   5.974   5.031   2.815
 4725SOL    HW215075   6.124   4.967   2.810
 4726SOL     OW15076   6.544   7.003   3.968
 4726SOL    HW115077   6.636   6.975   3.998
 4726SOL    HW215078   6.531   6.977   3.873
 4727SOL     OW15079   4.793   6.515   1.680
 4727SOL    HW115080   4.705   6.480   1.714
 4727SOL    HW215081   4.784   6.540   1.584
 4728SOL     OW15082   6.693   6.217   6.625
 4728SOL    HW115083   6.651   6.132   6.595
 4728SOL    HW215084   6.623   6.289   6.632
 4729SOL     OW15085   3.292   0.453   1.273
 4729SOL    HW115086   3.324   0.540   1.310
 4729SOL    HW215087   3.363   0.383   1.285
 4730SOL     OW15088   0.952   0.597   6.216
 4730SOL    HW115089   0.934   0.504   6.250
 4730SOL    HW215090   0.974   0.657   6.292
 4731SOL     OW15091   5.128   1.433   6.048
 4731SOL    HW115092   5.092   1.457   6.139
 4731SOL    HW215093   5.100   1.339   6.026
 4732SOL     OW15094   0.749   0.107   6.347
 4732SOL    HW115095   0.791   0.063   6.426
 4732SOL    HW215096   0.649   0.107   6.358
 4733SOL     OW15097   5.515   4.237   2.888
 4733SOL    HW115098   5.605   4.276   2.902
 4733SOL    HW215099   5.499   4.165   2.955
 4734SOL     OW15100   6.197   3.743   5.957
 4734SOL    HW115101   6.169   3.819   5.900
 4734SOL    HW215102   6.171   3.761   6.052
 4735SOL     OW15103   0.803   3.587   3.375
 4735SOL    HW115104   0.871   3.660   3.367
 4735SOL    HW215105   0.764   3.589   3.467
 4736SOL     OW15106   1.190   0.004   2.194
 4736SOL    HW115107   1.132   6.960   2.233
 4736SOL    HW215108   1.167   0.092   2.235
 4737SOL     OW15109   3.415   5.453   2.666
 4737SOL    HW115110   3.420   5.357   2.694
 4737SOL    HW215111   3.490   5.474   2.604
 4738SOL     OW15112   1.149   0.584   3.111
 4738SOL    HW115113   1.056   0.619   3.095
 4738SOL    HW215114   1.143   0.493   3.153
 4739SOL     OW15115   3.718   0.109   1.377
 4739SOL    HW115116   3.718   0.009   1.376
 4739SOL    HW215117   3.805   0.143   1.341
 4740SOL     OW15118   1.036   1.993   5.165
 4740SOL    HW115119   1.019   1.933   5.087
 4740SOL    HW215120   1.102   2.063   5.138
 4741SOL     OW15121   4.121   3.378   4.805
 4741SOL    HW115122   4.209   3.426   4.793
 4741SOL    HW215123   4.054   3.441   4.844
 4742SOL     OW15124   4.297   0.801   3.526
 4742SOL    HW115125   4.370   0.748   3.486
 4742SOL    HW215126   4.328   0.895   3.542
 4743SOL     OW15127   0.430   5.009   0.849
 4743SOL    HW115128   0.515   4.959   0.833
 4743SOL    HW215129   0.434   5.054   0.939
 4744SOL     OW15130   1.079   4.745   2.017
 4744SOL    HW115131   1.177   4.768   2.024
 4744SOL    HW215132   1.025   4.829   2.028
 4745SOL     OW15133   1.724   3.155   0.105
 4745SOL    HW115134   1.758   3.161   0.199
 4745SOL    HW215135   1.765   3.228   0.050
 4746SOL     OW15136   6.098   6.078   4.448
 4746SOL    HW115137   6.068   6.077   4.352
 4746SOL    HW215138   6.063   5.997   4.495
 4747SOL     OW15139   4.408   0.783   0.550
 4747SOL    HW115140   4.326   0.789   0.606
 4747SOL    HW215141   4.480   0.841   0.588
 4748SOL     OW15142   2.365   7.014   3.884
 4748SOL    HW115143   2.419   6.946   3.834
 4748SOL    HW215144   2.419   0.070   3.897
 4749SOL     OW15145   2.863   1.351   1.332
 4749SOL    HW115146   2.942   1.407   1.359
 4749SOL    HW215147   2.780   1.390   1.374
 4750SOL     OW15148   5.661   3.097   6.141
 4750SOL    HW115149   5.749   3.065   6.106
 4750SOL    HW215150   5.619   3.026   6.197
 4751SOL     OW15151   3.662   1.728   2.593
 4751SOL    HW115152   3.645   1.819   2.554
 4751SOL    HW215153   3.585   1.668   2.571
 4752SOL     OW15154   6.296   6.494   6.746
 4752SOL    HW115155   6.260   6.438   6.821
 4752SOL    HW215156   6.384   6.533   6.773
 4753SOL     OW15157   3.208   5.825   5.062
 4753SOL    HW115158   3.210   5.832   5.161
 4753SOL    HW215159   3.219   5.730   5.034
 4754SOL     OW15160   5.989   4.662   0.411
 4754SOL    HW115161   5.909   4.622   0.455
 4754SOL    HW215162   5.996   4.758   0.438
 4755SOL     OW15163   6.572   1.085   2.236
 4755SOL    HW115164   6.571   1.054   2.140
 4755SOL    HW215165   6.659   1.060   2.278
 4756SOL     OW15166   0.100   3.764   4.771
 4756SOL    HW115167   0.174   3.812   4.724
 4756SOL    HW215168   0.053   3.703   4.707
 4757SOL     OW15169   2.351   3.697   1.376
 4757SOL    HW115170   2.417   3.626   1.352
 4757SOL    HW215171   2.357   3.718   1.473
 4758SOL     OW15172   2.106   5.178   2.026
 4758SOL    HW115173   2.193   5.225   2.038
 4758SOL    HW215174   2.089   5.118   2.104
 4759SOL     OW15175   0.426   6.612   3.181
 4759SOL    HW115176   0.454   6.560   3.262
 4759SOL    HW215177   0.383   6.697   3.209
 4760SOL     OW15178   0.774   0.780   2.424
 4760SOL    HW115179   0.842   0.736   2.366
 4760SOL    HW215180   0.776   0.879   2.411
 4761SOL     OW15181   4.289   5.901   2.342
 4761SOL    HW115182   4.296   5.971   2.413
 4761SOL    HW215183   4.236   5.936   2.265
 4762SOL     OW15184   0.546   0.893   2.663
 4762SOL    HW115185   0.535   0.905   2.564
 4762SOL    HW215186   0.630   0.841   2.681
 4763SOL     OW15187   5.134   4.025   1.661
 4763SOL    HW115188   5.141   4.011   1.562
 4763SOL    HW215189   5.065   4.096   1.679
 4764SOL     OW15190   4.437   2.970   6.594
 4764SOL    HW115191   4.415   2.944   6.688
 4764SOL    HW215192   4.507   2.909   6.558
 4765SOL     OW15193   3.636   1.545   5.572
 4765SOL    HW115194   3.571   1.512   5.503
 4765SOL    HW215195   3.609   1.637   5.602
 4766SOL     OW15196   1.184   0.985   2.891
 4766SOL    HW115197   1.110   0.951   2.832
 4766SOL    HW215198   1.262   1.012   2.835
 4767SOL     OW15199   2.588   5.096   2.373
 4767SOL    HW115200   2.653   5.020   2.378
 4767SOL    HW215201   2.604   5.159   2.450
 4768SOL     OW15202   4.570   2.302   6.050
 4768SOL    HW115203   4.524   2.390   6.059
 4768SOL    HW215204   4.514   2.231   6.092
 4769SOL     OW15205   3.329   2.921   0.433
 4769SOL    HW115206   3.243   2.884   0.466
 4769SOL    HW215207   3.383   2.848   0.390
 4770SOL     OW15208   0.071   1.913   3.847
 4770SOL    HW115209   0.092   1.960   3.933
 4770SOL    HW215210   0.076   1.814   3.862
 4771SOL     OW15211   3.045   1.305   4.141
 4771SOL    HW115212   3.035   1.261   4.052
 4771SOL    HW215213   2.962   1.356   4.162
 4772SOL     OW15214   3.157   5.243   2.567
 4772SOL    HW115215   3.110   5.303   2.631
 4772SOL    HW215216   3.255   5.266   2.566
 4773SOL     OW15217   3.329   5.702   3.760
 4773SOL    HW115218   3.358   5.663   3.673
 4773SOL    HW215219   3.309   5.799   3.747
 4774SOL     OW15220   6.945   4.035   0.942
 4774SOL    HW115221   7.005   3.986   1.005
 4774SOL    HW215222   6.952   4.133   0.960
 4775SOL     OW15223   5.090   4.902   4.201
 4775SOL    HW115224   5.164   4.903   4.269
 4775SOL    HW215225   5.017   4.841   4.232
 4776SOL     OW15226   6.848   1.852   5.572
 4776SOL    HW115227   6.796   1.839   5.657
 4776SOL    HW215228   6.821   1.782   5.506
 4777SOL     OW15229   0.939   6.592   3.571
 4777SOL    HW115230   0.925   6.500   3.533
 4777SOL    HW215231   0.908   6.593   3.666
 4778SOL     OW15232   1.301   0.671   1.176
 4778SOL    HW115233   1.306   0.601   1.247
 4778SOL    HW215234   1.273   0.630   1.090
 4779SOL     OW15235   4.592   1.865   4.630
 4779SOL    HW115236   4.686   1.887   4.659
 4779SOL    HW215237   4.531   1.940   4.655
 4780SOL     OW15238   5.029   2.941   4.410
 4780SOL    HW115239   5.050   2.851   4.374
 4780SOL    HW215240   4.967   2.988   4.347
 4781SOL     OW15241   2.975   5.129   1.271
 4781SOL    HW115242   2.969   5.029   1.269
 4781SOL    HW215243   3.062   5.156   1.312
 4782SOL     OW15244   1.012   6.993   2.891
 4782SOL    HW115245   1.000   6.956   2.799
 4782SOL    HW215246   1.053   0.057   2.885
 4783SOL     OW15247   0.950   4.145   6.884
 4783SOL    HW115248   0.953   4.049   6.858
 4783SOL    HW215249   0.949   4.154   6.983
 4784SOL     OW15250   6.417   2.756   6.716
 4784SOL    HW115251   6.512   2.723   6.716
 4784SOL    HW215252   6.396   2.796   6.627
 4785SOL     OW15253   0.634   1.375   4.458
 4785SOL    HW115254   0.692   1.306   4.502
 4785SOL    HW215255   0.586   1.428   4.528
 4786SOL     OW15256   1.545   6.514   0.472
 4786SOL    HW115257   1.633   6.477   0.503
 4786SOL    HW215258   1.472   6.484   0.534
 4787SOL     OW15259   4.374   1.635   5.576
 4787SOL    HW115260   4.414   1.629   5.667
 4787SOL    HW215261   4.275   1.643   5.582
 4788SOL     OW15262   6.850   5.824   0.833
 4788SOL    HW115263   6.901   5.865   0.909
 4788SOL    HW215264   6.914   5.800   0.760
 4789SOL     OW15265   5.413   0.983   1.380
 4789SOL    HW115266   5.480   1.053   1.355
 4789SOL    HW215267   5.397   0.923   1.301
 4790SOL     OW15268   0.041   2.508   6.464
 4790SOL    HW115269   0.046   2.477   6.369
 4790SOL    HW215270   0.035   2.608   6.465
 4791SOL     OW15271   0.827   0.706   6.868
 4791SOL    HW115272   0.804   0.796   6.831
 4791SOL    HW215273   0.851   0.644   6.794
 4792SOL     OW15274   0.572   4.276   1.764
 4792SOL    HW115275   0.600   4.195   1.712
 4792SOL    HW215276   0.506   4.329   1.711
 4793SOL     OW15277   1.508   2.817   5.219
 4793SOL    HW115278   1.414   2.848   5.230
 4793SOL    HW215279   1.517   2.723   5.253
 4794SOL     OW15280   5.629   1.151   6.704
 4794SOL    HW115281   5.625   1.164   6.605
 4794SOL    HW215282   5.583   1.065   6.728
 4795SOL     OW15283   0.175   6.530   0.004
 4795SOL    HW115284   0.162   6.628   7.021
 4795SOL    HW215285   0.138   6.501   0.093
 4796SOL     OW15286   5.604   1.879   5.802
 4796SOL    HW115287   5.568   1.831   5.723
 4796SOL    HW215288   5.621   1.814   5.876
 4797SOL     OW15289   2.904   5.202   5.238
 4797SOL    HW115290   2.976   5.200   5.308
 4797SOL    HW215291   2.815   5.201   5.283
 4798SOL     OW15292   3.649   6.252   6.660
 4798SOL    HW115293   3.599   6.174   6.698
 4798SOL    HW215294   3.612   6.337   6.698
 4799SOL     OW15295   4.470   3.620   1.400
 4799SOL    HW115296   4.565   3.615   1.430
 4799SOL    HW215297   4.452   3.549   1.333
 4800SOL     OW15298   0.948   4.457   0.123
 4800SOL    HW115299   0.987   4.540   0.161
 4800SOL    HW215300   1.021   4.390   0.108
 4801SOL     OW15301   4.869   3.198   3.354
 4801SOL    HW115302   4.785   3.159   3.315
 4801SOL    HW215303   4.907   3.265   3.290
 4802SOL     OW15304   6.800   0.662   4.585
 4802SOL    HW115305   6.853   0.677   4.502
 4802SOL    HW215306   6.706   0.693   4.570
 4803SOL     OW15307   5.492   3.610   6.046
 4803SOL    HW115308   5.471   3.513   6.040
 4803SOL    HW215309   5.545   3.637   5.966
 4804SOL     OW15310   5.738   2.917   0.879
 4804SOL    HW115311   5.699   2.926   0.787
 4804SOL    HW215312   5.826   2.964   0.883
 4805SOL     OW15313   6.091   0.264   5.355
 4805SOL    HW115314   6.076   0.192   5.422
 4805SOL    HW215315   6.025   0.257   5.281
 4806SOL     OW15316   1.356   2.631   3.388
 4806SOL    HW115317   1.429   2.569   3.417
 4806SOL    HW215318   1.304   2.588   3.313
 4807SOL     OW15319   0.868   3.579   0.884
 4807SOL    HW115320   0.804   3.535   0.820
 4807SOL    HW215321   0.949   3.609   0.834
 4808SOL     OW15322   2.485   6.413   3.357
 4808SOL    HW115323   2.486   6.352   3.278
 4808SOL    HW215324   2.429   6.372   3.430
 4809SOL     OW15325   2.759   3.742   0.933
 4809SOL    HW115326   2.855   3.755   0.910
 4809SOL    HW215327   2.717   3.679   0.866
 4810SOL     OW15328   2.019   5.481   4.395
 4810SOL    HW115329   2.023   5.568   4.445
 4810SOL    HW215330   1.933   5.476   4.345
 4811SOL     OW15331   3.171   3.109   4.731
 4811SOL    HW115332   3.177   3.097   4.830
 4811SOL    HW215333   3.248   3.164   4.699
 4812SOL     OW15334   1.927   6.096   1.277
 4812SOL    HW115335   2.002   6.110   1.341
 4812SOL    HW215336   1.963   6.057   1.192
 4813SOL     OW15337   1.120   2.502   4.869
 4813SOL    HW115338   1.097   2.429   4.805
 4813SOL    HW215339   1.036   2.533   4.915
 4814SOL     OW15340   4.672   1.298   0.352
 4814SOL    HW115341   4.578   1.330   0.365
 4814SOL    HW215342   4.714   1.346   0.276
 4815SOL     OW15343   6.633   4.383   3.068
 4815SOL    HW115344   6.642   4.342   3.159
 4815SOL    HW215345   6.693   4.336   3.004
 4816SOL     OW15346   2.838   0.533   2.690
 4816SOL    HW115347   2.907   0.535   2.617
 4816SOL    HW215348   2.835   0.623   2.734
 4817SOL     OW15349   4.700   3.411   6.894
 4817SOL    HW115350   4.624   3.420   6.830
 4817SOL    HW215351   4.767   3.346   6.857
 4818SOL     OW15352   4.786   6.473   5.626
 4818SOL    HW115353   4.801   6.374   5.621
 4818SOL    HW215354   4.691   6.494   5.603
 4819SOL     OW15355   3.623   0.085   0.644
 4819SOL    HW115356   3.673   0.129   0.569
 4819SOL    HW215357   3.525   0.102   0.634
 4820SOL     OW15358   0.831   5.294   1.317
 4820SOL    HW115359   0.873   5.216   1.364
 4820SOL    HW215360   0.878   5.378   1.345
 4821SOL     OW15361   6.794   5.971   1.184
 4821SOL    HW115362   6.751   5.886   1.152
 4821SOL    HW215363   6.770   5.986   1.280
 4822SOL     OW15364   0.470   3.575   2.033
 4822SOL    HW115365   0.561   3.616   2.024
 4822SOL    HW215366   0.472   3.482   1.994
 4823SOL     OW15367   6.547   1.967   2.533
 4823SOL    HW115368   6.554   1.871   2.560
 4823SOL    HW215369   6.453   1.987   2.504
 4824SOL     OW15370   5.079   1.122   2.989
 4824SOL    HW115371   5.105   1.031   2.956
 4824SOL    HW215372   5.150   1.188   2.964
 4825SOL     OW15373   2.375   4.414   4.601
 4825SOL    HW115374   2.454   4.473   4.619
 4825SOL    HW215375   2.293   4.453   4.643
 4826SOL     OW15376   0.904   6.008   6.789
 4826SOL    HW115377   0.978   6.004   6.857
 4826SOL    HW215378   0.855   5.921   6.787
 4827SOL     OW15379   5.457   0.928   6.448
 4827SOL    HW115380   5.446   0.897   6.543
 4827SOL    HW215381   5.503   0.857   6.396
 4828SOL     OW15382   6.689   2.662   6.729
 4828SOL    HW115383   6.789   2.667   6.731
 4828SOL    HW215384   6.659   2.620   6.643
 4829SOL     OW15385   2.178   1.128   5.547
 4829SOL    HW115386   2.263   1.095   5.589
 4829SOL    HW215387   2.200   1.191   5.472
 4830SOL     OW15388   6.428   4.438   4.560
 4830SOL    HW115389   6.333   4.438   4.592
 4830SOL    HW215390   6.475   4.358   4.596
 4831SOL     OW15391   0.108   1.625   6.621
 4831SOL    HW115392   0.113   1.657   6.526
 4831SOL    HW215393   0.200   1.603   6.653
 4832SOL     OW15394   1.318   2.504   6.309
 4832SOL    HW115395   1.399   2.470   6.261
 4832SOL    HW215396   1.347   2.561   6.386
 4833SOL     OW15397   6.479   2.479   1.684
 4833SOL    HW115398   6.515   2.421   1.758
 4833SOL    HW215399   6.547   2.483   1.610
 4834SOL     OW15400   5.628   0.876   3.296
 4834SOL    HW115401   5.630   0.857   3.197
 4834SOL    HW215402   5.715   0.848   3.336
 4835SOL     OW15403   2.183   2.358   5.959
 4835SOL    HW115404   2.112   2.381   5.893
 4835SOL    HW215405   2.263   2.417   5.945
 4836SOL     OW15406   5.814   5.129   3.631
 4836SOL    HW115407   5.828   5.227   3.644
 4836SOL    HW215408   5.758   5.114   3.549
 4837SOL     OW15409   6.959   5.139   2.191
 4837SOL    HW115410   6.917   5.229   2.186
 4837SOL    HW215411   0.031   5.149   2.202
 4838SOL     OW15412   3.031   6.530   3.187
 4838SOL    HW115413   2.939   6.537   3.226
 4838SOL    HW215414   3.030   6.563   3.092
 4839SOL     OW15415   0.518   6.959   5.635
 4839SOL    HW115416   0.444   6.983   5.699
 4839SOL    HW215417   0.552   6.868   5.657
 4840SOL     OW15418   6.239   5.393   5.875
 4840SOL    HW115419   6.222   5.466   5.808
 4840SOL    HW215420   6.330   5.355   5.860
 4841SOL     OW15421   0.887   5.118   2.094
 4841SOL    HW115422   0.877   5.189   2.163
 4841SOL    HW215423   0.983   5.092   2.086
 4842SOL     OW15424   3.351   6.919   0.463
 4842SOL    HW115425   3.319   6.824   0.466
 4842SOL    HW215426   3.431   6.925   0.403
 4843SOL     OW15427   2.289   3.946   0.488
 4843SOL    HW115428   2.290   3.928   0.586
 4843SOL    HW215429   2.199   3.980   0.461
 4844SOL     OW15430   0.523   1.158   5.506
 4844SOL    HW115431   0.448   1.214   5.541
 4844SOL    HW215432   0.611   1.198   5.532
 4845SOL     OW15433   5.967   6.818   3.762
 4845SOL    HW115434   6.002   6.882   3.831
 4845SOL    HW215435   6.043   6.763   3.727
 4846SOL     OW15436   0.172   4.508   5.033
 4846SOL    HW115437   0.235   4.541   5.104
 4846SOL    HW215438   0.078   4.530   5.059
 4847SOL     OW15439   5.310   3.738   4.310
 4847SOL    HW115440   5.323   3.793   4.228
 4847SOL    HW215441   5.398   3.710   4.347
 4848SOL     OW15442   3.111   3.745   1.176
 4848SOL    HW115443   3.167   3.724   1.257
 4848SOL    HW215444   3.061   3.662   1.149
 4849SOL     OW15445   2.824   6.399   0.028
 4849SOL    HW115446   2.781   6.486   0.054
 4849SOL    HW215447   2.867   6.358   0.108
 4850SOL     OW15448   3.506   6.734   3.403
 4850SOL    HW115449   3.560   6.782   3.472
 4850SOL    HW215450   3.421   6.702   3.444
 4851SOL     OW15451   5.516   1.746   5.547
 4851SOL    HW115452   5.544   1.730   5.452
 4851SOL    HW215453   5.451   1.675   5.575
 4852SOL     OW15454   1.099   1.965   1.713
 4852SOL    HW115455   1.193   1.959   1.745
 4852SOL    HW215456   1.037   1.932   1.784
 4853SOL     OW15457   3.222   0.461   1.012
 4853SOL    HW115458   3.256   0.453   1.106
 4853SOL    HW215459   3.142   0.403   1.000
 4854SOL     OW15460   4.713   6.835   5.305
 4854SOL    HW115461   4.701   6.893   5.386
 4854SOL    HW215462   4.638   6.770   5.300
 4855SOL     OW15463   0.080   2.547   2.260
 4855SOL    HW115464   0.063   2.568   2.164
 4855SOL    HW215465   0.152   2.478   2.267
 4856SOL     OW15466   6.865   5.001   3.088
 4856SOL    HW115467   6.949   5.042   3.053
 4856SOL    HW215468   6.830   5.055   3.165
 4857SOL     OW15469   6.615   1.483   5.787
 4857SOL    HW115470   6.568   1.416   5.729
 4857SOL    HW215471   6.569   1.488   5.875
 4858SOL     OW15472   1.199   6.704   2.833
 4858SOL    HW115473   1.214   6.800   2.811
 4858SOL    HW215474   1.237   6.647   2.760
 4859SOL     OW15475   3.948   6.889   5.915
 4859SOL    HW115476   3.951   6.985   5.888
 4859SOL    HW215477   3.917   6.834   5.837
 4860SOL     OW15478   2.602   5.610   6.926
 4860SOL    HW115479   2.640   5.548   6.858
 4860SOL    HW215480   2.631   5.582   7.018
 4861SOL     OW15481   4.314   3.881   5.998
 4861SOL    HW115482   4.355   3.793   5.976
 4861SOL    HW215483   4.214   3.872   6.000
 4862SOL     OW15484   1.700   0.515   0.088
 4862SOL    HW115485   1.766   0.558   0.026
 4862SOL    HW215486   1.736   0.517   0.181
 4863SOL     OW15487   4.779   3.534   5.759
 4863SOL    HW115488   4.762   3.633   5.753
 4863SOL    HW215489   4.758   3.491   5.672
 4864SOL     OW15490   3.457   1.479   3.792
 4864SOL    HW115491   3.438   1.455   3.887
 4864SOL    HW215492   3.544   1.440   3.764
 4865SOL     OW15493   1.149   5.469   4.848
 4865SOL    HW115494   1.182   5.508   4.934
 4865SOL    HW215495   1.156   5.369   4.853
 4866SOL     OW15496   0.472   4.087   5.368
 4866SOL    HW115497   0.506   3.996   5.344
 4866SOL    HW215498   0.373   4.090   5.351
 4867SOL     OW15499   4.013   1.017   3.233
 4867SOL    HW115500   3.932   1.034   3.176
 4867SOL    HW215501   4.035   0.919   3.232
 4868SOL     OW15502   0.071   6.101   1.275
 4868SOL    HW115503   0.069   6.139   1.183
 4868SOL    HW215504   0.163   6.108   1.313
 4869SOL     OW15505   6.851   0.857   0.516
 4869SOL    HW115506   6.815   0.864   0.608
 4869SOL    HW215507   6.813   0.777   0.470
 4870SOL     OW15508   1.770   0.784   0.366
 4870SOL    HW115509   1.674   0.812   0.370
 4870SOL    HW215510   1.776   0.684   0.371
 4871SOL     OW15511   1.068   1.671   4.230
 4871SOL    HW115512   1.034   1.764   4.216
 4871SOL    HW215513   1.039   1.612   4.155
 4872SOL     OW15514   5.497   0.635   3.079
 4872SOL    HW115515   5.567   0.707   3.079
 4872SOL    HW215516   5.533   0.553   3.034
 4873SOL     OW15517   6.568   6.884   3.210
 4873SOL    HW115518   6.616   6.873   3.123
 4873SOL    HW215519   6.557   6.795   3.254
 4874SOL     OW15520   5.681   4.503   2.651
 4874SOL    HW115521   5.702   4.462   2.740
 4874SOL    HW215522   5.708   4.599   2.651
 4875SOL     OW15523   6.650   6.722   4.589
 4875SOL    HW115524   6.580   6.700   4.657
 4875SOL    HW215525   6.721   6.779   4.632
 4876SOL     OW15526   5.797   2.040   2.025
 4876SOL    HW115527   5.784   2.127   1.978
 4876SOL    HW215528   5.894   2.016   2.025
 4877SOL     OW15529   0.658   1.416   0.385
 4877SOL    HW115530   0.707   1.416   0.472
 4877SOL    HW215531   0.561   1.437   0.401
 4878SOL     OW15532   6.432   4.232   4.317
 4878SOL    HW115533   6.456   4.201   4.225
 4878SOL    HW215534   6.379   4.317   4.310
 4879SOL     OW15535   5.375   1.263   3.097
 4879SOL    HW115536   5.393   1.285   3.193
 4879SOL    HW215537   5.289   1.306   3.069
 4880SOL     OW15538   0.356   3.440   6.780
 4880SOL    HW115539   0.290   3.515   6.795
 4880SOL    HW215540   0.367   3.388   6.864
 4881SOL     OW15541   6.838   3.887   2.132
 4881SOL    HW115542   6.750   3.841   2.142
 4881SOL    HW215543   6.900   3.830   2.079
 4882SOL     OW15544   5.103   2.370   4.243
 4882SOL    HW115545   5.080   2.344   4.149
 4882SOL    HW215546   5.071   2.463   4.260
 4883SOL     OW15547   0.119   4.503   6.277
 4883SOL    HW115548   0.160   4.500   6.186
 4883SOL    HW215549   0.191   4.508   6.347
 4884SOL     OW15550   1.825   2.516   1.657
 4884SOL    HW115551   1.792   2.504   1.564
 4884SOL    HW215552   1.906   2.574   1.656
 4885SOL     OW15553   1.320   6.098   6.571
 4885SOL    HW115554   1.350   6.007   6.543
 4885SOL    HW215555   1.391   6.165   6.550
 4886SOL     OW15556   3.173   0.711   2.231
 4886SOL    HW115557   3.094   0.728   2.289
 4886SOL    HW215558   3.226   0.635   2.268
 4887SOL     OW15559   5.521   6.070   0.647
 4887SOL    HW115560   5.576   5.997   0.687
 4887SOL    HW215561   5.465   6.112   0.718
 4888SOL     OW15562   3.750   6.480   3.045
 4888SOL    HW115563   3.820   6.475   3.116
 4888SOL    HW215564   3.688   6.556   3.064
 4889SOL     OW15565   5.316   3.088   3.337
 4889SOL    HW115566   5.414   3.104   3.327
 4889SOL    HW215567   5.281   3.143   3.413
 4890SOL     OW15568   6.825   2.446   4.844
 4890SOL    HW115569   6.779   2.417   4.761
 4890SOL    HW215570   6.820   2.545   4.853
 4891SOL     OW15571   3.368   5.912   0.181
 4891SOL    HW115572   3.279   5.894   0.222
 4891SOL    HW215573   3.404   5.998   0.216
 4892SOL     OW15574   4.832   4.668   1.640
 4892SOL    HW115575   4.733   4.669   1.625
 4892SOL    HW215576   4.852   4.689   1.736
 4893SOL     OW15577   2.709   2.309   0.838
 4893SOL    HW115578   2.802   2.280   0.857
 4893SOL    HW215579   2.710   2.404   0.807
 4894SOL     OW15580   4.995   6.059   0.349
 4894SOL    HW115581   5.056   5.990   0.385
 4894SOL    HW215582   4.900   6.027   0.355
 4895SOL     OW15583   6.410   3.899   5.253
 4895SOL    HW115584   6.406   3.946   5.342
 4895SOL    HW215585   6.327   3.845   5.240
 4896SOL     OW15586   2.407   4.907   5.071
 4896SOL    HW115587   2.431   4.811   5.081
 4896SOL    HW215588   2.379   4.925   4.977
 4897SOL     OW15589   2.795   1.707   5.968
 4897SOL    HW115590   2.697   1.697   5.984
 4897SOL    HW215591   2.814   1.800   5.937
 4898SOL     OW15592   5.051   2.569   3.001
 4898SOL    HW115593   5.123   2.638   2.990
 4898SOL    HW215594   5.031   2.528   2.912
 4899SOL     OW15595   6.399   5.551   1.038
 4899SOL    HW115596   6.415   5.478   1.105
 4899SOL    HW215597   6.468   5.622   1.048
 4900SOL     OW15598   3.102   5.337   5.716
 4900SOL    HW115599   3.014   5.293   5.736
 4900SOL    HW215600   3.176   5.282   5.755
 4901SOL     OW15601   2.392   0.698   6.324
 4901SOL    HW115602   2.304   0.666   6.288
 4901SOL    HW215603   2.428   0.630   6.387
 4902SOL     OW15604   2.011   0.146   5.748
 4902SOL    HW115605   2.005   0.101   5.659
 4902SOL    HW215606   1.958   0.231   5.747
 4903SOL     OW15607   5.364   3.546   3.085
 4903SOL    HW115608   5.278   3.567   3.039
 4903SOL    HW215609   5.393   3.453   3.060
 4904SOL     OW15610   2.709   0.410   2.367
 4904SOL    HW115611   2.611   0.428   2.383
 4904SOL    HW215612   2.726   0.312   2.370
 4905SOL     OW15613   2.312   1.397   1.263
 4905SOL    HW115614   2.295   1.427   1.357
 4905SOL    HW215615   2.246   1.439   1.202
 4906SOL     OW15616   5.272   3.642   5.074
 4906SOL    HW115617   5.299   3.597   4.989
 4906SOL    HW215618   5.345   3.633   5.142
 4907SOL     OW15619   4.879   2.263   0.745
 4907SOL    HW115620   4.843   2.305   0.828
 4907SOL    HW215621   4.958   2.316   0.713
 4908SOL     OW15622   2.596   6.545   0.086
 4908SOL    HW115623   2.582   6.499   7.026
 4908SOL    HW215624   2.508   6.558   0.132
 4909SOL     OW15625   5.114   6.595   5.100
 4909SOL    HW115626   5.058   6.664   5.146
 4909SOL    HW215627   5.210   6.609   5.124
 4910SOL     OW15628   4.272   1.952   6.706
 4910SOL    HW115629   4.268   1.913   6.798
 4910SOL    HW215630   4.277   1.878   6.639
 4911SOL     OW15631   6.178   4.738   3.841
 4911SOL    HW115632   6.138   4.819   3.799
 4911SOL    HW215633   6.255   4.706   3.785
 4912SOL     OW15634   5.780   3.733   4.180
 4912SOL    HW115635   5.817   3.747   4.088
 4912SOL    HW215636   5.847   3.761   4.248
 4913SOL     OW15637   1.434   3.899   5.873
 4913SOL    HW115638   1.504   3.970   5.876
 4913SOL    HW215639   1.429   3.853   5.962
 4914SOL     OW15640   2.852   6.877   4.341
 4914SOL    HW115641   2.838   6.965   4.297
 4914SOL    HW215642   2.941   6.840   4.315
 4915SOL     OW15643   4.899   0.031   4.741
 4915SOL    HW115644   4.899   0.034   4.641
 4915SOL    HW215645   4.829   0.094   4.776
 4916SOL     OW15646   5.954   3.136   3.792
 4916SOL    HW115647   5.916   3.223   3.761
 4916SOL    HW215648   6.045   3.151   3.831
 4917SOL     OW15649   5.172   6.048   6.595
 4917SOL    HW115650   5.213   6.016   6.680
 4917SOL    HW215651   5.073   6.034   6.599
 4918SOL     OW15652   4.576   6.326   4.269
 4918SOL    HW115653   4.491   6.318   4.321
 4918SOL    HW215654   4.592   6.422   4.247
 4919SOL     OW15655   4.911   3.763   1.828
 4919SOL    HW115656   4.828   3.709   1.844
 4919SOL    HW215657   4.956   3.730   1.745
 4920SOL     OW15658   6.121   1.017   5.738
 4920SOL    HW115659   6.113   1.029   5.639
 4920SOL    HW215660   6.065   1.085   5.784
 4921SOL     OW15661   6.247   1.061   2.167
 4921SOL    HW115662   6.217   1.081   2.074
 4921SOL    HW215663   6.294   0.972   2.168
 4922SOL     OW15664   4.199   6.923   5.772
 4922SOL    HW115665   4.261   6.888   5.843
 4922SOL    HW215666   4.181   6.852   5.705
 4923SOL     OW15667   3.926   1.271   2.208
 4923SOL    HW115668   3.832   1.301   2.228
 4923SOL    HW215669   3.923   1.180   2.166
 4924SOL     OW15670   3.098   1.858   4.527
 4924SOL    HW115671   3.117   1.954   4.503
 4924SOL    HW215672   3.112   1.800   4.447
 4925SOL     OW15673   5.324   0.110   3.914
 4925SOL    HW115674   5.294   0.022   3.951
 4925SOL    HW215675   5.245   0.161   3.880
 4926SOL     OW15676   4.617   2.608   1.887
 4926SOL    HW115677   4.576   2.529   1.933
 4926SOL    HW215678   4.658   2.669   1.955
 4927SOL     OW15679   1.899   1.698   0.916
 4927SOL    HW115680   1.939   1.630   0.977
 4927SOL    HW215681   1.953   1.704   0.833
 4928SOL     OW15682   0.704   1.784   1.798
 4928SOL    HW115683   0.604   1.783   1.809
 4928SOL    HW215684   0.728   1.756   1.705
 4929SOL     OW15685   6.368   0.269   5.262
 4929SOL    HW115686   6.277   0.256   5.299
 4929SOL    HW215687   6.364   0.271   5.162
 4930SOL     OW15688   4.753   5.603   2.442
 4930SOL    HW115689   4.800   5.676   2.392
 4930SOL    HW215690   4.821   5.544   2.487
 4931SOL     OW15691   4.121   0.353   1.073
 4931SOL    HW115692   4.196   0.376   1.012
 4931SOL    HW215693   4.037   0.340   1.020
 4932SOL     OW15694   3.856   4.080   4.516
 4932SOL    HW115695   3.905   4.048   4.598
 4932SOL    HW215696   3.776   4.132   4.543
 4933SOL     OW15697   1.898   0.933   5.023
 4933SOL    HW115698   1.875   0.940   4.925
 4933SOL    HW215699   1.831   0.982   5.077
 4934SOL     OW15700   1.861   0.164   2.860
 4934SOL    HW115701   1.906   0.213   2.785
 4934SOL    HW215702   1.930   0.127   2.922
 4935SOL     OW15703   6.604   0.434   4.411
 4935SOL    HW115704   6.665   0.406   4.486
 4935SOL    HW215705   6.607   0.367   4.338
 4936SOL     OW15706   4.807   2.510   0.500
 4936SOL    HW115707   4.719   2.471   0.471
 4936SOL    HW215708   4.881   2.452   0.467
 4937SOL     OW15709   3.546   2.840   5.128
 4937SOL    HW115710   3.635   2.879   5.104
 4937SOL    HW215711   3.490   2.831   5.046
 4938SOL     OW15712   2.431   4.835   6.528
 4938SOL    HW115713   2.388   4.747   6.510
 4938SOL    HW215714   2.364   4.899   6.565
 4939SOL     OW15715   5.171   2.667   6.661
 4939SOL    HW115716   5.199   2.759   6.635
 4939SOL    HW215717   5.087   2.671   6.715
 4940SOL     OW15718   0.928   5.988   2.998
 4940SOL    HW115719   0.849   6.048   2.990
 4940SOL    HW215720   0.967   5.997   3.090
 4941SOL     OW15721   6.909   0.633   0.090
 4941SOL    HW115722   6.840   0.626   0.018
 4941SOL    HW215723   6.910   0.549   0.144
 4942SOL     OW15724   5.256   2.485   6.443
 4942SOL    HW115725   5.192   2.434   6.385
 4942SOL    HW215726   5.211   2.513   6.527
 4943SOL     OW15727   6.728   3.274   1.230
 4943SOL    HW115728   6.707   3.196   1.289
 4943SOL    HW215729   6.649   3.294   1.171
 4944SOL     OW15730   2.018   3.319   2.318
 4944SOL    HW115731   2.042   3.228   2.283
 4944SOL    HW215732   2.034   3.387   2.247
 4945SOL     OW15733   6.639   5.662   4.108
 4945SOL    HW115734   6.569   5.676   4.038
 4945SOL    HW215735   6.665   5.565   4.109
 4946SOL     OW15736   6.775   4.881   2.857
 4946SOL    HW115737   6.686   4.837   2.843
 4946SOL    HW215738   6.783   4.910   2.952
 4947SOL     OW15739   5.744   6.909   0.357
 4947SOL    HW115740   5.687   6.959   0.423
 4947SOL    HW215741   5.740   6.954   0.268
 4948SOL     OW15742   2.623   0.906   2.095
 4948SOL    HW115743   2.632   0.923   1.997
 4948SOL    HW215744   2.615   0.993   2.144
 4949SOL     OW15745   5.563   2.347   5.816
 4949SOL    HW115746   5.504   2.282   5.863
 4949SOL    HW215747   5.640   2.299   5.775
 4950SOL     OW15748   3.847   5.640   3.860
 4950SOL    HW115749   3.907   5.623   3.782
 4950SOL    HW215750   3.801   5.556   3.886
 4951SOL     OW15751   4.475   2.397   4.013
 4951SOL    HW115752   4.555   2.445   4.049
 4951SOL    HW215753   4.441   2.446   3.933
 4952SOL     OW15754   5.966   5.419   4.511
 4952SOL    HW115755   5.939   5.325   4.491
 4952SOL    HW215756   6.053   5.439   4.464
 4953SOL     OW15757   1.153   5.368   1.886
 4953SOL    HW115758   1.139   5.285   1.939
 4953SOL    HW215759   1.095   5.366   1.804
 4954SOL     OW15760   0.550   6.591   5.640
 4954SOL    HW115761   0.613   6.668   5.652
 4954SOL    HW215762   0.559   6.555   5.547
 4955SOL     OW15763   1.551   0.163   2.015
 4955SOL    HW115764   1.550   0.131   1.920
 4955SOL    HW215765   1.607   0.245   2.022
 4956SOL     OW15766   6.085   5.683   2.530
 4956SOL    HW115767   5.993   5.651   2.550
 4956SOL    HW215768   6.148   5.647   2.598
 4957SOL     OW15769   1.396   5.270   4.451
 4957SOL    HW115770   1.451   5.271   4.534
 4957SOL    HW215771   1.445   5.318   4.378
 4958SOL     OW15772   6.504   6.200   0.234
 4958SOL    HW115773   6.492   6.250   0.320
 4958SOL    HW215774   6.493   6.102   0.251
 4959SOL     OW15775   0.717   2.327   0.089
 4959SOL    HW115776   0.692   2.412   0.137
 4959SOL    HW215777   0.649   2.308   0.018
 4960SOL     OW15778   4.209   6.562   5.352
 4960SOL    HW115779   4.192   6.470   5.387
 4960SOL    HW215780   4.304   6.568   5.323
 4961SOL     OW15781   6.024   6.843   4.951
 4961SOL    HW115782   6.079   6.909   5.003
 4961SOL    HW215783   5.940   6.823   5.002
 4962SOL     OW15784   5.753   2.423   2.242
 4962SOL    HW115785   5.786   2.449   2.151
 4962SOL    HW215786   5.793   2.483   2.310
 4963SOL     OW15787   0.862   4.642   2.170
 4963SOL    HW115788   0.782   4.618   2.115
 4963SOL    HW215789   0.941   4.652   2.110
 4964SOL     OW15790   4.192   1.202   4.184
 4964SOL    HW115791   4.197   1.106   4.159
 4964SOL    HW215792   4.244   1.256   4.118
 4965SOL     OW15793   0.181   5.380   5.095
 4965SOL    HW115794   0.151   5.475   5.094
 4965SOL    HW215795   0.264   5.372   5.150
 4966SOL     OW15796   4.891   5.725   6.358
 4966SOL    HW115797   4.976   5.701   6.310
 4966SOL    HW215798   4.842   5.642   6.384
 4967SOL     OW15799   5.371   0.831   6.688
 4967SOL    HW115800   5.407   0.840   6.780
 4967SOL    HW215801   5.349   0.736   6.669
 4968SOL     OW15802   5.423   3.092   6.957
 4968SOL    HW115803   5.369   3.156   7.012
 4968SOL    HW215804   5.410   3.112   6.860
 4969SOL     OW15805   0.907   0.540   1.636
 4969SOL    HW115806   0.873   0.558   1.544
 4969SOL    HW215807   0.857   0.463   1.676
 4970SOL     OW15808   1.976   2.211   6.136
 4970SOL    HW115809   2.041   2.254   6.074
 4970SOL    HW215810   2.006   2.118   6.158
 4971SOL     OW15811   6.400   5.851   3.436
 4971SOL    HW115812   6.413   5.773   3.374
 4971SOL    HW215813   6.305   5.855   3.465
 4972SOL     OW15814   2.359   2.133   4.350
 4972SOL    HW115815   2.428   2.063   4.331
 4972SOL    HW215816   2.331   2.176   4.265
 4973SOL     OW15817   4.385   5.927   2.930
 4973SOL    HW115818   4.354   5.850   2.874
 4973SOL    HW215819   4.465   5.900   2.984
 4974SOL     OW15820   3.788   0.130   6.098
 4974SOL    HW115821   3.752   0.038   6.079
 4974SOL    HW215822   3.722   0.198   6.066
 4975SOL     OW15823   4.203   6.024   0.003
 4975SOL    HW115824   4.128   6.088   7.014
 4975SOL    HW215825   4.197   5.989   0.097
 4976SOL     OW15826   2.950   1.149   5.041
 4976SOL    HW115827   3.045   1.120   5.029
 4976SOL    HW215828   2.930   1.224   4.979
 4977SOL     OW15829   3.797   3.054   1.663
 4977SOL    HW115830   3.722   3.114   1.691
 4977SOL    HW215831   3.860   3.041   1.740
 4978SOL     OW15832   6.051   4.152   6.195
 4978SOL    HW115833   5.985   4.098   6.144
 4978SOL    HW215834   6.144   4.123   6.172
 4979SOL     OW15835   1.531   1.709   3.774
 4979SOL    HW115836   1.465   1.636   3.788
 4979SOL    HW215837   1.484   1.792   3.743
 4980SOL     OW15838   2.525   5.320   2.213
 4980SOL    HW115839   2.555   5.394   2.274
 4980SOL    HW215840   2.556   5.232   2.250
 4981SOL     OW15841   5.361   6.119   5.874
 4981SOL    HW115842   5.383   6.132   5.971
 4981SOL    HW215843   5.366   6.022   5.852
 4982SOL     OW15844   3.104   1.529   6.633
 4982SOL    HW115845   3.121   1.591   6.557
 4982SOL    HW215846   3.125   1.577   6.719
 4983SOL     OW15847   0.143   1.814   4.356
 4983SOL    HW115848   0.091   1.751   4.298
 4983SOL    HW215849   0.091   1.833   4.439
 4984SOL     OW15850   5.204   5.389   4.227
 4984SOL    HW115851   5.152   5.472   4.244
 4984SOL    HW215852   5.201   5.367   4.129
 4985SOL     OW15853   6.008   3.812   1.585
 4985SOL    HW115854   6.045   3.853   1.501
 4985SOL    HW215855   5.912   3.790   1.573
 4986SOL     OW15856   3.212   5.222   3.551
 4986SOL    HW115857   3.274   5.300   3.553
 4986SOL    HW215858   3.209   5.179   3.641
 4987SOL     OW15859   1.856   2.642   0.075
 4987SOL    HW115860   1.942   2.682   0.044
 4987SOL    HW215861   1.842   2.662   0.172
 4988SOL     OW15862   2.039   1.860   4.851
 4988SOL    HW115863   2.006   1.953   4.865
 4988SOL    HW215864   2.124   1.846   4.903
 4989SOL     OW15865   0.037   0.719   1.201
 4989SOL    HW115866   6.965   0.725   1.211
 4989SOL    HW215867   0.063   0.624   1.181
 4990SOL     OW15868   2.262   2.146   6.783
 4990SOL    HW115869   2.211   2.161   6.699
 4990SOL    HW215870   2.212   2.184   6.861
 4991SOL     OW15871   2.828   2.134   5.738
 4991SOL    HW115872   2.893   2.184   5.796
 4991SOL    HW215873   2.871   2.050   5.706
 4992SOL     OW15874   4.691   0.221   4.782
 4992SOL    HW115875   4.655   0.276   4.706
 4992SOL    HW215876   4.680   0.271   4.868
 4993SOL     OW15877   1.105   6.542   4.385
 4993SOL    HW115878   1.195   6.528   4.343
 4993SOL    HW215879   1.102   6.634   4.426
 4994SOL     OW15880   6.973   6.654   2.922
 4994SOL    HW115881   6.900   6.630   2.858
 4994SOL    HW215882   6.947   6.624   3.014
 4995SOL     OW15883   6.292   3.297   5.109
 4995SOL    HW115884   6.286   3.388   5.069
 4995SOL    HW215885   6.319   3.231   5.039
 4996SOL     OW15886   0.974   1.175   3.902
 4996SOL    HW115887   0.920   1.257   3.920
 4996SOL    HW215888   0.991   1.127   3.988
 4997SOL     OW15889   6.667   2.378   3.580
 4997SOL    HW115890   6.614   2.422   3.652
 4997SOL    HW215891   6.694   2.446   3.512
 4998SOL     OW15892   1.071   5.641   5.258
 4998SOL    HW115893   0.980   5.614   5.225
 4998SOL    HW215894   1.136   5.640   5.183
 4999SOL     OW15895   6.618   4.572   1.119
 4999SOL    HW115896   6.629   4.656   1.172
 4999SOL    HW215897   6.541   4.519   1.155
 5000SOL     OW15898   5.986   5.660   3.662
 5000SOL    HW115899   6.010   5.607   3.581
 5000SOL    HW215900   5.887   5.655   3.677
 5001SOL     OW15901   4.924   3.800   5.522
 5001SOL    HW115902   4.896   3.732   5.454
 5001SOL    HW215903   4.878   3.781   5.608
 5002SOL     OW15904   1.376   2.634   1.415
 5002SOL    HW115905   1.292   2.627   1.468
 5002SOL    HW215906   1.424   2.718   1.439
 5003SOL     OW15907   5.456   6.296   4.697
 5003SOL    HW115908   5.464   6.336   4.606
 5003SOL    HW215909   5.528   6.228   4.711
 5004SOL     OW15910   2.042   5.080   6.273
 5004SOL    HW115911   2.016   5.075   6.369
 5004SOL    HW215912   2.123   5.022   6.257
 5005SOL     OW15913   5.132   1.711   6.743
 5005SOL    HW115914   5.099   1.805   6.741
 5005SOL    HW215915   5.231   1.711   6.731
 5006SOL     OW15916   4.160   5.373   1.931
 5006SOL    HW115917   4.170   5.450   1.993
 5006SOL    HW215918   4.234   5.374   1.864
 5007SOL     OW15919   3.435   0.510   4.741
 5007SOL    HW115920   3.422   0.493   4.643
 5007SOL    HW215921   3.506   0.580   4.754
 5008SOL     OW15922   6.053   1.938   4.123
 5008SOL    HW115923   6.029   1.987   4.039
 5008SOL    HW215924   6.078   1.844   4.101
 5009SOL     OW15925   3.468   6.670   2.404
 5009SOL    HW115926   3.380   6.704   2.371
 5009SOL    HW215927   3.487   6.580   2.362
 5010SOL     OW15928   3.174   3.931   6.333
 5010SOL    HW115929   3.235   3.982   6.393
 5010SOL    HW215930   3.087   3.979   6.326
 5011SOL     OW15931   0.850   2.340   5.084
 5011SOL    HW115932   0.805   2.268   5.136
 5011SOL    HW215933   0.902   2.398   5.146
 5012SOL     OW15934   6.286   1.715   6.906
 5012SOL    HW115935   6.310   1.729   6.810
 5012SOL    HW215936   6.222   1.638   6.915
 5013SOL     OW15937   4.916   1.741   5.274
 5013SOL    HW115938   4.828   1.779   5.300
 5013SOL    HW215939   4.903   1.667   5.208
 5014SOL     OW15940   1.132   4.847   6.428
 5014SOL    HW115941   1.142   4.916   6.499
 5014SOL    HW215942   1.077   4.884   6.352
 5015SOL     OW15943   4.754   2.462   4.123
 5015SOL    HW115944   4.689   2.481   4.197
 5015SOL    HW215945   4.770   2.545   4.070
 5016SOL     OW15946   1.834   5.752   1.241
 5016SOL    HW115947   1.760   5.760   1.308
 5016SOL    HW215948   1.922   5.761   1.287
 5017SOL     OW15949   6.841   1.138   1.488
 5017SOL    HW115950   6.892   1.109   1.407
 5017SOL    HW215951   6.900   1.134   1.568
 5018SOL     OW15952   5.744   5.540   4.303
 5018SOL    HW115953   5.731   5.613   4.370
 5018SOL    HW215954   5.781   5.459   4.349
 5019SOL     OW15955   2.972   5.597   4.669
 5019SOL    HW115956   2.966   5.497   4.663
 5019SOL    HW215957   2.936   5.638   4.585
 5020SOL     OW15958   5.051   5.408   0.297
 5020SOL    HW115959   5.096   5.423   0.209
 5020SOL    HW215960   5.120   5.384   0.365
 5021SOL     OW15961   2.674   5.006   5.139
 5021SOL    HW115962   2.585   4.972   5.107
 5021SOL    HW215963   2.715   4.939   5.200
 5022SOL     OW15964   1.458   2.682   6.492
 5022SOL    HW115965   1.363   2.706   6.510
 5022SOL    HW215966   1.517   2.759   6.515
 5023SOL     OW15967   6.466   3.469   3.841
 5023SOL    HW115968   6.499   3.527   3.766
 5023SOL    HW215969   6.446   3.378   3.806
 5024SOL     OW15970   5.162   4.091   5.683
 5024SOL    HW115971   5.216   4.029   5.740
 5024SOL    HW215972   5.085   4.126   5.737
 5025SOL     OW15973   6.233   6.642   4.970
 5025SOL    HW115974   6.326   6.667   4.941
 5025SOL    HW215975   6.173   6.721   4.962
 5026SOL     OW15976   1.044   5.590   2.553
 5026SOL    HW115977   1.122   5.570   2.612
 5026SOL    HW215978   0.978   5.645   2.604
 5027SOL     OW15979   1.161   5.585   3.006
 5027SOL    HW115980   1.072   5.630   3.014
 5027SOL    HW215981   1.149   5.486   3.013
 5028SOL     OW15982   0.324   6.743   2.566
 5028SOL    HW115983   0.250   6.770   2.505
 5028SOL    HW215984   0.288   6.684   2.638
 5029SOL     OW15985   5.519   0.930   3.959
 5029SOL    HW115986   5.542   0.864   3.888
 5029SOL    HW215987   5.420   0.937   3.967
 5030SOL     OW15988   1.569   5.934   0.608
 5030SOL    HW115989   1.517   6.019   0.602
 5030SOL    HW215990   1.655   5.950   0.657
 5031SOL     OW15991   5.235   0.159   6.862
 5031SOL    HW115992   5.174   0.101   6.917
 5031SOL    HW215993   5.227   0.253   6.894
 5032SOL     OW15994   1.601   5.495   3.216
 5032SOL    HW115995   1.614   5.399   3.192
 5032SOL    HW215996   1.668   5.551   3.169
 5033SOL     OW15997   1.371   4.570   4.885
 5033SOL    HW115998   1.309   4.492   4.873
 5033SOL    HW215999   1.441   4.568   4.814
 5034SOL     OW16000   0.927   2.375   5.780
 5034SOL    HW116001   0.998   2.432   5.820
 5034SOL    HW216002   0.887   2.317   5.851
 5035SOL     OW16003   6.818   4.639   0.858
 5035SOL    HW116004   6.817   4.544   0.891
 5035SOL    HW216005   6.883   4.691   0.913
 5036SOL     OW16006   0.772   1.328   2.142
 5036SOL    HW116007   0.716   1.246   2.142
 5036SOL    HW216008   0.720   1.403   2.100
 5037SOL     OW16009   5.508   3.881   0.767
 5037SOL    HW116010   5.473   3.789   0.747
 5037SOL    HW216011   5.516   3.892   0.866
 5038SOL     OW16012   3.084   5.609   5.853
 5038SOL    HW116013   3.127   5.524   5.823
 5038SOL    HW216014   3.015   5.637   5.786
 5039SOL     OW16015   0.959   1.813   3.948
 5039SOL    HW116016   0.997   1.846   4.035
 5039SOL    HW216017   0.861   1.798   3.958
 5040SOL     OW16018   1.944   2.774   6.268
 5040SOL    HW116019   1.903   2.859   6.235
 5040SOL    HW216020   1.872   2.710   6.294
 5041SOL     OW16021   0.550   5.458   0.023
 5041SOL    HW116022   0.553   5.417   0.115
 5041SOL    HW216023   0.642   5.487   7.024
 5042SOL     OW16024   5.857   1.066   6.070
 5042SOL    HW116025   5.946   1.109   6.087
 5042SOL    HW216026   5.824   1.094   5.979
 5043SOL     OW16027   5.463   6.111   3.792
 5043SOL    HW116028   5.454   6.012   3.800
 5043SOL    HW216029   5.559   6.137   3.795
 5044SOL     OW16030   0.403   4.029   2.802
 5044SOL    HW116031   0.321   4.062   2.847
 5044SOL    HW216032   0.390   4.032   2.703
 5045SOL     OW16033   5.218   3.310   5.254
 5045SOL    HW116034   5.170   3.321   5.167
 5045SOL    HW216035   5.273   3.391   5.272
 5046SOL     OW16036   3.869   3.297   5.764
 5046SOL    HW116037   3.824   3.338   5.685
 5046SOL    HW216038   3.898   3.204   5.742
 5047SOL     OW16039   6.623   1.700   1.550
 5047SOL    HW116040   6.720   1.714   1.526
 5047SOL    HW216041   6.575   1.788   1.545
 5048SOL     OW16042   5.593   4.567   6.772
 5048SOL    HW116043   5.688   4.563   6.802
 5048SOL    HW216044   5.555   4.475   6.768
 5049SOL     OW16045   0.788   0.737   0.248
 5049SOL    HW116046   0.868   0.758   0.192
 5049SOL    HW216047   0.791   0.641   0.275
 5050SOL     OW16048   1.100   3.979   1.003
 5050SOL    HW116049   1.091   4.006   1.099
 5050SOL    HW216050   1.162   3.901   0.996
 5051SOL     OW16051   2.324   4.047   5.687
 5051SOL    HW116052   2.365   3.974   5.742
 5051SOL    HW216053   2.397   4.098   5.641
 5052SOL     OW16054   6.352   2.594   1.098
 5052SOL    HW116055   6.373   2.512   1.151
 5052SOL    HW216056   6.306   2.661   1.158
 5053SOL     OW16057   0.661   3.993   1.037
 5053SOL    HW116058   0.742   3.961   0.988
 5053SOL    HW216059   0.635   4.083   1.003
 5054SOL     OW16060   4.605   5.588   4.669
 5054SOL    HW116061   4.523   5.587   4.612
 5054SOL    HW216062   4.597   5.520   4.742
 5055SOL     OW16063   0.942   0.077   4.283
 5055SOL    HW116064   0.899   7.019   4.312
 5055SOL    HW216065   0.938   0.143   4.358
 5056SOL     OW16066   3.021   1.176   6.959
 5056SOL    HW116067   2.972   1.243   7.014
 5056SOL    HW216068   2.965   1.093   6.950
 5057SOL     OW16069   0.417   3.709   3.263
 5057SOL    HW116070   0.419   3.731   3.165
 5057SOL    HW216071   0.368   3.623   3.277
 5058SOL     OW16072   3.705   1.903   6.885
 5058SOL    HW116073   3.658   1.873   6.803
 5058SOL    HW216074   3.802   1.880   6.878
 5059SOL     OW16075   5.370   2.457   2.793
 5059SOL    HW116076   5.357   2.370   2.840
 5059SOL    HW216077   5.282   2.493   2.763
 5060SOL     OW16078   0.540   3.207   5.739
 5060SOL    HW116079   0.498   3.297   5.732
 5060SOL    HW216080   0.638   3.214   5.720
 5061SOL     OW16081   4.399   2.540   6.272
 5061SOL    HW116082   4.353   2.532   6.360
 5061SOL    HW216083   4.397   2.636   6.242
 5062SOL     OW16084   5.438   1.817   3.012
 5062SOL    HW116085   5.450   1.842   3.109
 5062SOL    HW216086   5.526   1.823   2.965
 5063SOL     OW16087   0.361   0.827   0.697
 5063SOL    HW116088   0.363   0.774   0.612
 5063SOL    HW216089   0.453   0.829   0.737
 5064SOL     OW16090   6.967   5.108   0.512
 5064SOL    HW116091   6.894   5.119   0.445
 5064SOL    HW216092   6.934   5.052   0.588
 5065SOL     OW16093   0.831   1.752   2.199
 5065SOL    HW116094   0.830   1.713   2.291
 5065SOL    HW216095   0.855   1.849   2.204
 5066SOL     OW16096   0.766   5.382   3.569
 5066SOL    HW116097   0.839   5.445   3.542
 5066SOL    HW216098   0.792   5.335   3.653
 5067SOL     OW16099   4.201   2.895   0.769
 5067SOL    HW116100   4.108   2.866   0.746
 5067SOL    HW216101   4.248   2.820   0.815
 5068SOL     OW16102   1.389   6.066   1.069
 5068SOL    HW116103   1.454   6.071   1.146
 5068SOL    HW216104   1.438   6.084   0.984
 5069SOL     OW16105   4.136   4.510   6.634
 5069SOL    HW116106   4.158   4.478   6.727
 5069SOL    HW216107   4.100   4.603   6.638
 5070SOL     OW16108   0.858   3.353   6.454
 5070SOL    HW116109   0.850   3.439   6.405
 5070SOL    HW216110   0.796   3.285   6.415
 5071SOL     OW16111   1.507   6.552   3.259
 5071SOL    HW116112   1.484   6.458   3.284
 5071SOL    HW216113   1.429   6.611   3.280
 5072SOL     OW16114   0.791   2.461   2.702
 5072SOL    HW116115   0.891   2.470   2.705
 5072SOL    HW216116   0.749   2.552   2.706
 5073SOL     OW16117   2.006   1.720   4.617
 5073SOL    HW116118   1.944   1.649   4.651
 5073SOL    HW216119   2.030   1.783   4.691
 5074SOL     OW16120   3.391   2.056   1.565
 5074SOL    HW116121   3.453   2.126   1.600
 5074SOL    HW216122   3.435   1.967   1.569
 5075SOL     OW16123   6.057   1.881   6.821
 5075SOL    HW116124   6.142   1.848   6.861
 5075SOL    HW216125   6.057   1.981   6.820
 5076SOL     OW16126   6.862   1.778   6.017
 5076SOL    HW116127   6.841   1.691   6.062
 5076SOL    HW216128   6.945   1.768   5.963
 5077SOL     OW16129   1.133   5.223   4.276
 5077SOL    HW116130   1.146   5.316   4.309
 5077SOL    HW216131   1.216   5.170   4.294
 5078SOL     OW16132   5.743   1.840   2.652
 5078SOL    HW116133   5.729   1.812   2.747
 5078SOL    HW216134   5.832   1.806   2.620
 5079SOL     OW16135   1.732   3.799   5.917
 5079SOL    HW116136   1.811   3.840   5.965
 5079SOL    HW216137   1.729   3.834   5.824
 5080SOL     OW16138   6.632   5.950   6.512
 5080SOL    HW116139   6.534   5.929   6.510
 5080SOL    HW216140   6.683   5.869   6.541
 5081SOL     OW16141   3.985   4.389   6.372
 5081SOL    HW116142   4.085   4.401   6.367
 5081SOL    HW216143   3.965   4.301   6.415
 5082SOL     OW16144   5.708   0.198   3.058
 5082SOL    HW116145   5.638   0.130   3.080
 5082SOL    HW216146   5.770   0.209   3.136
 5083SOL     OW16147   0.245   0.773   3.450
 5083SOL    HW116148   0.314   0.811   3.389
 5083SOL    HW216149   0.271   0.679   3.476
 5084SOL     OW16150   3.578   5.105   5.558
 5084SOL    HW116151   3.519   5.037   5.515
 5084SOL    HW216152   3.630   5.063   5.632
 5085SOL     OW16153   1.214   3.199   6.527
 5085SOL    HW116154   1.135   3.255   6.552
 5085SOL    HW216155   1.182   3.108   6.498
 5086SOL     OW16156   0.769   4.292   2.215
 5086SOL    HW116157   0.862   4.271   2.243
 5086SOL    HW216158   0.770   4.333   2.124
 5087SOL     OW16159   6.486   5.403   1.770
 5087SOL    HW116160   6.417   5.422   1.699
 5087SOL    HW216161   6.544   5.327   1.741
 5088SOL     OW16162   4.540   4.587   2.591
 5088SOL    HW116163   4.614   4.529   2.556
 5088SOL    HW216164   4.579   4.658   2.650
 5089SOL     OW16165   4.190   5.978   6.217
 5089SOL    HW116166   4.195   6.048   6.145
 5089SOL    HW216167   4.230   6.015   6.301
 5090SOL     OW16168   2.338   6.335   4.686
 5090SOL    HW116169   2.249   6.377   4.709
 5090SOL    HW216170   2.357   6.262   4.751
 5091SOL     OW16171   5.935   5.620   4.701
 5091SOL    HW116172   5.956   5.539   4.647
 5091SOL    HW216173   5.903   5.592   4.792
 5092SOL     OW16174   3.471   2.881   4.658
 5092SOL    HW116175   3.559   2.884   4.612
 5092SOL    HW216176   3.442   2.786   4.667
 5093SOL     OW16177   3.138   2.162   3.042
 5093SOL    HW116178   3.139   2.109   3.127
 5093SOL    HW216179   3.104   2.105   2.968
 5094SOL     OW16180   1.975   4.546   4.881
 5094SOL    HW116181   1.968   4.511   4.788
 5094SOL    HW216182   2.072   4.557   4.905
 5095SOL     OW16183   6.026   2.525   3.117
 5095SOL    HW116184   6.043   2.509   3.019
 5095SOL    HW216185   6.037   2.439   3.167
 5096SOL     OW16186   6.544   3.274   5.218
 5096SOL    HW116187   6.585   3.345   5.160
 5096SOL    HW216188   6.451   3.256   5.186
 5097SOL     OW16189   0.912   0.120   5.929
 5097SOL    HW116190   0.875   0.160   5.845
 5097SOL    HW216191   0.986   0.178   5.964
 5098SOL     OW16192   2.599   1.624   0.488
 5098SOL    HW116193   2.526   1.669   0.540
 5098SOL    HW216194   2.666   1.585   0.552
 5099SOL     OW16195   1.771   5.485   1.836
 5099SOL    HW116196   1.778   5.417   1.909
 5099SOL    HW216197   1.822   5.454   1.756
 5100SOL     OW16198   7.019   3.310   1.519
 5100SOL    HW116199   7.021   3.262   1.607
 5100SOL    HW216200   0.046   3.393   1.525
 5101SOL     OW16201   4.637   1.806   6.269
 5101SOL    HW116202   4.570   1.736   6.244
 5101SOL    HW216203   4.607   1.895   6.234
 5102SOL     OW16204   5.942   4.810   5.150
 5102SOL    HW116205   5.893   4.782   5.232
 5102SOL    HW216206   5.885   4.872   5.096
 5103SOL     OW16207   0.590   0.080   5.118
 5103SOL    HW116208   0.511   0.070   5.057
 5103SOL    HW216209   0.581   0.017   5.195
 5104SOL     OW16210   3.745   3.024   4.020
 5104SOL    HW116211   3.763   3.101   3.958
 5104SOL    HW216212   3.649   2.997   4.011
 5105SOL     OW16213   4.756   2.230   6.513
 5105SOL    HW116214   4.758   2.144   6.564
 5105SOL    HW216215   4.671   2.235   6.460
 5106SOL     OW16216   4.285   0.428   0.879
 5106SOL    HW116217   4.380   0.458   0.877
 5106SOL    HW216218   4.238   0.458   0.796
 5107SOL     OW16219   6.323   4.208   0.166
 5107SOL    HW116220   6.353   4.302   0.148
 5107SOL    HW216221   6.361   4.176   0.253
 5108SOL     OW16222   4.295   4.281   0.560
 5108SOL    HW116223   4.235   4.291   0.480
 5108SOL    HW216224   4.381   4.328   0.543
 5109SOL     OW16225   0.831   2.597   2.166
 5109SOL    HW116226   0.795   2.621   2.076
 5109SOL    HW216227   0.819   2.499   2.182
 5110SOL     OW16228   3.762   6.896   4.747
 5110SOL    HW116229   3.833   6.834   4.714
 5110SOL    HW216230   3.796   6.990   4.744
 5111SOL     OW16231   2.490   6.604   6.453
 5111SOL    HW116232   2.453   6.665   6.523
 5111SOL    HW216233   2.575   6.563   6.486
 5112SOL     OW16234   0.798   3.420   2.493
 5112SOL    HW116235   0.846   3.499   2.455
 5112SOL    HW216236   0.729   3.389   2.428
 5113SOL     OW16237   2.959   4.870   1.340
 5113SOL    HW116238   2.968   4.871   1.440
 5113SOL    HW216239   2.871   4.830   1.315
 5114SOL     OW16240   4.710   4.061   1.053
 5114SOL    HW116241   4.715   4.105   0.963
 5114SOL    HW216242   4.633   4.099   1.104
 5115SOL     OW16243   1.654   3.804   0.180
 5115SOL    HW116244   1.636   3.858   0.262
 5115SOL    HW216245   1.662   3.707   0.205
 5116SOL     OW16246   0.859   5.965   5.994
 5116SOL    HW116247   0.827   6.003   6.081
 5116SOL    HW216248   0.939   6.016   5.963
 5117SOL     OW16249   0.662   3.934   4.222
 5117SOL    HW116250   0.742   3.889   4.261
 5117SOL    HW216251   0.582   3.875   4.232
 5118SOL     OW16252   4.843   5.431   0.886
 5118SOL    HW116253   4.881   5.450   0.796
 5118SOL    HW216254   4.881   5.345   0.920
 5119SOL     OW16255   5.222   1.310   6.957
 5119SOL    HW116256   5.152   1.238   6.956
 5119SOL    HW216257   5.281   1.299   6.877
 5120SOL     OW16258   5.223   6.177   0.153
 5120SOL    HW116259   5.300   6.138   0.102
 5120SOL    HW216260   5.144   6.117   0.143
 5121SOL     OW16261   2.216   3.643   6.790
 5121SOL    HW116262   2.176   3.552   6.774
 5121SOL    HW216263   2.185   3.677   6.879
 5122SOL     OW16264   5.115   5.732   3.462
 5122SOL    HW116265   5.192   5.795   3.471
 5122SOL    HW216266   5.120   5.662   3.533
 5123SOL     OW16267   4.529   2.335   1.463
 5123SOL    HW116268   4.619   2.378   1.468
 5123SOL    HW216269   4.532   2.245   1.506
 5124SOL     OW16270   0.411   6.189   4.254
 5124SOL    HW116271   0.478   6.198   4.180
 5124SOL    HW216272   0.453   6.221   4.339
 5125SOL     OW16273   4.985   3.167   3.929
 5125SOL    HW116274   5.072   3.146   3.973
 5125SOL    HW216275   4.975   3.115   3.845
 5126SOL     OW16276   3.189   0.842   2.586
 5126SOL    HW116277   3.096   0.830   2.551
 5126SOL    HW216278   3.234   0.753   2.593
 5127SOL     OW16279   2.076   5.848   0.882
 5127SOL    HW116280   2.088   5.828   0.784
 5127SOL    HW216281   2.165   5.851   0.927
 5128SOL     OW16282   3.903   0.162   2.033
 5128SOL    HW116283   3.855   0.199   2.112
 5128SOL    HW216284   3.839   0.113   1.974
 5129SOL     OW16285   5.792   5.881   0.055
 5129SOL    HW116286   5.794   5.873   6.982
 5129SOL    HW216287   5.857   5.951   0.084
 5130SOL     OW16288   5.812   4.869   2.098
 5130SOL    HW116289   5.897   4.822   2.074
 5130SOL    HW216290   5.789   4.934   2.026
 5131SOL     OW16291   1.845   2.273   2.145
 5131SOL    HW116292   1.912   2.247   2.076
 5131SOL    HW216293   1.759   2.298   2.100
 5132SOL     OW16294   2.743   6.518   6.493
 5132SOL    HW116295   2.799   6.553   6.418
 5132SOL    HW216296   2.728   6.420   6.481
 5133SOL     OW16297   4.232   5.293   5.058
 5133SOL    HW116298   4.231   5.208   5.005
 5133SOL    HW216299   4.139   5.327   5.068
 5134SOL     OW16300   0.559   2.914   6.937
 5134SOL    HW116301   0.577   2.918   0.008
 5134SOL    HW216302   0.482   2.852   6.920
 5135SOL     OW16303   5.990   1.770   2.565
 5135SOL    HW116304   5.977   1.751   2.468
 5135SOL    HW216305   6.048   1.699   2.606
 5136SOL     OW16306   3.482   1.860   7.009
 5136SOL    HW116307   3.482   1.810   0.069
 5136SOL    HW216308   3.576   1.871   6.978
 5137SOL     OW16309   4.000   3.646   0.183
 5137SOL    HW116310   4.007   3.630   0.085
 5137SOL    HW216311   4.006   3.744   0.201
 5138SOL     OW16312   2.408   2.469   6.199
 5138SOL    HW116313   2.406   2.466   6.100
 5138SOL    HW216314   2.317   2.446   6.235
 5139SOL     OW16315   0.389   6.815   3.703
 5139SOL    HW116316   0.345   6.886   3.649
 5139SOL    HW216317   0.347   6.811   3.794
 5140SOL     OW16318   3.313   3.530   2.652
 5140SOL    HW116319   3.330   3.434   2.673
 5140SOL    HW216320   3.325   3.546   2.554
 5141SOL     OW16321   1.766   3.168   5.430
 5141SOL    HW116322   1.740   3.179   5.334
 5141SOL    HW216323   1.863   3.143   5.435
 5142SOL     OW16324   5.104   3.050   1.064
 5142SOL    HW116325   5.004   3.042   1.065
 5142SOL    HW216326   5.144   2.989   1.132
 5143SOL     OW16327   0.003   5.118   6.632
 5143SOL    HW116328   0.063   5.080   6.702
 5143SOL    HW216329   6.943   5.069   6.632
 5144SOL     OW16330   2.035   1.252   5.134
 5144SOL    HW116331   2.085   1.178   5.089
 5144SOL    HW216332   2.091   1.335   5.136
 5145SOL     OW16333   3.487   4.944   6.564
 5145SOL    HW116334   3.538   5.013   6.615
 5145SOL    HW216335   3.498   4.855   6.608
 5146SOL     OW16336   3.470   5.459   1.036
 5146SOL    HW116337   3.398   5.418   1.093
 5146SOL    HW216338   3.519   5.387   0.988
 5147SOL     OW16339   0.523   5.720   5.819
 5147SOL    HW116340   0.525   5.668   5.733
 5147SOL    HW216341   0.567   5.809   5.804
 5148SOL     OW16342   0.202   0.739   1.734
 5148SOL    HW116343   0.210   0.826   1.782
 5148SOL    HW216344   0.134   0.747   1.661
 5149SOL     OW16345   6.440   0.280   4.648
 5149SOL    HW116346   6.464   0.356   4.588
 5149SOL    HW216347   6.341   0.270   4.651
 5150SOL     OW16348   2.504   5.063   5.951
 5150SOL    HW116349   2.506   5.162   5.934
 5150SOL    HW216350   2.423   5.024   5.907
 5151SOL     OW16351   5.388   6.813   5.938
 5151SOL    HW116352   5.350   6.733   5.891
 5151SOL    HW216353   5.321   6.887   5.937
 5152SOL     OW16354   0.483   4.857   6.722
 5152SOL    HW116355   0.437   4.942   6.696
 5152SOL    HW216356   0.418   4.798   6.771
 5153SOL     OW16357   2.906   3.578   1.182
 5153SOL    HW116358   2.888   3.591   1.279
 5153SOL    HW216359   2.854   3.644   1.129
 5154SOL     OW16360   1.443   3.714   5.316
 5154SOL    HW116361   1.347   3.740   5.324
 5154SOL    HW216362   1.484   3.710   5.408
 5155SOL     OW16363   4.127   0.534   2.423
 5155SOL    HW116364   4.141   0.451   2.369
 5155SOL    HW216365   4.165   0.613   2.375
 5156SOL     OW16366   5.618   3.611   5.579
 5156SOL    HW116367   5.618   3.585   5.675
 5156SOL    HW216368   5.555   3.688   5.565
 5157SOL     OW16369   0.005   2.849   4.044
 5157SOL    HW116370   0.054   2.789   3.981
 5157SOL    HW216371   0.039   2.943   4.034
 5158SOL     OW16372   3.667   0.807   1.868
 5158SOL    HW116373   3.627   0.875   1.929
 5158SOL    HW216374   3.728   0.852   1.802
 5159SOL     OW16375   1.714   4.003   4.968
 5159SOL    HW116376   1.622   3.973   4.991
 5159SOL    HW216377   1.771   4.003   5.051
 5160SOL     OW16378   2.435   2.298   2.967
 5160SOL    HW116379   2.357   2.291   3.029
 5160SOL    HW216380   2.489   2.214   2.972
 5161SOL     OW16381   1.372   2.178   0.033
 5161SOL    HW116382   1.383   2.273   0.061
 5161SOL    HW216383   1.364   2.173   6.960
 5162SOL     OW16384   6.266   5.732   5.119
 5162SOL    HW116385   6.281   5.765   5.025
 5162SOL    HW216386   6.227   5.640   5.116
 5163SOL     OW16387   5.999   3.536   0.864
 5163SOL    HW116388   6.095   3.545   0.890
 5163SOL    HW216389   5.952   3.479   0.932
 5164SOL     OW16390   6.541   6.554   5.530
 5164SOL    HW116391   6.641   6.559   5.528
 5164SOL    HW216392   6.508   6.566   5.624
 5165SOL     OW16393   5.764   4.655   4.836
 5165SOL    HW116394   5.680   4.609   4.806
 5165SOL    HW216395   5.766   4.660   4.935
 5166SOL     OW16396   7.006   0.671   2.791
 5166SOL    HW116397   0.011   0.582   2.758
 5166SOL    HW216398   6.966   0.659   2.882
 5167SOL     OW16399   2.226   0.069   4.740
 5167SOL    HW116400   2.168   0.017   4.678
 5167SOL    HW216401   2.171   0.137   4.789
 5168SOL     OW16402   3.242   1.395   2.058
 5168SOL    HW116403   3.210   1.330   1.989
 5168SOL    HW216404   3.211   1.486   2.035
 5169SOL     OW16405   3.397   5.973   6.389
 5169SOL    HW116406   3.479   5.921   6.365
 5169SOL    HW216407   3.391   6.054   6.330
 5170SOL     OW16408   4.073   4.806   4.468
 5170SOL    HW116409   4.067   4.893   4.517
 5170SOL    HW216410   4.076   4.731   4.533
 5171SOL     OW16411   2.406   4.347   5.767
 5171SOL    HW116412   2.459   4.308   5.842
 5171SOL    HW216413   2.447   4.320   5.680
 5172SOL     OW16414   1.858   3.246   6.319
 5172SOL    HW116415   1.878   3.161   6.269
 5172SOL    HW216416   1.840   3.319   6.254
 5173SOL     OW16417   0.837   2.346   4.820
 5173SOL    HW116418   0.913   2.304   4.770
 5173SOL    HW216419   0.849   2.329   4.918
 5174SOL     OW16420   3.009   5.057   6.764
 5174SOL    HW116421   3.104   5.047   6.794
 5174SOL    HW216422   2.962   5.121   6.824
 5175SOL     OW16423   1.168   5.430   0.287
 5175SOL    HW116424   1.268   5.425   0.292
 5175SOL    HW216425   1.128   5.384   0.367
 5176SOL     OW16426   5.939   3.463   6.701
 5176SOL    HW116427   5.925   3.462   6.602
 5176SOL    HW216428   5.909   3.377   6.740
 5177SOL     OW16429   4.663   5.258   0.048
 5177SOL    HW116430   4.658   5.188   0.119
 5177SOL    HW216431   4.674   5.348   0.091
 5178SOL     OW16432   2.986   4.489   0.641
 5178SOL    HW116433   3.013   4.585   0.631
 5178SOL    HW216434   3.000   4.460   0.735
 5179SOL     OW16435   2.555   5.903   5.437
 5179SOL    HW116436   2.554   5.806   5.464
 5179SOL    HW216437   2.482   5.919   5.369
 5180SOL     OW16438   4.953   1.695   5.902
 5180SOL    HW116439   5.038   1.710   5.851
 5180SOL    HW216440   4.974   1.651   5.989
 5181SOL     OW16441   2.811   6.553   2.905
 5181SOL    HW116442   2.798   6.499   2.821
 5181SOL    HW216443   2.724   6.595   2.931
 5182SOL     OW16444   4.765   3.960   0.642
 5182SOL    HW116445   4.683   3.993   0.689
 5182SOL    HW216446   4.777   3.863   0.662
 5183SOL     OW16447   2.915   1.059   3.187
 5183SOL    HW116448   2.844   1.120   3.223
 5183SOL    HW216449   2.990   1.114   3.150
 5184SOL     OW16450   0.699   1.976   3.310
 5184SOL    HW116451   0.708   2.072   3.284
 5184SOL    HW216452   0.790   1.936   3.322
 5185SOL     OW16453   4.806   0.830   1.923
 5185SOL    HW116454   4.900   0.797   1.924
 5185SOL    HW216455   4.746   0.759   1.885
 5186SOL     OW16456   5.574   3.364   6.786
 5186SOL    HW116457   5.584   3.463   6.795
 5186SOL    HW216458   5.665   3.321   6.785
 5187SOL     OW16459   4.842   4.482   4.539
 5187SOL    HW116460   4.832   4.557   4.605
 5187SOL    HW216461   4.804   4.398   4.577
 5188SOL     OW16462   0.860   0.707   3.416
 5188SOL    HW116463   0.847   0.806   3.408
 5188SOL    HW216464   0.864   0.667   3.324
 5189SOL     OW16465   4.871   5.594   5.821
 5189SOL    HW116466   4.859   5.574   5.724
 5189SOL    HW216467   4.810   5.535   5.875
 5190SOL     OW16468   1.708   1.731   2.575
 5190SOL    HW116469   1.733   1.798   2.505
 5190SOL    HW216470   1.672   1.649   2.531
 5191SOL     OW16471   5.308   1.550   2.240
 5191SOL    HW116472   5.355   1.593   2.317
 5191SOL    HW216473   5.342   1.457   2.227
 5192SOL     OW16474   6.531   4.062   2.507
 5192SOL    HW116475   6.514   4.058   2.606
 5192SOL    HW216476   6.625   4.090   2.491
 5193SOL     OW16477   3.805   4.879   3.241
 5193SOL    HW116478   3.864   4.876   3.321
 5193SOL    HW216479   3.801   4.788   3.199
 5194SOL     OW16480   5.508   0.262   0.482
 5194SOL    HW116481   5.487   0.267   0.384
 5194SOL    HW216482   5.462   0.337   0.530
 5195SOL     OW16483   0.317   4.873   5.220
 5195SOL    HW116484   0.243   4.868   5.287
 5195SOL    HW216485   0.393   4.815   5.251
 5196SOL     OW16486   1.498   3.311   3.044
 5196SOL    HW116487   1.443   3.243   2.996
 5196SOL    HW216488   1.458   3.331   3.133
 5197SOL     OW16489   3.043   6.367   5.401
 5197SOL    HW116490   3.094   6.281   5.404
 5197SOL    HW216491   3.020   6.388   5.306
 5198SOL     OW16492   4.416   1.256   6.406
 5198SOL    HW116493   4.402   1.164   6.367
 5198SOL    HW216494   4.501   1.294   6.369
 5199SOL     OW16495   0.801   6.508   3.790
 5199SOL    HW116496   0.812   6.423   3.840
 5199SOL    HW216497   0.704   6.531   3.784
 5200SOL     OW16498   5.904   6.464   6.044
 5200SOL    HW116499   5.988   6.501   6.004
 5200SOL    HW216500   5.825   6.496   5.991
 5201SOL     OW16501   6.893   3.830   5.534
 5201SOL    HW116502   6.816   3.801   5.477
 5201SOL    HW216503   6.935   3.749   5.576
 5202SOL     OW16504   3.717   3.101   6.136
 5202SOL    HW116505   3.700   3.117   6.039
 5202SOL    HW216506   3.730   3.188   6.183
 5203SOL     OW16507   0.193   6.697   5.086
 5203SOL    HW116508   0.154   6.782   5.049
 5203SOL    HW216509   0.131   6.621   5.067
 5204SOL     OW16510   1.900   0.501   2.209
 5204SOL    HW116511   1.893   0.574   2.277
 5204SOL    HW216512   1.908   0.413   2.255
 5205SOL     OW16513   5.841   6.927   1.637
 5205SOL    HW116514   5.870   6.950   1.730
 5205SOL    HW216515   5.920   6.892   1.586
 5206SOL     OW16516   1.135   4.792   5.023
 5206SOL    HW116517   1.112   4.701   5.058
 5206SOL    HW216518   1.103   4.861   5.088
 5207SOL     OW16519   4.348   1.657   4.945
 5207SOL    HW116520   4.251   1.681   4.943
 5207SOL    HW216521   4.375   1.633   5.038
 5208SOL     OW16522   6.785   1.243   0.852
 5208SOL    HW116523   6.812   1.338   0.836
 5208SOL    HW216524   6.721   1.215   0.780
 5209SOL     OW16525   4.347   5.733   2.724
 5209SOL    HW116526   4.350   5.636   2.748
 5209SOL    HW216527   4.391   5.748   2.636
 5210SOL     OW16528   6.407   3.981   2.174
 5210SOL    HW116529   6.371   4.018   2.260
 5210SOL    HW216530   6.337   3.988   2.103
 5211SOL     OW16531   4.930   3.072   4.616
 5211SOL    HW116532   4.972   3.023   4.539
 5211SOL    HW216533   4.877   3.008   4.671
 5212SOL     OW16534   6.959   4.125   0.448
 5212SOL    HW116535   6.904   4.176   0.514
 5212SOL    HW216536   6.994   4.188   0.378
 5213SOL     OW16537   3.298   2.973   4.420
 5213SOL    HW116538   3.210   3.019   4.429
 5213SOL    HW216539   3.338   2.960   4.511
 5214SOL     OW16540   6.050   3.254   5.261
 5214SOL    HW116541   6.135   3.270   5.210
 5214SOL    HW216542   5.998   3.181   5.217
 5215SOL     OW16543   0.349   4.293   5.146
 5215SOL    HW116544   0.329   4.379   5.193
 5215SOL    HW216545   0.264   4.251   5.116
 5216SOL     OW16546   0.460   4.002   0.038
 5216SOL    HW116547   0.367   3.969   0.049
 5216SOL    HW216548   0.466   4.098   0.067
 5217SOL     OW16549   3.100   0.440   1.810
 5217SOL    HW116550   3.047   0.465   1.891
 5217SOL    HW216551   3.051   0.367   1.761
 5218SOL     OW16552   6.635   6.415   0.526
 5218SOL    HW116553   6.715   6.413   0.586
 5218SOL    HW216554   6.582   6.498   0.544
 5219SOL     OW16555   4.070   1.945   4.482
 5219SOL    HW116556   4.142   2.001   4.441
 5219SOL    HW216557   4.004   2.004   4.528
 5220SOL     OW16558   2.542   4.646   4.660
 5220SOL    HW116559   2.596   4.691   4.731
 5220SOL    HW216560   2.586   4.659   4.571
 5221SOL     OW16561   4.072   0.128   0.577
 5221SOL    HW116562   4.025   0.042   0.557
 5221SOL    HW216563   4.166   0.109   0.603
 5222SOL     OW16564   5.594   1.912   1.800
 5222SOL    HW116565   5.568   1.959   1.885
 5222SOL    HW216566   5.688   1.879   1.807
 5223SOL     OW16567   0.010   1.206   0.717
 5223SOL    HW116568   6.959   1.184   0.776
 5223SOL    HW216569   0.041   1.123   0.671
 5224SOL     OW16570   2.577   1.235   4.792
 5224SOL    HW116571   2.659   1.227   4.736
 5224SOL    HW216572   2.600   1.276   4.880
 5225SOL     OW16573   6.584   3.875   5.964
 5225SOL    HW116574   6.613   3.828   5.881
 5225SOL    HW216575   6.654   3.941   5.992
 5226SOL     OW16576   0.539   0.345   4.198
 5226SOL    HW116577   0.551   0.407   4.276
 5226SOL    HW216578   0.513   0.397   4.117
 5227SOL     OW16579   2.701   2.957   6.257
 5227SOL    HW116580   2.670   3.051   6.266
 5227SOL    HW216581   2.675   2.904   6.338
 5228SOL     OW16582   0.358   2.212   6.011
 5228SOL    HW116583   0.293   2.272   5.964
 5228SOL    HW216584   0.338   2.117   5.988
 5229SOL     OW16585   3.724   1.709   1.530
 5229SOL    HW116586   3.767   1.799   1.538
 5229SOL    HW216587   3.783   1.641   1.573
 5230SOL     OW16588   5.583   0.900   2.323
 5230SOL    HW116589   5.594   0.868   2.229
 5230SOL    HW216590   5.566   0.999   2.322
 5231SOL     OW16591   6.809   4.092   2.527
 5231SOL    HW116592   6.852   4.178   2.499
 5231SOL    HW216593   6.855   4.015   2.484
 5232SOL     OW16594   2.210   1.398   6.142
 5232SOL    HW116595   2.118   1.433   6.128
 5232SOL    HW216596   2.254   1.381   6.054
 5233SOL     OW16597   2.254   6.811   4.041
 5233SOL    HW116598   2.207   6.879   4.098
 5233SOL    HW216599   2.287   6.854   3.958
 5234SOL     OW16600   3.473   2.535   6.375
 5234SOL    HW116601   3.500   2.476   6.299
 5234SOL    HW216602   3.519   2.623   6.367
 5235SOL     OW16603   2.392   2.862   1.695
 5235SOL    HW116604   2.465   2.926   1.715
 5235SOL    HW216605   2.303   2.907   1.706
 5236SOL     OW16606   2.649   5.130   1.716
 5236SOL    HW116607   2.747   5.122   1.699
 5236SOL    HW216608   2.605   5.041   1.705
 5237SOL     OW16609   0.785   1.515   1.447
 5237SOL    HW116610   0.748   1.426   1.421
 5237SOL    HW216611   0.841   1.552   1.374
 5238SOL     OW16612   5.953   1.685   3.386
 5238SOL    HW116613   5.928   1.764   3.329
 5238SOL    HW216614   5.874   1.658   3.441
 5239SOL     OW16615   2.489   3.610   0.098
 5239SOL    HW116616   2.546   3.534   0.130
 5239SOL    HW216617   2.395   3.578   0.084
 5240SOL     OW16618   1.661   3.605   4.770
 5240SOL    HW116619   1.667   3.536   4.699
 5240SOL    HW216620   1.667   3.696   4.729
 5241SOL     OW16621   2.383   5.030   2.777
 5241SOL    HW116622   2.352   5.043   2.683
 5241SOL    HW216623   2.329   5.088   2.838
 5242SOL     OW16624   4.619   6.101   5.743
 5242SOL    HW116625   4.662   6.103   5.653
 5242SOL    HW216626   4.642   6.015   5.789
 5243SOL     OW16627   2.504   5.449   3.939
 5243SOL    HW116628   2.592   5.495   3.934
 5243SOL    HW216629   2.486   5.423   4.034
 5244SOL     OW16630   5.886   6.614   6.554
 5244SOL    HW116631   5.861   6.638   6.460
 5244SOL    HW216632   5.980   6.578   6.555
 5245SOL     OW16633   3.259   4.103   2.063
 5245SOL    HW116634   3.261   4.201   2.083
 5245SOL    HW216635   3.229   4.089   1.969
 5246SOL     OW16636   6.773   2.897   5.665
 5246SOL    HW116637   6.716   2.825   5.627
 5246SOL    HW216638   6.714   2.970   5.702
 5247SOL     OW16639   4.678   1.288   4.746
 5247SOL    HW116640   4.635   1.248   4.827
 5247SOL    HW216641   4.760   1.236   4.723
 5248SOL     OW16642   4.124   1.422   2.293
 5248SOL    HW116643   4.058   1.356   2.260
 5248SOL    HW216644   4.123   1.503   2.233
 5249SOL     OW16645   0.821   5.362   2.226
 5249SOL    HW116646   0.807   5.370   2.325
 5249SOL    HW216647   0.737   5.327   2.184
 5250SOL     OW16648   1.473   5.158   0.069
 5250SOL    HW116649   1.515   5.223   0.006
 5250SOL    HW216650   1.534   5.143   0.147
 5251SOL     OW16651   2.446   4.123   6.825
 5251SOL    HW116652   2.361   4.086   6.862
 5251SOL    HW216653   2.430   4.218   6.796
 5252SOL     OW16654   3.918   5.715   4.155
 5252SOL    HW116655   3.853   5.770   4.207
 5252SOL    HW216656   3.878   5.691   4.066
 5253SOL     OW16657   0.483   6.467   3.423
 5253SOL    HW116658   0.388   6.480   3.451
 5253SOL    HW216659   0.539   6.542   3.457
 5254SOL     OW16660   4.482   6.339   2.221
 5254SOL    HW116661   4.578   6.327   2.196
 5254SOL    HW216662   4.475   6.372   2.315
 5255SOL     OW16663   0.632   1.559   6.221
 5255SOL    HW116664   0.590   1.512   6.144
 5255SOL    HW216665   0.699   1.499   6.265
 5256SOL     OW16666   3.886   1.783   2.735
 5256SOL    HW116667   3.960   1.795   2.669
 5256SOL    HW216668   3.801   1.762   2.687
 5257SOL     OW16669   6.075   1.116   7.025
 5257SOL    HW116670   5.977   1.129   7.009
 5257SOL    HW216671   6.095   1.128   0.095
 5258SOL     OW16672   5.785   2.162   5.390
 5258SOL    HW116673   5.713   2.104   5.429
 5258SOL    HW216674   5.799   2.242   5.448
 5259SOL     OW16675   4.738   6.478   4.663
 5259SOL    HW116676   4.742   6.387   4.705
 5259SOL    HW216677   4.824   6.498   4.617
 5260SOL     OW16678   1.940   6.999   2.525
 5260SOL    HW116679   1.934   6.900   2.537
 5260SOL    HW216680   2.003   7.020   2.450
 5261SOL     OW16681   0.032   5.114   0.132
 5261SOL    HW116682   0.063   5.207   0.110
 5261SOL    HW216683   0.096   5.072   0.196
 5262SOL     OW16684   1.280   1.902   1.929
 5262SOL    HW116685   1.269   1.860   2.019
 5262SOL    HW216686   1.354   1.857   1.879
 5263SOL     OW16687   6.918   5.967   1.832
 5263SOL    HW116688   6.956   5.988   1.921
 5263SOL    HW216689   6.835   6.022   1.818
 5264SOL     OW16690   5.970   2.555   2.717
 5264SOL    HW116691   5.952   2.541   2.620
 5264SOL    HW216692   5.968   2.467   2.765
 5265SOL     OW16693   1.573   5.992   6.090
 5265SOL    HW116694   1.502   6.060   6.110
 5265SOL    HW216695   1.659   6.021   6.131
 5266SOL     OW16696   0.871   6.982   6.542
 5266SOL    HW116697   0.894   6.885   6.532
 5266SOL    HW216698   0.916   7.019   6.623
 5267SOL     OW16699   6.499   1.206   4.747
 5267SOL    HW116700   6.480   1.125   4.691
 5267SOL    HW216701   6.597   1.228   4.739
 5268SOL     OW16702   5.481   0.470   5.258
 5268SOL    HW116703   5.567   0.521   5.262
 5268SOL    HW216704   5.406   0.529   5.285
 5269SOL     OW16705   1.752   0.395   3.975
 5269SOL    HW116706   1.824   0.335   3.941
 5269SOL    HW216707   1.736   0.468   3.908
 5270SOL     OW16708   1.505   1.606   6.476
 5270SOL    HW116709   1.568   1.667   6.427
 5270SOL    HW216710   1.554   1.558   6.548
 5271SOL     OW16711   1.460   6.915   6.097
 5271SOL    HW116712   1.462   6.942   6.001
 5271SOL    HW216713   1.366   6.911   6.129
 5272SOL     OW16714   4.161   0.071   6.041
 5272SOL    HW116715   4.093   0.059   6.113
 5272SOL    HW216716   4.211   7.013   6.027
 5273SOL     OW16717   2.021   1.554   3.285
 5273SOL    HW116718   1.958   1.627   3.312
 5273SOL    HW216719   2.085   1.537   3.361
 5274SOL     OW16720   6.238   4.452   1.640
 5274SOL    HW116721   6.181   4.393   1.697
 5274SOL    HW216722   6.284   4.396   1.571
 5275SOL     OW16723   5.565   6.920   6.476
 5275SOL    HW116724   5.502   6.972   6.419
 5275SOL    HW216725   5.550   6.942   6.572
 5276SOL     OW16726   2.635   6.603   1.408
 5276SOL    HW116727   2.725   6.595   1.364
 5276SOL    HW216728   2.584   6.677   1.364
 5277SOL     OW16729   1.550   2.853   1.426
 5277SOL    HW116730   1.641   2.817   1.447
 5277SOL    HW216731   1.509   2.890   1.510
 5278SOL     OW16732   4.006   3.253   5.042
 5278SOL    HW116733   4.062   3.287   4.967
 5278SOL    HW216734   4.064   3.235   5.122
 5279SOL     OW16735   1.362   0.205   2.911
 5279SOL    HW116736   1.391   0.143   2.985
 5279SOL    HW216737   1.273   0.244   2.933
 5280SOL     OW16738   3.769   0.705   3.523
 5280SOL    HW116739   3.787   0.623   3.578
 5280SOL    HW216740   3.777   0.682   3.426
 5281SOL     OW16741   6.943   2.944   3.618
 5281SOL    HW116742   6.890   2.925   3.535
 5281SOL    HW216743   0.012   2.958   3.593
 5282SOL     OW16744   4.901   2.039   1.504
 5282SOL    HW116745   4.996   2.068   1.488
 5282SOL    HW216746   4.876   1.969   1.437
 5283SOL     OW16747   5.721   5.056   5.415
 5283SOL    HW116748   5.753   5.031   5.323
 5283SOL    HW216749   5.626   5.088   5.409
 5284SOL     OW16750   5.595   2.728   3.977
 5284SOL    HW116751   5.582   2.812   3.924
 5284SOL    HW216752   5.679   2.735   4.030
 5285SOL     OW16753   4.462   4.982   2.282
 5285SOL    HW116754   4.438   4.968   2.186
 5285SOL    HW216755   4.488   5.078   2.296
 5286SOL     OW16756   1.563   5.012   2.112
 5286SOL    HW116757   1.565   4.924   2.065
 5286SOL    HW216758   1.597   5.084   2.051
 5287SOL     OW16759   6.777   0.849   3.122
 5287SOL    HW116760   6.785   0.838   3.221
 5287SOL    HW216761   6.797   0.944   3.097
 5288SOL     OW16762   4.117   0.741   0.432
 5288SOL    HW116763   4.039   0.679   0.432
 5288SOL    HW216764   4.198   0.693   0.397
 5289SOL     OW16765   1.768   0.158   1.607
 5289SOL    HW116766   1.830   0.096   1.558
 5289SOL    HW216767   1.821   0.231   1.650
 5290SOL     OW16768   5.508   6.638   6.511
 5290SOL    HW116769   5.512   6.734   6.485
 5290SOL    HW216770   5.431   6.623   6.573
 5291SOL     OW16771   1.205   5.148   1.011
 5291SOL    HW116772   1.243   5.241   1.007
 5291SOL    HW216773   1.268   5.084   0.968
 5292SOL     OW16774   5.514   1.258   0.985
 5292SOL    HW116775   5.458   1.181   0.956
 5292SOL    HW216776   5.583   1.277   0.915
 5293SOL     OW16777   1.909   1.105   3.745
 5293SOL    HW116778   1.826   1.159   3.729
 5293SOL    HW216779   1.923   1.094   3.843
 5294SOL     OW16780   3.572   2.185   6.829
 5294SOL    HW116781   3.651   2.241   6.854
 5294SOL    HW216782   3.588   2.144   6.739
 5295SOL     OW16783   6.702   2.384   3.954
 5295SOL    HW116784   6.800   2.365   3.948
 5295SOL    HW216785   6.650   2.308   3.916
 5296SOL     OW16786   0.520   4.320   6.376
 5296SOL    HW116787   0.596   4.272   6.418
 5296SOL    HW216788   0.475   4.379   6.444
 5297SOL     OW16789   0.892   2.325   2.184
 5297SOL    HW116790   0.834   2.286   2.255
 5297SOL    HW216791   0.982   2.282   2.187
 5298SOL     OW16792   1.346   3.334   2.041
 5298SOL    HW116793   1.327   3.338   2.139
 5298SOL    HW216794   1.292   3.403   1.994
 5299SOL     OW16795   3.705   0.158   6.700
 5299SOL    HW116796   3.685   0.245   6.653
 5299SOL    HW216797   3.717   0.086   6.632
 5300SOL     OW16798   0.128   4.881   4.758
 5300SOL    HW116799   0.187   4.806   4.727
 5300SOL    HW216800   0.136   4.889   4.858
 5301SOL     OW16801   5.667   6.860   5.888
 5301SOL    HW116802   5.633   6.850   5.981
 5301SOL    HW216803   5.697   6.771   5.854
 5302SOL     OW16804   6.878   3.890   2.971
 5302SOL    HW116805   6.848   3.909   2.877
 5302SOL    HW216806   6.896   3.792   2.980
 5303SOL     OW16807   2.507   4.902   2.153
 5303SOL    HW116808   2.537   4.970   2.220
 5303SOL    HW216809   2.572   4.898   2.078
 5304SOL     OW16810   5.924   2.206   6.205
 5304SOL    HW116811   5.927   2.122   6.151
 5304SOL    HW216812   5.925   2.183   6.303
 5305SOL     OW16813   3.845   1.791   5.227
 5305SOL    HW116814   3.848   1.760   5.132
 5305SOL    HW216815   3.759   1.839   5.243
 5306SOL     OW16816   2.332   6.449   3.778
 5306SOL    HW116817   2.329   6.479   3.873
 5306SOL    HW216818   2.385   6.513   3.724
 5307SOL     OW16819   4.954   6.941   6.468
 5307SOL    HW116820   4.866   6.897   6.456
 5307SOL    HW216821   5.027   6.876   6.449
 5308SOL     OW16822   6.245   1.333   0.580
 5308SOL    HW116823   6.323   1.289   0.535
 5308SOL    HW216824   6.273   1.364   0.671
 5309SOL     OW16825   3.435   4.300   6.595
 5309SOL    HW116826   3.495   4.293   6.675
 5309SOL    HW216827   3.484   4.347   6.521
 5310SOL     OW16828   4.965   2.453   0.035
 5310SOL    HW116829   5.036   2.404   0.084
 5310SOL    HW216830   4.927   2.525   0.094
 5311SOL     OW16831   6.870   5.756   6.972
 5311SOL    HW116832   6.809   5.826   6.935
 5311SOL    HW216833   6.961   5.796   6.984
 5312SOL     OW16834   0.641   4.033   2.000
 5312SOL    HW116835   0.557   4.019   1.948
 5312SOL    HW216836   0.678   4.124   1.981
 5313SOL     OW16837   1.068   6.403   6.036
 5313SOL    HW116838   1.081   6.462   5.956
 5313SOL    HW216839   0.970   6.393   6.054
 5314SOL     OW16840   4.893   4.251   1.382
 5314SOL    HW116841   4.987   4.283   1.391
 5314SOL    HW216842   4.890   4.152   1.394
 5315SOL     OW16843   5.278   0.387   3.092
 5315SOL    HW116844   5.275   0.304   3.036
 5315SOL    HW216845   5.366   0.433   3.078
 5316SOL     OW16846   5.378   5.340   5.073
 5316SOL    HW116847   5.313   5.322   4.999
 5316SOL    HW216848   5.431   5.421   5.051
 5317SOL     OW16849   0.501   4.602   1.404
 5317SOL    HW116850   0.458   4.683   1.445
 5317SOL    HW216851   0.491   4.606   1.305
 5318SOL     OW16852   6.947   2.621   2.932
 5318SOL    HW116853   6.884   2.613   3.010
 5318SOL    HW216854   6.980   2.530   2.907
 5319SOL     OW16855   2.542   5.961   2.293
 5319SOL    HW116856   2.492   6.046   2.273
 5319SOL    HW216857   2.547   5.947   2.391
 5320SOL     OW16858   6.372   1.660   0.689
 5320SOL    HW116859   6.439   1.717   0.736
 5320SOL    HW216860   6.339   1.589   0.750
 5321SOL     OW16861   2.161   5.448   0.018
 5321SOL    HW116862   2.234   5.429   6.979
 5321SOL    HW216863   2.141   5.545   0.019
 5322SOL     OW16864   2.679   6.251   6.533
 5322SOL    HW116865   2.739   6.238   6.612
 5322SOL    HW216866   2.584   6.258   6.563
 5323SOL     OW16867   6.757   3.785   0.282
 5323SOL    HW116868   6.764   3.859   0.215
 5323SOL    HW216869   6.838   3.727   0.275
 5324SOL     OW16870   4.063   3.126   2.381
 5324SOL    HW116871   4.075   3.188   2.458
 5324SOL    HW216872   4.103   3.166   2.299
 5325SOL     OW16873   3.388   0.015   5.295
 5325SOL    HW116874   3.463   0.019   5.229
 5325SOL    HW216875   3.331   6.963   5.275
 5326SOL     OW16876   5.541   0.723   3.780
 5326SOL    HW116877   5.595   0.639   3.789
 5326SOL    HW216878   5.444   0.701   3.779
 5327SOL     OW16879   6.500   6.158   3.631
 5327SOL    HW116880   6.530   6.123   3.542
 5327SOL    HW216881   6.477   6.255   3.622
 5328SOL     OW16882   2.308   4.747   5.726
 5328SOL    HW116883   2.331   4.842   5.744
 5328SOL    HW216884   2.213   4.730   5.752
 5329SOL     OW16885   0.480   6.901   5.334
 5329SOL    HW116886   0.465   6.820   5.278
 5329SOL    HW216887   0.513   6.873   5.424
 5330SOL     OW16888   4.353   3.702   0.542
 5330SOL    HW116889   4.276   3.665   0.490
 5330SOL    HW216890   4.323   3.722   0.635
 5331SOL     OW16891   5.979   0.632   7.014
 5331SOL    HW116892   6.011   0.620   6.920
 5331SOL    HW216893   5.905   0.700   7.016
 5332SOL     OW16894   0.933   3.291   6.700
 5332SOL    HW116895   0.854   3.286   6.761
 5332SOL    HW216896   0.906   3.333   6.613
 5333SOL     OW16897   0.361   6.810   3.977
 5333SOL    HW116898   0.408   6.737   4.026
 5333SOL    HW216899   0.388   6.899   4.014
 5334SOL     OW16900   3.539   5.940   0.601
 5334SOL    HW116901   3.562   5.971   0.694
 5334SOL    HW216902   3.470   5.868   0.606
 5335SOL     OW16903   6.996   4.844   1.674
 5335SOL    HW116904   6.998   4.829   1.773
 5335SOL    HW216905   6.949   4.767   1.630
 5336SOL     OW16906   1.845   3.000   6.170
 5336SOL    HW116907   1.753   3.006   6.132
 5336SOL    HW216908   1.912   3.026   6.100
 5337SOL     OW16909   6.367   1.856   0.953
 5337SOL    HW116910   6.432   1.899   0.890
 5337SOL    HW216911   6.274   1.879   0.926
 5338SOL     OW16912   6.846   2.413   1.173
 5338SOL    HW116913   6.837   2.504   1.134
 5338SOL    HW216914   6.758   2.384   1.211
 5339SOL     OW16915   4.982   3.432   2.300
 5339SOL    HW116916   4.953   3.496   2.228
 5339SOL    HW216917   5.066   3.387   2.272
 5340SOL     OW16918   5.673   3.774   0.997
 5340SOL    HW116919   5.635   3.696   1.045
 5340SOL    HW216920   5.696   3.748   0.903
 5341SOL     OW16921   4.728   4.900   3.450
 5341SOL    HW116922   4.777   4.986   3.459
 5341SOL    HW216923   4.709   4.882   3.353
 5342SOL     OW16924   6.251   4.964   4.722
 5342SOL    HW116925   6.262   4.930   4.815
 5342SOL    HW216926   6.292   4.900   4.658
 5343SOL     OW16927   4.391   3.442   1.226
 5343SOL    HW116928   4.435   3.487   1.148
 5343SOL    HW216929   4.308   3.396   1.195
 5344SOL     OW16930   6.575   1.925   6.867
 5344SOL    HW116931   6.663   1.901   6.827
 5344SOL    HW216932   6.547   1.854   6.933
 5345SOL     OW16933   3.740   0.756   6.924
 5345SOL    HW116934   3.643   0.781   6.917
 5345SOL    HW216935   3.754   0.697   7.004
 5346SOL     OW16936   2.145   5.955   2.995
 5346SOL    HW116937   2.104   6.046   2.987
 5346SOL    HW216938   2.243   5.964   3.008
 5347SOL     OW16939   6.507   2.731   5.276
 5347SOL    HW116940   6.418   2.757   5.313
 5347SOL    HW216941   6.498   2.712   5.179
 5348SOL     OW16942   5.651   2.703   5.314
 5348SOL    HW116943   5.569   2.722   5.259
 5348SOL    HW216944   5.725   2.673   5.254
 5349SOL     OW16945   1.083   3.898   0.369
 5349SOL    HW116946   1.056   3.989   0.336
 5349SOL    HW216947   1.060   3.829   0.300
 5350SOL     OW16948   1.173   6.763   6.593
 5350SOL    HW116949   1.079   6.734   6.575
 5350SOL    HW216950   1.233   6.683   6.595
 5351SOL     OW16951   0.882   6.301   3.466
 5351SOL    HW116952   0.952   6.242   3.507
 5351SOL    HW216953   0.799   6.247   3.448
 5352SOL     OW16954   0.235   3.525   6.161
 5352SOL    HW116955   0.317   3.492   6.115
 5352SOL    HW216956   0.196   3.450   6.215
 5353SOL     OW16957   2.746   6.864   2.890
 5353SOL    HW116958   2.679   6.800   2.928
 5353SOL    HW216959   2.762   6.842   2.794
 5354SOL     OW16960   2.163   6.609   1.572
 5354SOL    HW116961   2.200   6.699   1.596
 5354SOL    HW216962   2.127   6.565   1.655
 5355SOL     OW16963   4.816   4.228   5.594
 5355SOL    HW116964   4.846   4.204   5.686
 5355SOL    HW216965   4.730   4.180   5.573
 5356SOL     OW16966   6.203   6.965   1.238
 5356SOL    HW116967   6.269   7.015   1.293
 5356SOL    HW216968   6.198   6.870   1.270
 5357SOL     OW16969   6.060   2.917   2.364
 5357SOL    HW116970   6.003   2.870   2.297
 5357SOL    HW216971   6.147   2.944   2.321
 5358SOL     OW16972   5.547   6.447   5.232
 5358SOL    HW116973   5.550   6.438   5.332
 5358SOL    HW216974   5.620   6.392   5.191
 5359SOL     OW16975   3.154   1.865   5.929
 5359SOL    HW116976   3.149   1.912   5.841
 5359SOL    HW216977   3.077   1.893   5.987
 5360SOL     OW16978   5.151   5.893   2.399
 5360SOL    HW116979   5.171   5.950   2.319
 5360SOL    HW216980   5.072   5.835   2.379
 5361SOL     OW16981   1.147   3.678   2.693
 5361SOL    HW116982   1.074   3.740   2.661
 5361SOL    HW216983   1.125   3.646   2.785
 5362SOL     OW16984   6.505   1.734   4.113
 5362SOL    HW116985   6.466   1.818   4.074
 5362SOL    HW216986   6.438   1.693   4.175
 5363SOL     OW16987   6.231   3.993   6.592
 5363SOL    HW116988   6.228   4.085   6.551
 5363SOL    HW216989   6.315   3.947   6.562
 5364SOL     OW16990   4.781   2.026   1.774
 5364SOL    HW116991   4.824   2.017   1.685
 5364SOL    HW216992   4.849   2.057   1.841
 5365SOL     OW16993   2.976   2.503   6.574
 5365SOL    HW116994   2.891   2.529   6.528
 5365SOL    HW216995   2.994   2.406   6.558
 5366SOL     OW16996   7.016   4.317   3.592
 5366SOL    HW116997   0.012   4.241   3.530
 5366SOL    HW216998   0.058   4.389   3.584
 5367SOL     OW16999   6.538   5.418   1.460
 5367SOL    HW117000   6.477   5.486   1.501
 5367SOL    HW217001   6.529   5.332   1.510
 5368SOL     OW17002   0.065   5.284   4.700
 5368SOL    HW117003   0.090   5.225   4.777
 5368SOL    HW217004   0.099   5.376   4.717
 5369SOL     OW17005   4.088   0.555   2.132
 5369SOL    HW117006   4.030   0.610   2.071
 5369SOL    HW217007   4.142   0.492   2.077
 5370SOL     OW17008   2.185   2.397   6.955
 5370SOL    HW117009   2.097   2.411   6.911
 5370SOL    HW217010   2.203   2.471   7.020
 5371SOL     OW17011   6.372   5.061   3.058
 5371SOL    HW117012   6.437   5.128   3.094
 5371SOL    HW217013   6.284   5.070   3.107
 5372SOL     OW17014   1.077   1.267   4.905
 5372SOL    HW117015   0.993   1.212   4.906
 5372SOL    HW217016   1.148   1.220   4.957
 5373SOL     OW17017   4.632   6.916   1.179
 5373SOL    HW117018   4.582   6.832   1.158
 5373SOL    HW217019   4.674   6.909   1.269
 5374SOL     OW17020   2.027   3.079   1.411
 5374SOL    HW117021   2.125   3.082   1.389
 5374SOL    HW217022   1.982   3.011   1.354
 5375SOL     OW17023   2.765   4.806   5.280
 5375SOL    HW117024   2.824   4.782   5.357
 5375SOL    HW217025   2.770   4.734   5.211
 5376SOL     OW17026   6.414   6.929   2.160
 5376SOL    HW117027   6.350   6.871   2.210
 5376SOL    HW217028   6.508   6.895   2.173
 5377SOL     OW17029   0.641   3.432   1.182
 5377SOL    HW117030   0.570   3.493   1.147
 5377SOL    HW217031   0.729   3.478   1.177
 5378SOL     OW17032   5.137   0.593   5.115
 5378SOL    HW117033   5.072   0.669   5.118
 5378SOL    HW217034   5.204   0.603   5.188
 5379SOL     OW17035   3.468   1.795   4.221
 5379SOL    HW117036   3.561   1.819   4.192
 5379SOL    HW217037   3.471   1.709   4.272
 5380SOL     OW17038   4.466   7.025   1.399
 5380SOL    HW117039   4.565   7.013   1.408
 5380SOL    HW217040   4.444   0.095   1.392
 5381SOL     OW17041   2.844   1.562   2.060
 5381SOL    HW117042   2.797   1.607   2.136
 5381SOL    HW217043   2.934   1.605   2.047
 5382SOL     OW17044   3.449   0.211   2.838
 5382SOL    HW117045   3.373   0.148   2.827
 5382SOL    HW217046   3.486   0.235   2.748
 5383SOL     OW17047   2.206   4.496   5.327
 5383SOL    HW117048   2.237   4.501   5.422
 5383SOL    HW217049   2.204   4.588   5.288
 5384SOL     OW17050   4.789   5.740   5.495
 5384SOL    HW117051   4.818   5.831   5.465
 5384SOL    HW217052   4.869   5.686   5.519
 5385SOL     OW17053   4.142   4.031   0.981
 5385SOL    HW117054   4.114   4.098   0.913
 5385SOL    HW217055   4.073   3.960   0.990
 5386SOL     OW17056   4.001   5.646   3.362
 5386SOL    HW117057   3.915   5.655   3.313
 5386SOL    HW217058   4.060   5.724   3.340
 5387SOL     OW17059   1.132   2.780   5.599
 5387SOL    HW117060   1.098   2.785   5.693
 5387SOL    HW217061   1.122   2.870   5.555
 5388SOL     OW17062   6.634   6.373   3.324
 5388SOL    HW117063   6.704   6.384   3.394
 5388SOL    HW217064   6.579   6.292   3.345
 5389SOL     OW17065   6.956   1.807   5.011
 5389SOL    HW117066   6.949   1.897   5.052
 5389SOL    HW217067   7.002   1.744   5.073
 5390SOL     OW17068   5.807   2.536   3.918
 5390SOL    HW117069   5.721   2.577   3.888
 5390SOL    HW217070   5.792   2.441   3.943
 5391SOL     OW17071   5.205   2.895   1.299
 5391SOL    HW117072   5.220   2.973   1.360
 5391SOL    HW217073   5.134   2.836   1.337
 5392SOL     OW17074   4.966   1.323   3.642
 5392SOL    HW117075   4.882   1.270   3.634
 5392SOL    HW217076   4.991   1.332   3.739
 5393SOL     OW17077   4.980   2.824   2.432
 5393SOL    HW117078   4.880   2.826   2.427
 5393SOL    HW217079   5.015   2.918   2.430
 5394SOL     OW17080   0.439   3.425   3.409
 5394SOL    HW117081   0.364   3.481   3.443
 5394SOL    HW217082   0.404   3.334   3.386
 5395SOL     OW17083   0.547   0.431   1.851
 5395SOL    HW117084   0.600   0.391   1.776
 5395SOL    HW217085   0.562   0.529   1.854
 5396SOL     OW17086   3.580   2.510   6.764
 5396SOL    HW117087   3.537   2.482   6.679
 5396SOL    HW217088   3.513   2.509   6.838
 5397SOL     OW17089   0.213   6.983   3.024
 5397SOL    HW117090   0.225   6.948   3.117
 5397SOL    HW217091   0.218   0.056   3.025
 5398SOL     OW17092   6.071   2.470   3.811
 5398SOL    HW117093   6.055   2.376   3.781
 5398SOL    HW217094   5.992   2.502   3.863
 5399SOL     OW17095   3.029   2.130   0.313
 5399SOL    HW117096   2.991   2.193   0.246
 5399SOL    HW217097   3.095   2.069   0.269
 5400SOL     OW17098   4.285   3.115   0.910
 5400SOL    HW117099   4.247   3.037   0.861
 5400SOL    HW217100   4.352   3.083   0.977
 5401SOL     OW17101   4.591   3.118   1.160
 5401SOL    HW117102   4.499   3.119   1.199
 5401SOL    HW217103   4.658   3.114   1.234
 5402SOL     OW17104   2.165   5.494   0.970
 5402SOL    HW117105   2.144   5.553   0.892
 5402SOL    HW217106   2.229   5.423   0.941
 5403SOL     OW17107   6.952   3.201   5.382
 5403SOL    HW117108   6.967   3.297   5.358
 5403SOL    HW217109   0.011   3.151   5.375
 5404SOL     OW17110   4.194   6.586   6.428
 5404SOL    HW117111   4.140   6.613   6.348
 5404SOL    HW217112   4.155   6.630   6.510
 5405SOL     OW17113   5.662   5.060   6.503
 5405SOL    HW117114   5.647   5.042   6.601
 5405SOL    HW217115   5.575   5.055   6.455
 5406SOL     OW17116   2.161   1.546   4.843
 5406SOL    HW117117   2.174   1.623   4.905
 5406SOL    HW217118   2.212   1.467   4.876
 5407SOL     OW17119   1.854   2.186   2.445
 5407SOL    HW117120   1.857   2.267   2.503
 5407SOL    HW217121   1.849   2.214   2.349
 5408SOL     OW17122   2.549   2.250   4.076
 5408SOL    HW117123   2.577   2.316   4.007
 5408SOL    HW217124   2.565   2.288   4.167
 5409SOL     OW17125   6.546   4.407   3.782
 5409SOL    HW117126   6.615   4.455   3.836
 5409SOL    HW217127   6.591   4.345   3.718
 5410SOL     OW17128   5.922   0.829   0.371
 5410SOL    HW117129   5.892   0.748   0.422
 5410SOL    HW217130   5.990   0.802   0.303
 5411SOL     OW17131   2.649   6.317   2.142
 5411SOL    HW117132   2.739   6.297   2.182
 5411SOL    HW217133   2.580   6.261   2.187
 5412SOL     OW17134   2.921   2.333   6.212
 5412SOL    HW117135   2.828   2.305   6.231
 5412SOL    HW217136   2.932   2.430   6.234
 5413SOL     OW17137   0.161   4.880   6.010
 5413SOL    HW117138   0.135   4.833   5.925
 5413SOL    HW217139   0.105   4.962   6.021
 5414SOL     OW17140   5.739   5.508   5.952
 5414SOL    HW117141   5.838   5.503   5.936
 5414SOL    HW217142   5.710   5.603   5.954
 5415SOL     OW17143   2.741   6.792   0.129
 5415SOL    HW117144   2.689   6.708   0.115
 5415SOL    HW217145   2.699   6.867   0.078
 5416SOL     OW17146   4.078   4.490   5.489
 5416SOL    HW117147   4.002   4.485   5.554
 5416SOL    HW217148   4.159   4.446   5.529
 5417SOL     OW17149   4.888   0.458   1.804
 5417SOL    HW117150   4.803   0.506   1.826
 5417SOL    HW217151   4.866   0.370   1.762
 5418SOL     OW17152   7.013   3.634   6.258
 5418SOL    HW117153   6.989   3.714   6.203
 5418SOL    HW217154   0.080   3.607   6.239
 5419SOL     OW17155   4.211   2.898   5.921
 5419SOL    HW117156   4.178   2.970   5.981
 5419SOL    HW217157   4.264   2.938   5.846
 5420SOL     OW17158   0.857   1.898   0.496
 5420SOL    HW117159   0.890   1.813   0.538
 5420SOL    HW217160   0.757   1.897   0.494
 5421SOL     OW17161   3.992   5.421   0.605
 5421SOL    HW117162   3.958   5.468   0.523
 5421SOL    HW217163   3.916   5.393   0.662
 5422SOL     OW17164   2.501   0.214   3.974
 5422SOL    HW117165   2.583   0.194   3.921
 5422SOL    HW217166   2.525   0.266   4.056
 5423SOL     OW17167   4.453   5.499   3.265
 5423SOL    HW117168   4.458   5.411   3.217
 5423SOL    HW217169   4.427   5.570   3.200
 5424SOL     OW17170   4.377   2.962   5.664
 5424SOL    HW117171   4.291   2.922   5.632
 5424SOL    HW217172   4.440   2.890   5.692
 5425SOL     OW17173   2.317   5.794   4.634
 5425SOL    HW117174   2.359   5.775   4.545
 5425SOL    HW217175   2.386   5.830   4.697
 5426SOL     OW17176   1.206   3.177   0.086
 5426SOL    HW117177   1.202   3.258   0.144
 5426SOL    HW217178   1.201   3.204   7.017
 5427SOL     OW17179   4.220   1.917   0.207
 5427SOL    HW117180   4.258   1.871   0.288
 5427SOL    HW217181   4.180   1.848   0.146
 5428SOL     OW17182   4.945   6.065   1.939
 5428SOL    HW117183   5.029   6.041   1.891
 5428SOL    HW217184   4.891   6.129   1.884
 5429SOL     OW17185   2.769   6.367   2.706
 5429SOL    HW117186   2.866   6.349   2.717
 5429SOL    HW217187   2.750   6.393   2.611
 5430SOL     OW17188   0.600   3.572   5.574
 5430SOL    HW117189   0.672   3.584   5.505
 5430SOL    HW217190   0.516   3.540   5.530
 5431SOL     OW17191   5.321   4.105   1.311
 5431SOL    HW117192   5.404   4.098   1.364
 5431SOL    HW217193   5.334   4.171   1.236
 5432SOL     OW17194   1.390   5.278   5.538
 5432SOL    HW117195   1.384   5.246   5.632
 5432SOL    HW217196   1.381   5.378   5.536
 5433SOL     OW17197   3.567   6.557   2.030
 5433SOL    HW117198   3.661   6.525   2.039
 5433SOL    HW217199   3.565   6.657   2.032
 5434SOL     OW17200   4.634   6.584   4.266
 5434SOL    HW117201   4.644   6.633   4.180
 5434SOL    HW217202   4.624   6.649   4.341
 5435SOL     OW17203   0.658   3.223   0.122
 5435SOL    HW117204   0.684   3.269   0.038
 5435SOL    HW217205   0.733   3.228   0.188
 5436SOL     OW17206   1.662   4.066   0.740
 5436SOL    HW117207   1.727   4.141   0.728
 5436SOL    HW217208   1.575   4.102   0.773
 5437SOL     OW17209   3.143   0.481   5.929
 5437SOL    HW117210   3.184   0.567   5.961
 5437SOL    HW217211   3.118   0.489   5.833
 5438SOL     OW17212   4.448   6.467   3.435
 5438SOL    HW117213   4.376   6.398   3.432
 5438SOL    HW217214   4.414   6.549   3.480
 5439SOL     OW17215   1.843   3.697   2.429
 5439SOL    HW117216   1.764   3.756   2.446
 5439SOL    HW217217   1.822   3.604   2.458
 5440SOL     OW17218   4.939   5.927   2.676
 5440SOL    HW117219   4.858   5.921   2.734
 5440SOL    HW217220   4.975   5.835   2.660
 5441SOL     OW17221   5.900   6.966   4.533
 5441SOL    HW117222   5.909   0.030   4.573
 5441SOL    HW217223   5.946   6.964   4.444
 5442SOL     OW17224   2.657   6.017   0.116
 5442SOL    HW117225   2.562   6.015   0.146
 5442SOL    HW217226   2.715   5.978   0.188
 5443SOL     OW17227   5.138   1.755   3.087
 5443SOL    HW117228   5.098   1.737   3.177
 5443SOL    HW217229   5.236   1.771   3.097
 5444SOL     OW17230   2.398   1.734   6.284
 5444SOL    HW117231   2.355   1.665   6.342
 5444SOL    HW217232   2.437   1.689   6.203
 5445SOL     OW17233   0.437   6.002   6.000
 5445SOL    HW117234   0.450   5.994   5.901
 5445SOL    HW217235   0.478   5.923   6.045
 5446SOL     OW17236   2.670   4.178   0.295
 5446SOL    HW117237   2.624   4.135   0.217
 5446SOL    HW217238   2.627   4.149   0.380
 5447SOL     OW17239   5.111   2.507   1.809
 5447SOL    HW117240   5.120   2.494   1.710
 5447SOL    HW217241   5.190   2.559   1.842
 5448SOL     OW17242   6.229   5.785   1.245
 5448SOL    HW117243   6.328   5.774   1.235
 5448SOL    HW217244   6.182   5.716   1.189
 5449SOL     OW17245   2.437   0.542   2.362
 5449SOL    HW117246   2.438   0.600   2.281
 5449SOL    HW217247   2.435   0.599   2.444
 5450SOL     OW17248   4.402   4.608   2.145
 5450SOL    HW117249   4.405   4.683   2.079
 5450SOL    HW217250   4.398   4.521   2.096
 5451SOL     OW17251   0.323   5.252   3.523
 5451SOL    HW117252   0.295   5.250   3.427
 5451SOL    HW217253   0.404   5.195   3.535
 5452SOL     OW17254   2.244   4.240   3.150
 5452SOL    HW117255   2.144   4.242   3.154
 5452SOL    HW217256   2.273   4.226   3.055
 5453SOL     OW17257   5.782   4.985   4.312
 5453SOL    HW117258   5.687   4.996   4.284
 5453SOL    HW217259   5.789   4.907   4.375
 5454SOL     OW17260   6.700   3.432   2.796
 5454SOL    HW117261   6.676   3.528   2.812
 5454SOL    HW217262   6.768   3.427   2.723
 5455SOL     OW17263   1.882   1.784   3.004
 5455SOL    HW117264   1.904   1.824   2.915
 5455SOL    HW217265   1.838   1.853   3.061
 5456SOL     OW17266   5.888   2.908   0.056
 5456SOL    HW117267   5.985   2.900   0.033
 5456SOL    HW217268   5.849   2.816   0.067
 5457SOL     OW17269   5.778   0.690   0.789
 5457SOL    HW117270   5.790   0.593   0.809
 5457SOL    HW217271   5.777   0.742   0.875
 5458SOL     OW17272   5.994   4.558   6.603
 5458SOL    HW117273   5.977   4.546   6.506
 5458SOL    HW217274   6.078   4.510   6.628
 5459SOL     OW17275   2.138   3.497   4.549
 5459SOL    HW117276   2.123   3.486   4.451
 5459SOL    HW217277   2.060   3.545   4.589
 5460SOL     OW17278   6.632   1.556   1.121
 5460SOL    HW117279   6.627   1.545   1.220
 5460SOL    HW217280   6.630   1.466   1.077
 5461SOL     OW17281   5.780   0.519   5.613
 5461SOL    HW117282   5.716   0.562   5.677
 5461SOL    HW217283   5.734   0.444   5.565
 5462SOL     OW17284   5.635   4.740   0.677
 5462SOL    HW117285   5.665   4.728   0.582
 5462SOL    HW217286   5.604   4.834   0.691
 5463SOL     OW17287   2.925   4.802   6.852
 5463SOL    HW117288   2.927   4.897   6.822
 5463SOL    HW217289   3.018   4.770   6.868
 5464SOL     OW17290   3.045   5.938   4.150
 5464SOL    HW117291   3.115   5.876   4.184
 5464SOL    HW217292   3.010   5.906   4.062
 5465SOL     OW17293   0.329   1.486   5.163
 5465SOL    HW117294   0.307   1.433   5.081
 5465SOL    HW217295   0.408   1.445   5.208
 5466SOL     OW17296   5.786   2.422   4.980
 5466SOL    HW117297   5.773   2.386   5.073
 5466SOL    HW217298   5.700   2.463   4.948
 5467SOL     OW17299   4.425   4.588   2.946
 5467SOL    HW117300   4.418   4.621   3.040
 5467SOL    HW217301   4.347   4.622   2.893
 5468SOL     OW17302   0.351   2.095   1.199
 5468SOL    HW117303   0.450   2.108   1.205
 5468SOL    HW217304   0.320   2.112   1.106
 5469SOL     OW17305   4.262   0.682   2.725
 5469SOL    HW117306   4.164   0.662   2.724
 5469SOL    HW217307   4.310   0.618   2.665
 5470SOL     OW17308   2.911   4.810   2.899
 5470SOL    HW117309   2.815   4.817   2.926
 5470SOL    HW217310   2.948   4.721   2.928
 5471SOL     OW17311   5.697   1.455   3.811
 5471SOL    HW117312   5.739   1.371   3.843
 5471SOL    HW217313   5.603   1.436   3.782
 5472SOL     OW17314   2.734   4.784   0.766
 5472SOL    HW117315   2.824   4.815   0.796
 5472SOL    HW217316   2.715   4.820   0.675
 5473SOL     OW17317   3.166   4.777   1.838
 5473SOL    HW117318   3.214   4.794   1.924
 5473SOL    HW217319   3.102   4.702   1.849
 5474SOL     OW17320   1.510   5.146   1.266
 5474SOL    HW117321   1.486   5.053   1.294
 5474SOL    HW217322   1.545   5.197   1.344
 5475SOL     OW17323   0.131   1.295   5.243
 5475SOL    HW117324   0.168   1.376   5.197
 5475SOL    HW217325   0.031   1.303   5.249
 5476SOL     OW17326   3.211   1.567   4.491
 5476SOL    HW117327   3.157   1.606   4.566
 5476SOL    HW217328   3.164   1.582   4.404
 5477SOL     OW17329   2.190   4.112   2.785
 5477SOL    HW117330   2.185   4.208   2.811
 5477SOL    HW217331   2.264   4.099   2.720
 5478SOL     OW17332   6.641   3.176   5.505
 5478SOL    HW117333   6.675   3.167   5.412
 5478SOL    HW217334   6.707   3.225   5.561
 5479SOL     OW17335   5.401   4.242   4.787
 5479SOL    HW117336   5.304   4.225   4.769
 5479SOL    HW217337   5.420   4.227   4.884
 5480SOL     OW17338   2.704   2.570   6.501
 5480SOL    HW117339   2.673   2.595   6.409
 5480SOL    HW217340   2.663   2.632   6.568
 5481SOL     OW17341   3.129   6.954   1.140
 5481SOL    HW117342   3.212   7.009   1.134
 5481SOL    HW217343   3.093   6.939   1.048
 5482SOL     OW17344   5.734   4.471   2.391
 5482SOL    HW117345   5.722   4.476   2.491
 5482SOL    HW217346   5.831   4.481   2.369
 5483SOL     OW17347   5.794   1.476   0.959
 5483SOL    HW117348   5.761   1.568   0.939
 5483SOL    HW217349   5.775   1.416   0.882
 5484SOL     OW17350   6.105   6.865   5.485
 5484SOL    HW117351   6.084   6.893   5.579
 5484SOL    HW217352   6.038   6.905   5.422
 5485SOL     OW17353   2.218   1.910   4.105
 5485SOL    HW117354   2.287   1.858   4.053
 5485SOL    HW217355   2.245   2.006   4.108
 5486SOL     OW17356   5.892   1.661   3.950
 5486SOL    HW117357   5.810   1.609   3.973
 5486SOL    HW217358   5.973   1.605   3.966
 5487SOL     OW17359   4.254   5.961   1.100
 5487SOL    HW117360   4.262   5.930   1.006
 5487SOL    HW217361   4.163   6.000   1.115
 5488SOL     OW17362   4.924   0.005   6.749
 5488SOL    HW117363   4.942   0.006   6.650
 5488SOL    HW217364   4.897   6.940   6.777
 5489SOL     OW17365   6.980   3.059   2.338
 5489SOL    HW117366   6.979   2.962   2.360
 5489SOL    HW217367   6.891   3.099   2.359
 5490SOL     OW17368   2.940   1.307   6.553
 5490SOL    HW117369   2.907   1.328   6.461
 5490SOL    HW217370   2.997   1.382   6.586
 5491SOL     OW17371   6.153   6.455   1.334
 5491SOL    HW117372   6.101   6.464   1.249
 5491SOL    HW217373   6.096   6.411   1.404
 5492SOL     OW17374   1.377   0.976   5.974
 5492SOL    HW117375   1.365   1.048   6.042
 5492SOL    HW217376   1.371   0.887   6.019
 5493SOL     OW17377   4.182   0.827   6.257
 5493SOL    HW117378   4.106   0.888   6.237
 5493SOL    HW217379   4.151   0.756   6.321
 5494SOL     OW17380   5.792   2.956   2.012
 5494SOL    HW117381   5.770   2.886   1.944
 5494SOL    HW217382   5.760   3.045   1.980
 5495SOL     OW17383   3.414   3.122   5.172
 5495SOL    HW117384   3.340   3.153   5.112
 5495SOL    HW217385   3.404   3.025   5.190
 5496SOL     OW17386   4.644   4.976   1.915
 5496SOL    HW117387   4.693   5.028   1.986
 5496SOL    HW217388   4.587   5.039   1.862
 5497SOL     OW17389   5.523   6.402   0.492
 5497SOL    HW117390   5.436   6.373   0.532
 5497SOL    HW217391   5.598   6.352   0.536
 5498SOL     OW17392   4.096   0.777   3.337
 5498SOL    HW117393   4.144   0.772   3.426
 5498SOL    HW217394   4.023   0.708   3.335
 5499SOL     OW17395   0.740   0.687   4.822
 5499SOL    HW117396   0.728   0.763   4.885
 5499SOL    HW217397   0.831   0.647   4.834
 5500SOL     OW17398   1.257   6.356   0.536
 5500SOL    HW117399   1.253   6.338   0.438
 5500SOL    HW217400   1.172   6.402   0.564
 5501SOL     OW17401   2.442   1.471   2.074
 5501SOL    HW117402   2.490   1.537   2.017
 5501SOL    HW217403   2.353   1.509   2.101
 5502SOL     OW17404   5.415   4.601   0.670
 5502SOL    HW117405   5.490   4.662   0.695
 5502SOL    HW217406   5.452   4.514   0.636
 5503SOL     OW17407   6.650   0.945   3.942
 5503SOL    HW117408   6.743   0.979   3.929
 5503SOL    HW217409   6.593   1.019   3.979
 5504SOL     OW17410   2.496   1.967   4.965
 5504SOL    HW117411   2.460   1.926   4.881
 5504SOL    HW217412   2.420   1.984   5.029
 5505SOL     OW17413   3.291   5.366   0.818
 5505SOL    HW117414   3.378   5.322   0.841
 5505SOL    HW217415   3.220   5.333   0.879
 5506SOL     OW17416   1.406   6.498   5.250
 5506SOL    HW117417   1.367   6.506   5.158
 5506SOL    HW217418   1.468   6.575   5.267
 5507SOL     OW17419   2.267   5.369   4.913
 5507SOL    HW117420   2.348   5.421   4.939
 5507SOL    HW217421   2.278   5.273   4.939
 5508SOL     OW17422   2.550   1.947   5.443
 5508SOL    HW117423   2.473   2.009   5.434
 5508SOL    HW217424   2.636   1.998   5.438
 5509SOL     OW17425   0.242   6.854   5.503
 5509SOL    HW117426   0.252   6.898   5.592
 5509SOL    HW217427   0.304   6.897   5.437
 5510SOL     OW17428   6.944   7.011   5.686
 5510SOL    HW117429   6.914   7.000   5.591
 5510SOL    HW217430   6.873   0.032   5.737
 5511SOL     OW17431   0.331   2.506   0.879
 5511SOL    HW117432   0.249   2.511   0.935
 5511SOL    HW217433   0.314   2.450   0.799
 5512SOL     OW17434   6.766   6.407   0.284
 5512SOL    HW117435   6.829   6.335   0.314
 5512SOL    HW217436   6.686   6.408   0.345
 5513SOL     OW17437   2.644   6.693   4.959
 5513SOL    HW117438   2.554   6.693   4.917
 5513SOL    HW217439   2.639   6.733   5.051
 5514SOL     OW17440   5.950   5.931   3.761
 5514SOL    HW117441   6.038   5.977   3.771
 5514SOL    HW217442   5.965   5.838   3.728
 5515SOL     OW17443   1.908   3.863   3.982
 5515SOL    HW117444   1.906   3.935   4.052
 5515SOL    HW217445   2.000   3.823   3.979
 5516SOL     OW17446   2.279   2.598   0.104
 5516SOL    HW117447   2.260   2.636   0.195
 5516SOL    HW217448   2.368   2.552   0.105
 5517SOL     OW17449   3.136   0.171   2.284
 5517SOL    HW117450   3.148   0.073   2.301
 5517SOL    HW217451   3.158   0.222   2.366
 5518SOL     OW17452   4.828   3.764   6.475
 5518SOL    HW117453   4.846   3.684   6.418
 5518SOL    HW217454   4.735   3.759   6.511
 5519SOL     OW17455   5.378   3.657   2.219
 5519SOL    HW117456   5.401   3.560   2.217
 5519SOL    HW217457   5.289   3.672   2.177
 5520SOL     OW17458   1.253   2.757   1.198
 5520SOL    HW117459   1.323   2.712   1.253
 5520SOL    HW217460   1.296   2.798   1.117
 5521SOL     OW17461   5.286   4.143   6.609
 5521SOL    HW117462   5.188   4.123   6.616
 5521SOL    HW217463   5.321   4.107   6.523
 5522SOL     OW17464   2.053   2.638   1.581
 5522SOL    HW117465   2.030   2.692   1.499
 5522SOL    HW217466   2.152   2.634   1.591
 5523SOL     OW17467   2.354   6.385   1.604
 5523SOL    HW117468   2.312   6.476   1.607
 5523SOL    HW217469   2.340   6.344   1.515
 5524SOL     OW17470   6.454   6.579   5.785
 5524SOL    HW117471   6.525   6.599   5.852
 5524SOL    HW217472   6.435   6.481   5.786
 5525SOL     OW17473   6.843   6.949   2.972
 5525SOL    HW117474   6.929   6.911   2.935
 5525SOL    HW217475   6.773   6.878   2.972
 5526SOL     OW17476   5.239   3.853   4.673
 5526SOL    HW117477   5.211   3.903   4.755
 5526SOL    HW217478   5.324   3.892   4.638
 5527SOL     OW17479   3.125   2.655   0.295
 5527SOL    HW117480   3.145   2.566   0.253
 5527SOL    HW217481   3.134   2.727   0.227
 5528SOL     OW17482   5.710   2.838   2.485
 5528SOL    HW117483   5.764   2.819   2.403
 5528SOL    HW217484   5.722   2.934   2.511
 5529SOL     OW17485   1.257   1.150   4.680
 5529SOL    HW117486   1.335   1.093   4.708
 5529SOL    HW217487   1.199   1.168   4.759
 5530SOL     OW17488   0.180   3.042   6.580
 5530SOL    HW117489   0.254   2.982   6.548
 5530SOL    HW217490   0.211   3.137   6.581
 5531SOL     OW17491   2.911   2.589   0.550
 5531SOL    HW117492   2.889   2.511   0.491
 5531SOL    HW217493   3.003   2.622   0.529
 5532SOL     OW17494   1.983   2.928   1.942
 5532SOL    HW117495   1.912   2.858   1.941
 5532SOL    HW217496   2.017   2.943   1.849
 5533SOL     OW17497   3.073   6.915   0.899
 5533SOL    HW117498   3.150   6.933   0.836
 5533SOL    HW217499   3.002   6.864   0.850
 5534SOL     OW17500   0.417   3.820   5.653
 5534SOL    HW117501   0.435   3.722   5.642
 5534SOL    HW217502   0.447   3.869   5.571
 5535SOL     OW17503   5.044   5.611   3.233
 5535SOL    HW117504   5.092   5.654   3.309
 5535SOL    HW217505   5.099   5.617   3.150
 5536SOL     OW17506   2.427   1.413   4.374
 5536SOL    HW117507   2.378   1.328   4.353
 5536SOL    HW217508   2.369   1.471   4.430
 5537SOL     OW17509   3.692   1.541   3.449
 5537SOL    HW117510   3.745   1.575   3.527
 5537SOL    HW217511   3.703   1.442   3.443
 5538SOL     OW17512   4.499   2.516   3.155
 5538SOL    HW117513   4.466   2.511   3.061
 5538SOL    HW217514   4.518   2.423   3.189
 5539SOL     OW17515   1.099   0.292   6.030
 5539SOL    HW117516   1.108   0.371   5.969
 5539SOL    HW217517   1.054   0.321   6.114
 5540SOL     OW17518   4.531   6.927   4.917
 5540SOL    HW117519   4.615   6.913   4.865
 5540SOL    HW217520   4.456   6.880   4.872
 5541SOL     OW17521   4.644   2.850   5.269
 5541SOL    HW117522   4.695   2.920   5.321
 5541SOL    HW217523   4.550   2.847   5.301
 5542SOL     OW17524   4.958   4.638   6.897
 5542SOL    HW117525   4.932   4.548   6.863
 5542SOL    HW217526   5.052   4.635   6.930
 5543SOL     OW17527   0.497   0.757   5.699
 5543SOL    HW117528   0.484   0.658   5.705
 5543SOL    HW217529   0.581   0.777   5.649
 5544SOL     OW17530   3.987   5.300   6.737
 5544SOL    HW117531   4.078   5.295   6.696
 5544SOL    HW217532   3.935   5.375   6.695
 5545SOL     OW17533   5.119   2.737   3.268
 5545SOL    HW117534   5.173   2.736   3.184
 5545SOL    HW217535   5.026   2.767   3.248
 5546SOL     OW17536   1.093   6.305   3.844
 5546SOL    HW117537   0.994   6.291   3.853
 5546SOL    HW217538   1.121   6.383   3.900
 5547SOL     OW17539   5.289   1.757   4.137
 5547SOL    HW117540   5.204   1.809   4.126
 5547SOL    HW217541   5.365   1.820   4.152
 5548SOL     OW17542   1.415   3.933   4.705
 5548SOL    HW117543   1.388   3.873   4.781
 5548SOL    HW217544   1.396   3.887   4.619
 5549SOL     OW17545   4.126   3.531   0.407
 5549SOL    HW117546   4.078   3.568   0.328
 5549SOL    HW217547   4.070   3.545   0.489
 5550SOL     OW17548   3.212   4.421   1.300
 5550SOL    HW117549   3.260   4.395   1.383
 5550SOL    HW217550   3.116   4.439   1.321
 5551SOL     OW17551   0.629   3.959   2.264
 5551SOL    HW117552   0.635   3.981   2.167
 5551SOL    HW217553   0.652   4.040   2.318
 5552SOL     OW17554   0.182   1.035   1.041
 5552SOL    HW117555   0.123   1.082   1.107
 5552SOL    HW217556   0.271   1.079   1.038
 5553SOL     OW17557   6.099   6.621   1.739
 5553SOL    HW117558   6.128   6.672   1.658
 5553SOL    HW217559   6.010   6.577   1.720
 5554SOL     OW17560   0.302   2.396   1.636
 5554SOL    HW117561   0.211   2.438   1.644
 5554SOL    HW217562   0.292   2.296   1.644
 5555SOL     OW17563   0.710   4.668   2.410
 5555SOL    HW117564   0.742   4.644   2.318
 5555SOL    HW217565   0.617   4.705   2.404
 5556SOL     OW17566   6.668   1.826   5.157
 5556SOL    HW117567   6.664   1.822   5.057
 5556SOL    HW217568   6.609   1.755   5.196
 5557SOL     OW17569   2.920   6.965   3.318
 5557SOL    HW117570   3.015   6.984   3.345
 5557SOL    HW217571   2.887   0.012   3.259
 5558SOL     OW17572   4.101   3.955   6.288
 5558SOL    HW117573   4.054   4.010   6.357
 5558SOL    HW217574   4.175   3.903   6.331
 5559SOL     OW17575   3.510   0.219   3.396
 5559SOL    HW117576   3.493   0.306   3.443
 5559SOL    HW217577   3.422   0.174   3.379
 5560SOL     OW17578   0.142   4.920   3.268
 5560SOL    HW117579   0.071   4.854   3.243
 5560SOL    HW217580   0.137   4.939   3.366
 5561SOL     OW17581   2.789   0.723   3.721
 5561SOL    HW117582   2.730   0.800   3.745
 5561SOL    HW217583   2.871   0.724   3.778
 5562SOL     OW17584   5.407   2.791   1.154
 5562SOL    HW117585   5.463   2.873   1.145
 5562SOL    HW217586   5.328   2.810   1.212
 5563SOL     OW17587   1.077   4.156   2.474
 5563SOL    HW117588   1.026   4.220   2.531
 5563SOL    HW217589   1.110   4.081   2.531
 5564SOL     OW17590   4.286   0.197   6.655
 5564SOL    HW117591   4.306   0.262   6.581
 5564SOL    HW217592   4.320   0.233   6.741
 5565SOL     OW17593   2.704   2.016   6.289
 5565SOL    HW117594   2.755   2.091   6.332
 5565SOL    HW217595   2.626   1.992   6.346
 5566SOL     OW17596   1.378   5.283   5.035
 5566SOL    HW117597   1.331   5.196   5.020
 5566SOL    HW217598   1.381   5.304   5.132
 5567SOL     OW17599   1.822   4.903   6.673
 5567SOL    HW117600   1.889   4.953   6.620
 5567SOL    HW217601   1.790   4.959   6.749
 5568SOL     OW17602   5.361   5.348   2.334
 5568SOL    HW117603   5.394   5.435   2.370
 5568SOL    HW217604   5.405   5.272   2.383
 5569SOL     OW17605   1.679   2.227   3.024
 5569SOL    HW117606   1.686   2.327   3.020
 5569SOL    HW217607   1.712   2.188   2.938
 5570SOL     OW17608   6.877   3.522   1.245
 5570SOL    HW117609   6.807   3.455   1.270
 5570SOL    HW217610   6.962   3.501   1.294
 5571SOL     OW17611   6.704   4.506   6.761
 5571SOL    HW117612   6.789   4.547   6.794
 5571SOL    HW217613   6.716   4.474   6.667
 5572SOL     OW17614   0.867   4.534   5.656
 5572SOL    HW117615   0.835   4.503   5.566
 5572SOL    HW217616   0.790   4.571   5.708
 5573SOL     OW17617   2.999   4.836   3.195
 5573SOL    HW117618   3.020   4.897   3.271
 5573SOL    HW217619   3.071   4.844   3.126
 5574SOL     OW17620   1.331   1.204   6.100
 5574SOL    HW117621   1.357   1.255   6.018
 5574SOL    HW217622   1.332   1.265   6.179
 5575SOL     OW17623   0.655   0.007   2.100
 5575SOL    HW117624   0.672   7.015   2.003
 5575SOL    HW217625   0.632   0.104   2.111
 5576SOL     OW17626   1.743   5.249   3.222
 5576SOL    HW117627   1.790   5.164   3.200
 5576SOL    HW217628   1.810   5.319   3.248
 5577SOL     OW17629   3.617   1.859   6.200
 5577SOL    HW117630   3.617   1.836   6.298
 5577SOL    HW217631   3.523   1.874   6.170
 5578SOL     OW17632   4.161   3.537   3.458
 5578SOL    HW117633   4.192   3.604   3.525
 5578SOL    HW217634   4.221   3.539   3.378
 5579SOL     OW17635   6.298   3.057   2.220
 5579SOL    HW117636   6.394   3.057   2.190
 5579SOL    HW217637   6.239   3.077   2.142
 5580SOL     OW17638   5.818   2.414   5.945
 5580SOL    HW117639   5.813   2.420   6.045
 5580SOL    HW217640   5.732   2.445   5.905
 5581SOL     OW17641   1.293   0.722   5.388
 5581SOL    HW117642   1.298   0.737   5.487
 5581SOL    HW217643   1.232   0.645   5.369
 5582SOL     OW17644   2.541   2.710   6.279
 5582SOL    HW117645   2.494   2.635   6.232
 5582SOL    HW217646   2.563   2.783   6.214
 5583SOL     OW17647   5.361   6.944   1.186
 5583SOL    HW117648   5.433   7.011   1.168
 5583SOL    HW217649   5.278   6.990   1.214
 5584SOL     OW17650   0.334   3.963   5.034
 5584SOL    HW117651   0.410   4.021   5.062
 5584SOL    HW217652   0.369   3.883   4.985
 5585SOL     OW17653   6.048   4.896   1.583
 5585SOL    HW117654   5.994   4.966   1.630
 5585SOL    HW217655   6.077   4.930   1.494
 5586SOL     OW17656   1.707   6.525   2.028
 5586SOL    HW117657   1.800   6.556   2.051
 5586SOL    HW217658   1.709   6.427   2.010
 5587SOL     OW17659   5.908   1.362   4.597
 5587SOL    HW117660   5.938   1.451   4.563
 5587SOL    HW217661   5.953   1.289   4.545
 5588SOL     OW17662   3.230   6.387   0.927
 5588SOL    HW117663   3.157   6.385   0.995
 5588SOL    HW217664   3.283   6.472   0.938
 5589SOL     OW17665   0.244   5.222   5.642
 5589SOL    HW117666   0.303   5.211   5.723
 5589SOL    HW217667   0.296   5.267   5.570
 5590SOL     OW17668   5.231   5.958   3.585
 5590SOL    HW117669   5.302   5.988   3.521
 5590SOL    HW217670   5.161   6.030   3.593
 5591SOL     OW17671   4.721   1.152   2.585
 5591SOL    HW117672   4.726   1.244   2.546
 5591SOL    HW217673   4.684   1.089   2.516
 5592SOL     OW17674   6.788   5.352   4.744
 5592SOL    HW117675   6.879   5.312   4.733
 5592SOL    HW217676   6.735   5.338   4.660
 5593SOL     OW17677   2.189   4.534   1.172
 5593SOL    HW117678   2.227   4.582   1.252
 5593SOL    HW217679   2.119   4.470   1.203
 5594SOL     OW17680   6.396   6.965   5.424
 5594SOL    HW117681   6.299   6.941   5.417
 5594SOL    HW217682   6.426   6.957   5.519
 5595SOL     OW17683   6.830   1.462   1.344
 5595SOL    HW117684   6.737   1.481   1.376
 5595SOL    HW217685   6.883   1.423   1.419
 5596SOL     OW17686   4.296   6.698   3.042
 5596SOL    HW117687   4.264   6.695   2.947
 5596SOL    HW217688   4.218   6.710   3.103
 5597SOL     OW17689   4.998   3.159   2.041
 5597SOL    HW117690   4.912   3.113   2.017
 5597SOL    HW217691   5.053   3.173   1.958
 5598SOL     OW17692   2.984   0.720   3.964
 5598SOL    HW117693   2.939   0.726   4.053
 5598SOL    HW217694   3.029   0.631   3.955
 5599SOL     OW17695   1.296   1.580   3.801
 5599SOL    HW117696   1.259   1.525   3.876
 5599SOL    HW217697   1.282   1.677   3.820
 5600SOL     OW17698   2.602   2.600   5.619
 5600SOL    HW117699   2.660   2.635   5.545
 5600SOL    HW217700   2.594   2.501   5.611
 5601SOL     OW17701   1.458   0.320   0.306
 5601SOL    HW117702   1.444   0.415   0.332
 5601SOL    HW217703   1.487   0.315   0.210
 5602SOL     OW17704   1.735   1.197   0.298
 5602SOL    HW117705   1.754   1.284   0.343
 5602SOL    HW217706   1.648   1.160   0.331
 5603SOL     OW17707   6.596   3.495   5.045
 5603SOL    HW117708   6.628   3.486   4.951
 5603SOL    HW217709   6.599   3.591   5.073
 5604SOL     OW17710   5.294   1.131   6.507
 5604SOL    HW117711   5.328   1.037   6.515
 5604SOL    HW217712   5.331   1.173   6.425
 5605SOL     OW17713   1.493   1.396   6.665
 5605SOL    HW117714   1.536   1.386   6.755
 5605SOL    HW217715   1.419   1.463   6.670
 5606SOL     OW17716   6.007   6.162   3.411
 5606SOL    HW117717   6.077   6.225   3.443
 5606SOL    HW217718   6.047   6.098   3.344
 5607SOL     OW17719   5.286   6.621   0.591
 5607SOL    HW117720   5.255   6.716   0.597
 5607SOL    HW217721   5.375   6.618   0.545
 5608SOL     OW17722   3.765   6.717   5.415
 5608SOL    HW117723   3.727   6.634   5.375
 5608SOL    HW217724   3.860   6.728   5.385
 5609SOL     OW17725   1.752   6.116   4.978
 5609SOL    HW117726   1.797   6.130   5.066
 5609SOL    HW217727   1.713   6.024   4.975
 5610SOL     OW17728   5.242   6.870   6.374
 5610SOL    HW117729   5.278   6.949   6.325
 5610SOL    HW217730   5.254   6.788   6.318
 5611SOL     OW17731   1.997   4.678   4.090
 5611SOL    HW117732   1.994   4.729   4.004
 5611SOL    HW217733   1.915   4.697   4.143
 5612SOL     OW17734   4.149   6.434   4.327
 5612SOL    HW117735   4.100   6.516   4.358
 5612SOL    HW217736   4.082   6.362   4.306
 5613SOL     OW17737   2.393   5.430   2.801
 5613SOL    HW117738   2.391   5.423   2.702
 5613SOL    HW217739   2.309   5.390   2.839
 5614SOL     OW17740   5.358   2.400   4.720
 5614SOL    HW117741   5.360   2.428   4.816
 5614SOL    HW217742   5.303   2.317   4.711
 5615SOL     OW17743   0.673   1.217   1.753
 5615SOL    HW117744   0.580   1.253   1.752
 5615SOL    HW217745   0.737   1.294   1.757
 5616SOL     OW17746   3.034   6.730   4.740
 5616SOL    HW117747   3.097   6.771   4.805
 5616SOL    HW217748   3.056   6.633   4.727
 5617SOL     OW17749   0.056   1.023   6.067
 5617SOL    HW117750   0.006   1.061   5.989
 5617SOL    HW217751   0.137   0.976   6.035
 5618SOL     OW17752   6.361   5.010   3.982
 5618SOL    HW117753   6.265   5.024   4.004
 5618SOL    HW217754   6.386   5.066   3.902
 5619SOL     OW17755   2.196   2.929   3.838
 5619SOL    HW117756   2.207   2.872   3.757
 5619SOL    HW217757   2.194   3.025   3.811
 5620SOL     OW17758   5.406   2.213   5.995
 5620SOL    HW117759   5.477   2.157   6.037
 5620SOL    HW217760   5.339   2.155   5.950
 5621SOL     OW17761   2.710   1.760   5.236
 5621SOL    HW117762   2.729   1.757   5.138
 5621SOL    HW217763   2.713   1.855   5.268
 5622SOL     OW17764   6.053   2.048   4.743
 5622SOL    HW117765   5.992   2.124   4.767
 5622SOL    HW217766   6.065   1.989   4.823
 5623SOL     OW17767   0.590   5.899   6.342
 5623SOL    HW117768   0.560   5.837   6.269
 5623SOL    HW217769   0.511   5.945   6.381
 5624SOL     OW17770   1.406   3.784   2.706
 5624SOL    HW117771   1.420   3.870   2.658
 5624SOL    HW217772   1.310   3.757   2.699
 5625SOL     OW17773   6.195   1.849   6.110
 5625SOL    HW117774   6.270   1.832   6.174
 5625SOL    HW217775   6.184   1.769   6.050
 5626SOL     OW17776   5.790   6.179   5.671
 5626SOL    HW117777   5.854   6.254   5.657
 5626SOL    HW217778   5.840   6.096   5.697
 5627SOL     OW17779   1.278   0.825   1.601
 5627SOL    HW117780   1.252   0.737   1.639
 5627SOL    HW217781   1.299   0.889   1.675
 5628SOL     OW17782   0.854   1.688   4.446
 5628SOL    HW117783   0.771   1.638   4.422
 5628SOL    HW217784   0.934   1.631   4.427
 5629SOL     OW17785   3.654   3.848   3.821
 5629SOL    HW117786   3.580   3.787   3.850
 5629SOL    HW217787   3.665   3.921   3.889
 5630SOL     OW17788   6.200   4.142   1.180
 5630SOL    HW117789   6.237   4.225   1.221
 5630SOL    HW217790   6.230   4.134   1.085
 5631SOL     OW17791   6.341   0.897   6.136
 5631SOL    HW117792   6.316   0.912   6.231
 5631SOL    HW217793   6.419   0.834   6.132
 5632SOL     OW17794   3.206   2.108   1.159
 5632SOL    HW117795   3.188   2.102   1.257
 5632SOL    HW217796   3.125   2.076   1.109
 5633SOL     OW17797   0.128   3.476   5.907
 5633SOL    HW117798   0.148   3.508   6.000
 5633SOL    HW217799   0.042   3.516   5.876
 5634SOL     OW17800   4.488   5.846   5.638
 5634SOL    HW117801   4.520   5.893   5.720
 5634SOL    HW217802   4.553   5.862   5.563
 5635SOL     OW17803   2.765   1.495   6.975
 5635SOL    HW117804   2.844   1.466   0.002
 5635SOL    HW217805   2.713   1.563   7.027
 5636SOL     OW17806   4.603   1.006   4.360
 5636SOL    HW117807   4.552   1.089   4.381
 5636SOL    HW217808   4.701   1.027   4.356
 5637SOL     OW17809   5.986   0.215   2.964
 5637SOL    HW117810   5.886   0.205   2.964
 5637SOL    HW217811   6.021   0.193   3.055
 5638SOL     OW17812   6.999   3.505   0.652
 5638SOL    HW117813   6.981   3.458   0.739
 5638SOL    HW217814   6.936   3.471   0.582
 5639SOL     OW17815   4.053   0.206   6.446
 5639SOL    HW117816   4.089   0.182   6.537
 5639SOL    HW217817   3.993   0.286   6.454
 5640SOL     OW17818   1.280   6.675   3.315
 5640SOL    HW117819   1.272   6.769   3.283
 5640SOL    HW217820   1.244   6.668   3.408
 5641SOL     OW17821   6.547   6.052   4.537
 5641SOL    HW117822   6.549   5.998   4.453
 5641SOL    HW217823   6.454   6.084   4.554
 5642SOL     OW17824   1.209   0.630   0.545
 5642SOL    HW117825   1.253   0.679   0.469
 5642SOL    HW217826   1.245   0.663   0.632
 5643SOL     OW17827   5.090   2.439   0.649
 5643SOL    HW117828   5.081   2.524   0.597
 5643SOL    HW217829   5.094   2.362   0.585
 5644SOL     OW17830   2.735   0.266   5.659
 5644SOL    HW117831   2.682   0.349   5.639
 5644SOL    HW217832   2.753   0.217   5.574
 5645SOL     OW17833   5.093   3.998   4.184
 5645SOL    HW117834   5.156   4.068   4.152
 5645SOL    HW217835   5.114   3.974   4.279
 5646SOL     OW17836   1.232   4.822   2.727
 5646SOL    HW117837   1.214   4.724   2.723
 5646SOL    HW217838   1.307   4.845   2.665
 5647SOL     OW17839   4.223   5.327   2.615
 5647SOL    HW117840   4.197   5.234   2.641
 5647SOL    HW217841   4.265   5.325   2.524
 5648SOL     OW17842   5.763   6.970   3.623
 5648SOL    HW117843   5.811   6.906   3.684
 5648SOL    HW217844   5.829   0.004   3.580
 5649SOL     OW17845   0.725   0.665   4.533
 5649SOL    HW117846   0.722   0.695   4.629
 5649SOL    HW217847   0.789   0.723   4.482
 5650SOL     OW17848   0.858   3.629   6.333
 5650SOL    HW117849   0.828   3.665   6.244
 5650SOL    HW217850   0.950   3.662   6.353
 5651SOL     OW17851   3.093   0.910   1.156
 5651SOL    HW117852   3.007   0.959   1.139
 5651SOL    HW217853   3.128   0.934   1.246
 5652SOL     OW17854   0.181   5.922   2.229
 5652SOL    HW117855   0.113   5.995   2.234
 5652SOL    HW217856   0.138   5.835   2.253
 5653SOL     OW17857   0.053   0.420   2.718
 5653SOL    HW117858   7.019   0.360   2.666
 5653SOL    HW217859   0.130   0.366   2.753
 5654SOL     OW17860   3.130   6.116   6.077
 5654SOL    HW117861   3.053   6.111   6.140
 5654SOL    HW217862   3.213   6.138   6.129
 5655SOL     OW17863   6.268   3.217   4.174
 5655SOL    HW117864   6.304   3.309   4.159
 5655SOL    HW217865   6.333   3.164   4.228
 5656SOL     OW17866   0.297   5.001   1.922
 5656SOL    HW117867   0.306   4.901   1.915
 5656SOL    HW217868   0.333   5.031   2.010
 5657SOL     OW17869   6.443   5.946   5.697
 5657SOL    HW117870   6.354   5.987   5.676
 5657SOL    HW217871   6.452   5.935   5.796
 5658SOL     OW17872   3.027   2.263   5.355
 5658SOL    HW117873   3.105   2.287   5.297
 5658SOL    HW217874   3.056   2.261   5.451
 5659SOL     OW17875   2.389   3.751   5.513
 5659SOL    HW117876   2.316   3.726   5.577
 5659SOL    HW217877   2.477   3.745   5.559
 5660SOL     OW17878   4.125   0.982   4.023
 5660SOL    HW117879   4.035   0.979   3.981
 5660SOL    HW217880   4.192   0.938   3.963
 5661SOL     OW17881   0.704   5.935   5.753
 5661SOL    HW117882   0.754   5.936   5.840
 5661SOL    HW217883   0.718   6.022   5.706
 5662SOL     OW17884   2.734   5.644   0.501
 5662SOL    HW117885   2.736   5.567   0.565
 5662SOL    HW217886   2.660   5.630   0.435
 5663SOL     OW17887   3.568   1.439   6.375
 5663SOL    HW117888   3.643   1.440   6.442
 5663SOL    HW217889   3.584   1.364   6.309
 5664SOL     OW17890   4.609   6.317   5.162
 5664SOL    HW117891   4.693   6.366   5.137
 5664SOL    HW217892   4.545   6.321   5.085
 5665SOL     OW17893   2.242   1.225   0.898
 5665SOL    HW117894   2.235   1.134   0.858
 5665SOL    HW217895   2.157   1.247   0.945
 5666SOL     OW17896   6.140   3.703   4.644
 5666SOL    HW117897   6.101   3.611   4.636
 5666SOL    HW217898   6.077   3.761   4.696
 5667SOL     OW17899   2.901   4.932   4.038
 5667SOL    HW117900   2.848   4.855   4.074
 5667SOL    HW217901   2.840   4.995   3.990
 5668SOL     OW17902   4.563   4.417   4.384
 5668SOL    HW117903   4.628   4.347   4.357
 5668SOL    HW217904   4.541   4.406   4.481
 5669SOL     OW17905   5.410   3.101   5.794
 5669SOL    HW117906   5.387   3.084   5.698
 5669SOL    HW217907   5.342   3.058   5.853
 5670SOL     OW17908   0.867   3.396   4.106
 5670SOL    HW117909   0.797   3.394   4.178
 5670SOL    HW217910   0.953   3.362   4.142
 5671SOL     OW17911   5.849   6.006   2.557
 5671SOL    HW117912   5.859   5.951   2.474
 5671SOL    HW217913   5.937   6.012   2.604
 5672SOL     OW17914   5.792   3.413   4.693
 5672SOL    HW117915   5.854   3.449   4.763
 5672SOL    HW217916   5.818   3.319   4.671
 5673SOL     OW17917   0.967   2.566   0.572
 5673SOL    HW117918   1.016   2.607   0.495
 5673SOL    HW217919   1.027   2.562   0.651
 5674SOL     OW17920   3.067   4.999   5.437
 5674SOL    HW117921   3.029   4.911   5.406
 5674SOL    HW217922   3.128   4.983   5.515
 5675SOL     OW17923   3.517   2.155   0.854
 5675SOL    HW117924   3.539   2.067   0.813
 5675SOL    HW217925   3.552   2.158   0.947
 5676SOL     OW17926   3.728   1.688   1.910
 5676SOL    HW117927   3.691   1.775   1.944
 5676SOL    HW217928   3.777   1.642   1.985
 5677SOL     OW17929   1.126   0.925   6.186
 5677SOL    HW117930   1.094   0.985   6.113
 5677SOL    HW217931   1.211   0.881   6.159
 5678SOL     OW17932   3.811   2.109   2.192
 5678SOL    HW117933   3.850   2.022   2.163
 5678SOL    HW217934   3.753   2.146   2.118
 5679SOL     OW17935   1.316   3.638   5.806
 5679SOL    HW117936   1.347   3.731   5.827
 5679SOL    HW217937   1.350   3.575   5.875
 5680SOL     OW17938   1.016   5.905   3.880
 5680SOL    HW117939   0.977   5.859   3.959
 5680SOL    HW217940   0.998   6.003   3.886
 5681SOL     OW17941   1.742   3.449   2.990
 5681SOL    HW117942   1.759   3.477   2.895
 5681SOL    HW217943   1.669   3.382   2.992
 5682SOL     OW17944   1.809   4.491   0.470
 5682SOL    HW117945   1.889   4.492   0.409
 5682SOL    HW217946   1.836   4.520   0.562
 5683SOL     OW17947   0.009   5.791   6.240
 5683SOL    HW117948   6.981   5.721   6.194
 5683SOL    HW217949   0.101   5.757   6.255
 5684SOL     OW17950   2.005   3.366   3.930
 5684SOL    HW117951   2.056   3.449   3.909
 5684SOL    HW217952   2.066   3.297   3.969
 5685SOL     OW17953   1.766   1.885   1.484
 5685SOL    HW117954   1.684   1.941   1.503
 5685SOL    HW217955   1.798   1.844   1.570
 5686SOL     OW17956   5.573   5.319   5.364
 5686SOL    HW117957   5.504   5.256   5.401
 5686SOL    HW217958   5.558   5.331   5.266
 5687SOL     OW17959   1.200   0.058   0.078
 5687SOL    HW117960   1.189   0.156   0.062
 5687SOL    HW217961   1.282   0.025   0.030
 5688SOL     OW17962   1.443   2.735   2.458
 5688SOL    HW117963   1.429   2.668   2.530
 5688SOL    HW217964   1.355   2.757   2.416
 5689SOL     OW17965   6.940   2.057   0.817
 5689SOL    HW117966   6.943   2.025   0.912
 5689SOL    HW217967   6.965   2.153   0.813
 5690SOL     OW17968   3.114   5.281   6.682
 5690SOL    HW117969   3.056   5.203   6.656
 5690SOL    HW217970   3.087   5.313   6.773
 5691SOL     OW17971   5.094   3.058   3.138
 5691SOL    HW117972   5.123   3.083   3.230
 5691SOL    HW217973   5.175   3.039   3.081
 5692SOL     OW17974   6.628   4.676   2.498
 5692SOL    HW117975   6.655   4.611   2.427
 5692SOL    HW217976   6.536   4.709   2.479
 5693SOL     OW17977   2.968   0.892   1.811
 5693SOL    HW117978   2.960   0.798   1.779
 5693SOL    HW217979   3.064   0.916   1.824
 5694SOL     OW17980   6.946   6.787   0.772
 5694SOL    HW117981   7.018   6.719   0.778
 5694SOL    HW217982   6.931   6.812   0.676
 5695SOL     OW17983   1.473   0.843   2.207
 5695SOL    HW117984   1.376   0.823   2.215
 5695SOL    HW217985   1.487   0.942   2.203
 5696SOL     OW17986   6.705   1.079   3.513
 5696SOL    HW117987   6.650   1.075   3.430
 5696SOL    HW217988   6.682   1.003   3.573
 5697SOL     OW17989   5.977   1.836   0.076
 5697SOL    HW117990   5.937   1.927   0.085
 5697SOL    HW217991   6.020   1.828   7.013
 5698SOL     OW17992   2.982   1.868   3.081
 5698SOL    HW117993   3.022   1.878   2.990
 5698SOL    HW217994   3.044   1.908   3.149
 5699SOL     OW17995   2.514   2.423   2.716
 5699SOL    HW117996   2.529   2.517   2.746
 5699SOL    HW217997   2.460   2.374   2.784
 5700SOL     OW17998   5.514   1.048   1.966
 5700SOL    HW117999   5.421   1.080   1.948
 5700SOL    HW218000   5.511   0.965   2.022
 5701SOL     OW18001   2.073   1.662   0.177
 5701SOL    HW118002   2.134   1.708   0.242
 5701SOL    HW218003   2.124   1.637   0.095
 5702SOL     OW18004   1.644   6.509   5.007
 5702SOL    HW118005   1.578   6.569   4.962
 5702SOL    HW218006   1.698   6.461   4.937
 5703SOL     OW18007   0.900   3.311   5.867
 5703SOL    HW118008   0.852   3.339   5.950
 5703SOL    HW218009   0.999   3.307   5.885
 5704SOL     OW18010   4.873   6.007   4.415
 5704SOL    HW118011   4.781   5.978   4.441
 5704SOL    HW218012   4.918   6.049   4.494
 5705SOL     OW18013   6.094   1.821   4.596
 5705SOL    HW118014   6.065   1.904   4.643
 5705SOL    HW218015   6.116   1.751   4.664
 5706SOL     OW18016   5.359   0.500   1.290
 5706SOL    HW118017   5.441   0.535   1.244
 5706SOL    HW218018   5.324   0.569   1.353
 5707SOL     OW18019   5.688   6.236   1.320
 5707SOL    HW118020   5.690   6.224   1.221
 5707SOL    HW218021   5.598   6.268   1.349
 5708SOL     OW18022   4.776   6.780   1.759
 5708SOL    HW118023   4.786   6.683   1.779
 5708SOL    HW218024   4.849   6.809   1.697
 5709SOL     OW18025   6.573   2.833   2.400
 5709SOL    HW118026   6.598   2.736   2.395
 5709SOL    HW218027   6.543   2.854   2.493
 5710SOL     OW18028   4.828   1.048   0.221
 5710SOL    HW118029   4.820   1.136   0.267
 5710SOL    HW218030   4.738   1.003   0.220
 5711SOL     OW18031   4.331   1.344   2.448
 5711SOL    HW118032   4.271   1.384   2.378
 5711SOL    HW218033   4.361   1.415   2.511
 5712SOL     OW18034   6.665   5.923   6.952
 5712SOL    HW118035   6.680   6.011   6.998
 5712SOL    HW218036   6.575   5.924   6.909
 5713SOL     OW18037   1.487   0.717   6.521
 5713SOL    HW118038   1.540   0.766   6.453
 5713SOL    HW218039   1.486   0.619   6.500
 5714SOL     OW18040   4.904   0.215   0.927
 5714SOL    HW118041   4.892   0.126   0.883
 5714SOL    HW218042   4.868   0.211   1.020
 5715SOL     OW18043   0.440   5.979   0.859
 5715SOL    HW118044   0.366   6.013   0.800
 5715SOL    HW218045   0.449   6.039   0.939
 5716SOL     OW18046   6.696   4.885   5.486
 5716SOL    HW118047   6.622   4.885   5.554
 5716SOL    HW218048   6.676   4.953   5.416
 5717SOL     OW18049   6.910   6.011   2.093
 5717SOL    HW118050   6.880   5.919   2.117
 5717SOL    HW218051   6.899   6.071   2.172
 5718SOL     OW18052   1.778   4.606   6.073
 5718SOL    HW118053   1.789   4.524   6.017
 5718SOL    HW218054   1.680   4.628   6.081
 5719SOL     OW18055   3.956   3.855   2.038
 5719SOL    HW118056   3.909   3.767   2.032
 5719SOL    HW218057   3.896   3.927   2.003
 5720SOL     OW18058   2.259   3.731   6.538
 5720SOL    HW118059   2.237   3.718   6.635
 5720SOL    HW218060   2.337   3.793   6.530
 5721SOL     OW18061   0.699   2.924   0.630
 5721SOL    HW118062   0.732   2.872   0.709
 5721SOL    HW218063   0.761   3.001   0.613
 5722SOL     OW18064   1.470   0.441   5.975
 5722SOL    HW118065   1.423   0.472   6.058
 5722SOL    HW218066   1.556   0.397   6.000
 5723SOL     OW18067   4.473   3.650   6.920
 5723SOL    HW118068   4.504   3.613   6.833
 5723SOL    HW218069   4.543   3.711   6.957
 5724SOL     OW18070   6.882   2.248   6.068
 5724SOL    HW118071   6.950   2.247   6.141
 5724SOL    HW218072   6.808   2.184   6.089
 5725SOL     OW18073   6.938   4.245   5.334
 5725SOL    HW118074   6.869   4.192   5.383
 5725SOL    HW218075   6.943   4.214   5.239
 5726SOL     OW18076   4.289   4.931   1.761
 5726SOL    HW118077   4.199   4.971   1.777
 5726SOL    HW218078   4.353   5.003   1.734
 5727SOL     OW18079   0.783   3.044   6.174
 5727SOL    HW118080   0.727   3.111   6.222
 5727SOL    HW218081   0.876   3.047   6.210
 5728SOL     OW18082   2.327   5.928   4.263
 5728SOL    HW118083   2.360   5.857   4.325
 5728SOL    HW218084   2.343   6.018   4.303
 5729SOL     OW18085   2.516   1.713   4.407
 5729SOL    HW118086   2.549   1.677   4.494
 5729SOL    HW218087   2.416   1.703   4.402
 5730SOL     OW18088   6.428   4.539   4.045
 5730SOL    HW118089   6.370   4.514   4.123
 5730SOL    HW218090   6.428   4.465   3.978
 5731SOL     OW18091   6.528   0.062   2.615
 5731SOL    HW118092   6.584   0.065   2.698
 5731SOL    HW218093   6.586   0.076   2.535
 5732SOL     OW18094   5.148   0.226   3.382
 5732SOL    HW118095   5.145   0.127   3.392
 5732SOL    HW218096   5.231   0.252   3.333
 5733SOL     OW18097   2.898   0.737   5.390
 5733SOL    HW118098   2.931   0.826   5.359
 5733SOL    HW218099   2.855   0.747   5.479
 5734SOL     OW18100   2.645   6.221   3.786
 5734SOL    HW118101   2.593   6.228   3.701
 5734SOL    HW218102   2.696   6.306   3.801
 5735SOL     OW18103   2.684   1.062   1.293
 5735SOL    HW118104   2.597   1.110   1.307
 5735SOL    HW218105   2.752   1.126   1.257
 5736SOL     OW18106   1.839   4.343   1.569
 5736SOL    HW118107   1.799   4.366   1.658
 5736SOL    HW218108   1.917   4.282   1.583
 5737SOL     OW18109   5.651   3.938   0.012
 5737SOL    HW118110   5.607   3.941   6.950
 5737SOL    HW218111   5.747   3.966   0.003
 5738SOL     OW18112   0.925   6.125   4.567
 5738SOL    HW118113   0.863   6.097   4.494
 5738SOL    HW218114   0.927   6.225   4.573
 5739SOL     OW18115   0.666   2.406   1.418
 5739SOL    HW118116   0.711   2.490   1.388
 5739SOL    HW218117   0.630   2.420   1.511
 5740SOL     OW18118   4.524   5.455   6.935
 5740SOL    HW118119   4.556   5.513   7.010
 5740SOL    HW218120   4.532   5.359   6.961
 5741SOL     OW18121   0.452   1.994   1.746
 5741SOL    HW118122   0.535   1.988   1.689
 5741SOL    HW218123   0.464   2.066   1.814
 5742SOL     OW18124   0.132   5.019   3.561
 5742SOL    HW118125   0.139   4.934   3.613
 5742SOL    HW218126   0.205   5.081   3.589
 5743SOL     OW18127   0.631   0.421   4.852
 5743SOL    HW118128   0.656   0.413   4.949
 5743SOL    HW218129   0.682   0.496   4.810
 5744SOL     OW18130   5.852   0.823   2.259
 5744SOL    HW118131   5.899   0.854   2.176
 5744SOL    HW218132   5.771   0.879   2.274
 5745SOL     OW18133   0.004   3.165   2.880
 5745SOL    HW118134   6.943   3.119   2.871
 5745SOL    HW218135   0.003   3.250   2.827
 5746SOL     OW18136   0.632   3.256   6.322
 5746SOL    HW118137   0.610   3.348   6.353
 5746SOL    HW218138   0.580   3.190   6.376
 5747SOL     OW18139   6.952   6.711   3.457
 5747SOL    HW118140   6.942   6.763   3.373
 5747SOL    HW218141   0.001   6.647   3.448
 5748SOL     OW18142   1.265   1.186   4.060
 5748SOL    HW118143   1.195   1.139   4.113
 5748SOL    HW218144   1.231   1.276   4.033
 5749SOL     OW18145   0.634   1.391   3.098
 5749SOL    HW118146   0.570   1.319   3.125
 5749SOL    HW218147   0.718   1.383   3.151
 5750SOL     OW18148   4.374   5.614   2.429
 5750SOL    HW118149   4.279   5.599   2.402
 5750SOL    HW218150   4.399   5.709   2.411
 5751SOL     OW18151   1.314   1.560   6.808
 5751SOL    HW118152   1.309   1.612   6.893
 5751SOL    HW218153   1.237   1.584   6.749
 5752SOL     OW18154   2.339   0.505   6.723
 5752SOL    HW118155   2.398   0.503   6.642
 5752SOL    HW218156   2.347   0.419   6.772
 5753SOL     OW18157   4.146   1.332   6.351
 5753SOL    HW118158   4.109   1.277   6.426
 5753SOL    HW218159   4.243   1.311   6.340
 5754SOL     OW18160   5.976   5.949   1.081
 5754SOL    HW118161   6.042   6.025   1.074
 5754SOL    HW218162   5.924   5.959   1.166
 5755SOL     OW18163   3.171   4.055   2.337
 5755SOL    HW118164   3.196   4.063   2.241
 5755SOL    HW218165   3.071   4.046   2.345
 5756SOL     OW18166   6.277   0.545   3.678
 5756SOL    HW118167   6.349   0.587   3.733
 5756SOL    HW218168   6.192   0.598   3.690
 5757SOL     OW18169   6.917   6.782   1.929
 5757SOL    HW118170   7.007   6.820   1.950
 5757SOL    HW218171   6.847   6.851   1.947
 5758SOL     OW18172   2.677   1.355   5.657
 5758SOL    HW118173   2.602   1.420   5.640
 5758SOL    HW218174   2.762   1.391   5.617
 5759SOL     OW18175   0.003   1.180   5.611
 5759SOL    HW118176   6.980   1.124   5.544
 5759SOL    HW218177   0.077   1.229   5.565
 5760SOL     OW18178   6.761   5.961   1.470
 5760SOL    HW118179   6.860   5.969   1.466
 5760SOL    HW218180   6.720   6.051   1.488
 5761SOL     OW18181   3.555   0.455   4.252
 5761SOL    HW118182   3.586   0.402   4.331
 5761SOL    HW218183   3.622   0.527   4.232
 5762SOL     OW18184   4.636   0.277   1.441
 5762SOL    HW118185   4.594   0.266   1.351
 5762SOL    HW218186   4.591   0.217   1.507
 5763SOL     OW18187   3.888   1.034   0.741
 5763SOL    HW118188   3.904   0.940   0.771
 5763SOL    HW218189   3.793   1.059   0.758
 5764SOL     OW18190   3.190   2.896   6.680
 5764SOL    HW118191   3.185   2.815   6.621
 5764SOL    HW218192   3.241   2.968   6.633
 5765SOL     OW18193   6.829   5.274   6.372
 5765SOL    HW118194   6.921   5.311   6.380
 5765SOL    HW218195   6.832   5.174   6.382
 5766SOL     OW18196   2.513   1.719   3.206
 5766SOL    HW118197   2.427   1.744   3.162
 5766SOL    HW218198   2.585   1.784   3.180
 5767SOL     OW18199   4.401   6.325   0.095
 5767SOL    HW118200   4.445   6.246   0.053
 5767SOL    HW218201   4.393   6.399   0.028
 5768SOL     OW18202   5.183   0.455   2.550
 5768SOL    HW118203   5.161   0.552   2.559
 5768SOL    HW218204   5.229   0.439   2.463
 5769SOL     OW18205   0.023   4.634   3.416
 5769SOL    HW118206   0.006   4.664   3.322
 5769SOL    HW218207   6.963   4.615   3.461
 5770SOL     OW18208   4.660   2.606   0.733
 5770SOL    HW118209   4.722   2.561   0.669
 5770SOL    HW218210   4.645   2.700   0.705
 5771SOL     OW18211   0.763   0.258   1.548
 5771SOL    HW118212   0.735   0.165   1.572
 5771SOL    HW218213   0.712   0.288   1.467
 5772SOL     OW18214   6.434   4.743   5.700
 5772SOL    HW118215   6.389   4.812   5.643
 5772SOL    HW218216   6.385   4.657   5.692
 5773SOL     OW18217   4.961   6.495   5.397
 5773SOL    HW118218   5.009   6.583   5.395
 5773SOL    HW218219   4.890   6.498   5.467
 5774SOL     OW18220   1.450   4.211   1.803
 5774SOL    HW118221   1.471   4.148   1.878
 5774SOL    HW218222   1.521   4.282   1.798
 5775SOL     OW18223   1.445   0.903   0.019
 5775SOL    HW118224   1.528   0.949   7.016
 5775SOL    HW218225   1.369   0.931   6.987
 5776SOL     OW18226   4.933   0.110   5.432
 5776SOL    HW118227   4.864   0.146   5.369
 5776SOL    HW218228   4.994   0.048   5.382
 5777SOL     OW18229   4.611   6.615   4.985
 5777SOL    HW118230   4.586   6.699   4.937
 5777SOL    HW218231   4.572   6.536   4.939
 5778SOL     OW18232   2.495   6.614   3.593
 5778SOL    HW118233   2.421   6.676   3.565
 5778SOL    HW218234   2.534   6.570   3.512
 5779SOL     OW18235   3.404   6.338   2.020
 5779SOL    HW118236   3.461   6.276   2.074
 5779SOL    HW218237   3.439   6.431   2.028
 5780SOL     OW18238   0.046   4.361   0.370
 5780SOL    HW118239   0.014   4.436   0.312
 5780SOL    HW218240   0.078   4.398   0.457
 5781SOL     OW18241   4.764   4.843   6.009
 5781SOL    HW118242   4.675   4.858   5.965
 5781SOL    HW218243   4.762   4.757   6.060
 5782SOL     OW18244   4.487   1.633   2.858
 5782SOL    HW118245   4.569   1.579   2.875
 5782SOL    HW218246   4.513   1.729   2.847
 5783SOL     OW18247   2.514   6.043   3.426
 5783SOL    HW118248   2.542   5.972   3.490
 5783SOL    HW218249   2.500   6.129   3.476
 5784SOL     OW18250   0.109   7.009   2.121
 5784SOL    HW118251   0.062   6.944   2.180
 5784SOL    HW218252   0.052   0.063   2.108
 5785SOL     OW18253   2.447   1.154   5.690
 5785SOL    HW118254   2.478   1.157   5.595
 5785SOL    HW218255   2.526   1.155   5.751
 5786SOL     OW18256   2.055   1.159   5.942
 5786SOL    HW118257   2.028   1.069   5.975
 5786SOL    HW218258   1.990   1.191   5.874
 5787SOL     OW18259   0.714   2.499   6.225
 5787SOL    HW118260   0.757   2.537   6.144
 5787SOL    HW218261   0.681   2.407   6.206
 5788SOL     OW18262   0.572   2.246   1.968
 5788SOL    HW118263   0.563   2.236   2.067
 5788SOL    HW218264   0.612   2.335   1.947
 5789SOL     OW18265   3.300   1.387   6.434
 5789SOL    HW118266   3.237   1.382   6.512
 5789SOL    HW218267   3.393   1.399   6.468
 5790SOL     OW18268   6.240   6.227   2.764
 5790SOL    HW118269   6.185   6.220   2.847
 5790SOL    HW218270   6.324   6.174   2.774
 5791SOL     OW18271   3.912   0.715   1.983
 5791SOL    HW118272   3.824   0.720   1.936
 5791SOL    HW218273   3.985   0.706   1.915
 5792SOL     OW18274   4.719   1.742   2.492
 5792SOL    HW118275   4.776   1.672   2.535
 5792SOL    HW218276   4.728   1.828   2.543
 5793SOL     OW18277   3.975   1.490   0.988
 5793SOL    HW118278   3.903   1.476   0.920
 5793SOL    HW218279   4.044   1.419   0.978
 5794SOL     OW18280   3.660   6.439   0.115
 5794SOL    HW118281   3.606   6.485   0.045
 5794SOL    HW218282   3.602   6.379   0.169
 5795SOL     OW18283   0.761   6.656   2.076
 5795SOL    HW118284   0.744   6.582   2.141
 5795SOL    HW218285   0.681   6.666   2.016
 5796SOL     OW18286   5.041   0.984   5.898
 5796SOL    HW118287   4.981   1.016   5.824
 5796SOL    HW218288   5.127   1.035   5.895
 5797SOL     OW18289   5.875   1.326   6.314
 5797SOL    HW118290   5.965   1.289   6.337
 5797SOL    HW218291   5.862   1.414   6.361
 5798SOL     OW18292   2.085   2.836   4.414
 5798SOL    HW118293   2.003   2.893   4.411
 5798SOL    HW218294   2.108   2.818   4.509
 5799SOL     OW18295   2.731   1.001   3.721
 5799SOL    HW118296   2.746   1.064   3.797
 5799SOL    HW218297   2.649   1.027   3.672
 5800SOL     OW18298   1.591   5.793   1.394
 5800SOL    HW118299   1.599   5.865   1.462
 5800SOL    HW218300   1.497   5.789   1.360
 5801SOL     OW18301   2.167   2.051   3.358
 5801SOL    HW118302   2.104   2.064   3.434
 5801SOL    HW218303   2.134   1.977   3.299
 5802SOL     OW18304   0.052   6.682   2.170
 5802SOL    HW118305   7.025   6.721   2.245
 5802SOL    HW218306   0.011   6.596   2.141
 5803SOL     OW18307   0.084   6.904   4.504
 5803SOL    HW118308   0.035   6.980   4.462
 5803SOL    HW218309   0.020   6.831   4.528
 5804SOL     OW18310   6.500   3.088   3.355
 5804SOL    HW118311   6.533   3.182   3.357
 5804SOL    HW218312   6.564   3.032   3.302
 5805SOL     OW18313   0.466   1.605   1.759
 5805SOL    HW118314   0.371   1.616   1.789
 5805SOL    HW218315   0.474   1.521   1.706
 5806SOL     OW18316   6.948   4.152   2.143
 5806SOL    HW118317   6.901   4.064   2.136
 5806SOL    HW218318   6.885   4.220   2.180
 5807SOL     OW18319   0.747   1.263   2.635
 5807SOL    HW118320   0.720   1.352   2.672
 5807SOL    HW218321   0.771   1.272   2.539
 5808SOL     OW18322   6.024   5.583   6.221
 5808SOL    HW118323   5.996   5.543   6.308
 5808SOL    HW218324   6.030   5.683   6.230
 5809SOL     OW18325   6.650   3.773   5.402
 5809SOL    HW118326   6.599   3.816   5.328
 5809SOL    HW218327   6.683   3.684   5.372
 5810SOL     OW18328   0.865   6.600   4.694
 5810SOL    HW118329   0.828   6.681   4.648
 5810SOL    HW218330   0.837   6.601   4.790
 5811SOL     OW18331   3.161   5.617   0.115
 5811SOL    HW118332   3.183   5.620   0.213
 5811SOL    HW218333   3.084   5.677   0.096
 5812SOL     OW18334   6.359   2.555   5.692
 5812SOL    HW118335   6.336   2.651   5.710
 5812SOL    HW218336   6.408   2.517   5.770
 5813SOL     OW18337   6.770   5.152   1.160
 5813SOL    HW118338   6.744   5.064   1.121
 5813SOL    HW218339   6.816   5.207   1.090
 5814SOL     OW18340   5.048   1.747   2.240
 5814SOL    HW118341   5.034   1.807   2.318
 5814SOL    HW218342   5.115   1.676   2.263
 5815SOL     OW18343   0.818   4.663   4.453
 5815SOL    HW118344   0.843   4.587   4.393
 5815SOL    HW218345   0.898   4.722   4.467
 5816SOL     OW18346   6.441   3.558   1.213
 5816SOL    HW118347   6.424   3.648   1.174
 5816SOL    HW218348   6.496   3.568   1.296
 5817SOL     OW18349   6.914   2.013   3.660
 5817SOL    HW118350   6.821   1.980   3.678
 5817SOL    HW218351   6.979   1.955   3.710
 5818SOL     OW18352   2.810   1.943   3.394
 5818SOL    HW118353   2.740   1.935   3.465
 5818SOL    HW218354   2.766   1.956   3.305
 5819SOL     OW18355   4.089   4.543   1.657
 5819SOL    HW118356   4.165   4.477   1.660
 5819SOL    HW218357   4.016   4.506   1.599
 5820SOL     OW18358   1.032   6.259   2.226
 5820SOL    HW118359   1.071   6.248   2.134
 5820SOL    HW218360   0.937   6.227   2.226
 5821SOL     OW18361   5.407   5.763   1.343
 5821SOL    HW118362   5.443   5.843   1.296
 5821SOL    HW218363   5.478   5.723   1.401
 5822SOL     OW18364   1.158   3.869   3.047
 5822SOL    HW118365   1.253   3.877   3.078
 5822SOL    HW218366   1.144   3.928   2.967
 5823SOL     OW18367   2.164   6.714   4.807
 5823SOL    HW118368   2.198   6.775   4.735
 5823SOL    HW218369   2.071   6.742   4.833
 5824SOL     OW18370   1.480   5.706   2.502
 5824SOL    HW118371   1.449   5.749   2.417
 5824SOL    HW218372   1.430   5.620   2.516
 5825SOL     OW18373   2.896   2.227   4.968
 5825SOL    HW118374   2.833   2.295   5.004
 5825SOL    HW218375   2.990   2.261   4.973
 5826SOL     OW18376   1.442   5.786   5.923
 5826SOL    HW118377   1.515   5.832   5.974
 5826SOL    HW218378   1.373   5.853   5.896
 5827SOL     OW18379   1.044   4.850   3.944
 5827SOL    HW118380   0.969   4.913   3.925
 5827SOL    HW218381   1.033   4.767   3.889
 5828SOL     OW18382   5.428   0.187   4.838
 5828SOL    HW118383   5.407   0.127   4.915
 5828SOL    HW218384   5.372   0.162   4.759
 5829SOL     OW18385   1.798   1.232   2.562
 5829SOL    HW118386   1.891   1.248   2.531
 5829SOL    HW218387   1.799   1.203   2.658
 5830SOL     OW18388   4.853   4.858   3.952
 5830SOL    HW118389   4.874   4.762   3.972
 5830SOL    HW218390   4.938   4.911   3.953
 5831SOL     OW18391   2.122   1.659   4.191
 5831SOL    HW118392   2.190   1.610   4.137
 5831SOL    HW218393   2.125   1.757   4.168
 5832SOL     OW18394   2.729   5.094   3.623
 5832SOL    HW118395   2.819   5.060   3.647
 5832SOL    HW218396   2.737   5.188   3.588
 5833SOL     OW18397   2.444   4.391   1.318
 5833SOL    HW118398   2.426   4.489   1.313
 5833SOL    HW218399   2.527   4.369   1.268
 5834SOL     OW18400   7.015   0.485   6.422
 5834SOL    HW118401   0.011   0.415   6.490
 5834SOL    HW218402   6.984   0.441   6.338
 5835SOL     OW18403   3.321   0.927   3.485
 5835SOL    HW118404   3.380   0.854   3.520
 5835SOL    HW218405   3.243   0.940   3.547
 5836SOL     OW18406   5.655   4.672   1.311
 5836SOL    HW118407   5.635   4.736   1.237
 5836SOL    HW218408   5.704   4.593   1.274
 5837SOL     OW18409   2.128   4.169   0.081
 5837SOL    HW118410   2.191   4.241   0.110
 5837SOL    HW218411   2.067   4.146   0.156
 5838SOL     OW18412   3.243   3.657   0.791
 5838SOL    HW118413   3.279   3.750   0.803
 5838SOL    HW218414   3.315   3.598   0.755
 5839SOL     OW18415   2.231   1.781   1.027
 5839SOL    HW118416   2.240   1.812   1.121
 5839SOL    HW218417   2.222   1.860   0.966
 5840SOL     OW18418   6.397   3.436   2.523
 5840SOL    HW118419   6.481   3.464   2.475
 5840SOL    HW218420   6.328   3.507   2.513
 5841SOL     OW18421   4.535   1.560   0.276
 5841SOL    HW118422   4.486   1.567   0.190
 5841SOL    HW218423   4.481   1.506   0.341
 5842SOL     OW18424   3.108   1.832   2.221
 5842SOL    HW118425   3.097   1.817   2.319
 5842SOL    HW218426   3.104   1.930   2.202
 5843SOL     OW18427   2.460   2.862   1.258
 5843SOL    HW118428   2.484   2.775   1.300
 5843SOL    HW218429   2.535   2.927   1.269
 5844SOL     OW18430   6.184   5.492   5.005
 5844SOL    HW118431   6.255   5.423   4.990
 5844SOL    HW218432   6.104   5.449   5.047
 5845SOL     OW18433   2.227   6.108   3.599
 5845SOL    HW118434   2.127   6.106   3.607
 5845SOL    HW218435   2.266   6.038   3.660
 5846SOL     OW18436   0.554   4.367   5.420
 5846SOL    HW118437   0.512   4.281   5.390
 5846SOL    HW218438   0.652   4.354   5.429
 5847SOL     OW18439   2.193   3.703   5.707
 5847SOL    HW118440   2.118   3.735   5.649
 5847SOL    HW218441   2.157   3.671   5.794
 5848SOL     OW18442   2.766   6.417   2.436
 5848SOL    HW118443   2.861   6.447   2.431
 5848SOL    HW218444   2.707   6.488   2.398
 5849SOL     OW18445   3.211   6.727   6.034
 5849SOL    HW118446   3.210   6.790   5.956
 5849SOL    HW218447   3.236   6.635   6.003
 5850SOL     OW18448   6.016   2.546   1.184
 5850SOL    HW118449   5.997   2.516   1.090
 5850SOL    HW218450   6.057   2.637   1.181
 5851SOL     OW18451   1.181   2.786   6.496
 5851SOL    HW118452   1.155   2.800   6.400
 5851SOL    HW218453   1.169   2.690   6.520
 5852SOL     OW18454   4.287   4.846   3.329
 5852SOL    HW118455   4.331   4.773   3.278
 5852SOL    HW218456   4.353   4.888   3.392
 5853SOL     OW18457   4.362   5.099   6.927
 5853SOL    HW118458   4.363   5.120   6.829
 5853SOL    HW218459   4.450   5.059   6.953
 5854SOL     OW18460   2.403   4.247   5.309
 5854SOL    HW118461   2.356   4.174   5.260
 5854SOL    HW218462   2.345   4.329   5.308
 5855SOL     OW18463   0.840   2.099   4.586
 5855SOL    HW118464   0.906   2.174   4.580
 5855SOL    HW218465   0.885   2.018   4.621
 5856SOL     OW18466   6.839   0.887   2.716
 5856SOL    HW118467   6.897   0.819   2.762
 5856SOL    HW218468   6.865   0.979   2.746
 5857SOL     OW18469   6.183   5.763   6.923
 5857SOL    HW118470   6.127   5.841   6.897
 5857SOL    HW218471   6.280   5.787   6.911
 5858SOL     OW18472   3.031   1.690   0.601
 5858SOL    HW118473   2.990   1.739   0.677
 5858SOL    HW218474   3.111   1.740   0.568
 5859SOL     OW18475   6.489   4.832   1.676
 5859SOL    HW118476   6.474   4.735   1.658
 5859SOL    HW218477   6.449   4.886   1.602
 5860SOL     OW18478   1.846   3.317   1.750
 5860SOL    HW118479   1.817   3.230   1.790
 5860SOL    HW218480   1.779   3.345   1.680
 5861SOL     OW18481   5.126   6.261   5.088
 5861SOL    HW118482   5.140   6.356   5.112
 5861SOL    HW218483   5.094   6.255   4.993
 5862SOL     OW18484   0.409   5.310   1.664
 5862SOL    HW118485   0.425   5.335   1.569
 5862SOL    HW218486   0.421   5.391   1.722
 5863SOL     OW18487   3.757   0.001   5.657
 5863SOL    HW118488   3.744   0.021   5.560
 5863SOL    HW218489   3.792   6.935   5.668
 5864SOL     OW18490   4.111   3.535   2.971
 5864SOL    HW118491   4.019   3.554   3.007
 5864SOL    HW218492   4.170   3.505   3.046
 5865SOL     OW18493   6.903   6.260   0.787
 5865SOL    HW118494   6.894   6.352   0.749
 5865SOL    HW218495   6.858   6.257   0.876
 5866SOL     OW18496   3.511   4.039   4.163
 5866SOL    HW118497   3.563   3.963   4.203
 5866SOL    HW218498   3.574   4.104   4.121
 5867SOL     OW18499   5.255   0.414   7.025
 5867SOL    HW118500   5.181   0.479   7.006
 5867SOL    HW218501   5.341   0.448   6.987
 5868SOL     OW18502   1.331   1.109   0.649
 5868SOL    HW118503   1.339   1.200   0.689
 5868SOL    HW218504   1.325   1.041   0.722
 5869SOL     OW18505   1.829   5.120   3.683
 5869SOL    HW118506   1.834   5.170   3.597
 5869SOL    HW218507   1.749   5.151   3.735
 5870SOL     OW18508   4.129   6.598   3.616
 5870SOL    HW118509   4.168   6.540   3.689
 5870SOL    HW218510   4.055   6.549   3.571
 5871SOL     OW18511   4.130   3.284   3.173
 5871SOL    HW118512   4.171   3.199   3.139
 5871SOL    HW218513   4.091   3.267   3.264
 5872SOL     OW18514   3.811   5.420   1.841
 5872SOL    HW118515   3.744   5.349   1.822
 5872SOL    HW218516   3.808   5.489   1.769
 5873SOL     OW18517   3.906   6.775   2.028
 5873SOL    HW118518   3.920   6.831   2.109
 5873SOL    HW218519   3.993   6.762   1.980
 5874SOL     OW18520   0.607   2.740   4.326
 5874SOL    HW118521   0.540   2.700   4.389
 5874SOL    HW218522   0.600   2.840   4.330
 5875SOL     OW18523   3.866   2.580   1.118
 5875SOL    HW118524   3.890   2.609   1.211
 5875SOL    HW218525   3.799   2.644   1.080
 5876SOL     OW18526   4.084   3.558   2.658
 5876SOL    HW118527   4.051   3.651   2.671
 5876SOL    HW218528   4.103   3.516   2.746
 5877SOL     OW18529   4.406   4.626   1.637
 5877SOL    HW118530   4.386   4.710   1.687
 5877SOL    HW218531   4.348   4.552   1.672
 5878SOL     OW18532   0.706   3.701   2.033
 5878SOL    HW118533   0.717   3.760   1.953
 5878SOL    HW218534   0.754   3.741   2.111
 5879SOL     OW18535   2.042   3.985   4.968
 5879SOL    HW118536   2.054   3.885   4.966
 5879SOL    HW218537   2.131   4.029   4.976
 5880SOL     OW18538   2.301   5.762   0.121
 5880SOL    HW118539   2.201   5.756   0.130
 5880SOL    HW218540   2.323   5.788   0.027
 5881SOL     OW18541   1.563   6.108   4.754
 5881SOL    HW118542   1.596   6.167   4.680
 5881SOL    HW218543   1.627   6.111   4.830
 5882SOL     OW18544   5.142   0.736   2.577
 5882SOL    HW118545   5.205   0.791   2.523
 5882SOL    HW218546   5.051   0.740   2.535
 5883SOL     OW18547   0.799   3.208   5.655
 5883SOL    HW118548   0.851   3.235   5.574
 5883SOL    HW218549   0.825   3.266   5.732
 5884SOL     OW18550   6.993   1.374   3.648
 5884SOL    HW118551   6.972   1.430   3.568
 5884SOL    HW218552   0.025   1.425   3.710
 5885SOL     OW18553   6.463   5.074   0.383
 5885SOL    HW118554   6.463   5.136   0.462
 5885SOL    HW218555   6.442   5.126   0.300
 5886SOL     OW18556   6.278   2.461   6.040
 5886SOL    HW118557   6.232   2.374   6.055
 5886SOL    HW218558   6.236   2.532   6.097
 5887SOL     OW18559   4.202   6.719   2.247
 5887SOL    HW118560   4.195   6.703   2.148
 5887SOL    HW218561   4.204   6.631   2.294
 5888SOL     OW18562   0.130   5.633   2.611
 5888SOL    HW118563   0.197   5.574   2.566
 5888SOL    HW218564   0.037   5.602   2.587
 5889SOL     OW18565   3.324   6.697   0.698
 5889SOL    HW118566   3.309   6.788   0.737
 5889SOL    HW218567   3.294   6.627   0.763
 5890SOL     OW18568   4.212   5.058   6.242
 5890SOL    HW118569   4.165   5.140   6.275
 5890SOL    HW218570   4.167   5.027   6.158
 5891SOL     OW18571   2.615   3.165   6.719
 5891SOL    HW118572   2.543   3.234   6.729
 5891SOL    HW218573   2.680   3.195   6.649
 5892SOL     OW18574   3.436   5.009   1.133
 5892SOL    HW118575   3.534   5.031   1.130
 5892SOL    HW218576   3.423   4.914   1.104
 5893SOL     OW18577   0.474   3.307   1.860
 5893SOL    HW118578   0.508   3.240   1.926
 5893SOL    HW218579   0.545   3.329   1.794
 5894SOL     OW18580   2.133   4.579   3.439
 5894SOL    HW118581   2.192   4.640   3.386
 5894SOL    HW218582   2.189   4.510   3.484
 5895SOL     OW18583   4.801   4.675   3.573
 5895SOL    HW118584   4.778   4.748   3.509
 5895SOL    HW218585   4.882   4.700   3.626
 5896SOL     OW18586   5.456   2.439   5.390
 5896SOL    HW118587   5.456   2.346   5.428
 5896SOL    HW218588   5.403   2.439   5.305
 5897SOL     OW18589   4.686   4.636   0.379
 5897SOL    HW118590   4.660   4.675   0.291
 5897SOL    HW218591   4.673   4.704   0.451
 5898SOL     OW18592   1.966   5.831   2.563
 5898SOL    HW118593   2.011   5.747   2.592
 5898SOL    HW218594   1.970   5.898   2.637
 5899SOL     OW18595   4.716   0.417   3.479
 5899SOL    HW118596   4.669   0.412   3.567
 5899SOL    HW218597   4.767   0.503   3.473
 5900SOL     OW18598   3.861   5.151   2.069
 5900SOL    HW118599   3.873   5.222   2.138
 5900SOL    HW218600   3.825   5.192   1.985
 5901SOL     OW18601   2.736   6.271   3.412
 5901SOL    HW118602   2.647   6.315   3.411
 5901SOL    HW218603   2.727   6.177   3.378
 5902SOL     OW18604   6.930   1.921   0.158
 5902SOL    HW118605   6.882   1.862   0.222
 5902SOL    HW218606   6.991   1.865   0.102
 5903SOL     OW18607   1.062   2.199   6.121
 5903SOL    HW118608   1.069   2.298   6.130
 5903SOL    HW218609   1.037   2.159   6.209
 5904SOL     OW18610   0.148   3.259   2.021
 5904SOL    HW118611   0.157   3.357   2.042
 5904SOL    HW218612   0.193   3.206   2.092
 5905SOL     OW18613   6.958   3.361   2.666
 5905SOL    HW118614   6.983   3.280   2.613
 5905SOL    HW218615   7.014   3.439   2.637
 5906SOL     OW18616   5.811   1.929   3.298
 5906SOL    HW118617   5.858   1.951   3.212
 5906SOL    HW218618   5.714   1.913   3.279
 5907SOL     OW18619   1.549   0.614   2.049
 5907SOL    HW118620   1.556   0.656   2.140
 5907SOL    HW218621   1.461   0.638   2.008
 5908SOL     OW18622   0.662   3.028   4.824
 5908SOL    HW118623   0.758   2.999   4.830
 5908SOL    HW218624   0.610   2.986   4.898
 5909SOL     OW18625   6.915   4.407   6.183
 5909SOL    HW118626   7.005   4.443   6.208
 5909SOL    HW218627   6.925   4.318   6.140
 5910SOL     OW18628   0.860   1.339   3.318
 5910SOL    HW118629   0.815   1.416   3.362
 5910SOL    HW218630   0.937   1.372   3.262
 5911SOL     OW18631   5.602   4.834   6.707
 5911SOL    HW118632   5.549   4.855   6.625
 5911SOL    HW218633   5.609   4.735   6.718
 5912SOL     OW18634   0.134   1.125   2.089
 5912SOL    HW118635   0.201   1.155   2.158
 5912SOL    HW218636   0.138   1.188   2.011
 5913SOL     OW18637   0.226   3.336   1.221
 5913SOL    HW118638   0.289   3.316   1.146
 5913SOL    HW218639   0.133   3.317   1.192
 5914SOL     OW18640   1.508   6.230   0.876
 5914SOL    HW118641   1.469   6.312   0.834
 5914SOL    HW218642   1.607   6.242   0.887
 5915SOL     OW18643   5.574   0.814   5.123
 5915SOL    HW118644   5.643   0.754   5.164
 5915SOL    HW218645   5.506   0.759   5.075
 5916SOL     OW18646   1.160   0.563   2.822
 5916SOL    HW118647   1.150   0.555   2.921
 5916SOL    HW218648   1.077   0.530   2.777
 5917SOL     OW18649   4.001   3.193   1.268
 5917SOL    HW118650   4.064   3.165   1.341
 5917SOL    HW218651   3.920   3.135   1.270
 5918SOL     OW18652   3.433   6.632   5.803
 5918SOL    HW118653   3.483   6.663   5.884
 5918SOL    HW218654   3.397   6.712   5.754
 5919SOL     OW18655   2.948   3.593   4.477
 5919SOL    HW118656   3.030   3.538   4.459
 5919SOL    HW218657   2.877   3.536   4.517
 5920SOL     OW18658   1.763   0.479   5.139
 5920SOL    HW118659   1.820   0.493   5.057
 5920SOL    HW218660   1.769   0.560   5.198
 5921SOL     OW18661   3.715   5.084   1.454
 5921SOL    HW118662   3.732   4.987   1.434
 5921SOL    HW218663   3.771   5.112   1.531
 5922SOL     OW18664   5.270   2.485   2.443
 5922SOL    HW118665   5.255   2.550   2.369
 5922SOL    HW218666   5.339   2.418   2.416
 5923SOL     OW18667   5.579   1.199   2.298
 5923SOL    HW118668   5.569   1.215   2.396
 5923SOL    HW218669   5.672   1.222   2.269
 5924SOL     OW18670   0.746   5.938   3.374
 5924SOL    HW118671   0.788   5.937   3.465
 5924SOL    HW218672   0.724   6.032   3.348
 5925SOL     OW18673   4.155   0.801   0.701
 5925SOL    HW118674   4.118   0.785   0.609
 5925SOL    HW218675   4.116   0.735   0.765
 5926SOL     OW18676   5.125   3.562   2.974
 5926SOL    HW118677   5.100   3.467   2.957
 5926SOL    HW218678   5.043   3.618   2.975
 5927SOL     OW18679   1.253   0.520   1.398
 5927SOL    HW118680   1.281   0.426   1.380
 5927SOL    HW218681   1.213   0.526   1.490
 5928SOL     OW18682   3.075   0.069   6.126
 5928SOL    HW118683   3.040   0.072   6.032
 5928SOL    HW218684   3.153   0.132   6.134
 5929SOL     OW18685   1.954   0.859   0.665
 5929SOL    HW118686   1.929   0.953   0.646
 5929SOL    HW218687   1.883   0.816   0.722
 5930SOL     OW18688   0.009   4.830   2.171
 5930SOL    HW118689   0.077   4.846   2.242
 5930SOL    HW218690   6.975   4.909   2.165
 5931SOL     OW18691   5.349   0.702   4.951
 5931SOL    HW118692   5.263   0.723   4.997
 5931SOL    HW218693   5.359   0.603   4.943
 5932SOL     OW18694   2.525   5.451   1.051
 5932SOL    HW118695   2.583   5.506   1.110
 5932SOL    HW218696   2.498   5.506   0.971
 5933SOL     OW18697   6.249   5.442   4.451
 5933SOL    HW118698   6.257   5.541   4.440
 5933SOL    HW218699   6.281   5.416   4.542
 5934SOL     OW18700   2.766   4.596   0.351
 5934SOL    HW118701   2.815   4.653   0.416
 5934SOL    HW218702   2.668   4.597   0.372
 5935SOL     OW18703   1.872   0.103   4.859
 5935SOL    HW118704   1.780   0.128   4.890
 5935SOL    HW218705   1.930   0.085   4.939
 5936SOL     OW18706   3.173   2.787   1.748
 5936SOL    HW118707   3.104   2.716   1.735
 5936SOL    HW218708   3.128   2.872   1.775
 5937SOL     OW18709   0.775   3.255   0.819
 5937SOL    HW118710   0.705   3.322   0.795
 5937SOL    HW218711   0.816   3.219   0.735
 5938SOL     OW18712   1.096   3.274   4.149
 5938SOL    HW118713   1.182   3.262   4.199
 5938SOL    HW218714   1.114   3.270   4.050
 5939SOL     OW18715   5.238   2.476   6.001
 5939SOL    HW118716   5.145   2.451   5.974
 5939SOL    HW218717   5.284   2.396   6.039
 5940SOL     OW18718   4.353   4.873   1.110
 5940SOL    HW118719   4.385   4.955   1.062
 5940SOL    HW218720   4.431   4.814   1.130
 5941SOL     OW18721   1.901   1.883   3.732
 5941SOL    HW118722   1.862   1.793   3.714
 5941SOL    HW218723   1.932   1.887   3.828
 5942SOL     OW18724   4.519   2.083   5.667
 5942SOL    HW118725   4.501   2.038   5.579
 5942SOL    HW218726   4.615   2.067   5.692
 5943SOL     OW18727   2.284   5.074   2.527
 5943SOL    HW118728   2.270   4.977   2.506
 5943SOL    HW218729   2.344   5.115   2.459
 5944SOL     OW18730   0.394   3.814   5.959
 5944SOL    HW118731   0.473   3.768   5.919
 5944SOL    HW218732   0.318   3.813   5.894
 5945SOL     OW18733   0.538   6.579   3.781
 5945SOL    HW118734   0.494   6.492   3.803
 5945SOL    HW218735   0.469   6.645   3.751
 5946SOL     OW18736   2.942   2.329   0.151
 5946SOL    HW118737   3.010   2.392   0.113
 5946SOL    HW218738   2.883   2.296   0.078
 5947SOL     OW18739   3.249   3.996   5.860
 5947SOL    HW118740   3.315   4.000   5.786
 5947SOL    HW218741   3.286   3.942   5.935
 5948SOL     OW18742   5.831   2.948   1.231
 5948SOL    HW118743   5.827   2.849   1.248
 5948SOL    HW218744   5.900   2.989   1.291
 5949SOL     OW18745   1.043   4.893   4.240
 5949SOL    HW118746   1.031   4.847   4.152
 5949SOL    HW218747   1.115   4.962   4.232
 5950SOL     OW18748   2.068   5.953   4.749
 5950SOL    HW118749   2.153   5.959   4.697
 5950SOL    HW218750   2.014   6.036   4.734
 5951SOL     OW18751   6.872   3.649   6.499
 5951SOL    HW118752   6.842   3.743   6.516
 5951SOL    HW218753   6.925   3.646   6.414
 5952SOL     OW18754   3.875   3.599   2.054
 5952SOL    HW118755   3.847   3.551   1.971
 5952SOL    HW218756   3.923   3.536   2.114
 5953SOL     OW18757   0.293   3.287   6.483
 5953SOL    HW118758   0.331   3.376   6.505
 5953SOL    HW218759   0.241   3.293   6.397
 5954SOL     OW18760   2.674   5.631   3.723
 5954SOL    HW118761   2.713   5.545   3.690
 5954SOL    HW218762   2.718   5.656   3.809
 5955SOL     OW18763   4.423   2.582   6.663
 5955SOL    HW118764   4.487   2.512   6.694
 5955SOL    HW218765   4.420   2.657   6.730
 5956SOL     OW18766   3.502   1.869   6.678
 5956SOL    HW118767   3.424   1.912   6.724
 5956SOL    HW218768   3.468   1.811   6.604
 5957SOL     OW18769   0.057   3.294   3.678
 5957SOL    HW118770   6.985   3.304   3.687
 5957SOL    HW218771   0.102   3.371   3.722
 5958SOL     OW18772   2.079   6.080   2.291
 5958SOL    HW118773   2.123   5.991   2.281
 5958SOL    HW218774   1.982   6.066   2.311
 5959SOL     OW18775   4.818   4.040   3.139
 5959SOL    HW118776   4.760   4.120   3.154
 5959SOL    HW218777   4.793   3.968   3.203
 5960SOL     OW18778   6.938   6.354   6.553
 5960SOL    HW118779   6.846   6.324   6.579
 5960SOL    HW218780   6.939   6.454   6.543
 5961SOL     OW18781   1.658   2.060   3.739
 5961SOL    HW118782   1.742   2.007   3.727
 5961SOL    HW218783   1.681   2.156   3.754
 5962SOL     OW18784   5.399   5.591   0.796
 5962SOL    HW118785   5.385   5.493   0.783
 5962SOL    HW218786   5.400   5.612   0.893
 5963SOL     OW18787   2.008   3.606   1.324
 5963SOL    HW118788   2.024   3.661   1.406
 5963SOL    HW218789   2.019   3.509   1.346
 5964SOL     OW18790   1.365   6.536   4.262
 5964SOL    HW118791   1.411   6.447   4.267
 5964SOL    HW218792   1.402   6.588   4.185
 5965SOL     OW18793   1.977   0.452   1.455
 5965SOL    HW118794   2.017   0.411   1.373
 5965SOL    HW218795   2.005   0.548   1.461
 5966SOL     OW18796   2.764   1.578   5.423
 5966SOL    HW118797   2.704   1.592   5.503
 5966SOL    HW218798   2.748   1.651   5.357
 5967SOL     OW18799   5.098   2.419   5.671
 5967SOL    HW118800   5.086   2.372   5.758
 5967SOL    HW218801   5.172   2.486   5.679
 5968SOL     OW18802   6.040   1.602   3.143
 5968SOL    HW118803   6.124   1.555   3.168
 5968SOL    HW218804   5.996   1.639   3.225
 5969SOL     OW18805   5.773   6.576   1.357
 5969SOL    HW118806   5.681   6.610   1.375
 5969SOL    HW218807   5.782   6.554   1.260
 5970SOL     OW18808   6.626   1.177   0.181
 5970SOL    HW118809   6.698   1.131   0.234
 5970SOL    HW218810   6.571   1.109   0.133
 5971SOL     OW18811   6.704   5.386   3.859
 5971SOL    HW118812   6.684   5.379   3.956
 5971SOL    HW218813   6.740   5.299   3.825
 5972SOL     OW18814   6.942   5.468   6.888
 5972SOL    HW118815   6.908   5.556   6.922
 5972SOL    HW218816   6.987   5.418   6.963
 5973SOL     OW18817   3.730   0.425   1.702
 5973SOL    HW118818   3.810   0.417   1.762
 5973SOL    HW218819   3.701   0.334   1.673
 5974SOL     OW18820   6.133   0.869   4.640
 5974SOL    HW118821   6.128   0.878   4.739
 5974SOL    HW218822   6.047   0.900   4.599
 5975SOL     OW18823   3.202   4.216   0.593
 5975SOL    HW118824   3.216   4.313   0.574
 5975SOL    HW218825   3.104   4.197   0.601
 5976SOL     OW18826   0.631   2.244   6.112
 5976SOL    HW118827   0.707   2.244   6.047
 5976SOL    HW218828   0.545   2.240   6.061
 5977SOL     OW18829   0.459   5.975   1.699
 5977SOL    HW118830   0.377   6.016   1.739
 5977SOL    HW218831   0.437   5.936   1.610
 5978SOL     OW18832   3.008   3.665   6.397
 5978SOL    HW118833   3.062   3.746   6.374
 5978SOL    HW218834   2.994   3.661   6.496
 5979SOL     OW18835   5.797   0.701   1.459
 5979SOL    HW118836   5.733   0.639   1.504
 5979SOL    HW218837   5.891   0.667   1.472
 5980SOL     OW18838   3.625   2.798   0.424
 5980SOL    HW118839   3.558   2.747   0.369
 5980SOL    HW218840   3.717   2.772   0.397
 5981SOL     OW18841   4.333   2.121   0.572
 5981SOL    HW118842   4.397   2.111   0.648
 5981SOL    HW218843   4.271   2.043   0.569
 5982SOL     OW18844   5.870   2.728   1.428
 5982SOL    HW118845   5.925   2.782   1.492
 5982SOL    HW218846   5.876   2.631   1.454
 5983SOL     OW18847   0.752   1.082   4.180
 5983SOL    HW118848   0.679   1.150   4.177
 5983SOL    HW218849   0.715   0.993   4.153
 5984SOL     OW18850   6.344   6.256   1.979
 5984SOL    HW118851   6.403   6.177   1.997
 5984SOL    HW218852   6.389   6.340   2.011
 5985SOL     OW18853   0.192   4.215   2.562
 5985SOL    HW118854   0.137   4.209   2.479
 5985SOL    HW218855   0.279   4.168   2.547
 5986SOL     OW18856   3.883   3.701   3.800
 5986SOL    HW118857   3.796   3.750   3.813
 5986SOL    HW218858   3.958   3.767   3.796
 5987SOL     OW18859   0.401   6.066   3.545
 5987SOL    HW118860   0.336   6.001   3.506
 5987SOL    HW218861   0.374   6.090   3.638
 5988SOL     OW18862   1.640   2.165   0.123
 5988SOL    HW118863   1.563   2.129   0.070
 5988SOL    HW218864   1.719   2.106   0.112
 5989SOL     OW18865   2.812   6.731   6.016
 5989SOL    HW118866   2.862   6.654   5.977
 5989SOL    HW218867   2.739   6.758   5.952
 5990SOL     OW18868   2.101   4.245   1.612
 5990SOL    HW118869   2.192   4.245   1.655
 5990SOL    HW218870   2.104   4.187   1.530
 5991SOL     OW18871   4.741   1.358   6.725
 5991SOL    HW118872   4.658   1.410   6.746
 5991SOL    HW218873   4.779   1.390   6.638
 5992SOL     OW18874   2.487   4.471   2.502
 5992SOL    HW118875   2.499   4.475   2.601
 5992SOL    HW218876   2.571   4.503   2.457
 5993SOL     OW18877   5.771   1.084   0.199
 5993SOL    HW118878   5.831   1.010   0.230
 5993SOL    HW218879   5.826   1.164   0.177
 5994SOL     OW18880   0.652   5.318   1.102
 5994SOL    HW118881   0.720   5.310   1.175
 5994SOL    HW218882   0.585   5.245   1.111
 5995SOL     OW18883   5.841   4.696   1.571
 5995SOL    HW118884   5.929   4.737   1.595
 5995SOL    HW218885   5.816   4.723   1.478
 5996SOL     OW18886   2.854   0.881   1.391
 5996SOL    HW118887   2.787   0.950   1.361
 5996SOL    HW218888   2.913   0.921   1.462
 5997SOL     OW18889   6.740   0.967   4.519
 5997SOL    HW118890   6.823   0.914   4.503
 5997SOL    HW218891   6.672   0.945   4.449
 5998SOL     OW18892   5.433   6.067   7.019
 5998SOL    HW118893   5.497   6.026   0.057
 5998SOL    HW218894   5.482   6.130   6.960
 5999SOL     OW18895   6.015   2.509   0.869
 5999SOL    HW118896   6.100   2.487   0.821
 5999SOL    HW218897   5.939   2.504   0.805
 6000SOL     OW18898   0.233   5.753   2.008
 6000SOL    HW118899   0.223   5.665   2.055
 6000SOL    HW218900   0.231   5.827   2.074
 6001SOL     OW18901   0.225   6.618   6.203
 6001SOL    HW118902   0.233   6.672   6.287
 6001SOL    HW218903   0.180   6.673   6.132
 6002SOL     OW18904   5.340   4.593   4.146
 6002SOL    HW118905   5.405   4.667   4.158
 6002SOL    HW218906   5.285   4.582   4.228
 6003SOL     OW18907   2.309   0.643   4.755
 6003SOL    HW118908   2.397   0.610   4.720
 6003SOL    HW218909   2.252   0.565   4.781
 6004SOL     OW18910   5.545   3.432   5.069
 6004SOL    HW118911   5.576   3.369   5.139
 6004SOL    HW218912   5.548   3.526   5.104
 6005SOL     OW18913   3.622   3.943   0.510
 6005SOL    HW118914   3.566   4.019   0.478
 6005SOL    HW218915   3.613   3.866   0.447
 6006SOL     OW18916   3.201   6.902   5.801
 6006SOL    HW118917   3.219   6.998   5.821
 6006SOL    HW218918   3.244   6.877   5.714
 6007SOL     OW18919   2.745   0.078   4.233
 6007SOL    HW118920   2.667   0.046   4.178
 6007SOL    HW218921   2.736   0.176   4.250
 6008SOL     OW18922   2.408   3.359   6.766
 6008SOL    HW118923   2.427   3.401   6.854
 6008SOL    HW218924   2.310   3.369   6.745
 6009SOL     OW18925   2.344   5.597   2.068
 6009SOL    HW118926   2.272   5.660   2.039
 6009SOL    HW218927   2.313   5.503   2.055
 6010SOL     OW18928   0.494   5.545   6.420
 6010SOL    HW118929   0.576   5.514   6.372
 6010SOL    HW218930   0.414   5.535   6.360
 6011SOL     OW18931   4.970   2.214   3.402
 6011SOL    HW118932   5.030   2.135   3.393
 6011SOL    HW218933   4.941   2.244   3.312
 6012SOL     OW18934   6.188   1.274   5.450
 6012SOL    HW118935   6.134   1.194   5.475
 6012SOL    HW218936   6.200   1.276   5.351
 6013SOL     OW18937   6.096   2.330   3.297
 6013SOL    HW118938   6.037   2.281   3.361
 6013SOL    HW218939   6.165   2.382   3.348
 6014SOL     OW18940   4.035   3.201   4.014
 6014SOL    HW118941   4.073   3.246   4.094
 6014SOL    HW218942   3.979   3.266   3.962
 6015SOL     OW18943   6.503   0.334   3.254
 6015SOL    HW118944   6.529   0.276   3.331
 6015SOL    HW218945   6.461   0.278   3.182
 6016SOL     OW18946   4.458   2.108   4.470
 6016SOL    HW118947   4.550   2.139   4.446
 6016SOL    HW218948   4.448   2.107   4.569
 6017SOL     OW18949   1.254   2.527   5.132
 6017SOL    HW118950   1.342   2.566   5.157
 6017SOL    HW218951   1.238   2.539   5.034
 6018SOL     OW18952   2.331   1.295   3.990
 6018SOL    HW118953   2.269   1.368   3.963
 6018SOL    HW218954   2.326   1.220   3.924
 6019SOL     OW18955   6.823   3.425   6.132
 6019SOL    HW118956   6.730   3.442   6.165
 6019SOL    HW218957   6.889   3.467   6.194
 6020SOL     OW18958   0.543   5.771   4.820
 6020SOL    HW118959   0.578   5.735   4.734
 6020SOL    HW218960   0.531   5.870   4.812
 6021SOL     OW18961   5.748   0.240   4.104
 6021SOL    HW118962   5.787   0.226   4.013
 6021SOL    HW218963   5.681   0.313   4.101
 6022SOL     OW18964   6.329   3.523   1.574
 6022SOL    HW118965   6.349   3.485   1.664
 6022SOL    HW218966   6.407   3.507   1.513
 6023SOL     OW18967   3.995   7.016   2.990
 6023SOL    HW118968   4.084   6.989   3.028
 6023SOL    HW218969   3.967   0.076   3.030
 6024SOL     OW18970   0.336   6.632   0.335
 6024SOL    HW118971   0.377   6.687   0.263
 6024SOL    HW218972   0.282   6.558   0.294
 6025SOL     OW18973   3.695   0.750   5.618
 6025SOL    HW118974   3.703   0.687   5.695
 6025SOL    HW218975   3.786   0.777   5.587
 6026SOL     OW18976   5.176   6.529   3.327
 6026SOL    HW118977   5.083   6.563   3.315
 6026SOL    HW218978   5.240   6.606   3.322
 6027SOL     OW18979   5.454   4.287   6.181
 6027SOL    HW118980   5.450   4.335   6.094
 6027SOL    HW218981   5.499   4.346   6.249
 6028SOL     OW18982   6.706   5.502   6.582
 6028SOL    HW118983   6.681   5.489   6.678
 6028SOL    HW218984   6.796   5.464   6.565
 6029SOL     OW18985   2.800   1.290   2.069
 6029SOL    HW118986   2.823   1.387   2.068
 6029SOL    HW218987   2.883   1.236   2.055
 6030SOL     OW18988   6.754   3.090   5.252
 6030SOL    HW118989   6.829   3.130   5.304
 6030SOL    HW218990   6.682   3.158   5.239
 6031SOL     OW18991   0.250   0.295   3.961
 6031SOL    HW118992   0.170   0.354   3.951
 6031SOL    HW218993   0.227   0.202   3.930
 6032SOL     OW18994   3.073   0.268   3.349
 6032SOL    HW118995   3.001   0.268   3.279
 6032SOL    HW218996   3.042   0.318   3.429
 6033SOL     OW18997   0.553   1.773   2.755
 6033SOL    HW118998   0.482   1.833   2.718
 6033SOL    HW218999   0.537   1.760   2.853
 6034SOL     OW19000   0.726   0.548   1.410
 6034SOL    HW119001   0.811   0.547   1.358
 6034SOL    HW219002   0.649   0.560   1.348
 6035SOL     OW19003   2.338   1.644   2.651
 6035SOL    HW119004   2.325   1.603   2.742
 6035SOL    HW219005   2.278   1.598   2.585
 6036SOL     OW19006   6.785   3.547   6.765
 6036SOL    HW119007   6.746   3.628   6.721
 6036SOL    HW219008   6.734   3.466   6.737
 6037SOL     OW19009   4.566   0.892   0.293
 6037SOL    HW119010   4.498   0.944   0.242
 6037SOL    HW219011   4.586   0.807   0.244
 6038SOL     OW19012   2.265   2.273   0.228
 6038SOL    HW119013   2.195   2.224   0.177
 6038SOL    HW219014   2.346   2.285   0.171
 6039SOL     OW19015   3.072   3.966   3.299
 6039SOL    HW119016   3.040   3.958   3.393
 6039SOL    HW219017   2.999   3.939   3.236
 6040SOL     OW19018   6.592   0.408   0.510
 6040SOL    HW119019   6.647   0.347   0.454
 6040SOL    HW219020   6.644   0.436   0.591
 6041SOL     OW19021   0.855   3.221   4.392
 6041SOL    HW119022   0.861   3.171   4.306
 6041SOL    HW219023   0.876   3.160   4.468
 6042SOL     OW19024   2.927   5.883   2.447
 6042SOL    HW119025   2.953   5.908   2.540
 6042SOL    HW219026   2.993   5.923   2.383
 6043SOL     OW19027   2.245   4.765   1.031
 6043SOL    HW119028   2.163   4.819   1.053
 6043SOL    HW219029   2.235   4.673   1.070
 6044SOL     OW19030   6.466   3.540   6.876
 6044SOL    HW119031   6.508   3.477   6.810
 6044SOL    HW219032   6.521   3.623   6.883
 6045SOL     OW19033   4.420   1.595   3.961
 6045SOL    HW119034   4.405   1.497   3.958
 6045SOL    HW219035   4.409   1.634   3.870
 6046SOL     OW19036   3.538   3.782   3.221
 6046SOL    HW119037   3.453   3.736   3.247
 6046SOL    HW219038   3.542   3.871   3.265
 6047SOL     OW19039   6.834   1.054   0.337
 6047SOL    HW119040   6.923   1.053   0.291
 6047SOL    HW219041   6.832   0.984   0.408
 6048SOL     OW19042   6.206   6.032   3.774
 6048SOL    HW119043   6.259   5.960   3.729
 6048SOL    HW219044   6.257   6.117   3.773
 6049SOL     OW19045   6.167   5.053   0.368
 6049SOL    HW119046   6.257   5.057   0.412
 6049SOL    HW219047   6.111   4.983   0.413
 6050SOL     OW19048   2.058   5.697   3.234
 6050SOL    HW119049   2.132   5.759   3.260
 6050SOL    HW219050   2.064   5.676   3.137
 6051SOL     OW19051   0.202   2.118   2.948
 6051SOL    HW119052   0.168   2.187   2.885
 6051SOL    HW219053   0.134   2.046   2.959
 6052SOL     OW19054   5.645   5.488   0.022
 6052SOL    HW119055   5.690   5.458   6.965
 6052SOL    HW219056   5.558   5.532   7.025
 6053SOL     OW19057   3.830   1.971   6.076
 6053SOL    HW119058   3.795   2.015   5.993
 6053SOL    HW219059   3.754   1.937   6.131
 6054SOL     OW19060   4.522   3.586   6.415
 6054SOL    HW119061   4.562   3.609   6.326
 6054SOL    HW219062   4.461   3.508   6.406
 6055SOL     OW19063   3.379   4.905   1.954
 6055SOL    HW119064   3.471   4.866   1.959
 6055SOL    HW219065   3.350   4.932   2.046
 6056SOL     OW19066   5.342   6.820   3.048
 6056SOL    HW119067   5.253   6.776   3.031
 6056SOL    HW219068   5.416   6.756   3.025
 6057SOL     OW19069   5.223   1.469   4.552
 6057SOL    HW119070   5.125   1.458   4.533
 6057SOL    HW219071   5.236   1.549   4.610
 6058SOL     OW19072   6.854   3.887   6.642
 6058SOL    HW119073   6.789   3.949   6.686
 6058SOL    HW219074   6.938   3.883   6.696
 6059SOL     OW19075   4.312   1.791   6.490
 6059SOL    HW119076   4.377   1.715   6.492
 6059SOL    HW219077   4.235   1.767   6.431
 6060SOL     OW19078   2.335   1.962   1.502
 6060SOL    HW119079   2.284   2.012   1.572
 6060SOL    HW219080   2.392   2.027   1.450
 6061SOL     OW19081   2.240   4.660   6.344
 6061SOL    HW119082   2.219   4.611   6.259
 6061SOL    HW219083   2.155   4.686   6.389
 6062SOL     OW19084   1.747   1.818   4.814
 6062SOL    HW119085   1.772   1.839   4.909
 6062SOL    HW219086   1.783   1.729   4.789
 6063SOL     OW19087   4.291   3.900   5.688
 6063SOL    HW119088   4.378   3.930   5.648
 6063SOL    HW219089   4.272   3.806   5.660
 6064SOL     OW19090   5.770   5.451   0.534
 6064SOL    HW119091   5.719   5.472   0.451
 6064SOL    HW219092   5.846   5.389   0.512
 6065SOL     OW19093   1.520   5.463   1.177
 6065SOL    HW119094   1.430   5.478   1.219
 6065SOL    HW219095   1.582   5.425   1.246
 6066SOL     OW19096   4.956   5.642   2.847
 6066SOL    HW119097   4.858   5.623   2.845
 6066SOL    HW219098   4.999   5.606   2.764
 6067SOL     OW19099   6.215   5.328   5.493
 6067SOL    HW119100   6.162   5.366   5.418
 6067SOL    HW219101   6.155   5.270   5.550
 6068SOL     OW19102   4.912   2.278   4.000
 6068SOL    HW119103   4.832   2.327   4.035
 6068SOL    HW219104   4.897   2.251   3.905
 6069SOL     OW19105   0.896   5.510   5.527
 6069SOL    HW119106   0.892   5.411   5.536
 6069SOL    HW219107   0.877   5.536   5.432
 6070SOL     OW19108   2.446   0.337   1.555
 6070SOL    HW119109   2.487   0.258   1.509
 6070SOL    HW219110   2.347   0.325   1.562
 6071SOL     OW19111   6.693   6.504   6.651
 6071SOL    HW119112   6.748   6.579   6.615
 6071SOL    HW219113   6.620   6.482   6.586
 6072SOL     OW19114   0.314   2.183   6.565
 6072SOL    HW119115   0.280   2.152   6.476
 6072SOL    HW219116   0.255   2.147   6.637
 6073SOL     OW19117   4.556   4.715   6.704
 6073SOL    HW119118   4.524   4.649   6.772
 6073SOL    HW219119   4.649   4.692   6.677
 6074SOL     OW19120   1.601   5.939   2.551
 6074SOL    HW119121   1.698   5.928   2.528
 6074SOL    HW219122   1.555   5.851   2.547
 6075SOL     OW19123   6.903   6.196   0.354
 6075SOL    HW119124   6.949   6.130   0.295
 6075SOL    HW219125   6.906   6.164   0.449
 6076SOL     OW19126   6.987   6.313   3.288
 6076SOL    HW119127   7.026   6.334   3.378
 6076SOL    HW219128   0.033   6.311   3.220
 6077SOL     OW19129   4.452   5.438   2.948
 6077SOL    HW119130   4.370   5.387   2.921
 6077SOL    HW219131   4.505   5.461   2.867
 6078SOL     OW19132   5.758   3.948   0.392
 6078SOL    HW119133   5.788   4.036   0.356
 6078SOL    HW219134   5.737   3.957   0.489
 6079SOL     OW19135   3.189   1.959   0.172
 6079SOL    HW119136   3.139   1.898   0.233
 6079SOL    HW219137   3.175   1.929   0.077
 6080SOL     OW19138   5.749   3.556   5.335
 6080SOL    HW119139   5.714   3.576   5.426
 6080SOL    HW219140   5.784   3.462   5.332
 6081SOL     OW19141   2.065   4.819   3.851
 6081SOL    HW119142   2.062   4.730   3.805
 6081SOL    HW219143   2.150   4.866   3.827
 6082SOL     OW19144   4.216   1.162   1.696
 6082SOL    HW119145   4.278   1.102   1.644
 6082SOL    HW219146   4.132   1.112   1.717
 6083SOL     OW19147   5.687   0.825   5.507
 6083SOL    HW119148   5.774   0.850   5.464
 6083SOL    HW219149   5.625   0.903   5.505
 6084SOL     OW19150   6.146   5.180   3.634
 6084SOL    HW119151   6.113   5.264   3.676
 6084SOL    HW219152   6.092   5.103   3.667
 6085SOL     OW19153   0.777   6.213   0.915
 6085SOL    HW119154   0.844   6.254   0.854
 6085SOL    HW219155   0.802   6.118   0.933
 6086SOL     OW19156   4.781   2.908   0.430
 6086SOL    HW119157   4.843   2.977   0.393
 6086SOL    HW219158   4.739   2.857   0.355
 6087SOL     OW19159   3.984   0.989   6.156
 6087SOL    HW119160   3.914   1.056   6.129
 6087SOL    HW219161   4.014   0.938   6.075
 6088SOL     OW19162   3.710   6.057   2.834
 6088SOL    HW119163   3.716   6.123   2.909
 6088SOL    HW219164   3.621   6.066   2.788
 6089SOL     OW19165   6.439   5.247   2.735
 6089SOL    HW119166   6.430   5.148   2.748
 6089SOL    HW219167   6.506   5.264   2.662
 6090SOL     OW19168   3.929   5.947   4.701
 6090SOL    HW119169   4.001   5.914   4.763
 6090SOL    HW219170   3.934   5.897   4.614
 6091SOL     OW19171   0.281   2.959   1.947
 6091SOL    HW119172   0.302   3.055   1.931
 6091SOL    HW219173   0.184   2.949   1.969
 6092SOL     OW19174   1.610   6.890   1.014
 6092SOL    HW119175   1.620   6.849   0.923
 6092SOL    HW219176   1.513   6.907   1.032
 6093SOL     OW19177   3.731   3.234   2.742
 6093SOL    HW119178   3.752   3.299   2.669
 6093SOL    HW219179   3.787   3.152   2.730
 6094SOL     OW19180   0.284   6.511   5.285
 6094SOL    HW119181   0.254   6.531   5.379
 6094SOL    HW219182   0.314   6.596   5.242
 6095SOL     OW19183   5.516   5.179   2.453
 6095SOL    HW119184   5.507   5.084   2.423
 6095SOL    HW219185   5.557   5.181   2.545
 6096SOL     OW19186   4.722   6.280   2.517
 6096SOL    HW119187   4.813   6.321   2.522
 6096SOL    HW219188   4.730   6.183   2.492
 6097SOL     OW19189   2.337   5.006   1.395
 6097SOL    HW119190   2.341   4.988   1.297
 6097SOL    HW219191   2.322   5.103   1.411
 6098SOL     OW19192   6.145   1.938   5.538
 6098SOL    HW119193   6.140   1.980   5.447
 6098SOL    HW219194   6.053   1.918   5.571
 6099SOL     OW19195   3.529   6.991   5.829
 6099SOL    HW119196   3.474   6.960   5.751
 6099SOL    HW219197   3.614   0.004   5.796
 6100SOL     OW19198   6.409   5.186   6.295
 6100SOL    HW119199   6.370   5.096   6.318
 6100SOL    HW219200   6.418   5.194   6.196
 6101SOL     OW19201   0.812   2.794   0.828
 6101SOL    HW119202   0.822   2.725   0.899
 6101SOL    HW219203   0.812   2.885   0.869
 6102SOL     OW19204   2.369   0.531   2.688
 6102SOL    HW119205   2.387   0.629   2.685
 6102SOL    HW219206   2.456   0.481   2.685
 6103SOL     OW19207   5.585   0.409   2.953
 6103SOL    HW119208   5.629   0.325   2.986
 6103SOL    HW219209   5.651   0.462   2.899
 6104SOL     OW19210   7.005   0.194   5.102
 6104SOL    HW119211   6.976   0.149   5.186
 6104SOL    HW219212   6.975   0.290   5.104
 6105SOL     OW19213   3.384   5.421   6.420
 6105SOL    HW119214   3.330   5.495   6.380
 6105SOL    HW219215   3.326   5.339   6.429
 6106SOL     OW19216   5.897   3.895   5.895
 6106SOL    HW119217   5.860   3.977   5.938
 6106SOL    HW219218   5.863   3.888   5.802
 6107SOL     OW19219   6.529   5.125   5.009
 6107SOL    HW119220   6.535   5.050   5.075
 6107SOL    HW219221   6.590   5.107   4.932
 6108SOL     OW19222   3.154   0.908   6.062
 6108SOL    HW119223   3.073   0.859   6.093
 6108SOL    HW219224   3.216   0.922   6.139
 6109SOL     OW19225   6.852   6.193   3.725
 6109SOL    HW119226   6.951   6.175   3.724
 6109SOL    HW219227   6.806   6.131   3.662
 6110SOL     OW19228   0.981   1.836   4.662
 6110SOL    HW119229   1.078   1.814   4.651
 6110SOL    HW219230   0.928   1.784   4.595
 6111SOL     OW19231   3.287   3.267   1.833
 6111SOL    HW119232   3.191   3.290   1.848
 6111SOL    HW219233   3.307   3.178   1.872
 6112SOL     OW19234   4.537   6.303   3.712
 6112SOL    HW119235   4.553   6.401   3.724
 6112SOL    HW219236   4.578   6.253   3.788
 6113SOL     OW19237   3.692   5.705   1.365
 6113SOL    HW119238   3.763   5.634   1.364
 6113SOL    HW219239   3.724   5.782   1.419
 6114SOL     OW19240   5.381   3.770   1.415
 6114SOL    HW119241   5.380   3.687   1.359
 6114SOL    HW219242   5.327   3.841   1.369
 6115SOL     OW19243   5.742   1.070   3.975
 6115SOL    HW119244   5.666   1.009   3.955
 6115SOL    HW219245   5.725   1.116   4.062
 6116SOL     OW19246   6.440   2.377   0.288
 6116SOL    HW119247   6.518   2.415   0.238
 6116SOL    HW219248   6.376   2.451   0.308
 6117SOL     OW19249   3.008   1.996   0.961
 6117SOL    HW119250   2.927   2.030   1.008
 6117SOL    HW219251   2.985   1.914   0.909
 6118SOL     OW19252   6.274   0.487   1.762
 6118SOL    HW119253   6.314   0.498   1.672
 6118SOL    HW219254   6.176   0.471   1.754
 6119SOL     OW19255   0.098   1.478   6.205
 6119SOL    HW119256   0.084   1.423   6.287
 6119SOL    HW219257   0.126   1.570   6.231
 6120SOL     OW19258   3.388   1.240   3.387
 6120SOL    HW119259   3.304   1.187   3.398
 6120SOL    HW219260   3.465   1.178   3.378
 6121SOL     OW19261   3.908   1.219   6.043
 6121SOL    HW119262   3.999   1.258   6.036
 6121SOL    HW219263   3.842   1.280   5.998
 6122SOL     OW19264   4.873   4.397   4.989
 6122SOL    HW119265   4.898   4.463   5.060
 6122SOL    HW219266   4.905   4.431   4.900
 6123SOL     OW19267   5.894   1.753   5.338
 6123SOL    HW119268   5.851   1.709   5.259
 6123SOL    HW219269   5.892   1.852   5.326
 6124SOL     OW19270   1.699   6.082   3.952
 6124SOL    HW119271   1.792   6.051   3.970
 6124SOL    HW219272   1.694   6.181   3.962
 6125SOL     OW19273   2.786   1.098   5.715
 6125SOL    HW119274   2.836   1.106   5.802
 6125SOL    HW219275   2.744   1.186   5.693
 6126SOL     OW19276   6.138   3.298   6.414
 6126SOL    HW119277   6.063   3.243   6.377
 6126SOL    HW219278   6.101   3.383   6.452
 6127SOL     OW19279   5.016   2.422   3.639
 6127SOL    HW119280   5.006   2.342   3.580
 6127SOL    HW219281   5.079   2.487   3.597
 6128SOL     OW19282   6.494   4.769   4.360
 6128SOL    HW119283   6.532   4.804   4.274
 6128SOL    HW219284   6.553   4.697   4.396
 6129SOL     OW19285   1.826   6.316   2.839
 6129SOL    HW119286   1.827   6.239   2.775
 6129SOL    HW219287   1.798   6.284   2.929
 6130SOL     OW19288   6.969   2.163   6.530
 6130SOL    HW119289   6.877   2.153   6.567
 6130SOL    HW219290   0.009   2.135   6.598
 6131SOL     OW19291   6.005   3.055   2.653
 6131SOL    HW119292   5.932   3.062   2.721
 6131SOL    HW219293   5.967   3.066   2.562
 6132SOL     OW19294   4.274   6.021   6.493
 6132SOL    HW119295   4.320   5.935   6.468
 6132SOL    HW219296   4.273   6.030   6.592
 6133SOL     OW19297   6.899   2.283   3.676
 6133SOL    HW119298   6.808   2.310   3.644
 6133SOL    HW219299   6.911   2.185   3.662
 6134SOL     OW19300   0.867   0.157   5.127
 6134SOL    HW119301   0.777   0.123   5.154
 6134SOL    HW219302   0.856   0.237   5.068
 6135SOL     OW19303   5.965   6.418   6.919
 6135SOL    HW119304   5.866   6.422   6.912
 6135SOL    HW219305   6.005   6.422   6.827
 6136SOL     OW19306   1.093   2.161   2.528
 6136SOL    HW119307   1.083   2.189   2.624
 6136SOL    HW219308   1.101   2.243   2.471
 6137SOL     OW19309   6.913   4.591   1.559
 6137SOL    HW119310   6.975   4.518   1.587
 6137SOL    HW219311   6.821   4.572   1.592
 6138SOL     OW19312   4.870   0.760   2.512
 6138SOL    HW119313   4.852   0.747   2.415
 6138SOL    HW219314   4.787   0.740   2.564
 6139SOL     OW19315   1.512   1.621   5.758
 6139SOL    HW119316   1.612   1.612   5.762
 6139SOL    HW219317   1.477   1.570   5.680
 6140SOL     OW19318   2.650   0.954   4.128
 6140SOL    HW119319   2.618   0.881   4.189
 6140SOL    HW219320   2.599   1.038   4.147
 6141SOL     OW19321   0.286   0.685   1.053
 6141SOL    HW119322   0.368   0.739   1.036
 6141SOL    HW219323   0.205   0.737   1.024
 6142SOL     OW19324   0.557   0.065   1.842
 6142SOL    HW119325   0.560   0.066   1.742
 6142SOL    HW219326   0.462   0.058   1.873
 6143SOL     OW19327   2.103   3.231   5.597
 6143SOL    HW119328   2.076   3.157   5.536
 6143SOL    HW219329   2.195   3.213   5.633
 6144SOL     OW19330   3.054   5.943   2.722
 6144SOL    HW119331   2.995   5.949   2.803
 6144SOL    HW219332   3.065   6.034   2.682
 6145SOL     OW19333   5.550   3.558   4.641
 6145SOL    HW119334   5.609   3.480   4.664
 6145SOL    HW219335   5.588   3.606   4.562
 6146SOL     OW19336   6.253   1.718   5.668
 6146SOL    HW119337   6.212   1.629   5.649
 6146SOL    HW219338   6.211   1.787   5.609
 6147SOL     OW19339   1.438   2.163   5.297
 6147SOL    HW119340   1.411   2.097   5.227
 6147SOL    HW219341   1.356   2.211   5.330
 6148SOL     OW19342   3.812   5.670   6.433
 6148SOL    HW119343   3.753   5.600   6.393
 6148SOL    HW219344   3.878   5.702   6.365
 6149SOL     OW19345   3.929   1.860   2.127
 6149SOL    HW119346   3.878   1.787   2.172
 6149SOL    HW219347   3.922   1.851   2.028
 6150SOL     OW19348   0.041   5.294   3.910
 6150SOL    HW119349   7.020   5.378   3.934
 6150SOL    HW219350   0.123   5.317   3.857
 6151SOL     OW19351   3.651   5.632   2.410
 6151SOL    HW119352   3.682   5.555   2.466
 6151SOL    HW219353   3.565   5.668   2.447
 6152SOL     OW19354   0.921   4.244   2.881
 6152SOL    HW119355   0.968   4.318   2.930
 6152SOL    HW219356   0.860   4.195   2.944
 6153SOL     OW19357   5.884   6.505   1.597
 6153SOL    HW119358   5.923   6.421   1.560
 6153SOL    HW219359   5.867   6.569   1.523
 6154SOL     OW19360   3.741   5.372   3.031
 6154SOL    HW119361   3.807   5.425   3.084
 6154SOL    HW219362   3.789   5.297   2.984
 6155SOL     OW19363   1.645   1.176   4.312
 6155SOL    HW119364   1.644   1.227   4.226
 6155SOL    HW219365   1.558   1.127   4.322
 6156SOL     OW19366   4.722   4.164   2.689
 6156SOL    HW119367   4.629   4.156   2.653
 6156SOL    HW219368   4.788   4.145   2.616
 6157SOL     OW19369   0.559   2.460   1.690
 6157SOL    HW119370   0.612   2.376   1.706
 6157SOL    HW219371   0.463   2.436   1.674
 6158SOL     OW19372   3.081   0.835   6.770
 6158SOL    HW119373   3.069   0.771   6.694
 6158SOL    HW219374   3.175   0.830   6.803
 6159SOL     OW19375   6.432   1.159   0.454
 6159SOL    HW119376   6.396   1.198   0.369
 6159SOL    HW219377   6.436   1.060   0.446
 6160SOL     OW19378   1.404   7.002   0.652
 6160SOL    HW119379   1.493   6.961   0.634
 6160SOL    HW219380   1.396   0.061   0.603
 6161SOL     OW19381   5.983   4.118   0.211
 6161SOL    HW119382   5.914   4.191   0.205
 6161SOL    HW219383   6.064   4.144   0.158
 6162SOL     OW19384   6.017   5.671   1.073
 6162SOL    HW119385   6.038   5.657   0.976
 6162SOL    HW219386   5.969   5.758   1.085
 6163SOL     OW19387   5.091   5.563   2.618
 6163SOL    HW119388   5.067   5.478   2.571
 6163SOL    HW219389   5.179   5.596   2.583
 6164SOL     OW19390   3.700   3.510   4.768
 6164SOL    HW119391   3.748   3.595   4.747
 6164SOL    HW219392   3.729   3.475   4.857
 6165SOL     OW19393   3.698   0.766   6.642
 6165SOL    HW119394   3.686   0.769   6.741
 6165SOL    HW219395   3.790   0.734   6.621
 6166SOL     OW19396   3.000   1.239   5.889
 6166SOL    HW119397   2.938   1.308   5.925
 6166SOL    HW219398   3.084   1.238   5.944
 6167SOL     OW19399   1.686   3.350   2.421
 6167SOL    HW119400   1.699   3.286   2.345
 6167SOL    HW219401   1.666   3.441   2.384
 6168SOL     OW19402   1.031   3.704   3.521
 6168SOL    HW119403   1.069   3.617   3.552
 6168SOL    HW219404   1.104   3.762   3.485
 6169SOL     OW19405   2.806   0.745   0.807
 6169SOL    HW119406   2.776   0.775   0.898
 6169SOL    HW219407   2.878   0.807   0.774
 6170SOL     OW19408   2.578   4.876   0.999
 6170SOL    HW119409   2.625   4.963   1.017
 6170SOL    HW219410   2.610   4.839   0.912
 6171SOL     OW19411   2.142   4.009   2.482
 6171SOL    HW119412   2.106   4.091   2.527
 6171SOL    HW219413   2.111   3.928   2.531
 6172SOL     OW19414   2.341   4.672   1.821
 6172SOL    HW119415   2.411   4.613   1.862
 6172SOL    HW219416   2.270   4.691   1.889
 6173SOL     OW19417   0.922   5.727   3.033
 6173SOL    HW119418   0.841   5.716   2.974
 6173SOL    HW219419   0.955   5.821   3.026
 6174SOL     OW19420   5.869   4.457   1.695
 6174SOL    HW119421   5.845   4.539   1.642
 6174SOL    HW219422   5.866   4.377   1.636
 6175SOL     OW19423   5.260   0.649   3.845
 6175SOL    HW119424   5.252   0.636   3.943
 6175SOL    HW219425   5.178   0.615   3.800
 6176SOL     OW19426   6.573   3.510   0.142
 6176SOL    HW119427   6.611   3.548   0.058
 6176SOL    HW219428   6.544   3.416   0.125
 6177SOL     OW19429   5.824   3.089   2.895
 6177SOL    HW119430   5.827   3.178   2.941
 6177SOL    HW219431   5.746   3.037   2.930
 6178SOL     OW19432   0.016   4.286   1.393
 6178SOL    HW119433   6.983   4.366   1.396
 6178SOL    HW219434   0.035   4.255   1.486
 6179SOL     OW19435   6.875   1.455   5.628
 6179SOL    HW119436   6.880   1.358   5.605
 6179SOL    HW219437   6.810   1.469   5.703
 6180SOL     OW19438   2.697   0.834   0.076
 6180SOL    HW119439   2.650   0.852   7.017
 6180SOL    HW219440   2.793   0.814   0.059
 6181SOL     OW19441   4.611   6.742   6.256
 6181SOL    HW119442   4.628   6.815   6.189
 6181SOL    HW219443   4.616   6.653   6.210
 6182SOL     OW19444   4.946   6.791   5.179
 6182SOL    HW119445   4.973   6.834   5.092
 6182SOL    HW219446   4.860   6.830   5.210
 6183SOL     OW19447   2.236   6.648   2.652
 6183SOL    HW119448   2.276   6.654   2.561
 6183SOL    HW219449   2.272   6.722   2.709
 6184SOL     OW19450   6.585   0.108   5.328
 6184SOL    HW119451   6.517   0.173   5.296
 6184SOL    HW219452   6.541   0.021   5.350
 6185SOL     OW19453   2.583   2.437   0.434
 6185SOL    HW119454   2.495   2.419   0.479
 6185SOL    HW219455   2.567   2.471   0.341
 6186SOL     OW19456   3.962   1.427   3.829
 6186SOL    HW119457   3.931   1.472   3.913
 6186SOL    HW219458   4.055   1.393   3.841
 6187SOL     OW19459   3.346   4.988   4.563
 6187SOL    HW119460   3.382   4.953   4.650
 6187SOL    HW219461   3.402   5.065   4.532
 6188SOL     OW19462   2.436   0.045   2.415
 6188SOL    HW119463   2.440   0.143   2.395
 6188SOL    HW219464   2.514   0.019   2.472
 6189SOL     OW19465   5.738   5.081   3.379
 6189SOL    HW119466   5.680   5.002   3.361
 6189SOL    HW219467   5.682   5.164   3.381
 6190SOL     OW19468   5.018   3.528   5.888
 6190SOL    HW119469   4.931   3.519   5.839
 6190SOL    HW219470   5.030   3.449   5.949
 6191SOL     OW19471   6.961   1.204   6.461
 6191SOL    HW119472   0.015   1.263   6.457
 6191SOL    HW219473   6.939   1.186   6.557
 6192SOL     OW19474   3.191   1.618   0.222
 6192SOL    HW119475   3.270   1.675   0.201
 6192SOL    HW219476   3.122   1.673   0.270
 6193SOL     OW19477   0.054   6.589   1.522
 6193SOL    HW119478   0.063   6.497   1.484
 6193SOL    HW219479   6.986   6.617   1.520
 6194SOL     OW19480   2.916   0.416   1.405
 6194SOL    HW119481   3.001   0.426   1.354
 6194SOL    HW219482   2.839   0.412   1.341
 6195SOL     OW19483   2.474   0.253   5.482
 6195SOL    HW119484   2.463   0.315   5.405
 6195SOL    HW219485   2.486   0.306   5.566
 6196SOL     OW19486   1.476   1.904   5.644
 6196SOL    HW119487   1.515   1.980   5.697
 6196SOL    HW219488   1.495   1.818   5.691
 6197SOL     OW19489   2.473   2.543   1.968
 6197SOL    HW119490   2.394   2.605   1.973
 6197SOL    HW219491   2.487   2.502   2.058
 6198SOL     OW19492   2.956   5.401   2.025
 6198SOL    HW119493   3.004   5.488   2.038
 6198SOL    HW219494   2.989   5.357   1.942
 6199SOL     OW19495   0.210   0.382   6.591
 6199SOL    HW119496   0.210   0.481   6.610
 6199SOL    HW219497   0.215   0.331   6.676
 6200SOL     OW19498   4.253   0.677   5.751
 6200SOL    HW119499   4.187   0.677   5.676
 6200SOL    HW219500   4.305   0.591   5.749
 6201SOL     OW19501   2.612   5.469   4.878
 6201SOL    HW119502   2.618   5.465   4.778
 6201SOL    HW219503   2.624   5.378   4.916
 6202SOL     OW19504   1.776   2.448   1.403
 6202SOL    HW119505   1.688   2.462   1.359
 6202SOL    HW219506   1.832   2.386   1.348
 6203SOL     OW19507   6.023   2.697   4.600
 6203SOL    HW119508   6.032   2.674   4.503
 6203SOL    HW219509   6.070   2.628   4.655
 6204SOL     OW19510   1.117   6.843   5.396
 6204SOL    HW119511   1.215   6.854   5.384
 6204SOL    HW219512   1.070   6.861   5.310
 6205SOL     OW19513   4.520   7.015   6.699
 6205SOL    HW119514   4.436   0.042   6.703
 6205SOL    HW219515   4.595   0.046   6.666
 6206SOL     OW19516   4.623   6.972   4.010
 6206SOL    HW119517   4.666   0.032   3.992
 6206SOL    HW219518   4.537   6.965   3.958
 6207SOL     OW19519   2.367   4.653   4.312
 6207SOL    HW119520   2.346   4.667   4.215
 6207SOL    HW219521   2.450   4.703   4.335
 6208SOL     OW19522   5.868   4.409   5.180
 6208SOL    HW119523   5.925   4.334   5.214
 6208SOL    HW219524   5.813   4.378   5.103
 6209SOL     OW19525   1.028   5.724   1.000
 6209SOL    HW119526   0.992   5.727   0.907
 6209SOL    HW219527   1.036   5.628   1.029
 6210SOL     OW19528   0.553   4.071   3.563
 6210SOL    HW119529   0.590   4.026   3.481
 6210SOL    HW219530   0.597   4.160   3.574
 6211SOL     OW19531   2.574   0.273   4.901
 6211SOL    HW119532   2.625   0.281   4.986
 6211SOL    HW219533   2.583   0.180   4.865
 6212SOL     OW19534   6.895   0.913   4.251
 6212SOL    HW119535   6.795   0.915   4.252
 6212SOL    HW219536   6.929   0.989   4.195
 6213SOL     OW19537   6.452   6.948   0.611
 6213SOL    HW119538   6.454   6.997   0.524
 6213SOL    HW219539   6.359   6.915   0.628
 6214SOL     OW19540   4.788   4.094   1.948
 6214SOL    HW119541   4.738   4.167   1.995
 6214SOL    HW219542   4.843   4.043   2.014
 6215SOL     OW19543   3.694   4.164   1.433
 6215SOL    HW119544   3.667   4.069   1.417
 6215SOL    HW219545   3.699   4.181   1.531
 6216SOL     OW19546   6.006   1.682   2.283
 6216SOL    HW119547   5.933   1.710   2.221
 6216SOL    HW219548   5.991   1.588   2.314
 6217SOL     OW19549   4.148   1.353   1.526
 6217SOL    HW119550   4.155   1.275   1.588
 6217SOL    HW219551   4.198   1.333   1.441
 6218SOL     OW19552   4.412   6.217   4.702
 6218SOL    HW119553   4.394   6.281   4.627
 6218SOL    HW219554   4.391   6.124   4.673
 6219SOL     OW19555   0.364   0.689   4.690
 6219SOL    HW119556   0.279   0.652   4.726
 6219SOL    HW219557   0.441   0.649   4.739
 6220SOL     OW19558   1.312   3.762   4.906
 6220SOL    HW119559   1.354   3.671   4.895
 6220SOL    HW219560   1.223   3.752   4.950
 6221SOL     OW19561   4.659   4.616   4.240
 6221SOL    HW119562   4.618   4.560   4.312
 6221SOL    HW219563   4.715   4.688   4.281
 6222SOL     OW19564   6.986   1.991   1.344
 6222SOL    HW119565   6.994   1.969   1.247
 6222SOL    HW219566   6.960   1.908   1.394
 6223SOL     OW19567   5.286   4.909   3.425
 6223SOL    HW119568   5.290   4.963   3.509
 6223SOL    HW219569   5.210   4.940   3.369
 6224SOL     OW19570   2.990   0.333   4.681
 6224SOL    HW119571   2.963   0.289   4.767
 6224SOL    HW219572   3.069   0.286   4.643
 6225SOL     OW19573   4.073   1.757   6.315
 6225SOL    HW119574   4.013   1.705   6.377
 6225SOL    HW219575   4.042   1.744   6.221
 6226SOL     OW19576   0.130   6.194   4.244
 6226SOL    HW119577   0.227   6.219   4.249
 6226SOL    HW219578   0.095   6.174   4.336
 6227SOL     OW19579   3.106   4.286   0.162
 6227SOL    HW119580   3.038   4.290   0.235
 6227SOL    HW219581   3.071   4.229   0.088
 6228SOL     OW19582   6.761   2.451   2.811
 6228SOL    HW119583   6.668   2.477   2.788
 6228SOL    HW219584   6.814   2.532   2.835
 6229SOL     OW19585   1.185   2.405   2.435
 6229SOL    HW119586   1.267   2.412   2.491
 6229SOL    HW219587   1.173   2.488   2.382
 6230SOL     OW19588   1.823   2.606   4.036
 6230SOL    HW119589   1.883   2.621   4.114
 6230SOL    HW219590   1.875   2.566   3.960
 6231SOL     OW19591   6.554   4.351   2.661
 6231SOL    HW119592   6.524   4.331   2.754
 6231SOL    HW219593   6.654   4.344   2.656
 6232SOL     OW19594   0.630   0.921   6.576
 6232SOL    HW119595   0.598   1.007   6.536
 6232SOL    HW219596   0.689   0.874   6.510
 6233SOL     OW19597   4.425   0.785   6.084
 6233SOL    HW119598   4.330   0.799   6.113
 6233SOL    HW219599   4.441   0.830   5.996
 6234SOL     OW19600   2.569   1.960   4.322
 6234SOL    HW119601   2.602   1.956   4.228
 6234SOL    HW219602   2.560   1.868   4.358
 6235SOL     OW19603   1.795   5.192   1.579
 6235SOL    HW119604   1.894   5.202   1.589
 6235SOL    HW219605   1.761   5.260   1.514
 6236SOL     OW19606   0.172   4.231   0.159
 6236SOL    HW119607   0.149   4.280   0.244
 6236SOL    HW219608   0.119   4.269   0.083
 6237SOL     OW19609   3.295   6.467   6.119
 6237SOL    HW119610   3.371   6.485   6.182
 6237SOL    HW219611   3.327   6.414   6.042
 6238SOL     OW19612   5.393   3.175   1.116
 6238SOL    HW119613   5.401   3.210   1.023
 6238SOL    HW219614   5.457   3.099   1.128
 6239SOL     OW19615   3.407   6.117   4.507
 6239SOL    HW119616   3.334   6.050   4.515
 6239SOL    HW219617   3.370   6.203   4.470
 6240SOL     OW19618   2.524   4.023   0.074
 6240SOL    HW119619   2.570   3.966   0.006
 6240SOL    HW219620   2.463   3.966   0.130
 6241SOL     OW19621   3.845   6.476   2.757
 6241SOL    HW119622   3.847   6.468   2.857
 6241SOL    HW219623   3.779   6.546   2.731
 6242SOL     OW19624   3.367   1.842   2.682
 6242SOL    HW119625   3.373   1.750   2.720
 6242SOL    HW219626   3.366   1.909   2.756
 6243SOL     OW19627   6.185   5.949   2.939
 6243SOL    HW119628   6.110   6.015   2.947
 6243SOL    HW219629   6.176   5.879   3.010
 6244SOL     OW19630   1.253   1.869   1.295
 6244SOL    HW119631   1.189   1.938   1.330
 6244SOL    HW219632   1.338   1.914   1.269
 6245SOL     OW19633   2.560   3.277   0.162
 6245SOL    HW119634   2.471   3.240   0.188
 6245SOL    HW219635   2.628   3.203   0.161
 6246SOL     OW19636   3.867   6.781   0.175
 6246SOL    HW119637   3.915   6.865   0.199
 6246SOL    HW219638   3.916   6.735   0.101
 6247SOL     OW19639   6.267   0.138   2.863
 6247SOL    HW119640   6.172   0.125   2.891
 6247SOL    HW219641   6.285   0.082   2.782
 6248SOL     OW19642   1.292   5.403   0.998
 6248SOL    HW119643   1.373   5.409   1.057
 6248SOL    HW219644   1.320   5.418   0.903
 6249SOL     OW19645   6.421   3.291   5.847
 6249SOL    HW119646   6.335   3.245   5.870
 6249SOL    HW219647   6.412   3.389   5.864
 6250SOL     OW19648   6.826   4.230   6.369
 6250SOL    HW119649   6.849   4.263   6.460
 6250SOL    HW219650   6.826   4.306   6.305
 6251SOL     OW19651   5.011   1.156   6.868
 6251SOL    HW119652   4.930   1.206   6.898
 6251SOL    HW219653   5.031   1.181   6.773
 6252SOL     OW19654   2.254   6.809   5.465
 6252SOL    HW119655   2.154   6.804   5.465
 6252SOL    HW219656   2.289   6.764   5.547
 6253SOL     OW19657   2.716   3.306   0.724
 6253SOL    HW119658   2.654   3.286   0.649
 6253SOL    HW219659   2.773   3.226   0.743
 6254SOL     OW19660   5.711   0.255   7.014
 6254SOL    HW119661   5.796   0.202   7.009
 6254SOL    HW219662   5.716   0.319   0.064
 6255SOL     OW19663   0.957   3.144   2.815
 6255SOL    HW119664   0.994   3.185   2.732
 6255SOL    HW219665   0.917   3.215   2.872
 6256SOL     OW19666   4.582   5.253   4.300
 6256SOL    HW119667   4.509   5.265   4.367
 6256SOL    HW219668   4.606   5.342   4.262
 6257SOL     OW19669   3.703   2.769   6.752
 6257SOL    HW119670   3.646   2.843   6.786
 6257SOL    HW219671   3.647   2.687   6.737
 6258SOL     OW19672   4.523   2.227   3.205
 6258SOL    HW119673   4.620   2.209   3.218
 6258SOL    HW219674   4.469   2.147   3.232
 6259SOL     OW19675   3.300   2.430   1.641
 6259SOL    HW119676   3.294   2.456   1.545
 6259SOL    HW219677   3.376   2.366   1.654
 6260SOL     OW19678   4.099   3.776   1.815
 6260SOL    HW119679   4.073   3.807   1.907
 6260SOL    HW219680   4.027   3.800   1.750
 6261SOL     OW19681   4.726   6.800   6.520
 6261SOL    HW119682   4.695   6.774   6.428
 6261SOL    HW219683   4.647   6.818   6.579
 6262SOL     OW19684   0.413   5.953   5.239
 6262SOL    HW119685   0.353   5.960   5.159
 6262SOL    HW219686   0.361   5.973   5.322
 6263SOL     OW19687   6.898   0.361   1.487
 6263SOL    HW119688   6.959   0.439   1.495
 6263SOL    HW219689   6.877   0.343   1.391
 6264SOL     OW19690   2.752   0.821   0.494
 6264SOL    HW119691   2.814   0.772   0.433
 6264SOL    HW219692   2.723   0.759   0.568
 6265SOL     OW19693   6.578   3.861   0.468
 6265SOL    HW119694   6.559   3.772   0.510
 6265SOL    HW219695   6.638   3.849   0.390
 6266SOL     OW19696   2.383   6.820   2.799
 6266SOL    HW119697   2.385   6.890   2.727
 6266SOL    HW219698   2.368   6.864   2.888
 6267SOL     OW19699   3.089   6.589   6.524
 6267SOL    HW119700   3.186   6.613   6.519
 6267SOL    HW219701   3.077   6.509   6.583
 6268SOL     OW19702   2.241   6.303   2.426
 6268SOL    HW119703   2.164   6.251   2.388
 6268SOL    HW219704   2.240   6.294   2.526
 6269SOL     OW19705   0.007   4.764   6.256
 6269SOL    HW119706   0.063   4.795   6.179
 6269SOL    HW219707   0.045   4.679   6.293
 6270SOL     OW19708   1.169   1.471   4.031
 6270SOL    HW119709   1.196   1.445   4.124
 6270SOL    HW219710   1.071   1.452   4.019
 6271SOL     OW19711   5.310   2.286   1.054
 6271SOL    HW119712   5.312   2.385   1.043
 6271SOL    HW219713   5.389   2.256   1.107
 6272SOL     OW19714   3.009   2.258   3.623
 6272SOL    HW119715   3.075   2.313   3.570
 6272SOL    HW219716   3.049   2.168   3.642
 6273SOL     OW19717   3.986   1.518   2.516
 6273SOL    HW119718   4.000   1.475   2.605
 6273SOL    HW219719   4.063   1.497   2.456
 6274SOL     OW19720   2.911   5.670   6.850
 6274SOL    HW119721   2.850   5.719   6.788
 6274SOL    HW219722   3.001   5.661   6.808
 6275SOL     OW19723   3.305   0.959   4.109
 6275SOL    HW119724   3.321   1.045   4.157
 6275SOL    HW219725   3.386   0.934   4.056
 6276SOL     OW19726   0.647   5.698   3.696
 6276SOL    HW119727   0.610   5.716   3.605
 6276SOL    HW219728   0.743   5.671   3.687
 6277SOL     OW19729   6.018   3.470   4.537
 6277SOL    HW119730   6.045   3.376   4.555
 6277SOL    HW219731   5.923   3.483   4.565
 6278SOL     OW19732   4.477   1.125   3.290
 6278SOL    HW119733   4.402   1.182   3.256
 6278SOL    HW219734   4.449   1.029   3.291
 6279SOL     OW19735   3.779   2.302   5.609
 6279SOL    HW119736   3.711   2.244   5.655
 6279SOL    HW219737   3.740   2.338   5.525
 6280SOL     OW19738   2.024   5.356   5.055
 6280SOL    HW119739   2.010   5.257   5.053
 6280SOL    HW219740   2.116   5.376   5.088
 6281SOL     OW19741   3.394   6.236   4.854
 6281SOL    HW119742   3.309   6.231   4.801
 6281SOL    HW219743   3.434   6.145   4.861
 6282SOL     OW19744   0.669   6.436   4.139
 6282SOL    HW119745   0.768   6.421   4.141
 6282SOL    HW219746   0.650   6.534   4.139
 6283SOL     OW19747   1.433   3.210   5.046
 6283SOL    HW119748   1.339   3.183   5.028
 6283SOL    HW219749   1.437   3.309   5.064
 6284SOL     OW19750   2.936   4.775   0.520
 6284SOL    HW119751   3.024   4.776   0.567
 6284SOL    HW219752   2.913   4.868   0.490
 6285SOL     OW19753   2.014   3.439   2.556
 6285SOL    HW119754   2.014   3.388   2.469
 6285SOL    HW219755   2.071   3.391   2.622
 6286SOL     OW19756   0.064   6.353   3.545
 6286SOL    HW119757   0.072   6.297   3.627
 6286SOL    HW219758   0.140   6.418   3.540
 6287SOL     OW19759   3.535   4.901   3.212
 6287SOL    HW119760   3.501   4.941   3.296
 6287SOL    HW219761   3.635   4.898   3.214
 6288SOL     OW19762   6.865   3.903   1.385
 6288SOL    HW119763   6.815   3.866   1.307
 6288SOL    HW219764   6.828   3.993   1.409
 6289SOL     OW19765   0.382   0.025   2.672
 6289SOL    HW119766   0.396   6.970   2.728
 6289SOL    HW219767   0.339   7.027   2.586
 6290SOL     OW19768   5.542   3.167   3.780
 6290SOL    HW119769   5.559   3.210   3.869
 6290SOL    HW219770   5.596   3.083   3.773
 6291SOL     OW19771   3.736   3.906   4.320
 6291SOL    HW119772   3.807   3.956   4.370
 6291SOL    HW219773   3.750   3.808   4.331
 6292SOL     OW19774   6.182   1.173   1.193
 6292SOL    HW119775   6.108   1.201   1.132
 6292SOL    HW219776   6.144   1.121   1.270
 6293SOL     OW19777   5.846   4.084   5.487
 6293SOL    HW119778   5.919   4.017   5.473
 6293SOL    HW219779   5.776   4.074   5.416
 6294SOL     OW19780   3.004   5.882   1.007
 6294SOL    HW119781   3.012   5.785   1.027
 6294SOL    HW219782   3.081   5.931   1.048
 6295SOL     OW19783   6.399   5.560   6.578
 6295SOL    HW119784   6.458   5.509   6.641
 6295SOL    HW219785   6.307   5.565   6.616
 6296SOL     OW19786   5.998   2.134   3.816
 6296SOL    HW119787   5.953   2.044   3.813
 6296SOL    HW219788   6.025   2.161   3.723
 6297SOL     OW19789   5.639   2.974   6.394
 6297SOL    HW119790   5.636   2.875   6.408
 6297SOL    HW219791   5.621   3.020   6.481
 6298SOL     OW19792   6.346   3.112   4.920
 6298SOL    HW119793   6.409   3.042   4.886
 6298SOL    HW219794   6.288   3.144   4.846
 6299SOL     OW19795   0.397   1.921   6.694
 6299SOL    HW119796   0.454   1.842   6.718
 6299SOL    HW219797   0.456   1.998   6.668
 6300SOL     OW19798   5.190   1.649   3.427
 6300SOL    HW119799   5.246   1.644   3.509
 6300SOL    HW219800   5.139   1.564   3.417
 6301SOL     OW19801   2.842   6.837   0.770
 6301SOL    HW119802   2.762   6.888   0.739
 6301SOL    HW219803   2.813   6.752   0.815
 6302SOL     OW19804   6.317   0.935   3.109
 6302SOL    HW119805   6.349   0.841   3.116
 6302SOL    HW219806   6.264   0.947   3.025
 6303SOL     OW19807   2.064   5.487   4.763
 6303SOL    HW119808   2.107   5.455   4.847
 6303SOL    HW219809   2.011   5.570   4.782
 6304SOL     OW19810   4.453   0.648   4.998
 6304SOL    HW119811   4.529   0.702   4.962
 6304SOL    HW219812   4.455   0.557   4.958
 6305SOL     OW19813   5.096   6.980   2.818
 6305SOL    HW119814   5.031   6.918   2.774
 6305SOL    HW219815   5.069   6.994   2.913
 6306SOL     OW19816   6.191   2.508   4.709
 6306SOL    HW119817   6.150   2.496   4.800
 6306SOL    HW219818   6.185   2.422   4.659
 6307SOL     OW19819   2.002   4.250   0.902
 6307SOL    HW119820   2.081   4.300   0.865
 6307SOL    HW219821   1.923   4.267   0.843
 6308SOL     OW19822   3.805   2.489   6.416
 6308SOL    HW119823   3.869   2.413   6.431
 6308SOL    HW219824   3.821   2.560   6.484
 6309SOL     OW19825   6.586   2.366   5.370
 6309SOL    HW119826   6.501   2.418   5.363
 6309SOL    HW219827   6.568   2.269   5.353
 6310SOL     OW19828   0.414   5.727   5.063
 6310SOL    HW119829   0.477   5.760   4.992
 6310SOL    HW219830   0.405   5.797   5.134
 6311SOL     OW19831   6.423   6.947   4.827
 6311SOL    HW119832   6.448   6.988   4.739
 6311SOL    HW219833   6.503   6.945   4.887
 6312SOL     OW19834   5.697   3.860   5.380
 6312SOL    HW119835   5.611   3.835   5.425
 6312SOL    HW219836   5.774   3.833   5.438
 6313SOL     OW19837   2.970   5.815   3.887
 6313SOL    HW119838   2.894   5.879   3.876
 6313SOL    HW219839   2.949   5.731   3.836
 6314SOL     OW19840   0.828   7.019   3.106
 6314SOL    HW119841   0.890   0.037   3.170
 6314SOL    HW219842   0.876   7.002   3.020
 6315SOL     OW19843   1.365   3.936   0.589
 6315SOL    HW119844   1.347   3.838   0.578
 6315SOL    HW219845   1.348   3.983   0.503
 6316SOL     OW19846   4.217   1.307   4.700
 6316SOL    HW119847   4.235   1.276   4.607
 6316SOL    HW219848   4.246   1.236   4.765
 6317SOL     OW19849   6.967   5.838   3.985
 6317SOL    HW119850   6.977   5.931   4.022
 6317SOL    HW219851   6.884   5.797   4.023
 6318SOL     OW19852   1.255   2.829   3.815
 6318SOL    HW119853   1.293   2.806   3.725
 6318SOL    HW219854   1.156   2.822   3.812
 6319SOL     OW19855   1.368   2.136   2.851
 6319SOL    HW119856   1.339   2.056   2.903
 6319SOL    HW219857   1.301   2.155   2.779
 6320SOL     OW19858   0.226   2.022   2.120
 6320SOL    HW119859   0.188   1.950   2.061
 6320SOL    HW219860   0.191   2.111   2.091
 6321SOL     OW19861   2.504   4.202   5.567
 6321SOL    HW119862   2.598   4.205   5.535
 6321SOL    HW219863   2.442   4.201   5.488
 6322SOL     OW19864   2.356   6.679   0.535
 6322SOL    HW119865   2.381   6.653   0.628
 6322SOL    HW219866   2.309   6.767   0.537
 6323SOL     OW19867   4.226   1.860   1.717
 6323SOL    HW119868   4.305   1.802   1.696
 6323SOL    HW219869   4.142   1.808   1.701
 6324SOL     OW19870   3.178   1.622   1.775
 6324SOL    HW119871   3.272   1.593   1.760
 6324SOL    HW219872   3.116   1.547   1.750
 6325SOL     OW19873   2.069   2.979   3.192
 6325SOL    HW119874   1.993   3.008   3.134
 6325SOL    HW219875   2.141   3.048   3.191
 6326SOL     OW19876   4.442   6.166   1.820
 6326SOL    HW119877   4.445   6.150   1.919
 6326SOL    HW219878   4.351   6.142   1.785
 6327SOL     OW19879   4.429   5.187   5.271
 6327SOL    HW119880   4.348   5.215   5.219
 6327SOL    HW219881   4.401   5.161   5.364
 6328SOL     OW19882   2.686   4.360   1.189
 6328SOL    HW119883   2.700   4.441   1.132
 6328SOL    HW219884   2.771   4.309   1.196
 6329SOL     OW19885   0.775   2.241   3.160
 6329SOL    HW119886   0.759   2.336   3.187
 6329SOL    HW219887   0.738   2.226   3.068
 6330SOL     OW19888   3.262   0.447   6.681
 6330SOL    HW119889   3.321   0.367   6.678
 6330SOL    HW219890   3.318   0.530   6.686
 6331SOL     OW19891   5.611   2.460   1.373
 6331SOL    HW119892   5.642   2.539   1.319
 6331SOL    HW219893   5.677   2.441   1.445
 6332SOL     OW19894   3.641   6.354   2.421
 6332SOL    HW119895   3.621   6.292   2.345
 6332SOL    HW219896   3.739   6.354   2.439
 6333SOL     OW19897   2.190   5.687   2.749
 6333SOL    HW119898   2.240   5.643   2.674
 6333SOL    HW219899   2.219   5.782   2.757
 6334SOL     OW19900   2.277   0.158   1.770
 6334SOL    HW119901   2.305   0.082   1.711
 6334SOL    HW219902   2.357   0.197   1.815
 6335SOL     OW19903   6.481   0.404   6.955
 6335SOL    HW119904   6.485   0.478   6.888
 6335SOL    HW219905   6.419   0.430   0.002
 6336SOL     OW19906   1.718   2.706   4.972
 6336SOL    HW119907   1.646   2.652   5.016
 6336SOL    HW219908   1.692   2.803   4.973
 6337SOL     OW19909   0.994   4.055   5.277
 6337SOL    HW119910   1.013   4.133   5.217
 6337SOL    HW219911   1.056   4.059   5.356
 6338SOL     OW19912   3.903   0.941   3.589
 6338SOL    HW119913   3.871   0.849   3.566
 6338SOL    HW219914   3.935   0.988   3.506
 6339SOL     OW19915   6.970   3.316   4.695
 6339SOL    HW119916   7.009   3.267   4.772
 6339SOL    HW219917   6.984   3.263   4.611
 6340SOL     OW19918   3.001   4.939   3.655
 6340SOL    HW119919   3.042   4.941   3.563
 6340SOL    HW219920   3.074   4.942   3.723
 6341SOL     OW19921   5.387   4.714   1.927
 6341SOL    HW119922   5.331   4.668   1.858
 6341SOL    HW219923   5.453   4.649   1.965
 6342SOL     OW19924   0.602   3.761   0.564
 6342SOL    HW119925   0.579   3.791   0.657
 6342SOL    HW219926   0.635   3.840   0.511
 6343SOL     OW19927   3.311   1.419   0.055
 6343SOL    HW119928   3.281   1.445   6.991
 6343SOL    HW219929   3.262   1.474   0.123
 6344SOL     OW19930   5.913   5.180   4.442
 6344SOL    HW119931   6.004   5.138   4.444
 6344SOL    HW219932   5.847   5.113   4.407
 6345SOL     OW19933   1.960   2.289   1.195
 6345SOL    HW119934   2.022   2.220   1.157
 6345SOL    HW219935   1.867   2.272   1.162
 6346SOL     OW19936   1.053   4.759   4.531
 6346SOL    HW119937   1.132   4.765   4.592
 6346SOL    HW219938   1.072   4.811   4.447
 6347SOL     OW19939   3.211   0.128   0.343
 6347SOL    HW119940   3.138   0.145   0.411
 6347SOL    HW219941   3.276   0.062   0.380
 6348SOL     OW19942   0.010   2.258   4.591
 6348SOL    HW119943   6.943   2.233   4.571
 6348SOL    HW219944   0.020   2.276   4.689
 6349SOL     OW19945   0.275   0.687   6.985
 6349SOL    HW119946   0.369   0.719   6.982
 6349SOL    HW219947   0.213   0.765   6.995
 6350SOL     OW19948   6.999   5.191   3.430
 6350SOL    HW119949   0.021   5.115   3.472
 6350SOL    HW219950   0.005   5.277   3.467
 6351SOL     OW19951   6.917   2.165   2.348
 6351SOL    HW119952   6.893   2.074   2.380
 6351SOL    HW219953   6.900   2.232   2.420
 6352SOL     OW19954   6.321   4.569   2.511
 6352SOL    HW119955   6.272   4.603   2.430
 6352SOL    HW219956   6.403   4.520   2.481
 6353SOL     OW19957   6.136   0.183   2.533
 6353SOL    HW119958   6.086   0.182   2.619
 6353SOL    HW219959   6.072   0.170   2.457
 6354SOL     OW19960   6.457   6.728   5.290
 6354SOL    HW119961   6.441   6.824   5.312
 6354SOL    HW219962   6.489   6.680   5.371
 6355SOL     OW19963   0.672   1.621   0.701
 6355SOL    HW119964   0.620   1.661   0.777
 6355SOL    HW219965   0.769   1.646   0.709
 6356SOL     OW19966   3.367   3.632   1.321
 6356SOL    HW119967   3.421   3.614   1.239
 6356SOL    HW219968   3.422   3.685   1.386
 6357SOL     OW19969   4.379   1.867   1.431
 6357SOL    HW119970   4.459   1.903   1.384
 6357SOL    HW219971   4.318   1.942   1.457
 6358SOL     OW19972   1.379   3.146   5.405
 6358SOL    HW119973   1.395   3.099   5.318
 6358SOL    HW219974   1.450   3.121   5.470
 6359SOL     OW19975   0.559   6.694   6.242
 6359SOL    HW119976   0.477   6.735   6.203
 6359SOL    HW219977   0.639   6.726   6.191
 6360SOL     OW19978   2.309   5.018   4.158
 6360SOL    HW119979   2.262   5.063   4.233
 6360SOL    HW219980   2.393   4.975   4.192
 6361SOL     OW19981   2.821   5.648   5.379
 6361SOL    HW119982   2.768   5.731   5.359
 6361SOL    HW219983   2.848   5.649   5.476
 6362SOL     OW19984   6.742   4.552   6.009
 6362SOL    HW119985   6.722   4.624   6.075
 6362SOL    HW219986   6.815   4.493   6.045
 6363SOL     OW19987   0.584   5.615   3.247
 6363SOL    HW119988   0.549   5.652   3.333
 6363SOL    HW219989   0.595   5.689   3.181
 6364SOL     OW19990   2.556   1.353   6.855
 6364SOL    HW119991   2.571   1.357   6.756
 6364SOL    HW219992   2.630   1.402   6.901
 6365SOL     OW19993   3.819   6.048   2.188
 6365SOL    HW119994   3.869   6.024   2.105
 6365SOL    HW219995   3.849   5.989   2.263
 6366SOL     OW19996   0.787   3.664   5.368
 6366SOL    HW119997   0.877   3.683   5.406
 6366SOL    HW219998   0.797   3.641   5.271
 6367SOL     OW19999   5.313   5.226   2.041
 6367SOL    HW120000   5.366   5.145   2.016
 6367SOL    HW220001   5.349   5.263   2.127
 6368SOL     OW20002   2.575   1.618   1.914
 6368SOL    HW120003   2.666   1.657   1.928
 6368SOL    HW220004   2.574   1.564   1.830
 6369SOL     OW20005   2.427   5.927   5.023
 6369SOL    HW120006   2.408   5.955   5.117
 6369SOL    HW220007   2.359   5.860   4.994
 6370SOL     OW20008   5.006   2.434   2.339
 6370SOL    HW120009   5.075   2.374   2.381
 6370SOL    HW220010   5.042   2.527   2.332
 6371SOL     OW20011   4.123   1.962   3.551
 6371SOL    HW120012   4.185   1.887   3.528
 6371SOL    HW220013   4.078   1.942   3.638
 6372SOL     OW20014   2.967   0.448   2.456
 6372SOL    HW120015   3.021   0.366   2.437
 6372SOL    HW220016   2.873   0.433   2.426
 6373SOL     OW20017   3.504   4.811   6.985
 6373SOL    HW120018   3.554   4.897   6.979
 6373SOL    HW220019   3.434   4.819   0.029
 6374SOL     OW20020   2.939   3.336   4.745
 6374SOL    HW120021   2.890   3.328   4.832
 6374SOL    HW220022   3.020   3.277   4.747
 6375SOL     OW20023   2.062   5.929   1.668
 6375SOL    HW120024   2.158   5.923   1.696
 6375SOL    HW220025   2.006   5.949   1.748
 6376SOL     OW20026   1.576   0.719   5.421
 6376SOL    HW120027   1.625   0.737   5.336
 6376SOL    HW220028   1.480   0.745   5.410
 6377SOL     OW20029   0.388   2.343   3.619
 6377SOL    HW120030   0.419   2.415   3.681
 6377SOL    HW220031   0.410   2.368   3.525
 6378SOL     OW20032   4.175   5.595   3.927
 6378SOL    HW120033   4.112   5.601   3.850
 6378SOL    HW220034   4.269   5.587   3.893
 6379SOL     OW20035   1.955   4.149   1.834
 6379SOL    HW120036   2.004   4.180   1.752
 6379SOL    HW220037   2.020   4.104   1.896
 6380SOL     OW20038   0.393   0.491   6.192
 6380SOL    HW120039   0.357   0.398   6.201
 6380SOL    HW220040   0.439   0.500   6.104
 6381SOL     OW20041   3.692   3.383   3.496
 6381SOL    HW120042   3.669   3.340   3.584
 6381SOL    HW220043   3.709   3.480   3.510
 6382SOL     OW20044   1.278   4.372   5.172
 6382SOL    HW120045   1.267   4.427   5.255
 6382SOL    HW220046   1.358   4.403   5.122
 6383SOL     OW20047   4.068   1.844   4.117
 6383SOL    HW120048   4.154   1.798   4.141
 6383SOL    HW220049   4.062   1.931   4.165
 6384SOL     OW20050   6.879   4.577   2.199
 6384SOL    HW120051   6.891   4.658   2.257
 6384SOL    HW220052   6.828   4.603   2.117
 6385SOL     OW20053   0.958   5.316   4.989
 6385SOL    HW120054   0.938   5.408   4.957
 6385SOL    HW220055   0.948   5.251   4.913
 6386SOL     OW20056   2.555   5.614   2.894
 6386SOL    HW120057   2.646   5.606   2.853
 6386SOL    HW220058   2.493   5.549   2.850
 6387SOL     OW20059   5.387   1.889   5.262
 6387SOL    HW120060   5.317   1.928   5.322
 6387SOL    HW220061   5.428   1.962   5.207
 6388SOL     OW20062   2.315   5.476   1.639
 6388SOL    HW120063   2.395   5.429   1.675
 6388SOL    HW220064   2.269   5.526   1.713
 6389SOL     OW20065   1.741   3.798   0.779
 6389SOL    HW120066   1.680   3.871   0.810
 6389SOL    HW220067   1.833   3.835   0.766
 6390SOL     OW20068   0.665   3.715   4.899
 6390SOL    HW120069   0.742   3.693   4.838
 6390SOL    HW220070   0.701   3.749   4.986
 6391SOL     OW20071   4.350   0.601   0.348
 6391SOL    HW120072   4.373   0.672   0.414
 6391SOL    HW220073   4.419   0.600   0.275
 6392SOL     OW20074   1.344   6.191   4.442
 6392SOL    HW120075   1.287   6.252   4.496
 6392SOL    HW220076   1.334   6.097   4.476
 6393SOL     OW20077   5.265   1.599   6.469
 6393SOL    HW120078   5.301   1.534   6.402
 6393SOL    HW220079   5.165   1.594   6.470
 6394SOL     OW20080   3.699   5.462   2.627
 6394SOL    HW120081   3.701   5.397   2.702
 6394SOL    HW220082   3.742   5.548   2.657
 6395SOL     OW20083   5.529   1.496   0.324
 6395SOL    HW120084   5.536   1.556   0.245
 6395SOL    HW220085   5.467   1.421   0.304
 6396SOL     OW20086   6.400   2.187   6.374
 6396SOL    HW120087   6.364   2.241   6.297
 6396SOL    HW220088   6.476   2.237   6.416
 6397SOL     OW20089   0.399   0.252   0.126
 6397SOL    HW120090   0.332   0.191   0.085
 6397SOL    HW220091   0.482   0.254   0.069
 6398SOL     OW20092   4.636   1.053   1.742
 6398SOL    HW120093   4.716   1.000   1.768
 6398SOL    HW220094   4.610   1.114   1.817
 6399SOL     OW20095   0.518   6.774   6.496
 6399SOL    HW120096   0.532   6.724   6.581
 6399SOL    HW220097   0.597   6.760   6.436
 6400SOL     OW20098   3.276   5.273   4.378
 6400SOL    HW120099   3.227   5.276   4.465
 6400SOL    HW220100   3.277   5.364   4.336
 6401SOL     OW20101   6.703   5.181   5.679
 6401SOL    HW120102   6.717   5.085   5.705
 6401SOL    HW220103   6.792   5.227   5.676
 6402SOL     OW20104   1.955   3.980   2.812
 6402SOL    HW120105   1.949   3.906   2.745
 6402SOL    HW220106   2.030   4.042   2.788
 6403SOL     OW20107   0.390   6.297   1.863
 6403SOL    HW120108   0.434   6.323   1.777
 6403SOL    HW220109   0.418   6.205   1.888
 6404SOL     OW20110   5.270   0.777   2.055
 6404SOL    HW120111   5.235   0.685   2.038
 6404SOL    HW220112   5.194   0.840   2.072
 6405SOL     OW20113   3.840   5.946   1.705
 6405SOL    HW120114   3.899   5.903   1.637
 6405SOL    HW220115   3.793   5.876   1.758
 6406SOL     OW20116   2.593   2.480   3.467
 6406SOL    HW120117   2.561   2.568   3.431
 6406SOL    HW220118   2.630   2.425   3.393
 6407SOL     OW20119   5.247   6.164   0.515
 6407SOL    HW120120   5.326   6.121   0.560
 6407SOL    HW220121   5.229   6.117   0.429
 6408SOL     OW20122   6.673   1.805   1.094
 6408SOL    HW120123   6.585   1.830   1.054
 6408SOL    HW220124   6.671   1.709   1.121
 6409SOL     OW20125   0.626   4.880   1.581
 6409SOL    HW120126   0.670   4.804   1.628
 6409SOL    HW220127   0.577   4.937   1.648
 6410SOL     OW20128   6.602   6.638   0.741
 6410SOL    HW120129   6.504   6.618   0.739
 6410SOL    HW220130   6.617   6.737   0.743
 6411SOL     OW20131   1.430   1.467   3.122
 6411SOL    HW120132   1.458   1.420   3.206
 6411SOL    HW220133   1.393   1.400   3.057
 6412SOL     OW20134   6.187   2.664   5.149
 6412SOL    HW120135   6.178   2.750   5.200
 6412SOL    HW220136   6.185   2.588   5.214
 6413SOL     OW20137   0.184   5.638   0.970
 6413SOL    HW120138   0.177   5.705   0.895
 6413SOL    HW220139   0.187   5.687   1.057
 6414SOL     OW20140   6.408   0.559   3.413
 6414SOL    HW120141   6.392   0.534   3.508
 6414SOL    HW220142   6.447   0.481   3.364
 6415SOL     OW20143   1.310   1.596   2.416
 6415SOL    HW120144   1.212   1.597   2.392
 6415SOL    HW220145   1.360   1.546   2.345
 6416SOL     OW20146   2.777   6.065   6.369
 6416SOL    HW120147   2.702   6.013   6.328
 6416SOL    HW220148   2.740   6.131   6.435
 6417SOL     OW20149   0.052   6.826   4.074
 6417SOL    HW120150   0.115   6.849   4.000
 6417SOL    HW220151   7.006   6.769   4.039
 6418SOL     OW20152   6.303   5.346   2.016
 6418SOL    HW120153   6.358   5.383   1.941
 6418SOL    HW220154   6.229   5.290   1.978
 6419SOL     OW20155   3.299   2.393   1.163
 6419SOL    HW120156   3.305   2.422   1.068
 6419SOL    HW220157   3.277   2.296   1.167
 6420SOL     OW20158   0.601   1.599   0.184
 6420SOL    HW120159   0.648   1.687   0.189
 6420SOL    HW220160   0.630   1.541   0.261
 6421SOL     OW20161   5.845   2.013   0.676
 6421SOL    HW120162   5.793   2.087   0.719
 6421SOL    HW220163   5.794   1.927   0.683
 6422SOL     OW20164   5.807   2.752   2.873
 6422SOL    HW120165   5.819   2.719   2.779
 6422SOL    HW220166   5.895   2.779   2.911
 6423SOL     OW20167   5.728   3.617   0.512
 6423SOL    HW120168   5.682   3.697   0.473
 6423SOL    HW220169   5.808   3.594   0.456
 6424SOL     OW20170   6.616   3.775   5.090
 6424SOL    HW120171   6.522   3.809   5.087
 6424SOL    HW220172   6.679   3.849   5.070
 6425SOL     OW20173   0.992   5.563   1.357
 6425SOL    HW120174   0.983   5.521   1.267
 6425SOL    HW220175   0.997   5.663   1.346
 6426SOL     OW20176   6.748   4.264   3.655
 6426SOL    HW120177   6.845   4.282   3.672
 6426SOL    HW220178   6.739   4.193   3.585
 6427SOL     OW20179   1.201   3.463   5.387
 6427SOL    HW120180   1.277   3.399   5.381
 6427SOL    HW220181   1.204   3.511   5.475
 6428SOL     OW20182   6.608   3.844   5.674
 6428SOL    HW120183   6.635   3.844   5.577
 6428SOL    HW220184   6.537   3.913   5.688
 6429SOL     OW20185   2.109   6.459   4.730
 6429SOL    HW120186   2.119   6.557   4.749
 6429SOL    HW220187   2.060   6.416   4.806
 6430SOL     OW20188   6.350   3.565   6.589
 6430SOL    HW120189   6.403   3.629   6.644
 6430SOL    HW220190   6.333   3.605   6.499
 6431SOL     OW20191   5.183   1.789   2.003
 6431SOL    HW120192   5.276   1.815   2.029
 6431SOL    HW220193   5.126   1.783   2.085
 6432SOL     OW20194   6.269   3.584   0.891
 6432SOL    HW120195   6.278   3.654   0.963
 6432SOL    HW220196   6.324   3.612   0.811
 6433SOL     OW20197   2.175   3.337   1.697
 6433SOL    HW120198   2.211   3.357   1.606
 6433SOL    HW220199   2.241   3.367   1.766
 6434SOL     OW20200   1.794   6.420   0.519
 6434SOL    HW120201   1.812   6.488   0.448
 6434SOL    HW220202   1.844   6.336   0.497
 6435SOL     OW20203   6.137   3.492   0.624
 6435SOL    HW120204   6.108   3.493   0.529
 6435SOL    HW220205   6.059   3.510   0.683
 6436SOL     OW20206   2.736   2.004   0.425
 6436SOL    HW120207   2.679   1.965   0.498
 6436SOL    HW220208   2.818   2.045   0.465
 6437SOL     OW20209   6.637   0.675   2.133
 6437SOL    HW120210   6.583   0.611   2.079
 6437SOL    HW220211   6.607   0.769   2.113
 6438SOL     OW20212   0.824   4.067   4.539
 6438SOL    HW120213   0.808   4.115   4.453
 6438SOL    HW220214   0.905   4.104   4.584
 6439SOL     OW20215   0.499   5.550   2.273
 6439SOL    HW120216   0.516   5.468   2.328
 6439SOL    HW220217   0.497   5.525   2.177
 6440SOL     OW20218   0.444   0.319   2.080
 6440SOL    HW120219   0.473   0.379   2.006
 6440SOL    HW220220   0.401   0.237   2.042
 6441SOL     OW20221   5.530   2.400   3.175
 6441SOL    HW120222   5.467   2.451   3.234
 6441SOL    HW220223   5.589   2.463   3.126
 6442SOL     OW20224   1.415   1.929   3.670
 6442SOL    HW120225   1.334   1.982   3.649
 6442SOL    HW220226   1.495   1.989   3.672
 6443SOL     OW20227   2.570   0.962   0.792
 6443SOL    HW120228   2.530   0.977   0.882
 6443SOL    HW220229   2.503   0.917   0.733
 6444SOL     OW20230   0.346   1.809   2.944
 6444SOL    HW120231   0.316   1.753   3.021
 6444SOL    HW220232   0.266   1.852   2.902
 6445SOL     OW20233   3.699   4.196   6.491
 6445SOL    HW120234   3.723   4.290   6.512
 6445SOL    HW220235   3.646   4.193   6.406
 6446SOL     OW20236   0.292   0.920   1.308
 6446SOL    HW120237   0.278   0.834   1.259
 6446SOL    HW220238   0.241   0.993   1.264
 6447SOL     OW20239   2.078   1.492   3.586
 6447SOL    HW120240   2.105   1.498   3.682
 6447SOL    HW220241   1.995   1.547   3.572
 6448SOL     OW20242   5.941   2.081   1.746
 6448SOL    HW120243   5.911   2.163   1.796
 6448SOL    HW220244   6.000   2.109   1.670
 6449SOL     OW20245   4.217   2.419   0.193
 6449SOL    HW120246   4.262   2.397   0.106
 6449SOL    HW220247   4.261   2.368   0.267
 6450SOL     OW20248   6.859   1.783   0.768
 6450SOL    HW120249   6.955   1.812   0.774
 6450SOL    HW220250   6.821   1.776   0.860
 6451SOL     OW20251   3.511   6.519   4.892
 6451SOL    HW120252   3.435   6.463   4.925
 6451SOL    HW220253   3.483   6.568   4.810
 6452SOL     OW20254   3.522   5.982   4.900
 6452SOL    HW120255   3.592   6.049   4.876
 6452SOL    HW220256   3.503   5.988   4.998
 6453SOL     OW20257   2.724   5.120   0.070
 6453SOL    HW120258   2.725   5.045   0.136
 6453SOL    HW220259   2.683   5.201   0.112
 6454SOL     OW20260   4.063   0.940   5.263
 6454SOL    HW120261   4.155   0.910   5.239
 6454SOL    HW220262   4.058   1.040   5.259
 6455SOL     OW20263   5.844   3.311   0.184
 6455SOL    HW120264   5.881   3.250   0.114
 6455SOL    HW220265   5.802   3.391   0.139
 6456SOL     OW20266   6.910   2.041   4.308
 6456SOL    HW120267   6.911   2.026   4.407
 6456SOL    HW220268   6.816   2.056   4.278
 6457SOL     OW20269   5.687   3.389   1.014
 6457SOL    HW120270   5.621   3.455   1.050
 6457SOL    HW220271   5.647   3.341   0.936
 6458SOL     OW20272   0.905   5.780   4.077
 6458SOL    HW120273   0.832   5.718   4.048
 6458SOL    HW220274   0.977   5.727   4.122
 6459SOL     OW20275   6.054   3.859   0.282
 6459SOL    HW120276   6.024   3.941   0.235
 6459SOL    HW220277   6.022   3.861   0.377
 6460SOL     OW20278   3.923   5.524   2.071
 6460SOL    HW120279   4.001   5.583   2.053
 6460SOL    HW220280   3.895   5.479   1.986
 6461SOL     OW20281   3.459   5.545   4.019
 6461SOL    HW120282   3.392   5.533   3.945
 6461SOL    HW220283   3.450   5.637   4.057
 6462SOL     OW20284   2.248   4.666   3.061
 6462SOL    HW120285   2.282   4.619   2.980
 6462SOL    HW220286   2.159   4.630   3.087
 6463SOL     OW20287   2.523   3.284   5.672
 6463SOL    HW120288   2.500   3.190   5.646
 6463SOL    HW220289   2.453   3.319   5.735
 6464SOL     OW20290   1.062   5.754   1.911
 6464SOL    HW120291   1.042   5.679   1.975
 6464SOL    HW220292   1.088   5.715   1.822
 6465SOL     OW20293   5.877   6.940   3.207
 6465SOL    HW120294   5.871   6.888   3.292
 6465SOL    HW220295   5.928   7.025   3.223
 6466SOL     OW20296   6.635   3.168   4.686
 6466SOL    HW120297   6.633   3.160   4.586
 6466SOL    HW220298   6.667   3.259   4.712
 6467SOL     OW20299   3.737   0.540   5.815
 6467SOL    HW120300   3.801   0.581   5.880
 6467SOL    HW220301   3.764   0.446   5.797
 6468SOL     OW20302   6.160   4.884   2.625
 6468SOL    HW120303   6.251   4.861   2.660
 6468SOL    HW220304   6.157   4.865   2.527
 6469SOL     OW20305   0.044   3.179   5.901
 6469SOL    HW120306   0.029   3.132   5.815
 6469SOL    HW220307   7.026   3.269   5.899
 6470SOL     OW20308   6.565   6.540   4.834
 6470SOL    HW120309   6.527   6.602   4.902
 6470SOL    HW220310   6.498   6.524   4.761
 6471SOL     OW20311   6.677   6.044   5.242
 6471SOL    HW120312   6.594   5.999   5.210
 6471SOL    HW220313   6.669   6.064   5.339
 6472SOL     OW20314   1.565   0.069   1.762
 6472SOL    HW120315   1.500   0.006   1.720
 6472SOL    HW220316   1.634   0.095   1.695
 6473SOL     OW20317   2.123   1.607   5.712
 6473SOL    HW120318   2.184   1.530   5.728
 6473SOL    HW220319   2.081   1.600   5.622
 6474SOL     OW20320   1.468   2.628   6.809
 6474SOL    HW120321   1.460   2.721   6.774
 6474SOL    HW220322   1.405   2.616   6.886
 6475SOL     OW20323   4.445   4.935   3.746
 6475SOL    HW120324   4.427   4.946   3.648
 6475SOL    HW220325   4.383   4.865   3.783
 6476SOL     OW20326   4.878   6.326   2.835
 6476SOL    HW120327   4.794   6.306   2.885
 6476SOL    HW220328   4.862   6.404   2.774
 6477SOL     OW20329   6.609   5.730   0.133
 6477SOL    HW120330   6.621   5.789   0.053
 6477SOL    HW220331   6.615   5.634   0.105
 6478SOL     OW20332   4.522   6.059   0.517
 6478SOL    HW120333   4.477   6.132   0.466
 6478SOL    HW220334   4.497   6.065   0.613
 6479SOL     OW20335   2.841   6.143   2.323
 6479SOL    HW120336   2.764   6.197   2.357
 6479SOL    HW220337   2.871   6.079   2.394
 6480SOL     OW20338   2.760   1.546   0.695
 6480SOL    HW120339   2.759   1.457   0.741
 6480SOL    HW220340   2.850   1.588   0.706
 6481SOL     OW20341   4.362   0.447   0.571
 6481SOL    HW120342   4.361   0.521   0.503
 6481SOL    HW220343   4.431   0.467   0.641
 6482SOL     OW20344   7.015   6.923   5.419
 6482SOL    HW120345   0.067   6.886   5.467
 6482SOL    HW220346   7.013   7.022   5.431
 6483SOL     OW20347   1.761   5.418   1.045
 6483SOL    HW120348   1.761   5.471   0.960
 6483SOL    HW220349   1.677   5.438   1.096
 6484SOL     OW20350   3.828   0.176   2.358
 6484SOL    HW120351   3.840   0.216   2.449
 6484SOL    HW220352   3.783   0.243   2.298
 6485SOL     OW20353   6.809   2.580   2.073
 6485SOL    HW120354   6.831   2.483   2.080
 6485SOL    HW220355   6.875   2.625   2.012
 6486SOL     OW20356   1.531   2.773   3.061
 6486SOL    HW120357   1.601   2.790   3.130
 6486SOL    HW220358   1.446   2.820   3.086
 6487SOL     OW20359   6.869   5.220   2.522
 6487SOL    HW120360   6.801   5.282   2.483
 6487SOL    HW220361   6.843   5.197   2.616
 6488SOL     OW20362   3.702   5.414   3.921
 6488SOL    HW120363   3.625   5.462   3.963
 6488SOL    HW220364   3.714   5.325   3.966
 6489SOL     OW20365   2.763   1.099   6.647
 6489SOL    HW120366   2.777   1.081   6.744
 6489SOL    HW220367   2.817   1.179   6.620
 6490SOL     OW20368   3.965   0.908   6.853
 6490SOL    HW120369   3.880   0.858   6.869
 6490SOL    HW220370   3.952   1.004   6.878
 6491SOL     OW20371   4.860   0.752   5.951
 6491SOL    HW120372   4.820   0.735   5.861
 6491SOL    HW220373   4.919   0.832   5.947
 6492SOL     OW20374   5.523   4.777   6.390
 6492SOL    HW120375   5.458   4.852   6.383
 6492SOL    HW220376   5.561   4.758   6.299
 6493SOL     OW20377   6.934   6.038   5.186
 6493SOL    HW120378   6.979   5.955   5.219
 6493SOL    HW220379   6.839   6.039   5.217
 6494SOL     OW20380   0.040   2.819   3.217
 6494SOL    HW120381   0.117   2.879   3.239
 6494SOL    HW220382   0.057   2.728   3.256
 6495SOL     OW20383   5.175   4.834   2.217
 6495SOL    HW120384   5.192   4.777   2.297
 6495SOL    HW220385   5.092   4.804   2.171
 6496SOL     OW20386   6.948   7.022   3.504
 6496SOL    HW120387   6.958   6.969   3.419
 6496SOL    HW220388   6.906   0.083   3.483
 6497SOL     OW20389   0.970   0.959   1.057
 6497SOL    HW120390   1.062   0.952   1.094
 6497SOL    HW220391   0.909   0.999   1.126
 6498SOL     OW20392   1.249   3.378   4.562
 6498SOL    HW120393   1.252   3.279   4.549
 6498SOL    HW220394   1.317   3.421   4.502
 6499SOL     OW20395   5.902   2.086   3.096
 6499SOL    HW120396   5.949   2.002   3.069
 6499SOL    HW220397   5.824   2.103   3.036
 6500SOL     OW20398   5.153   5.016   1.836
 6500SOL    HW120399   5.223   4.990   1.902
 6500SOL    HW220400   5.153   5.116   1.825
 6501SOL     OW20401   6.759   4.250   0.602
 6501SOL    HW120402   6.696   4.327   0.598
 6501SOL    HW220403   6.730   4.188   0.675
 6502SOL     OW20404   0.540   4.756   2.153
 6502SOL    HW120405   0.605   4.697   2.106
 6502SOL    HW220406   0.450   4.712   2.155
 6503SOL     OW20407   4.246   0.681   3.774
 6503SOL    HW120408   4.252   0.737   3.692
 6503SOL    HW220409   4.288   0.591   3.756
 6504SOL     OW20410   2.280   2.190   0.534
 6504SOL    HW120411   2.236   2.248   0.602
 6504SOL    HW220412   2.254   2.220   0.442
 6505SOL     OW20413   5.560   5.094   1.028
 6505SOL    HW120414   5.649   5.132   1.003
 6505SOL    HW220415   5.561   5.071   1.126
 6506SOL     OW20416   1.913   1.675   1.711
 6506SOL    HW120417   2.002   1.695   1.750
 6506SOL    HW220418   1.924   1.644   1.616
 6507SOL     OW20419   2.716   0.362   1.661
 6507SOL    HW120420   2.624   0.368   1.621
 6507SOL    HW220421   2.784   0.381   1.590
 6508SOL     OW20422   1.293   3.168   1.785
 6508SOL    HW120423   1.229   3.094   1.804
 6508SOL    HW220424   1.294   3.232   1.862
 6509SOL     OW20425   0.792   3.035   3.915
 6509SOL    HW120426   0.770   3.131   3.897
 6509SOL    HW220427   0.862   3.030   3.986
 6510SOL     OW20428   6.367   3.927   6.937
 6510SOL    HW120429   6.270   3.917   6.913
 6510SOL    HW220430   6.389   3.868   7.015
 6511SOL     OW20431   6.942   6.596   6.067
 6511SOL    HW120432   6.954   6.529   6.140
 6511SOL    HW220433   7.012   6.582   5.997
 6512SOL     OW20434   5.019   6.790   4.351
 6512SOL    HW120435   5.098   6.796   4.412
 6512SOL    HW220436   4.936   6.782   4.405
 6513SOL     OW20437   1.269   6.979   3.498
 6513SOL    HW120438   1.222   6.950   3.414
 6513SOL    HW220439   1.327   0.030   3.478
 6514SOL     OW20440   2.846   0.783   4.243
 6514SOL    HW120441   2.837   0.749   4.337
 6514SOL    HW220442   2.755   0.800   4.205
 6515SOL     OW20443   1.675   1.493   3.485
 6515SOL    HW120444   1.579   1.503   3.511
 6515SOL    HW220445   1.690   1.535   3.396
 6516SOL     OW20446   2.377   1.804   5.689
 6516SOL    HW120447   2.319   1.738   5.735
 6516SOL    HW220448   2.347   1.816   5.594
 6517SOL     OW20449   3.158   2.088   1.424
 6517SOL    HW120450   3.239   2.085   1.483
 6517SOL    HW220451   3.090   2.149   1.465
 6518SOL     OW20452   5.002   6.196   1.607
 6518SOL    HW120453   5.049   6.159   1.687
 6518SOL    HW220454   4.915   6.236   1.635
 6519SOL     OW20455   0.278   1.812   4.104
 6519SOL    HW120456   0.348   1.883   4.106
 6519SOL    HW220457   0.189   1.852   4.127
 6520SOL     OW20458   6.114   4.973   1.302
 6520SOL    HW120459   6.058   4.941   1.226
 6520SOL    HW220460   6.176   5.044   1.270
 6521SOL     OW20461   1.221   1.977   5.994
 6521SOL    HW120462   1.218   1.900   6.058
 6521SOL    HW220463   1.166   2.052   6.031
 6522SOL     OW20464   2.553   4.889   4.204
 6522SOL    HW120465   2.616   4.828   4.155
 6522SOL    HW220466   2.604   4.947   4.267
 6523SOL     OW20467   2.441   2.126   1.317
 6523SOL    HW120468   2.397   2.162   1.235
 6523SOL    HW220469   2.517   2.066   1.291
 6524SOL     OW20470   4.206   2.195   5.363
 6524SOL    HW120471   4.120   2.166   5.322
 6524SOL    HW220472   4.255   2.116   5.400
 6525SOL     OW20473   0.517   2.308   4.768
 6525SOL    HW120474   0.558   2.304   4.677
 6525SOL    HW220475   0.582   2.349   4.832
 6526SOL     OW20476   1.764   6.562   3.238
 6526SOL    HW120477   1.664   6.556   3.241
 6526SOL    HW220478   1.803   6.473   3.262
 6527SOL     OW20479   2.065   1.075   4.563
 6527SOL    HW120480   2.148   1.109   4.609
 6527SOL    HW220481   2.091   1.010   4.492
 6528SOL     OW20482   6.669   0.414   2.886
 6528SOL    HW120483   6.672   0.388   2.789
 6528SOL    HW220484   6.648   0.511   2.894
 6529SOL     OW20485   6.354   3.391   2.188
 6529SOL    HW120486   6.337   3.306   2.239
 6529SOL    HW220487   6.267   3.438   2.171
 6530SOL     OW20488   0.105   0.992   0.541
 6530SOL    HW120489   0.204   0.974   0.547
 6530SOL    HW220490   0.082   1.020   0.448
 6531SOL     OW20491   5.183   2.064   5.949
 6531SOL    HW120492   5.085   2.046   5.936
 6531SOL    HW220493   5.225   2.078   5.859
 6532SOL     OW20494   2.082   1.158   6.820
 6532SOL    HW120495   2.015   1.119   6.757
 6532SOL    HW220496   2.035   1.190   6.902
 6533SOL     OW20497   5.476   0.520   6.923
 6533SOL    HW120498   5.504   0.599   6.979
 6533SOL    HW220499   5.538   0.510   6.845
 6534SOL     OW20500   4.068   2.063   6.923
 6534SOL    HW120501   4.041   1.967   6.928
 6534SOL    HW220502   4.046   2.108   7.010
 6535SOL     OW20503   1.803   1.906   4.343
 6535SOL    HW120504   1.760   1.936   4.258
 6535SOL    HW220505   1.833   1.811   4.334
 6536SOL     OW20506   0.444   1.667   0.866
 6536SOL    HW120507   0.369   1.679   0.801
 6536SOL    HW220508   0.434   1.579   0.913
 6537SOL     OW20509   6.832   0.847   5.775
 6537SOL    HW120510   6.931   0.838   5.771
 6537SOL    HW220511   6.792   0.832   5.685
 6538SOL     OW20512   3.234   2.308   5.873
 6538SOL    HW120513   3.293   2.258   5.935
 6538SOL    HW220514   3.228   2.403   5.902
 6539SOL     OW20515   3.263   1.127   6.840
 6539SOL    HW120516   3.175   1.157   6.876
 6539SOL    HW220517   3.336   1.155   6.903
 6540SOL     OW20518   3.746   2.057   3.588
 6540SOL    HW120519   3.747   1.970   3.539
 6540SOL    HW220520   3.704   2.127   3.530
 6541SOL     OW20521   3.262   1.834   5.211
 6541SOL    HW120522   3.330   1.892   5.256
 6541SOL    HW220523   3.214   1.887   5.141
 6542SOL     OW20524   4.274   4.954   2.492
 6542SOL    HW120525   4.244   4.865   2.456
 6542SOL    HW220526   4.359   4.981   2.446
 6543SOL     OW20527   1.383   6.367   5.990
 6543SOL    HW120528   1.432   6.288   5.954
 6543SOL    HW220529   1.303   6.387   5.933
 6544SOL     OW20530   0.966   4.937   2.753
 6544SOL    HW120531   0.926   4.875   2.685
 6544SOL    HW220532   1.057   4.906   2.778
 6545SOL     OW20533   6.248   2.571   6.866
 6545SOL    HW120534   6.293   2.483   6.881
 6545SOL    HW220535   6.289   2.616   6.787
 6546SOL     OW20536   3.262   4.730   6.505
 6546SOL    HW120537   3.334   4.721   6.436
 6546SOL    HW220538   3.258   4.646   6.559
 6547SOL     OW20539   4.405   1.019   6.283
 6547SOL    HW120540   4.326   0.959   6.268
 6547SOL    HW220541   4.481   0.988   6.226
 6548SOL     OW20542   4.483   3.742   5.511
 6548SOL    HW120543   4.434   3.753   5.425
 6548SOL    HW220544   4.547   3.665   5.503
 6549SOL     OW20545   2.473   1.896   2.180
 6549SOL    HW120546   2.495   1.974   2.238
 6549SOL    HW220547   2.551   1.874   2.121
 6550SOL     OW20548   0.777   6.100   2.169
 6550SOL    HW120549   0.686   6.060   2.184
 6550SOL    HW220550   0.827   6.044   2.102
 6551SOL     OW20551   3.396   5.336   2.088
 6551SOL    HW120552   3.342   5.313   2.008
 6551SOL    HW220553   3.422   5.433   2.084
 6552SOL     OW20554   4.991   5.067   6.150
 6552SOL    HW120555   5.009   5.029   6.241
 6552SOL    HW220556   5.076   5.067   6.096
 6553SOL     OW20557   6.374   3.559   2.845
 6553SOL    HW120558   6.391   3.531   2.750
 6553SOL    HW220559   6.300   3.626   2.848
 6554SOL     OW20560   6.627   3.258   4.394
 6554SOL    HW120561   6.695   3.263   4.321
 6554SOL    HW220562   6.602   3.350   4.423
 6555SOL     OW20563   0.622   1.027   1.142
 6555SOL    HW120564   0.568   1.109   1.161
 6555SOL    HW220565   0.686   1.011   1.217
 6556SOL     OW20566   2.328   7.007   3.005
 6556SOL    HW120567   2.417   7.017   3.049
 6556SOL    HW220568   2.323   0.040   2.926
 6557SOL     OW20569   4.757   6.276   0.590
 6557SOL    HW120570   4.664   6.262   0.556
 6557SOL    HW220571   4.816   6.309   0.516
 6558SOL     OW20572   5.665   6.609   6.140
 6558SOL    HW120573   5.671   6.591   6.042
 6558SOL    HW220574   5.611   6.692   6.156
 6559SOL     OW20575   3.231   3.979   1.234
 6559SOL    HW120576   3.295   3.938   1.169
 6559SOL    HW220577   3.152   3.919   1.245
 6560SOL     OW20578   4.533   1.891   0.964
 6560SOL    HW120579   4.569   1.892   1.057
 6560SOL    HW220580   4.435   1.909   0.966
 6561SOL     OW20581   3.024   3.126   4.487
 6561SOL    HW120582   2.933   3.093   4.513
 6561SOL    HW220583   3.087   3.113   4.563
 6562SOL     OW20584   6.983   4.560   4.826
 6562SOL    HW120585   0.054   4.544   4.835
 6562SOL    HW220586   6.957   4.549   4.730
 6563SOL     OW20587   0.865   6.130   2.436
 6563SOL    HW120588   0.809   6.110   2.356
 6563SOL    HW220589   0.958   6.095   2.421
 6564SOL     OW20590   2.009   5.082   2.875
 6564SOL    HW120591   1.983   4.985   2.879
 6564SOL    HW220592   1.928   5.137   2.853
 6565SOL     OW20593   0.096   4.001   5.872
 6565SOL    HW120594   0.176   4.060   5.882
 6565SOL    HW220595   0.124   3.915   5.828
 6566SOL     OW20596   4.319   1.081   0.700
 6566SOL    HW120597   4.409   1.124   0.704
 6566SOL    HW220598   4.329   0.983   0.682
 6567SOL     OW20599   6.902   2.121   0.547
 6567SOL    HW120600   6.829   2.090   0.488
 6567SOL    HW220601   6.901   2.070   0.633
 6568SOL     OW20602   5.504   3.076   1.597
 6568SOL    HW120603   5.495   3.164   1.644
 6568SOL    HW220604   5.570   3.085   1.522
 6569SOL     OW20605   1.029   4.978   5.790
 6569SOL    HW120606   1.018   4.879   5.778
 6569SOL    HW220607   1.121   4.997   5.823
 6570SOL     OW20608   0.944   3.875   1.945
 6570SOL    HW120609   0.961   3.946   1.877
 6570SOL    HW220610   0.936   3.786   1.900
 6571SOL     OW20611   2.558   5.477   4.618
 6571SOL    HW120612   2.623   5.531   4.564
 6571SOL    HW220613   2.465   5.496   4.588
 6572SOL     OW20614   1.347   3.166   5.734
 6572SOL    HW120615   1.347   3.262   5.703
 6572SOL    HW220616   1.427   3.119   5.697
 6573SOL     OW20617   1.167   2.235   1.310
 6573SOL    HW120618   1.193   2.213   1.216
 6573SOL    HW220619   1.139   2.151   1.357
 6574SOL     OW20620   2.144   4.713   4.437
 6574SOL    HW120621   2.086   4.751   4.365
 6574SOL    HW220622   2.235   4.692   4.399
 6575SOL     OW20623   0.834   1.399   2.402
 6575SOL    HW120624   0.822   1.357   2.312
 6575SOL    HW220625   0.931   1.401   2.426
 6576SOL     OW20626   0.264   5.757   4.631
 6576SOL    HW120627   0.360   5.783   4.626
 6576SOL    HW220628   0.255   5.676   4.689
 6577SOL     OW20629   0.870   4.369   5.933
 6577SOL    HW120630   0.825   4.446   5.888
 6577SOL    HW220631   0.904   4.399   6.022
 6578SOL     OW20632   5.298   5.994   4.720
 6578SOL    HW120633   5.217   5.942   4.691
 6578SOL    HW220634   5.376   5.970   4.661
 6579SOL     OW20635   0.972   4.007   3.775
 6579SOL    HW120636   0.983   4.012   3.676
 6579SOL    HW220637   1.054   4.044   3.819
 6580SOL     OW20638   4.892   2.758   0.913
 6580SOL    HW120639   4.883   2.658   0.915
 6580SOL    HW220640   4.921   2.787   0.822
 6581SOL     OW20641   2.553   2.298   5.831
 6581SOL    HW120642   2.585   2.206   5.809
 6581SOL    HW220643   2.551   2.354   5.748
 6582SOL     OW20644   6.199   0.875   2.474
 6582SOL    HW120645   6.231   0.969   2.487
 6582SOL    HW220646   6.255   0.813   2.527
 6583SOL     OW20647   5.974   0.773   6.049
 6583SOL    HW120648   5.912   0.851   6.038
 6583SOL    HW220649   6.004   0.768   6.144
 6584SOL     OW20650   5.893   2.068   0.273
 6584SOL    HW120651   5.822   2.060   0.343
 6584SOL    HW220652   5.978   2.028   0.308
 6585SOL     OW20653   1.753   0.954   2.463
 6585SOL    HW120654   1.741   1.053   2.463
 6585SOL    HW220655   1.760   0.921   2.557
 6586SOL     OW20656   6.148   0.696   6.371
 6586SOL    HW120657   6.214   0.665   6.303
 6586SOL    HW220658   6.102   0.616   6.411
 6587SOL     OW20659   1.450   6.376   2.504
 6587SOL    HW120660   1.365   6.342   2.465
 6587SOL    HW220661   1.459   6.343   2.598
 6588SOL     OW20662   3.648   3.726   0.344
 6588SOL    HW120663   3.725   3.682   0.391
 6588SOL    HW220664   3.609   3.663   0.277
 6589SOL     OW20665   4.545   2.059   6.226
 6589SOL    HW120666   4.536   2.138   6.287
 6589SOL    HW220667   4.454   2.021   6.208
 6590SOL     OW20668   6.265   2.132   5.719
 6590SOL    HW120669   6.360   2.102   5.724
 6590SOL    HW220670   6.207   2.058   5.684
 6591SOL     OW20671   4.819   0.398   2.390
 6591SOL    HW120672   4.811   0.427   2.485
 6591SOL    HW220673   4.878   0.317   2.384
 6592SOL     OW20674   6.396   5.151   5.378
 6592SOL    HW120675   6.491   5.181   5.378
 6592SOL    HW220676   6.336   5.230   5.395
 6593SOL     OW20677   5.451   1.899   2.619
 6593SOL    HW120678   5.452   1.969   2.690
 6593SOL    HW220679   5.360   1.894   2.578
 6594SOL     OW20680   5.854   0.297   6.648
 6594SOL    HW120681   5.845   0.227   6.578
 6594SOL    HW220682   5.868   0.254   6.737
 6595SOL     OW20683   3.933   2.932   6.392
 6595SOL    HW120684   4.004   2.974   6.449
 6595SOL    HW220685   3.950   2.953   6.296
 6596SOL     OW20686   1.702   5.637   4.776
 6596SOL    HW120687   1.660   5.550   4.805
 6596SOL    HW220688   1.655   5.671   4.695
 6597SOL     OW20689   0.877   4.194   0.715
 6597SOL    HW120690   0.823   4.277   0.727
 6597SOL    HW220691   0.953   4.194   0.780
 6598SOL     OW20692   3.277   6.350   4.363
 6598SOL    HW120693   3.359   6.404   4.343
 6598SOL    HW220694   3.205   6.410   4.398
 6599SOL     OW20695   3.822   3.507   5.934
 6599SOL    HW120696   3.869   3.582   5.887
 6599SOL    HW220697   3.834   3.422   5.883
 6600SOL     OW20698   4.321   4.788   5.071
 6600SOL    HW120699   4.352   4.705   5.024
 6600SOL    HW220700   4.256   4.764   5.143
 6601SOL     OW20701   0.989   0.914   2.001
 6601SOL    HW120702   0.926   0.989   1.981
 6601SOL    HW220703   0.938   0.828   2.004
 6602SOL     OW20704   5.010   1.478   0.531
 6602SOL    HW120705   5.045   1.571   0.537
 6602SOL    HW220706   4.982   1.459   0.437
 6603SOL     OW20707   3.353   2.090   1.978
 6603SOL    HW120708   3.374   1.999   2.013
 6603SOL    HW220709   3.437   2.141   1.962
 6604SOL     OW20710   4.381   4.896   4.558
 6604SOL    HW120711   4.361   4.836   4.480
 6604SOL    HW220712   4.325   4.868   4.636
 6605SOL     OW20713   4.590   5.492   0.913
 6605SOL    HW120714   4.560   5.575   0.961
 6605SOL    HW220715   4.685   5.472   0.937
 6606SOL     OW20716   0.669   2.691   2.731
 6606SOL    HW120717   0.613   2.703   2.813
 6606SOL    HW220718   0.747   2.753   2.735
 6607SOL     OW20719   1.938   4.256   2.568
 6607SOL    HW120720   1.948   4.354   2.579
 6607SOL    HW220721   1.880   4.220   2.640
 6608SOL     OW20722   4.920   4.008   4.734
 6608SOL    HW120723   4.887   3.941   4.801
 6608SOL    HW220724   4.971   4.079   4.782
 6609SOL     OW20725   5.848   2.877   5.964
 6609SOL    HW120726   5.783   2.803   5.946
 6609SOL    HW220727   5.938   2.837   5.987
 6610SOL     OW20728   4.056   1.026   0.357
 6610SOL    HW120729   4.052   1.081   0.441
 6610SOL    HW220730   4.056   0.929   0.382
 6611SOL     OW20731   5.475   3.335   1.738
 6611SOL    HW120732   5.473   3.385   1.825
 6611SOL    HW220733   5.419   3.384   1.671
 6612SOL     OW20734   0.405   5.120   6.695
 6612SOL    HW120735   0.435   5.171   6.776
 6612SOL    HW220736   0.448   5.159   6.614
 6613SOL     OW20737   6.392   4.949   0.983
 6613SOL    HW120738   6.337   4.872   0.949
 6613SOL    HW220739   6.487   4.920   0.993
 6614SOL     OW20740   5.767   4.633   5.695
 6614SOL    HW120741   5.690   4.619   5.757
 6614SOL    HW220742   5.765   4.727   5.661
 6615SOL     OW20743   0.965   3.883   4.678
 6615SOL    HW120744   1.013   3.908   4.762
 6615SOL    HW220745   0.904   3.958   4.652
 6616SOL     OW20746   4.797   1.650   3.482
 6616SOL    HW120747   4.815   1.577   3.416
 6616SOL    HW220748   4.795   1.738   3.434
 6617SOL     OW20749   3.710   0.685   4.804
 6617SOL    HW120750   3.706   0.761   4.738
 6617SOL    HW220751   3.709   0.722   4.897
 6618SOL     OW20752   6.835   4.437   1.872
 6618SOL    HW120753   6.924   4.419   1.913
 6618SOL    HW220754   6.812   4.533   1.883
 6619SOL     OW20755   6.114   6.023   2.631
 6619SOL    HW120756   6.159   6.099   2.678
 6619SOL    HW220757   6.148   6.017   2.537
 6620SOL     OW20758   5.334   3.541   5.328
 6620SOL    HW120759   5.293   3.577   5.412
 6620SOL    HW220760   5.417   3.592   5.306
 6621SOL     OW20761   4.857   3.328   1.005
 6621SOL    HW120762   4.772   3.367   0.969
 6621SOL    HW220763   4.842   3.232   1.030
 6622SOL     OW20764   5.826   5.528   0.801
 6622SOL    HW120765   5.792   5.499   0.711
 6622SOL    HW220766   5.920   5.560   0.794
 6623SOL     OW20767   2.911   3.441   2.927
 6623SOL    HW120768   3.000   3.451   2.882
 6623SOL    HW220769   2.924   3.417   3.023
 6624SOL     OW20770   4.860   4.889   4.526
 6624SOL    HW120771   4.836   4.978   4.487
 6624SOL    HW220772   4.793   4.864   4.596
 6625SOL     OW20773   5.513   5.992   1.006
 6625SOL    HW120774   5.489   6.010   1.102
 6625SOL    HW220775   5.433   6.002   0.949
 6626SOL     OW20776   2.968   5.342   4.231
 6626SOL    HW120777   2.916   5.392   4.299
 6626SOL    HW220778   2.965   5.244   4.252
 6627SOL     OW20779   0.039   0.517   0.829
 6627SOL    HW120780   0.056   0.611   0.799
 6627SOL    HW220781   0.114   0.487   0.888
 6628SOL     OW20782   3.748   6.521   4.292
 6628SOL    HW120783   3.772   6.424   4.300
 6628SOL    HW220784   3.789   6.571   4.367
 6629SOL     OW20785   2.517   4.245   1.021
 6629SOL    HW120786   2.567   4.302   1.086
 6629SOL    HW220787   2.558   4.154   1.019
 6630SOL     OW20788   3.185   1.285   5.673
 6630SOL    HW120789   3.188   1.385   5.682
 6630SOL    HW220790   3.155   1.245   5.759
 6631SOL     OW20791   3.239   6.558   1.636
 6631SOL    HW120792   3.259   6.482   1.698
 6631SOL    HW220793   3.324   6.593   1.597
 6632SOL     OW20794   6.600   3.495   2.138
 6632SOL    HW120795   6.590   3.589   2.108
 6632SOL    HW220796   6.510   3.457   2.159
 6633SOL     OW20797   1.049   5.994   3.250
 6633SOL    HW120798   1.037   5.914   3.309
 6633SOL    HW220799   1.104   6.063   3.298
 6634SOL     OW20800   6.769   2.321   5.087
 6634SOL    HW120801   6.685   2.270   5.107
 6634SOL    HW220802   6.759   2.368   4.999
 6635SOL     OW20803   4.364   4.947   4.194
 6635SOL    HW120804   4.300   4.874   4.213
 6635SOL    HW220805   4.451   4.908   4.163
 6636SOL     OW20806   2.152   3.194   2.681
 6636SOL    HW120807   2.160   3.134   2.760
 6636SOL    HW220808   2.144   3.140   2.597
 6637SOL     OW20809   0.126   2.065   6.716
 6637SOL    HW120810   0.190   1.988   6.716
 6637SOL    HW220811   0.127   2.109   6.806
 6638SOL     OW20812   1.296   0.531   6.872
 6638SOL    HW120813   1.256   0.612   6.830
 6638SOL    HW220814   1.349   0.557   6.953
 6639SOL     OW20815   3.969   6.082   6.576
 6639SOL    HW120816   4.040   6.013   6.587
 6639SOL    HW220817   3.946   6.121   6.665
 6640SOL     OW20818   5.270   4.250   3.197
 6640SOL    HW120819   5.206   4.327   3.191
 6640SOL    HW220820   5.235   4.172   3.146
 6641SOL     OW20821   2.547   5.489   6.402
 6641SOL    HW120822   2.519   5.467   6.309
 6641SOL    HW220823   2.584   5.582   6.405
 6642SOL     OW20824   6.113   5.887   5.908
 6642SOL    HW120825   6.195   5.913   5.959
 6642SOL    HW220826   6.126   5.795   5.869
 6643SOL     OW20827   4.270   5.144   1.192
 6643SOL    HW120828   4.252   5.119   1.097
 6643SOL    HW220829   4.276   5.060   1.247
 6644SOL     OW20830   1.095   2.993   1.812
 6644SOL    HW120831   1.023   2.960   1.874
 6644SOL    HW220832   1.097   2.936   1.730
 6645SOL     OW20833   0.428   5.312   5.434
 6645SOL    HW120834   0.443   5.248   5.358
 6645SOL    HW220835   0.411   5.403   5.397
 6646SOL     OW20836   1.816   5.649   4.042
 6646SOL    HW120837   1.748   5.592   3.995
 6646SOL    HW220838   1.851   5.718   3.978
 6647SOL     OW20839   4.206   1.558   1.696
 6647SOL    HW120840   4.260   1.508   1.764
 6647SOL    HW220841   4.205   1.508   1.610
 6648SOL     OW20842   3.386   5.377   2.353
 6648SOL    HW120843   3.301   5.429   2.367
 6648SOL    HW220844   3.399   5.362   2.255
 6649SOL     OW20845   4.130   1.937   5.655
 6649SOL    HW120846   4.174   1.963   5.740
 6649SOL    HW220847   4.078   2.014   5.619
 6650SOL     OW20848   3.235   1.499   3.382
 6650SOL    HW120849   3.285   1.415   3.361
 6650SOL    HW220850   3.295   1.564   3.428
 6651SOL     OW20851   0.607   1.834   1.215
 6651SOL    HW120852   0.605   1.867   1.120
 6651SOL    HW220853   0.514   1.812   1.244
 6652SOL     OW20854   0.263   5.365   3.760
 6652SOL    HW120855   0.263   5.464   3.748
 6652SOL    HW220856   0.297   5.321   3.676
 6653SOL     OW20857   3.420   3.665   4.877
 6653SOL    HW120858   3.520   3.668   4.884
 6653SOL    HW220859   3.387   3.754   4.845
 6654SOL     OW20860   1.364   3.841   1.723
 6654SOL    HW120861   1.421   3.763   1.699
 6654SOL    HW220862   1.324   3.827   1.813
 6655SOL     OW20863   1.265   0.373   6.479
 6655SOL    HW120864   1.178   0.419   6.494
 6655SOL    HW220865   1.305   0.347   6.566
 6656SOL     OW20866   6.271   1.482   1.348
 6656SOL    HW120867   6.218   1.491   1.264
 6656SOL    HW220868   6.232   1.542   1.418
 6657SOL     OW20869   3.218   4.947   5.656
 6657SOL    HW120870   3.166   4.862   5.666
 6657SOL    HW220871   3.252   4.976   5.746
 6658SOL     OW20872   5.916   7.017   5.287
 6658SOL    HW120873   5.980   0.010   5.212
 6658SOL    HW220874   5.838   6.966   5.251
 6659SOL     OW20875   2.734   2.833   0.672
 6659SOL    HW120876   2.690   2.867   0.755
 6659SOL    HW220877   2.824   2.796   0.694
 6660SOL     OW20878   0.176   6.573   2.735
 6660SOL    HW120879   0.183   6.483   2.693
 6660SOL    HW220880   0.113   6.569   2.812
 6661SOL     OW20881   6.725   0.414   3.706
 6661SOL    HW120882   6.701   0.354   3.783
 6661SOL    HW220883   6.821   0.400   3.682
 6662SOL     OW20884   1.987   3.854   6.054
 6662SOL    HW120885   2.045   3.931   6.029
 6662SOL    HW220886   2.030   3.803   6.128
 6663SOL     OW20887   1.342   5.532   1.992
 6663SOL    HW120888   1.269   5.472   1.960
 6663SOL    HW220889   1.328   5.553   2.089
 6664SOL     OW20890   6.896   2.251   1.455
 6664SOL    HW120891   6.942   2.174   1.409
 6664SOL    HW220892   6.924   2.337   1.412
 6665SOL     OW20893   1.664   6.764   3.491
 6665SOL    HW120894   1.719   6.833   3.535
 6665SOL    HW220895   1.697   6.673   3.516
 6666SOL     OW20896   5.909   0.042   0.717
 6666SOL    HW120897   5.855   0.088   0.646
 6666SOL    HW220898   5.927   6.975   0.688
 6667SOL     OW20899   5.483   4.711   5.462
 6667SOL    HW120900   5.473   4.755   5.551
 6667SOL    HW220901   5.429   4.627   5.460
 6668SOL     OW20902   6.332   6.337   0.886
 6668SOL    HW120903   6.317   6.364   0.981
 6668SOL    HW220904   6.422   6.295   0.877
 6669SOL     OW20905   0.753   4.634   3.533
 6669SOL    HW120906   0.792   4.553   3.491
 6669SOL    HW220907   0.768   4.631   3.632
 6670SOL     OW20908   5.294   4.789   0.379
 6670SOL    HW120909   5.391   4.803   0.362
 6670SOL    HW220910   5.278   4.697   0.413
 6671SOL     OW20911   1.207   2.371   5.689
 6671SOL    HW120912   1.139   2.424   5.638
 6671SOL    HW220913   1.168   2.284   5.715
 6672SOL     OW20914   6.731   1.555   5.273
 6672SOL    HW120915   6.773   1.633   5.227
 6672SOL    HW220916   6.729   1.572   5.372
 6673SOL     OW20917   3.706   6.000   1.436
 6673SOL    HW120918   3.615   6.015   1.475
 6673SOL    HW220919   3.773   6.052   1.488
 6674SOL     OW20920   0.987   5.873   4.632
 6674SOL    HW120921   1.017   5.867   4.728
 6674SOL    HW220922   1.002   5.966   4.599
 6675SOL     OW20923   6.433   6.587   6.109
 6675SOL    HW120924   6.517   6.532   6.104
 6675SOL    HW220925   6.436   6.659   6.040
 6676SOL     OW20926   0.184   1.713   0.720
 6676SOL    HW120927   0.161   1.748   0.811
 6676SOL    HW220928   0.139   1.625   0.706
 6677SOL     OW20929   0.802   4.044   0.522
 6677SOL    HW120930   0.821   4.104   0.600
 6677SOL    HW220931   0.860   4.071   0.445
 6678SOL     OW20932   0.866   3.748   4.257
 6678SOL    HW120933   0.930   3.729   4.331
 6678SOL    HW220934   0.791   3.682   4.260
 6679SOL     OW20935   2.672   1.393   4.508
 6679SOL    HW120936   2.662   1.475   4.565
 6679SOL    HW220937   2.589   1.379   4.455
 6680SOL     OW20938   2.752   1.089   6.934
 6680SOL    HW120939   2.744   1.098   0.006
 6680SOL    HW220940   2.700   1.161   6.889
 6681SOL     OW20941   6.448   5.209   6.901
 6681SOL    HW120942   6.354   5.176   6.898
 6681SOL    HW220943   6.509   5.134   6.928
 6682SOL     OW20944   5.876   4.731   2.479
 6682SOL    HW120945   5.921   4.684   2.555
 6682SOL    HW220946   5.787   4.765   2.508
 6683SOL     OW20947   5.487   3.287   3.530
 6683SOL    HW120948   5.499   3.242   3.619
 6683SOL    HW220949   5.577   3.309   3.492
 6684SOL     OW20950   1.786   0.873   1.725
 6684SOL    HW120951   1.779   0.970   1.699
 6684SOL    HW220952   1.703   0.846   1.773
 6685SOL     OW20953   6.384   2.344   6.881
 6685SOL    HW120954   6.481   2.356   6.860
 6685SOL    HW220955   6.374   2.302   6.971
 6686SOL     OW20956   5.167   4.322   4.028
 6686SOL    HW120957   5.199   4.257   3.959
 6686SOL    HW220958   5.155   4.412   3.986
 6687SOL     OW20959   0.143   6.805   7.025
 6687SOL    HW120960   0.225   6.832   0.047
 6687SOL    HW220961   0.134   6.862   6.942
 6688SOL     OW20962   0.565   4.694   3.184
 6688SOL    HW120963   0.512   4.615   3.152
 6688SOL    HW220964   0.661   4.668   3.194
 6689SOL     OW20965   5.549   3.797   0.236
 6689SOL    HW120966   5.629   3.840   0.278
 6689SOL    HW220967   5.557   3.801   0.137
 6690SOL     OW20968   0.398   1.141   0.626
 6690SOL    HW120969   0.413   1.110   0.720
 6690SOL    HW220970   0.334   1.217   0.627
 6691SOL     OW20971   0.966   4.865   1.729
 6691SOL    HW120972   0.897   4.801   1.763
 6691SOL    HW220973   0.923   4.953   1.709
 6692SOL     OW20974   5.294   3.319   6.763
 6692SOL    HW120975   5.393   3.332   6.752
 6692SOL    HW220976   5.261   3.377   6.837
 6693SOL     OW20977   3.709   3.075   5.855
 6693SOL    HW120978   3.744   3.168   5.849
 6693SOL    HW220979   3.729   3.026   5.771
 6694SOL     OW20980   2.418   5.540   0.300
 6694SOL    HW120981   2.334   5.503   0.338
 6694SOL    HW220982   2.397   5.620   0.243
 6695SOL     OW20983   1.191   1.353   0.057
 6695SOL    HW120984   1.291   1.360   0.052
 6695SOL    HW220985   1.165   1.257   0.064
 6696SOL     OW20986   1.525   2.082   0.966
 6696SOL    HW120987   1.429   2.080   0.992
 6696SOL    HW220988   1.540   2.155   0.899
 6697SOL     OW20989   5.304   3.327   4.498
 6697SOL    HW120990   5.266   3.308   4.408
 6697SOL    HW220991   5.333   3.423   4.503
 6698SOL     OW20992   2.345   4.545   5.554
 6698SOL    HW120993   2.362   4.639   5.583
 6698SOL    HW220994   2.353   4.483   5.632
 6699SOL     OW20995   1.464   3.270   6.633
 6699SOL    HW120996   1.371   3.234   6.625
 6699SOL    HW220997   1.515   3.250   6.550
 6700SOL     OW20998   0.302   6.362   6.525
 6700SOL    HW120999   0.225   6.320   6.477
 6700SOL    HW221000   0.312   6.322   6.616
 6701SOL     OW21001   1.697   2.324   6.522
 6701SOL    HW121002   1.710   2.311   6.423
 6701SOL    HW221003   1.761   2.393   6.555
 6702SOL     OW21004   3.548   3.744   0.704
 6702SOL    HW121005   3.560   3.832   0.658
 6702SOL    HW221006   3.491   3.685   0.647
 6703SOL     OW21007   0.417   1.728   0.037
 6703SOL    HW121008   0.472   1.661   0.088
 6703SOL    HW221009   0.439   1.722   6.967
 6704SOL     OW21010   5.423   3.378   2.303
 6704SOL    HW121011   5.341   3.329   2.274
 6704SOL    HW221012   5.443   3.357   2.399
 6705SOL     OW21013   4.824   3.041   1.006
 6705SOL    HW121014   4.826   2.952   0.961
 6705SOL    HW221015   4.732   3.060   1.039
 6706SOL     OW21016   1.381   0.069   6.756
 6706SOL    HW121017   1.382   7.020   6.821
 6706SOL    HW221018   1.323   0.046   6.678
 6707SOL     OW21019   1.238   4.979   3.711
 6707SOL    HW121020   1.239   5.030   3.625
 6707SOL    HW221021   1.222   5.042   3.787
 6708SOL     OW21022   2.487   5.630   0.801
 6708SOL    HW121023   2.541   5.711   0.781
 6708SOL    HW221024   2.408   5.627   0.740
 6709SOL     OW21025   4.743   1.849   4.288
 6709SOL    HW121026   4.695   1.807   4.365
 6709SOL    HW221027   4.701   1.819   4.202
 6710SOL     OW21028   2.564   1.947   0.626
 6710SOL    HW121029   2.531   2.010   0.697
 6710SOL    HW221030   2.637   1.890   0.664
 6711SOL     OW21031   5.317   3.447   6.393
 6711SOL    HW121032   5.374   3.468   6.472
 6711SOL    HW221033   5.312   3.347   6.382
 6712SOL     OW21034   3.366   6.434   0.170
 6712SOL    HW121035   3.305   6.478   0.104
 6712SOL    HW221036   3.312   6.386   0.239
 6713SOL     OW21037   0.241   2.434   3.136
 6713SOL    HW121038   0.240   2.335   3.127
 6713SOL    HW221039   0.273   2.476   3.051
 6714SOL     OW21040   6.435   1.380   5.522
 6714SOL    HW121041   6.468   1.474   5.509
 6714SOL    HW221042   6.341   1.374   5.488
 6715SOL     OW21043   4.625   2.821   1.105
 6715SOL    HW121044   4.577   2.908   1.117
 6715SOL    HW221045   4.586   2.753   1.167
 6716SOL     OW21046   3.393   5.710   1.450
 6716SOL    HW121047   3.337   5.791   1.436
 6716SOL    HW221048   3.432   5.681   1.363
 6717SOL     OW21049   3.436   0.655   6.808
 6717SOL    HW121050   3.467   0.610   6.891
 6717SOL    HW221051   3.383   0.736   6.831
 6718SOL     OW21052   4.572   0.512   6.505
 6718SOL    HW121053   4.519   0.594   6.484
 6718SOL    HW221054   4.615   0.477   6.421
 6719SOL     OW21055   1.384   2.596   4.854
 6719SOL    HW121056   1.437   2.542   4.790
 6719SOL    HW221057   1.287   2.582   4.838
 6720SOL     OW21058   1.966   4.523   0.708
 6720SOL    HW121059   1.917   4.597   0.755
 6720SOL    HW221060   2.061   4.521   0.740
 6721SOL     OW21061   6.043   6.191   2.966
 6721SOL    HW121062   6.104   6.246   3.024
 6721SOL    HW221063   5.955   6.238   2.957
 6722SOL     OW21064   3.581   4.434   6.371
 6722SOL    HW121065   3.649   4.482   6.426
 6722SOL    HW221066   3.627   4.384   6.297
 6723SOL     OW21067   3.434   1.594   2.742
 6723SOL    HW121068   3.525   1.558   2.764
 6723SOL    HW221069   3.402   1.554   2.656
 6724SOL     OW21070   3.400   4.920   6.180
 6724SOL    HW121071   3.375   4.999   6.237
 6724SOL    HW221072   3.427   4.845   6.240
 6725SOL     OW21073   0.429   6.249   1.515
 6725SOL    HW121074   0.390   6.176   1.460
 6725SOL    HW221075   0.527   6.257   1.496
 6726SOL     OW21076   2.088   2.439   1.899
 6726SOL    HW121077   2.070   2.504   1.973
 6726SOL    HW221078   2.136   2.486   1.825
 6727SOL     OW21079   2.780   3.502   1.457
 6727SOL    HW121080   2.762   3.527   1.552
 6727SOL    HW221081   2.774   3.403   1.447
 6728SOL     OW21082   4.407   2.078   3.790
 6728SOL    HW121083   4.462   2.034   3.719
 6728SOL    HW221084   4.466   2.103   3.867
 6729SOL     OW21085   4.183   5.449   3.449
 6729SOL    HW121086   4.273   5.490   3.466
 6729SOL    HW221087   4.122   5.517   3.409
 6730SOL     OW21088   1.110   6.939   2.483
 6730SOL    HW121089   1.053   6.857   2.493
 6730SOL    HW221090   1.056   7.020   2.503
 6731SOL     OW21091   2.047   4.043   1.387
 6731SOL    HW121092   1.949   4.048   1.368
 6731SOL    HW221093   2.098   4.089   1.315
 6732SOL     OW21094   3.553   5.766   6.993
 6732SOL    HW121095   3.497   5.826   0.022
 6732SOL    HW221096   3.642   5.809   6.977
 6733SOL     OW21097   6.010   5.855   4.585
 6733SOL    HW121098   6.008   5.765   4.628
 6733SOL    HW221099   6.003   5.926   4.656
 6734SOL     OW21100   2.920   4.055   0.003
 6734SOL    HW121101   2.867   3.989   0.057
 6734SOL    HW221102   2.875   4.071   6.943
 6735SOL     OW21103   0.844   6.517   6.330
 6735SOL    HW121104   0.837   6.467   6.243
 6735SOL    HW221105   0.891   6.460   6.397
 6736SOL     OW21106   2.230   4.143   2.253
 6736SOL    HW121107   2.275   4.230   2.275
 6736SOL    HW221108   2.240   4.081   2.330
 6737SOL     OW21109   1.791   0.434   1.654
 6737SOL    HW121110   1.722   0.393   1.594
 6737SOL    HW221111   1.875   0.449   1.602
 6738SOL     OW21112   5.349   1.972   0.605
 6738SOL    HW121113   5.335   1.996   0.701
 6738SOL    HW221114   5.354   2.056   0.550
 6739SOL     OW21115   3.956   5.777   6.207
 6739SOL    HW121116   4.016   5.857   6.198
 6739SOL    HW221117   3.889   5.777   6.133
 6740SOL     OW21118   5.589   2.547   4.862
 6740SOL    HW121119   5.519   2.616   4.878
 6740SOL    HW221120   5.655   2.581   4.794
 6741SOL     OW21121   7.020   0.605   5.225
 6741SOL    HW121122   0.087   0.592   5.195
 6741SOL    HW221123   6.974   0.670   5.164
 6742SOL     OW21124   6.141   6.577   5.251
 6742SOL    HW121125   6.182   6.583   5.160
 6742SOL    HW221126   6.207   6.606   5.320
 6743SOL     OW21127   5.724   2.162   0.958
 6743SOL    HW121128   5.690   2.197   0.871
 6743SOL    HW221129   5.659   2.094   0.994
 6744SOL     OW21130   4.451   0.934   3.780
 6744SOL    HW121131   4.366   0.975   3.745
 6744SOL    HW221132   4.459   0.955   3.877
 6745SOL     OW21133   0.644   3.477   3.195
 6745SOL    HW121134   0.562   3.459   3.248
 6745SOL    HW221135   0.716   3.512   3.256
 6746SOL     OW21136   6.380   6.529   0.410
 6746SOL    HW121137   6.357   6.561   0.502
 6746SOL    HW221138   6.304   6.477   0.372
 6747SOL     OW21139   5.263   5.050   5.777
 6747SOL    HW121140   5.197   4.995   5.727
 6747SOL    HW221141   5.228   5.068   5.869
 6748SOL     OW21142   5.978   0.138   2.317
 6748SOL    HW121143   6.020   0.182   2.238
 6748SOL    HW221144   5.892   0.184   2.338
 6749SOL     OW21145   3.206   4.808   0.913
 6749SOL    HW121146   3.259   4.724   0.923
 6749SOL    HW221147   3.192   4.850   1.003
 6750SOL     OW21148   2.252   2.921   4.772
 6750SOL    HW121149   2.321   2.939   4.843
 6750SOL    HW221150   2.296   2.883   4.691
 6751SOL     OW21151   4.935   3.061   5.853
 6751SOL    HW121152   4.974   3.037   5.764
 6751SOL    HW221153   5.002   3.110   5.908
 6752SOL     OW21154   5.114   1.088   0.278
 6752SOL    HW121155   5.028   1.100   0.228
 6752SOL    HW221156   5.098   1.107   0.375
 6753SOL     OW21157   5.790   0.097   6.193
 6753SOL    HW121158   5.809   0.073   6.289
 6753SOL    HW221159   5.875   0.096   6.141
 6754SOL     OW21160   4.077   1.177   6.589
 6754SOL    HW121161   4.078   1.082   6.620
 6754SOL    HW221162   3.991   1.197   6.543
 6755SOL     OW21163   4.757   1.833   2.799
 6755SOL    HW121164   4.799   1.744   2.781
 6755SOL    HW221165   4.818   1.887   2.858
 6756SOL     OW21166   4.162   5.024   3.171
 6756SOL    HW121167   4.074   5.028   3.218
 6756SOL    HW221168   4.223   4.963   3.221
 6757SOL     OW21169   6.593   3.776   2.090
 6757SOL    HW121170   6.539   3.847   2.134
 6757SOL    HW221171   6.611   3.803   1.995
 6758SOL     OW21172   0.123   2.282   2.032
 6758SOL    HW121173   0.112   2.359   2.094
 6758SOL    HW221174   0.048   2.282   1.966
 6759SOL     OW21175   6.662   5.595   4.433
 6759SOL    HW121176   6.725   5.657   4.386
 6759SOL    HW221177   6.695   5.501   4.424
 6760SOL     OW21178   1.024   3.790   5.040
 6760SOL    HW121179   0.932   3.790   5.079
 6760SOL    HW221180   1.092   3.785   5.113
 6761SOL     OW21181   6.546   3.126   6.737
 6761SOL    HW121182   6.618   3.100   6.801
 6761SOL    HW221183   6.472   3.058   6.741
 6762SOL     OW21184   6.600   1.748   4.582
 6762SOL    HW121185   6.588   1.744   4.681
 6762SOL    HW221186   6.516   1.779   4.539
 6763SOL     OW21187   5.379   6.677   5.213
 6763SOL    HW121188   5.428   6.590   5.210
 6763SOL    HW221189   5.410   6.731   5.291
 6764SOL     OW21190   1.854   3.676   6.958
 6764SOL    HW121191   1.876   3.725   0.015
 6764SOL    HW221192   1.844   3.740   6.883
 6765SOL     OW21193   5.541   5.643   2.336
 6765SOL    HW121194   5.531   5.734   2.297
 6765SOL    HW221195   5.631   5.605   2.311
 6766SOL     OW21196   2.311   2.127   5.426
 6766SOL    HW121197   2.226   2.115   5.478
 6766SOL    HW221198   2.305   2.211   5.372
 6767SOL     OW21199   0.812   2.598   5.949
 6767SOL    HW121200   0.793   2.697   5.947
 6767SOL    HW221201   0.812   2.563   5.855
 6768SOL     OW21202   6.573   0.519   5.277
 6768SOL    HW121203   6.624   0.496   5.360
 6768SOL    HW221204   6.475   0.501   5.292
 6769SOL     OW21205   1.043   2.793   6.247
 6769SOL    HW121206   1.030   2.784   6.148
 6769SOL    HW221207   0.998   2.717   6.293
 6770SOL     OW21208   0.151   2.410   3.824
 6770SOL    HW121209   0.067   2.388   3.872
 6770SOL    HW221210   0.138   2.399   3.726
 6771SOL     OW21211   5.905   1.904   1.489
 6771SOL    HW121212   5.951   1.990   1.466
 6771SOL    HW221213   5.852   1.916   1.573
 6772SOL     OW21214   2.126   6.740   1.890
 6772SOL    HW121215   2.098   6.812   1.827
 6772SOL    HW221216   2.114   6.651   1.847
 6773SOL     OW21217   1.552   1.664   2.977
 6773SOL    HW121218   1.525   1.757   3.001
 6773SOL    HW221219   1.506   1.599   3.037
 6774SOL     OW21220   3.908   0.873   5.481
 6774SOL    HW121221   3.912   0.960   5.531
 6774SOL    HW221222   3.958   0.882   5.395
 6775SOL     OW21223   2.003   3.301   5.112
 6775SOL    HW121224   2.060   3.325   5.191
 6775SOL    HW221225   1.972   3.384   5.067
 6776SOL     OW21226   3.037   3.180   3.936
 6776SOL    HW121227   2.981   3.257   3.965
 6776SOL    HW221228   3.111   3.166   4.002
 6777SOL     OW21229   6.692   0.447   4.892
 6777SOL    HW121230   6.711   0.360   4.847
 6777SOL    HW221231   6.731   0.446   4.984
 6778SOL     OW21232   6.154   6.000   1.407
 6778SOL    HW121233   6.130   5.934   1.336
 6778SOL    HW221234   6.243   6.041   1.385
 6779SOL     OW21235   5.518   3.318   5.514
 6779SOL    HW121236   5.496   3.415   5.516
 6779SOL    HW221237   5.437   3.264   5.539
 6780SOL     OW21238   4.897   1.090   2.215
 6780SOL    HW121239   4.805   1.057   2.196
 6780SOL    HW221240   4.905   1.111   2.313
 6781SOL     OW21241   5.583   3.680   3.173
 6781SOL    HW121242   5.635   3.618   3.232
 6781SOL    HW221243   5.506   3.631   3.132
 6782SOL     OW21244   6.282   1.946   3.046
 6782SOL    HW121245   6.306   1.876   2.979
 6782SOL    HW221246   6.352   2.017   3.046
 6783SOL     OW21247   0.546   6.803   6.944
 6783SOL    HW121248   0.536   6.746   6.862
 6783SOL    HW221249   0.642   6.829   6.954
 6784SOL     OW21250   1.373   4.652   6.798
 6784SOL    HW121251   1.402   4.746   6.817
 6784SOL    HW221252   1.281   4.638   6.834
 6785SOL     OW21253   5.528   4.354   1.253
 6785SOL    HW121254   5.507   4.359   1.351
 6785SOL    HW221255   5.445   4.331   1.202
 6786SOL     OW21256   6.480   1.471   6.331
 6786SOL    HW121257   6.414   1.402   6.301
 6786SOL    HW221258   6.559   1.470   6.270
 6787SOL     OW21259   3.842   2.180   1.714
 6787SOL    HW121260   3.773   2.221   1.773
 6787SOL    HW221261   3.928   2.231   1.722
 6788SOL     OW21262   1.560   4.788   1.271
 6788SOL    HW121263   1.657   4.811   1.272
 6788SOL    HW221264   1.546   4.698   1.313
 6789SOL     OW21265   6.214   2.828   2.550
 6789SOL    HW121266   6.158   2.840   2.632
 6789SOL    HW221267   6.165   2.865   2.471
 6790SOL     OW21268   1.399   5.905   0.024
 6790SOL    HW121269   1.374   5.919   0.120
 6790SOL    HW221270   1.471   5.970   7.026
 6791SOL     OW21271   2.236   6.545   4.020
 6791SOL    HW121272   2.266   6.640   4.018
 6791SOL    HW221273   2.242   6.510   4.114
 6792SOL     OW21274   2.786   6.270   6.805
 6792SOL    HW121275   2.792   6.340   6.876
 6792SOL    HW221276   2.792   6.179   6.848
 6793SOL     OW21277   2.012   3.069   5.976
 6793SOL    HW121278   2.069   3.123   6.038
 6793SOL    HW221279   2.070   3.014   5.917
 6794SOL     OW21280   4.016   2.231   3.994
 6794SOL    HW121281   4.028   2.325   4.028
 6794SOL    HW221282   4.080   2.215   3.919
 6795SOL     OW21283   0.855   0.267   2.635
 6795SOL    HW121284   0.789   0.192   2.637
 6795SOL    HW221285   0.832   0.330   2.561
 6796SOL     OW21286   5.477   2.868   2.316
 6796SOL    HW121287   5.424   2.839   2.396
 6796SOL    HW221288   5.569   2.894   2.346
 6797SOL     OW21289   2.544   4.106   0.522
 6797SOL    HW121290   2.470   4.045   0.492
 6797SOL    HW221291   2.519   4.146   0.610
 6798SOL     OW21292   5.342   2.359   1.458
 6798SOL    HW121293   5.331   2.290   1.388
 6798SOL    HW221294   5.430   2.404   1.447
 6799SOL     OW21295   3.868   6.807   2.855
 6799SOL    HW121296   3.903   6.781   2.765
 6799SOL    HW221297   3.917   6.888   2.888
 6800SOL     OW21298   0.006   2.238   3.275
 6800SOL    HW121299   6.976   2.285   3.207
 6800SOL    HW221300   7.021   2.282   3.364
 6801SOL     OW21301   1.895   5.327   4.612
 6801SOL    HW121302   1.876   5.371   4.525
 6801SOL    HW221303   1.956   5.385   4.666
 6802SOL     OW21304   2.674   4.683   2.644
 6802SOL    HW121305   2.686   4.757   2.578
 6802SOL    HW221306   2.760   4.667   2.693
 6803SOL     OW21307   5.813   4.983   6.092
 6803SOL    HW121308   5.905   5.002   6.125
 6803SOL    HW221309   5.772   5.068   6.059
 6804SOL     OW21310   2.987   6.022   1.630
 6804SOL    HW121311   2.956   5.927   1.642
 6804SOL    HW221312   3.060   6.024   1.561
 6805SOL     OW21313   0.732   4.156   3.821
 6805SOL    HW121314   0.702   4.218   3.749
 6805SOL    HW221315   0.828   4.133   3.808
 6806SOL     OW21316   6.110   3.452   2.105
 6806SOL    HW121317   6.049   3.529   2.124
 6806SOL    HW221318   6.057   3.367   2.101
 6807SOL     OW21319   4.138   3.251   2.592
 6807SOL    HW121320   4.100   3.343   2.600
 6807SOL    HW221321   4.181   3.224   2.678
 6808SOL     OW21322   2.932   6.025   4.535
 6808SOL    HW121323   2.908   6.036   4.438
 6808SOL    HW221324   2.859   5.974   4.582
 6809SOL     OW21325   6.275   1.960   0.141
 6809SOL    HW121326   6.214   1.912   0.204
 6809SOL    HW221327   6.353   1.901   0.119
 6810SOL     OW21328   3.529   0.295   5.239
 6810SOL    HW121329   3.495   0.371   5.185
 6810SOL    HW221330   3.619   0.267   5.205
 6811SOL     OW21331   6.307   1.789   1.201
 6811SOL    HW121332   6.231   1.724   1.189
 6811SOL    HW221333   6.342   1.815   1.111
 6812SOL     OW21334   3.765   4.651   5.956
 6812SOL    HW121335   3.722   4.588   5.892
 6812SOL    HW221336   3.788   4.604   6.041
 6813SOL     OW21337   1.062   3.618   1.531
 6813SOL    HW121338   1.106   3.537   1.569
 6813SOL    HW221339   1.069   3.616   1.432
 6814SOL     OW21340   5.120   2.511   1.534
 6814SOL    HW121341   5.212   2.506   1.496
 6814SOL    HW221342   5.058   2.458   1.477
 6815SOL     OW21343   1.667   5.984   1.600
 6815SOL    HW121344   1.718   6.062   1.636
 6815SOL    HW221345   1.718   5.900   1.618
 6816SOL     OW21346   4.983   0.773   3.128
 6816SOL    HW121347   4.945   0.845   3.185
 6816SOL    HW221348   4.909   0.724   3.082
 6817SOL     OW21349   6.086   0.762   0.646
 6817SOL    HW121350   6.036   0.685   0.687
 6817SOL    HW221351   6.175   0.729   0.613
 6818SOL     OW21352   0.506   6.187   5.455
 6818SOL    HW121353   0.558   6.260   5.412
 6818SOL    HW221354   0.429   6.162   5.397
 6819SOL     OW21355   6.157   4.030   0.650
 6819SOL    HW121356   6.254   4.026   0.671
 6819SOL    HW221357   6.104   4.029   0.735
 6820SOL     OW21358   2.963   4.481   1.418
 6820SOL    HW121359   2.985   4.556   1.481
 6820SOL    HW221360   2.911   4.411   1.467
 6821SOL     OW21361   2.520   3.833   6.169
 6821SOL    HW121362   2.475   3.813   6.256
 6821SOL    HW221363   2.522   3.751   6.112
 6822SOL     OW21364   0.978   4.290   5.118
 6822SOL    HW121365   1.063   4.341   5.125
 6822SOL    HW221366   0.902   4.353   5.103
 6823SOL     OW21367   6.579   3.456   5.469
 6823SOL    HW121368   6.560   3.361   5.494
 6823SOL    HW221369   6.647   3.458   5.396
 6824SOL     OW21370   1.527   1.029   3.610
 6824SOL    HW121371   1.578   1.096   3.663
 6824SOL    HW221372   1.435   1.019   3.649
 6825SOL     OW21373   5.171   5.795   1.544
 6825SOL    HW121374   5.220   5.737   1.608
 6825SOL    HW221375   5.223   5.803   1.459
 6826SOL     OW21376   5.350   0.867   4.269
 6826SOL    HW121377   5.445   0.834   4.278
 6826SOL    HW221378   5.346   0.964   4.292
 6827SOL     OW21379   5.954   5.416   5.111
 6827SOL    HW121380   5.959   5.461   5.200
 6827SOL    HW221381   5.875   5.451   5.060
 6828SOL     OW21382   2.394   1.338   2.618
 6828SOL    HW121383   2.464   1.401   2.585
 6828SOL    HW221384   2.304   1.372   2.591
 6829SOL     OW21385   5.899   6.512   5.188
 6829SOL    HW121386   5.992   6.539   5.210
 6829SOL    HW221387   5.896   6.474   5.096
 6830SOL     OW21388   3.592   5.906   3.721
 6830SOL    HW121389   3.496   5.931   3.704
 6830SOL    HW221390   3.607   5.811   3.693
 6831SOL     OW21391   2.071   0.043   6.730
 6831SOL    HW121392   2.135   0.084   6.665
 6831SOL    HW221393   2.031   0.114   6.788
 6832SOL     OW21394   4.033   3.754   0.628
 6832SOL    HW121395   4.078   3.710   0.706
 6832SOL    HW221396   4.068   3.846   0.617
 6833SOL     OW21397   3.478   5.396   0.354
 6833SOL    HW121398   3.462   5.449   0.271
 6833SOL    HW221399   3.523   5.452   0.423
 6834SOL     OW21400   6.689   6.042   4.780
 6834SOL    HW121401   6.619   6.044   4.709
 6834SOL    HW221402   6.672   5.966   4.842
 6835SOL     OW21403   3.259   0.088   3.342
 6835SOL    HW121404   3.229   0.006   3.294
 6835SOL    HW221405   3.192   0.161   3.330
 6836SOL     OW21406   1.292   4.549   0.104
 6836SOL    HW121407   1.345   4.632   0.089
 6836SOL    HW221408   1.354   4.471   0.114
 6837SOL     OW21409   6.045   2.805   1.658
 6837SOL    HW121410   5.963   2.853   1.690
 6837SOL    HW221411   6.126   2.860   1.677
 6838SOL     OW21412   2.470   4.765   0.051
 6838SOL    HW121413   2.564   4.730   0.044
 6838SOL    HW221414   2.471   4.864   0.036
 6839SOL     OW21415   0.213   3.267   5.132
 6839SOL    HW121416   0.255   3.224   5.052
 6839SOL    HW221417   0.114   3.270   5.121
 6840SOL     OW21418   3.429   6.822   4.236
 6840SOL    HW121419   3.389   6.828   4.327
 6840SOL    HW221420   3.510   6.880   4.231
 6841SOL     OW21421   5.013   5.968   1.179
 6841SOL    HW121422   5.017   5.869   1.191
 6841SOL    HW221423   4.940   6.006   1.236
 6842SOL     OW21424   6.641   4.230   3.299
 6842SOL    HW121425   6.709   4.156   3.293
 6842SOL    HW221426   6.550   4.190   3.308
 6843SOL     OW21427   4.358   3.146   1.716
 6843SOL    HW121428   4.428   3.101   1.771
 6843SOL    HW221429   4.401   3.217   1.660
 6844SOL     OW21430   3.191   6.553   3.947
 6844SOL    HW121431   3.217   6.578   3.854
 6844SOL    HW221432   3.189   6.635   4.004
 6845SOL     OW21433   3.666   4.225   0.164
 6845SOL    HW121434   3.582   4.240   0.112
 6845SOL    HW221435   3.664   4.134   0.205
 6846SOL     OW21436   3.224   3.098   3.749
 6846SOL    HW121437   3.152   3.107   3.817
 6846SOL    HW221438   3.208   3.163   3.674
 6847SOL     OW21439   4.977   3.708   0.519
 6847SOL    HW121440   4.927   3.661   0.445
 6847SOL    HW221441   4.994   3.643   0.593
 6848SOL     OW21442   0.913   6.400   4.486
 6848SOL    HW121443   0.909   6.453   4.571
 6848SOL    HW221444   0.988   6.433   4.429
 6849SOL     OW21445   2.496   0.930   4.497
 6849SOL    HW121446   2.463   1.024   4.486
 6849SOL    HW221447   2.573   0.929   4.561
 6850SOL     OW21448   0.636   1.710   1.533
 6850SOL    HW121449   0.696   1.641   1.491
 6850SOL    HW221450   0.561   1.665   1.580
 6851SOL     OW21451   1.881   5.677   0.970
 6851SOL    HW121452   1.867   5.694   1.068
 6851SOL    HW221453   1.948   5.742   0.934
 6852SOL     OW21454   4.795   4.656   2.700
 6852SOL    HW121455   4.881   4.605   2.705
 6852SOL    HW221456   4.789   4.701   2.610
 6853SOL     OW21457   6.183   4.314   4.675
 6853SOL    HW121458   6.105   4.350   4.726
 6853SOL    HW221459   6.158   4.303   4.578
 6854SOL     OW21460   6.247   0.956   6.400
 6854SOL    HW121461   6.195   0.874   6.375
 6854SOL    HW221462   6.206   0.998   6.481
 6855SOL     OW21463   2.372   0.113   3.295
 6855SOL    HW121464   2.311   0.128   3.218
 6855SOL    HW221465   2.453   0.171   3.286
 6856SOL     OW21466   0.794   4.776   5.314
 6856SOL    HW121467   0.846   4.762   5.398
 6856SOL    HW221468   0.809   4.869   5.280
 6857SOL     OW21469   5.172   0.488   6.222
 6857SOL    HW121470   5.105   0.546   6.177
 6857SOL    HW221471   5.154   0.486   6.321
 6858SOL     OW21472   3.503   3.521   6.495
 6858SOL    HW121473   3.486   3.450   6.565
 6858SOL    HW221474   3.419   3.538   6.445
 6859SOL     OW21475   4.191   0.267   1.414
 6859SOL    HW121476   4.093   0.264   1.431
 6859SOL    HW221477   4.218   0.188   1.360
 6860SOL     OW21478   4.580   3.298   0.312
 6860SOL    HW121479   4.585   3.201   0.287
 6860SOL    HW221480   4.489   3.333   0.289
 6861SOL     OW21481   6.475   3.257   0.054
 6861SOL    HW121482   6.450   3.235   0.148
 6861SOL    HW221483   6.400   3.232   7.020
 6862SOL     OW21484   3.110   4.875   4.475
 6862SOL    HW121485   3.194   4.918   4.508
 6862SOL    HW221486   3.050   4.854   4.552
 6863SOL     OW21487   1.185   3.517   3.310
 6863SOL    HW121488   1.176   3.491   3.406
 6863SOL    HW221489   1.275   3.559   3.294
 6864SOL     OW21490   2.753   6.077   5.559
 6864SOL    HW121491   2.668   6.034   5.528
 6864SOL    HW221492   2.791   6.024   5.635
 6865SOL     OW21493   0.999   2.476   5.252
 6865SOL    HW121494   1.015   2.493   5.349
 6865SOL    HW221495   1.077   2.511   5.199
 6866SOL     OW21496   0.581   4.280   2.943
 6866SOL    HW121497   0.547   4.196   2.984
 6866SOL    HW221498   0.580   4.353   3.011
 6867SOL     OW21499   2.903   5.960   3.574
 6867SOL    HW121500   2.991   6.004   3.591
 6867SOL    HW221501   2.870   5.984   3.483
 6868SOL     OW21502   2.248   6.040   5.786
 6868SOL    HW121503   2.302   6.113   5.745
 6868SOL    HW221504   2.207   6.073   5.872
 6869SOL     OW21505   6.861   2.501   3.224
 6869SOL    HW121506   6.789   2.545   3.278
 6869SOL    HW221507   6.949   2.544   3.245
 6870SOL     OW21508   4.850   4.006   2.863
 6870SOL    HW121509   4.807   4.079   2.811
 6870SOL    HW221510   4.833   4.020   2.960
 6871SOL     OW21511   4.023   5.460   2.510
 6871SOL    HW121512   3.976   5.521   2.575
 6871SOL    HW221513   4.100   5.416   2.556
 6872SOL     OW21514   3.610   4.263   1.188
 6872SOL    HW121515   3.695   4.286   1.140
 6872SOL    HW221516   3.633   4.234   1.281
 6873SOL     OW21517   4.438   4.762   5.588
 6873SOL    HW121518   4.339   4.773   5.598
 6873SOL    HW221519   4.466   4.672   5.622
 6874SOL     OW21520   1.226   1.795   6.243
 6874SOL    HW121521   1.290   1.730   6.202
 6874SOL    HW221522   1.267   1.836   6.324
 6875SOL     OW21523   3.843   6.415   4.610
 6875SOL    HW121524   3.904   6.339   4.591
 6875SOL    HW221525   3.748   6.384   4.604
 6876SOL     OW21526   3.198   6.797   5.202
 6876SOL    HW121527   3.158   6.707   5.184
 6876SOL    HW221528   3.194   6.816   5.301
 6877SOL     OW21529   1.877   4.263   0.652
 6877SOL    HW121530   1.871   4.361   0.672
 6877SOL    HW221531   1.828   4.243   0.568
 6878SOL     OW21532   2.237   2.285   5.668
 6878SOL    HW121533   2.322   2.260   5.713
 6878SOL    HW221534   2.174   2.208   5.669
 6879SOL     OW21535   6.358   0.996   5.897
 6879SOL    HW121536   6.336   0.968   5.991
 6879SOL    HW221537   6.275   0.997   5.842
 6880SOL     OW21538   1.463   5.354   4.191
 6880SOL    HW121539   1.402   5.431   4.172
 6880SOL    HW221540   1.472   5.297   4.109
 6881SOL     OW21541   5.402   6.983   0.912
 6881SOL    HW121542   5.377   6.982   1.008
 6881SOL    HW221543   5.501   6.993   0.903
 6882SOL     OW21544   2.126   5.919   5.464
 6882SOL    HW121545   2.027   5.921   5.450
 6882SOL    HW221546   2.146   5.929   5.562
 6883SOL     OW21547   2.196   0.036   2.009
 6883SOL    HW121548   2.132   6.996   1.973
 6883SOL    HW221549   2.234   0.090   1.934
 6884SOL     OW21550   1.543   5.257   3.417
 6884SOL    HW121551   1.602   5.217   3.348
 6884SOL    HW221552   1.555   5.356   3.418
 6885SOL     OW21553   4.557   4.513   4.787
 6885SOL    HW121554   4.611   4.430   4.804
 6885SOL    HW221555   4.482   4.518   4.852
 6886SOL     OW21556   5.769   6.403   0.816
 6886SOL    HW121557   5.732   6.323   0.865
 6886SOL    HW221558   5.699   6.474   0.813
 6887SOL     OW21559   6.930   0.650   4.834
 6887SOL    HW121560   6.877   0.657   4.750
 6887SOL    HW221561   6.868   0.633   4.911
 6888SOL     OW21562   6.842   6.976   3.759
 6888SOL    HW121563   6.881   6.975   3.667
 6888SOL    HW221564   6.907   7.018   3.822
 6889SOL     OW21565   2.125   4.028   6.358
 6889SOL    HW121566   2.085   4.116   6.333
 6889SOL    HW221567   2.129   4.020   6.457
 6890SOL     OW21568   1.572   0.293   1.155
 6890SOL    HW121569   1.666   0.327   1.162
 6890SOL    HW221570   1.540   0.303   1.061
 6891SOL     OW21571   5.475   5.757   5.320
 6891SOL    HW121572   5.499   5.818   5.395
 6891SOL    HW221573   5.397   5.700   5.347
 6892SOL     OW21574   2.632   2.135   4.542
 6892SOL    HW121575   2.607   2.099   4.452
 6892SOL    HW221576   2.588   2.224   4.556
 6893SOL     OW21577   5.055   6.985   0.366
 6893SOL    HW121578   4.992   0.032   0.390
 6893SOL    HW221579   5.134   7.022   0.317
 6894SOL     OW21580   5.984   4.434   4.817
 6894SOL    HW121581   6.015   4.529   4.820
 6894SOL    HW221582   5.888   4.429   4.843
 6895SOL     OW21583   5.127   4.605   3.945
 6895SOL    HW121584   5.205   4.643   3.995
 6895SOL    HW221585   5.048   4.600   4.006
 6896SOL     OW21586   5.300   2.208   2.141
 6896SOL    HW121587   5.373   2.251   2.195
 6896SOL    HW221588   5.339   2.137   2.083
 6897SOL     OW21589   4.164   1.695   1.349
 6897SOL    HW121590   4.229   1.767   1.375
 6897SOL    HW221591   4.201   1.607   1.377
 6898SOL     OW21592   4.430   0.986   1.551
 6898SOL    HW121593   4.502   1.018   1.613
 6898SOL    HW221594   4.451   1.015   1.458
 6899SOL     OW21595   5.257   4.311   5.318
 6899SOL    HW121596   5.195   4.264   5.256
 6899SOL    HW221597   5.321   4.246   5.358
 6900SOL     OW21598   4.362   0.429   5.770
 6900SOL    HW121599   4.322   0.424   5.679
 6900SOL    HW221600   4.363   0.338   5.811
 6901SOL     OW21601   1.452   0.636   0.047
 6901SOL    HW121602   1.473   0.734   0.039
 6901SOL    HW221603   1.535   0.586   0.073
 6902SOL     OW21604   6.669   4.864   2.202
 6902SOL    HW121605   6.713   4.882   2.290
 6902SOL    HW221606   6.589   4.806   2.215
 6903SOL     OW21607   6.198   4.459   6.919
 6903SOL    HW121608   6.158   4.368   6.913
 6903SOL    HW221609   6.292   4.456   6.885
 6904SOL     OW21610   0.038   1.064   2.517
 6904SOL    HW121611   6.994   1.113   2.567
 6904SOL    HW221612   0.055   0.975   2.560
 6905SOL     OW21613   3.500   4.832   0.672
 6905SOL    HW121614   3.452   4.888   0.604
 6905SOL    HW221615   3.500   4.736   0.643
 6906SOL     OW21616   5.865   6.513   2.111
 6906SOL    HW121617   5.784   6.484   2.162
 6906SOL    HW221618   5.838   6.551   2.022
 6907SOL     OW21619   3.516   1.252   2.038
 6907SOL    HW121620   3.425   1.292   2.032
 6907SOL    HW221621   3.550   1.232   1.946
 6908SOL     OW21622   5.708   6.540   6.712
 6908SOL    HW121623   5.627   6.577   6.666
 6908SOL    HW221624   5.790   6.569   6.664
 6909SOL     OW21625   2.826   2.308   6.903
 6909SOL    HW121626   2.830   2.229   6.842
 6909SOL    HW221627   2.894   2.376   6.874
 6910SOL     OW21628   3.786   1.439   0.772
 6910SOL    HW121629   3.841   1.473   0.696
 6910SOL    HW221630   3.735   1.358   0.743
 6911SOL     OW21631   3.818   5.817   5.408
 6911SOL    HW121632   3.750   5.890   5.397
 6911SOL    HW221633   3.874   5.811   5.325
 6912SOL     OW21634   3.357   5.527   1.830
 6912SOL    HW121635   3.405   5.593   1.774
 6912SOL    HW221636   3.347   5.563   1.923
 6913SOL     OW21637   3.933   6.196   5.691
 6913SOL    HW121638   3.861   6.127   5.688
 6913SOL    HW221639   4.020   6.155   5.662
 6914SOL     OW21640   0.292   4.930   0.101
 6914SOL    HW121641   0.352   5.003   0.067
 6914SOL    HW221642   0.262   4.952   0.193
 6915SOL     OW21643   0.961   0.018   6.818
 6915SOL    HW121644   0.945   0.108   6.858
 6915SOL    HW221645   0.974   6.978   6.891
 6916SOL     OW21646   6.458   0.351   6.289
 6916SOL    HW121647   6.387   0.421   6.279
 6916SOL    HW221648   6.471   0.329   6.386
 6917SOL     OW21649   4.079   6.336   6.116
 6917SOL    HW121650   3.989   6.315   6.077
 6917SOL    HW221651   4.079   6.316   6.214
 6918SOL     OW21652   1.460   2.662   3.837
 6918SOL    HW121653   1.378   2.713   3.812
 6918SOL    HW221654   1.434   2.579   3.885
 6919SOL     OW21655   1.689   6.129   3.432
 6919SOL    HW121656   1.703   6.050   3.373
 6919SOL    HW221657   1.690   6.101   3.528
 6920SOL     OW21658   5.718   6.254   3.824
 6920SOL    HW121659   5.706   6.351   3.846
 6920SOL    HW221660   5.743   6.245   3.728
 6921SOL     OW21661   1.747   4.712   2.374
 6921SOL    HW121662   1.768   4.792   2.431
 6921SOL    HW221663   1.783   4.726   2.282
 6922SOL     OW21664   1.812   6.689   1.831
 6922SOL    HW121665   1.749   6.759   1.863
 6922SOL    HW221666   1.768   6.599   1.836
 6923SOL     OW21667   4.743   6.001   5.183
 6923SOL    HW121668   4.813   6.071   5.197
 6923SOL    HW221669   4.702   6.013   5.092
 6924SOL     OW21670   5.322   6.043   2.610
 6924SOL    HW121671   5.280   6.125   2.651
 6924SOL    HW221672   5.258   6.000   2.547
 6925SOL     OW21673   4.224   5.623   1.487
 6925SOL    HW121674   4.288   5.676   1.431
 6925SOL    HW221675   4.192   5.543   1.436
 6926SOL     OW21676   2.699   4.439   5.318
 6926SOL    HW121677   2.783   4.460   5.267
 6926SOL    HW221678   2.671   4.345   5.299
 6927SOL     OW21679   4.544   3.610   0.287
 6927SOL    HW121680   4.472   3.541   0.282
 6927SOL    HW221681   4.516   3.683   0.350
 6928SOL     OW21682   6.629   0.055   6.368
 6928SOL    HW121683   6.630   6.989   6.404
 6928SOL    HW221684   6.545   0.101   6.396
 6929SOL     OW21685   4.170   6.556   0.781
 6929SOL    HW121686   4.198   6.624   0.849
 6929SOL    HW221687   4.246   6.538   0.719
 6930SOL     OW21688   0.083   0.963   3.337
 6930SOL    HW121689   0.016   1.017   3.389
 6930SOL    HW221690   0.130   0.900   3.399
 6931SOL     OW21691   2.724   0.029   1.056
 6931SOL    HW121692   2.774   0.018   1.143
 6931SOL    HW221693   2.709   6.966   1.015
 6932SOL     OW21694   3.480   2.666   0.646
 6932SOL    HW121695   3.452   2.721   0.724
 6932SOL    HW221696   3.521   2.725   0.576
 6933SOL     OW21697   3.175   6.161   5.306
 6933SOL    HW121698   3.146   6.141   5.212
 6933SOL    HW221699   3.135   6.093   5.368
 6934SOL     OW21700   5.544   5.151   0.023
 6934SOL    HW121701   5.621   5.186   6.998
 6934SOL    HW221702   5.537   5.052   0.012
 6935SOL     OW21703   4.664   5.252   3.264
 6935SOL    HW121704   4.706   5.334   3.302
 6935SOL    HW221705   4.659   5.181   3.335
 6936SOL     OW21706   1.202   4.896   0.378
 6936SOL    HW121707   1.285   4.840   0.385
 6936SOL    HW221708   1.208   4.955   0.298
 6937SOL     OW21709   4.939   6.374   7.001
 6937SOL    HW121710   4.904   6.371   6.907
 6937SOL    HW221711   4.899   6.298   0.026
 6938SOL     OW21712   6.858   2.631   5.444
 6938SOL    HW121713   6.888   2.634   5.540
 6938SOL    HW221714   6.843   2.724   5.411
 6939SOL     OW21715   6.207   4.542   2.156
 6939SOL    HW121716   6.147   4.560   2.078
 6939SOL    HW221717   6.292   4.594   2.145
 6940SOL     OW21718   4.346   1.263   3.968
 6940SOL    HW121719   4.318   1.286   3.875
 6940SOL    HW221720   4.430   1.208   3.965
 6941SOL     OW21721   3.523   2.734   5.376
 6941SOL    HW121722   3.451   2.666   5.368
 6941SOL    HW221723   3.521   2.795   5.296
 6942SOL     OW21724   6.437   0.962   6.774
 6942SOL    HW121725   6.460   1.058   6.759
 6942SOL    HW221726   6.341   0.947   6.754
 6943SOL     OW21727   5.773   4.221   0.505
 6943SOL    HW121728   5.748   4.153   0.574
 6943SOL    HW221729   5.871   4.216   0.488
 6944SOL     OW21730   2.404   0.176   0.256
 6944SOL    HW121731   2.320   0.157   0.306
 6944SOL    HW221732   2.432   0.271   0.274
 6945SOL     OW21733   2.828   1.447   5.909
 6945SOL    HW121734   2.856   1.443   5.814
 6945SOL    HW221735   2.789   1.537   5.929
 6946SOL     OW21736   6.165   4.459   2.953
 6946SOL    HW121737   6.109   4.526   3.001
 6946SOL    HW221738   6.136   4.367   2.978
 6947SOL     OW21739   3.759   6.807   0.931
 6947SOL    HW121740   3.796   6.770   1.016
 6947SOL    HW221741   3.784   6.748   0.855
 6948SOL     OW21742   3.094   1.445   6.207
 6948SOL    HW121743   3.146   1.454   6.292
 6948SOL    HW221744   3.034   1.524   6.197
 6949SOL     OW21745   5.057   0.214   2.534
 6949SOL    HW121746   5.043   0.208   2.632
 6949SOL    HW221747   5.100   0.302   2.512
 6950SOL     OW21748   3.440   2.028   3.769
 6950SOL    HW121749   3.481   2.120   3.769
 6950SOL    HW221750   3.414   2.004   3.676
 6951SOL     OW21751   3.773   4.041   5.719
 6951SOL    HW121752   3.856   3.991   5.697
 6951SOL    HW221753   3.744   4.094   5.638
 6952SOL     OW21754   0.569   3.609   6.842
 6952SOL    HW121755   0.493   3.555   6.807
 6952SOL    HW221756   0.551   3.707   6.826
 6953SOL     OW21757   5.862   2.252   4.790
 6953SOL    HW121758   5.856   2.314   4.869
 6953SOL    HW221759   5.796   2.280   4.721
 6954SOL     OW21760   0.658   4.587   1.983
 6954SOL    HW121761   0.696   4.499   1.957
 6954SOL    HW221762   0.571   4.602   1.936
 6955SOL     OW21763   6.733   1.606   3.647
 6955SOL    HW121764   6.709   1.510   3.635
 6955SOL    HW221765   6.703   1.637   3.737
 6956SOL     OW21766   3.687   3.881   1.244
 6956SOL    HW121767   3.658   3.822   1.169
 6956SOL    HW221768   3.623   3.874   1.320
 6957SOL     OW21769   1.438   4.305   0.111
 6957SOL    HW121770   1.510   4.302   0.180
 6957SOL    HW221771   1.464   4.245   0.034
 6958SOL     OW21772   2.196   3.175   6.132
 6958SOL    HW121773   2.256   3.104   6.169
 6958SOL    HW221774   2.226   3.264   6.166
 6959SOL     OW21775   4.117   1.328   5.581
 6959SOL    HW121776   4.210   1.354   5.605
 6959SOL    HW221777   4.052   1.380   5.637
 6960SOL     OW21778   1.189   6.016   6.927
 6960SOL    HW121779   1.230   5.984   7.012
 6960SOL    HW221780   1.252   6.079   6.881
 6961SOL     OW21781   6.025   0.625   3.686
 6961SOL    HW121782   6.001   0.607   3.591
 6961SOL    HW221783   5.970   0.702   3.720
 6962SOL     OW21784   3.332   3.105   0.645
 6962SOL    HW121785   3.354   3.040   0.572
 6962SOL    HW221786   3.278   3.059   0.715
 6963SOL     OW21787   7.011   5.969   1.591
 6963SOL    HW121788   6.976   5.956   1.684
 6963SOL    HW221789   0.060   6.033   1.592
 6964SOL     OW21790   4.211   5.063   5.727
 6964SOL    HW121791   4.212   5.026   5.820
 6964SOL    HW221792   4.131   5.028   5.679
 6965SOL     OW21793   5.909   0.525   6.224
 6965SOL    HW121794   5.811   0.508   6.239
 6965SOL    HW221795   5.926   0.533   6.125
 6966SOL     OW21796   3.800   2.136   3.845
 6966SOL    HW121797   3.859   2.217   3.854
 6966SOL    HW221798   3.786   2.116   3.748
 6967SOL     OW21799   2.580   2.803   0.117
 6967SOL    HW121800   2.597   2.847   0.029
 6967SOL    HW221801   2.668   2.786   0.162
 6968SOL     OW21802   2.888   0.417   3.533
 6968SOL    HW121803   2.837   0.333   3.514
 6968SOL    HW221804   2.826   0.495   3.530
 6969SOL     OW21805   3.591   3.200   1.734
 6969SOL    HW121806   3.500   3.186   1.773
 6969SOL    HW221807   3.584   3.212   1.635
 6970SOL     OW21808   4.891   3.797   0.149
 6970SOL    HW121809   4.971   3.851   0.175
 6970SOL    HW221810   4.871   3.731   0.222
 6971SOL     OW21811   5.851   2.276   1.909
 6971SOL    HW121812   5.933   2.276   1.965
 6971SOL    HW221813   5.819   2.370   1.896
 6972SOL     OW21814   4.972   6.426   4.116
 6972SOL    HW121815   4.971   6.525   4.100
 6972SOL    HW221816   4.940   6.407   4.209
 6973SOL     OW21817   1.641   4.556   3.087
 6973SOL    HW121818   1.641   4.514   3.178
 6973SOL    HW221819   1.667   4.652   3.095
 6974SOL     OW21820   2.744   3.432   5.285
 6974SOL    HW121821   2.657   3.428   5.335
 6974SOL    HW221822   2.791   3.517   5.306
 6975SOL     OW21823   1.844   0.036   5.939
 6975SOL    HW121824   1.916   0.065   5.876
 6975SOL    HW221825   1.861   6.969   5.967
 6976SOL     OW21826   1.040   6.071   1.838
 6976SOL    HW121827   0.952   6.041   1.874
 6976SOL    HW221828   1.099   5.991   1.823
 6977SOL     OW21829   5.986   2.215   0.981
 6977SOL    HW121830   5.993   2.290   0.916
 6977SOL    HW221831   5.890   2.187   0.989
 6978SOL     OW21832   4.959   3.434   3.836
 6978SOL    HW121833   4.968   3.431   3.737
 6978SOL    HW221834   4.962   3.341   3.873
 6979SOL     OW21835   0.427   3.809   4.223
 6979SOL    HW121836   0.350   3.826   4.286
 6979SOL    HW221837   0.405   3.731   4.164
 6980SOL     OW21838   4.947   2.077   5.496
 6980SOL    HW121839   4.908   2.168   5.513
 6980SOL    HW221840   4.877   2.018   5.456
 6981SOL     OW21841   3.259   3.544   6.347
 6981SOL    HW121842   3.164   3.563   6.369
 6981SOL    HW221843   3.271   3.543   6.248
 6982SOL     OW21844   1.416   0.168   4.349
 6982SOL    HW121845   1.391   0.258   4.386
 6982SOL    HW221846   1.482   0.180   4.275
 6983SOL     OW21847   5.580   1.257   2.938
 6983SOL    HW121848   5.499   1.244   2.995
 6983SOL    HW221849   5.573   1.200   2.856
 6984SOL     OW21850   2.238   1.409   6.752
 6984SOL    HW121851   2.201   1.317   6.768
 6984SOL    HW221852   2.326   1.402   6.705
 6985SOL     OW21853   4.440   6.945   3.812
 6985SOL    HW121854   4.363   6.949   3.749
 6985SOL    HW221855   4.512   6.887   3.773
 6986SOL     OW21856   2.440   6.276   5.917
 6986SOL    HW121857   2.405   6.365   5.943
 6986SOL    HW221858   2.434   6.213   5.995
 6987SOL     OW21859   6.466   3.859   6.505
 6987SOL    HW121860   6.521   3.939   6.485
 6987SOL    HW221861   6.460   3.801   6.423
 6988SOL     OW21862   5.398   2.079   6.452
 6988SOL    HW121863   5.377   2.075   6.354
 6988SOL    HW221864   5.429   1.989   6.483
 6989SOL     OW21865   2.207   3.992   4.116
 6989SOL    HW121866   2.136   4.060   4.100
 6989SOL    HW221867   2.269   4.024   4.188
 6990SOL     OW21868   4.317   3.812   1.601
 6990SOL    HW121869   4.250   3.774   1.664
 6990SOL    HW221870   4.300   3.777   1.509
 6991SOL     OW21871   4.521   4.535   5.716
 6991SOL    HW121872   4.542   4.556   5.812
 6991SOL    HW221873   4.605   4.513   5.667
 6992SOL     OW21874   6.842   6.203   4.953
 6992SOL    HW121875   6.859   6.144   4.874
 6992SOL    HW221876   6.890   6.167   5.033
 6993SOL     OW21877   0.131   0.846   2.665
 6993SOL    HW121878   0.184   0.912   2.720
 6993SOL    HW221879   0.090   0.778   2.726
 6994SOL     OW21880   1.857   2.457   0.488
 6994SOL    HW121881   1.857   2.391   0.563
 6994SOL    HW221882   1.930   2.434   0.424
 6995SOL     OW21883   0.916   5.668   3.739
 6995SOL    HW121884   0.954   5.582   3.773
 6995SOL    HW221885   0.970   5.745   3.773
 6996SOL     OW21886   1.513   6.775   5.120
 6996SOL    HW121887   1.590   6.727   5.164
 6996SOL    HW221888   1.548   6.831   5.045
 6997SOL     OW21889   5.080   4.506   4.807
 6997SOL    HW121890   5.165   4.558   4.817
 6997SOL    HW221891   5.008   4.565   4.772
 6998SOL     OW21892   2.131   1.956   2.088
 6998SOL    HW121893   2.182   1.934   2.005
 6998SOL    HW221894   2.179   1.918   2.168
 6999SOL     OW21895   5.546   2.835   6.825
 6999SOL    HW121896   5.571   2.815   6.920
 6999SOL    HW221897   5.480   2.911   6.824
 7000SOL     OW21898   7.009   0.238   2.097
 7000SOL    HW121899   6.933   0.286   2.142
 7000SOL    HW221900   0.010   0.290   2.017
 7001SOL     OW21901   3.341   1.419   6.743
 7001SOL    HW121902   3.246   1.445   6.725
 7001SOL    HW221903   3.342   1.331   6.792
 7002SOL     OW21904   3.011   5.684   1.333
 7002SOL    HW121905   3.024   5.638   1.420
 7002SOL    HW221906   2.922   5.658   1.295
 7003SOL     OW21907   1.227   6.559   6.205
 7003SOL    HW121908   1.207   6.656   6.191
 7003SOL    HW221909   1.194   6.507   6.126
 7004SOL     OW21910   2.487   3.913   6.472
 7004SOL    HW121911   2.585   3.907   6.494
 7004SOL    HW221912   2.471   3.991   6.411
 7005SOL     OW21913   6.543   0.159   5.605
 7005SOL    HW121914   6.453   0.124   5.628
 7005SOL    HW221915   6.564   0.137   5.509
 7006SOL     OW21916   5.185   5.212   4.461
 7006SOL    HW121917   5.110   5.256   4.511
 7006SOL    HW221918   5.192   5.251   4.369
 7007SOL     OW21919   5.452   4.734   1.471
 7007SOL    HW121920   5.404   4.748   1.385
 7007SOL    HW221921   5.549   4.716   1.453
 7008SOL     OW21922   0.423   6.757   4.419
 7008SOL    HW121923   0.468   6.808   4.346
 7008SOL    HW221924   0.362   6.689   4.379
 7009SOL     OW21925   6.601   3.894   1.839
 7009SOL    HW121926   6.548   3.977   1.856
 7009SOL    HW221927   6.612   3.881   1.741
 7010SOL     OW21928   5.015   4.383   5.456
 7010SOL    HW121929   5.087   4.316   5.441
 7010SOL    HW221930   4.931   4.337   5.481
 7011SOL     OW21931   1.877   0.327   6.211
 7011SOL    HW121932   1.837   0.366   6.294
 7011SOL    HW221933   1.805   0.308   6.145
 7012SOL     OW21934   7.007   0.953   1.963
 7012SOL    HW121935   6.984   0.862   1.998
 7012SOL    HW221936   0.030   1.003   2.033
 7013SOL     OW21937   6.137   1.695   1.547
 7013SOL    HW121938   6.050   1.728   1.512
 7013SOL    HW221939   6.120   1.632   1.623
 7014SOL     OW21940   2.637   5.253   1.267
 7014SOL    HW121941   2.545   5.287   1.248
 7014SOL    HW221942   2.670   5.202   1.187
 7015SOL     OW21943   4.546   1.996   2.799
 7015SOL    HW121944   4.571   2.084   2.757
 7015SOL    HW221945   4.625   1.935   2.797
 7016SOL     OW21946   5.645   4.675   0.121
 7016SOL    HW121947   5.736   4.634   0.120
 7016SOL    HW221948   5.581   4.614   0.167
 7017SOL     OW21949   5.000   2.746   5.584
 7017SOL    HW121950   4.931   2.679   5.558
 7017SOL    HW221951   5.013   2.745   5.683
 7018SOL     OW21952   0.505   4.643   3.727
 7018SOL    HW121953   0.498   4.743   3.732
 7018SOL    HW221954   0.599   4.615   3.749
 7019SOL     OW21955   6.474   6.343   2.530
 7019SOL    HW121956   6.568   6.373   2.519
 7019SOL    HW221957   6.413   6.404   2.481
 7020SOL     OW21958   0.111   5.767   0.292
 7020SOL    HW121959   0.049   5.726   0.225
 7020SOL    HW221960   0.147   5.696   0.352
 7021SOL     OW21961   3.126   6.877   5.485
 7021SOL    HW121962   3.151   6.969   5.515
 7021SOL    HW221963   3.075   6.831   5.558
 7022SOL     OW21964   3.601   4.801   5.580
 7022SOL    HW121965   3.696   4.768   5.586
 7022SOL    HW221966   3.549   4.768   5.658
 7023SOL     OW21967   5.033   5.188   2.471
 7023SOL    HW121968   5.052   5.117   2.540
 7023SOL    HW221969   5.076   5.162   2.385
 7024SOL     OW21970   6.609   6.943   1.929
 7024SOL    HW121971   6.673   6.967   2.003
 7024SOL    HW221972   6.521   6.988   1.945
 7025SOL     OW21973   2.979   0.234   1.694
 7025SOL    HW121974   2.879   0.225   1.684
 7025SOL    HW221975   3.012   0.168   1.761
 7026SOL     OW21976   4.402   2.630   0.376
 7026SOL    HW121977   4.417   2.533   0.396
 7026SOL    HW221978   4.425   2.685   0.456
 7027SOL     OW21979   5.562   6.066   5.195
 7027SOL    HW121980   5.568   6.114   5.283
 7027SOL    HW221981   5.622   6.112   5.128
 7028SOL     OW21982   3.431   0.560   5.146
 7028SOL    HW121983   3.404   0.557   5.242
 7028SOL    HW221984   3.350   0.552   5.088
 7029SOL     OW21985   3.627   6.917   4.057
 7029SOL    HW121986   3.657   6.826   4.028
 7029SOL    HW221987   3.555   6.949   3.996
 7030SOL     OW21988   1.015   3.726   3.211
 7030SOL    HW121989   1.073   3.679   3.279
 7030SOL    HW221990   1.073   3.778   3.149
 7031SOL     OW21991   2.419   0.587   3.786
 7031SOL    HW121992   2.364   0.528   3.845
 7031SOL    HW221993   2.359   0.637   3.724
 7032SOL     OW21994   6.090   2.751   3.809
 7032SOL    HW121995   6.077   2.653   3.793
 7032SOL    HW221996   6.186   2.768   3.834
 7033SOL     OW21997   0.243   0.567   5.071
 7033SOL    HW121998   0.268   0.474   5.100
 7033SOL    HW221999   0.219   0.566   4.974
 7034SOL     OW22000   6.845   4.975   4.195
 7034SOL    HW122001   6.865   4.912   4.271
 7034SOL    HW222002   6.759   5.022   4.214
 7035SOL     OW22003   6.838   4.488   1.288
 7035SOL    HW122004   6.809   4.580   1.263
 7035SOL    HW222005   6.876   4.441   1.208
 7036SOL     OW22006   6.374   5.450   0.746
 7036SOL    HW122007   6.384   5.495   0.834
 7036SOL    HW222008   6.279   5.455   0.716
 7037SOL     OW22009   1.575   0.201   0.072
 7037SOL    HW122010   1.486   0.165   0.043
 7037SOL    HW222011   1.647   0.138   0.042
 7038SOL     OW22012   2.608   2.254   3.599
 7038SOL    HW122013   2.532   2.189   3.602
 7038SOL    HW222014   2.581   2.334   3.545
 7039SOL     OW22015   4.458   1.611   6.162
 7039SOL    HW122016   4.368   1.571   6.144
 7039SOL    HW222017   4.486   1.667   6.083
 7040SOL     OW22018   6.198   2.132   6.790
 7040SOL    HW122019   6.265   2.077   6.740
 7040SOL    HW222020   6.243   2.212   6.830
 7041SOL     OW22021   2.064   1.024   3.099
 7041SOL    HW122022   1.986   1.066   3.146
 7041SOL    HW222023   2.056   1.040   3.000
 7042SOL     OW22024   2.456   0.872   6.902
 7042SOL    HW122025   2.432   0.898   6.808
 7042SOL    HW222026   2.380   0.820   6.942
 7043SOL     OW22027   1.932   2.936   1.209
 7043SOL    HW122028   1.837   2.966   1.208
 7043SOL    HW222029   1.956   2.899   1.119
 7044SOL     OW22030   6.984   5.750   0.620
 7044SOL    HW122031   6.983   5.650   0.618
 7044SOL    HW222032   6.902   5.784   0.575
 7045SOL     OW22033   1.140   4.266   0.100
 7045SOL    HW122034   1.158   4.178   0.056
 7045SOL    HW222035   1.226   4.313   0.117
 7046SOL     OW22036   2.411   1.995   3.461
 7046SOL    HW122037   2.318   1.970   3.435
 7046SOL    HW222038   2.448   1.926   3.523
 7047SOL     OW22039   1.207   6.209   3.391
 7047SOL    HW122040   1.195   6.257   3.304
 7047SOL    HW222041   1.295   6.235   3.431
 7048SOL     OW22042   0.626   5.262   6.858
 7048SOL    HW122043   0.604   5.338   6.919
 7048SOL    HW222044   0.689   5.293   6.787
 7049SOL     OW22045   2.570   1.271   6.292
 7049SOL    HW122046   2.537   1.268   6.198
 7049SOL    HW222047   2.534   1.193   6.343
 7050SOL     OW22048   3.363   3.494   6.095
 7050SOL    HW122049   3.378   3.428   6.169
 7050SOL    HW222050   3.441   3.556   6.089
 7051SOL     OW22051   5.325   6.210   2.132
 7051SOL    HW122052   5.327   6.307   2.105
 7051SOL    HW222053   5.397   6.161   2.082
 7052SOL     OW22054   6.370   0.992   4.590
 7052SOL    HW122055   6.353   1.053   4.513
 7052SOL    HW222056   6.283   0.951   4.621
 7053SOL     OW22057   6.528   3.476   6.170
 7053SOL    HW122058   6.487   3.386   6.186
 7053SOL    HW222059   6.485   3.544   6.230
 7054SOL     OW22060   5.428   2.608   2.180
 7054SOL    HW122061   5.440   2.687   2.241
 7054SOL    HW222062   5.458   2.525   2.227
 7055SOL     OW22063   4.110   1.413   3.291
 7055SOL    HW122064   4.012   1.422   3.271
 7055SOL    HW222065   4.154   1.364   3.216
 7056SOL     OW22066   4.849   6.315   4.356
 7056SOL    HW122067   4.860   6.216   4.353
 7056SOL    HW222068   4.753   6.338   4.343
 7057SOL     OW22069   5.141   5.978   2.937
 7057SOL    HW122070   5.075   5.957   3.009
 7057SOL    HW222071   5.099   6.040   2.870
 7058SOL     OW22072   0.694   4.036   4.825
 7058SOL    HW122073   0.681   3.940   4.852
 7058SOL    HW222074   0.663   4.048   4.730
 7059SOL     OW22075   1.608   0.378   2.467
 7059SOL    HW122076   1.583   0.381   2.370
 7059SOL    HW222077   1.593   0.286   2.502
 7060SOL     OW22078   3.853   0.236   0.985
 7060SOL    HW122079   3.760   0.259   1.013
 7060SOL    HW222080   3.877   0.145   1.020
 7061SOL     OW22081   0.730   1.489   2.834
 7061SOL    HW122082   0.695   1.582   2.820
 7061SOL    HW222083   0.681   1.446   2.910
 7062SOL     OW22084   6.426   0.866   5.392
 7062SOL    HW122085   6.471   0.852   5.304
 7062SOL    HW222086   6.403   0.963   5.403
 7063SOL     OW22087   1.850   6.997   1.913
 7063SOL    HW122088   1.750   6.989   1.914
 7063SOL    HW222089   1.884   6.999   2.007
 7064SOL     OW22090   3.513   3.231   0.851
 7064SOL    HW122091   3.475   3.181   0.928
 7064SOL    HW222092   3.463   3.207   0.768
 7065SOL     OW22093   2.924   3.490   2.634
 7065SOL    HW122094   2.879   3.423   2.693
 7065SOL    HW222095   2.960   3.565   2.690
 7066SOL     OW22096   2.529   4.622   1.490
 7066SOL    HW122097   2.441   4.602   1.533
 7066SOL    HW222098   2.601   4.624   1.559
 7067SOL     OW22099   1.777   3.938   4.424
 7067SOL    HW122100   1.742   3.959   4.515
 7067SOL    HW222101   1.713   3.970   4.355
 7068SOL     OW22102   0.447   0.766   3.212
 7068SOL    HW122103   0.434   0.740   3.116
 7068SOL    HW222104   0.493   0.692   3.261
 7069SOL     OW22105   1.386   3.423   5.657
 7069SOL    HW122106   1.367   3.510   5.702
 7069SOL    HW222107   1.448   3.439   5.580
 7070SOL     OW22108   5.604   5.745   2.888
 7070SOL    HW122109   5.521   5.793   2.915
 7070SOL    HW222110   5.674   5.812   2.862
 7071SOL     OW22111   1.686   0.030   5.695
 7071SOL    HW122112   1.770   0.062   5.739
 7071SOL    HW222113   1.641   0.108   5.650
 7072SOL     OW22114   0.036   6.991   6.427
 7072SOL    HW122115   0.030   6.941   6.514
 7072SOL    HW222116   0.107   0.033   6.434
 7073SOL     OW22117   1.921   2.222   0.639
 7073SOL    HW122118   1.920   2.125   0.617
 7073SOL    HW222119   2.015   2.256   0.640
 7074SOL     OW22120   4.219   1.491   6.135
 7074SOL    HW122121   4.155   1.564   6.110
 7074SOL    HW222122   4.189   1.448   6.221
 7075SOL     OW22123   0.452   6.266   3.192
 7075SOL    HW122124   0.479   6.292   3.285
 7075SOL    HW222125   0.524   6.209   3.152
 7076SOL     OW22126   2.929   1.471   5.605
 7076SOL    HW122127   2.902   1.524   5.525
 7076SOL    HW222128   3.019   1.501   5.637
 7077SOL     OW22129   1.077   5.706   6.445
 7077SOL    HW122130   1.060   5.763   6.365
 7077SOL    HW222131   0.993   5.695   6.498
 7078SOL     OW22132   0.481   0.319   1.457
 7078SOL    HW122133   0.442   0.303   1.366
 7078SOL    HW222134   0.458   0.411   1.487
 7079SOL     OW22135   4.662   6.715   4.017
 7079SOL    HW122136   4.760   6.702   4.032
 7079SOL    HW222137   4.641   6.812   4.012
 7080SOL     OW22138   5.896   0.903   3.820
 7080SOL    HW122139   5.833   0.964   3.869
 7080SOL    HW222140   5.939   0.953   3.745
 7081SOL     OW22141   4.440   0.870   4.733
 7081SOL    HW122142   4.496   0.876   4.815
 7081SOL    HW222143   4.498   0.849   4.654
 7082SOL     OW22144   5.861   1.615   0.181
 7082SOL    HW122145   5.778   1.653   0.221
 7082SOL    HW222146   5.916   1.688   0.141
 7083SOL     OW22147   4.687   0.490   4.899
 7083SOL    HW122148   4.663   0.516   4.993
 7083SOL    HW222149   4.767   0.544   4.869
 7084SOL     OW22150   6.676   5.465   0.118
 7084SOL    HW122151   6.631   5.443   0.205
 7084SOL    HW222152   6.709   5.381   0.075
 7085SOL     OW22153   5.232   1.515   0.849
 7085SOL    HW122154   5.257   1.563   0.764
 7085SOL    HW222155   5.312   1.507   0.907
 7086SOL     OW22156   1.393   0.752   6.138
 7086SOL    HW122157   1.370   0.687   6.209
 7086SOL    HW222158   1.487   0.784   6.151
 7087SOL     OW22159   2.495   2.506   4.369
 7087SOL    HW122160   2.593   2.508   4.354
 7087SOL    HW222161   2.451   2.578   4.316
 7088SOL     OW22162   6.798   1.195   4.714
 7088SOL    HW122163   6.794   1.127   4.787
 7088SOL    HW222164   6.811   1.150   4.626
 7089SOL     OW22165   2.660   2.179   2.075
 7089SOL    HW122166   2.738   2.216   2.024
 7089SOL    HW222167   2.651   2.081   2.055
 7090SOL     OW22168   3.640   0.746   5.097
 7090SOL    HW122169   3.564   0.681   5.096
 7090SOL    HW222170   3.615   0.826   5.151
 7091SOL     OW22171   7.020   4.943   6.931
 7091SOL    HW122172   0.070   4.937   6.868
 7091SOL    HW222173   0.021   4.990   7.015
 7092SOL     OW22174   3.268   2.000   0.845
 7092SOL    HW122175   3.329   2.056   0.901
 7092SOL    HW222176   3.189   1.973   0.899
 7093SOL     OW22177   3.997   3.909   6.034
 7093SOL    HW122178   3.922   3.975   6.039
 7093SOL    HW222179   4.046   3.907   6.121
 7094SOL     OW22180   6.287   1.283   6.278
 7094SOL    HW122181   6.226   1.276   6.199
 7094SOL    HW222182   6.233   1.279   6.362
 7095SOL     OW22183   1.038   4.566   1.603
 7095SOL    HW122184   1.045   4.662   1.574
 7095SOL    HW222185   1.057   4.507   1.524
 7096SOL     OW22186   3.365   0.038   3.592
 7096SOL    HW122187   3.331   0.043   3.498
 7096SOL    HW222188   3.328   0.114   3.645
 7097SOL     OW22189   1.897   1.386   1.294
 7097SOL    HW122190   1.960   1.431   1.357
 7097SOL    HW222191   1.879   1.293   1.325
 7098SOL     OW22192   1.161   0.342   0.020
 7098SOL    HW122193   1.198   0.369   0.109
 7098SOL    HW222194   1.208   0.392   6.975
 7099SOL     OW22195   0.650   1.517   4.037
 7099SOL    HW122196   0.645   1.543   4.134
 7099SOL    HW222197   0.559   1.489   4.006
 7100SOL     OW22198   5.518   2.548   0.843
 7100SOL    HW122199   5.451   2.552   0.916
 7100SOL    HW222200   5.598   2.603   0.868
 7101SOL     OW22201   1.438   0.683   4.809
 7101SOL    HW122202   1.521   0.738   4.815
 7101SOL    HW222203   1.451   0.597   4.859
 7102SOL     OW22204   4.380   2.695   0.123
 7102SOL    HW122205   4.294   2.674   0.076
 7102SOL    HW222206   4.379   2.655   0.214
 7103SOL     OW22207   2.487   6.501   6.756
 7103SOL    HW122208   2.471   6.402   6.752
 7103SOL    HW222209   2.583   6.518   6.780
 7104SOL     OW22210   6.673   3.404   1.588
 7104SOL    HW122211   6.629   3.441   1.670
 7104SOL    HW222212   6.700   3.309   1.604
 7105SOL     OW22213   2.013   2.588   4.599
 7105SOL    HW122214   1.951   2.666   4.600
 7105SOL    HW222215   2.082   2.599   4.671
 7106SOL     OW22216   3.016   2.668   5.517
 7106SOL    HW122217   3.001   2.648   5.614
 7106SOL    HW222218   2.932   2.703   5.477
 7107SOL     OW22219   1.850   1.979   0.043
 7107SOL    HW122220   1.805   1.933   6.994
 7107SOL    HW222221   1.851   1.919   0.123
 7108SOL     OW22222   3.825   6.511   1.994
 7108SOL    HW122223   3.869   6.596   2.023
 7108SOL    HW222224   3.831   6.443   2.068
 7109SOL     OW22225   4.815   6.218   0.151
 7109SOL    HW122226   4.831   6.288   0.220
 7109SOL    HW222227   4.871   6.137   0.171
 7110SOL     OW22228   4.160   5.162   4.297
 7110SOL    HW122229   4.073   5.118   4.276
 7110SOL    HW222230   4.235   5.114   4.250
 7111SOL     OW22231   1.321   2.965   3.195
 7111SOL    HW122232   1.375   2.949   3.278
 7111SOL    HW222233   1.334   3.060   3.166
 7112SOL     OW22234   2.039   6.243   3.015
 7112SOL    HW122235   1.969   6.252   3.085
 7112SOL    HW222236   2.042   6.326   2.960
 7113SOL     OW22237   3.397   4.160   6.082
 7113SOL    HW122238   3.368   4.068   6.106
 7113SOL    HW222239   3.322   4.209   6.038
 7114SOL     OW22240   3.534   6.628   0.506
 7114SOL    HW122241   3.586   6.711   0.487
 7114SOL    HW222242   3.476   6.642   0.586
 7115SOL     OW22243   3.692   2.364   1.016
 7115SOL    HW122244   3.645   2.329   1.097
 7115SOL    HW222245   3.768   2.423   1.045
 7116SOL     OW22246   6.180   4.303   4.073
 7116SOL    HW122247   6.209   4.369   4.143
 7116SOL    HW222248   6.254   4.288   4.008
 7117SOL     OW22249   5.206   0.619   2.864
 7117SOL    HW122250   5.177   0.560   2.940
 7117SOL    HW222251   5.147   0.602   2.785
 7118SOL     OW22252   6.679   3.777   3.946
 7118SOL    HW122253   6.769   3.822   3.944
 7118SOL    HW222254   6.649   3.768   4.041
 7119SOL     OW22255   0.027   1.573   2.450
 7119SOL    HW122256   0.040   1.488   2.501
 7119SOL    HW222257   0.100   1.583   2.382
 7120SOL     OW22258   4.791   6.751   4.496
 7120SOL    HW122259   4.742   6.796   4.422
 7120SOL    HW222260   4.754   6.780   4.584
 7121SOL     OW22261   1.767   6.243   0.892
 7121SOL    HW122262   1.786   6.337   0.918
 7121SOL    HW222263   1.845   6.185   0.919
 7122SOL     OW22264   0.127   5.984   0.473
 7122SOL    HW122265   0.033   5.995   0.506
 7122SOL    HW222266   0.136   5.895   0.428
 7123SOL     OW22267   3.405   4.565   0.625
 7123SOL    HW122268   3.360   4.546   0.712
 7123SOL    HW222269   3.486   4.506   0.616
 7124SOL     OW22270   0.616   5.017   0.211
 7124SOL    HW122271   0.639   4.968   0.127
 7124SOL    HW222272   0.534   5.072   0.196
 7125SOL     OW22273   1.493   5.569   3.610
 7125SOL    HW122274   1.576   5.623   3.617
 7125SOL    HW222275   1.469   5.533   3.701
 7126SOL     OW22276   1.604   4.529   0.860
 7126SOL    HW122277   1.689   4.578   0.839
 7126SOL    HW222278   1.627   4.438   0.894
 7127SOL     OW22279   2.525   0.422   5.263
 7127SOL    HW122280   2.604   0.415   5.325
 7127SOL    HW222281   2.549   0.477   5.183
 7128SOL     OW22282   3.339   4.098   2.572
 7128SOL    HW122283   3.273   4.064   2.504
 7128SOL    HW222284   3.379   4.183   2.539
 7129SOL     OW22285   3.613   2.186   0.273
 7129SOL    HW122286   3.537   2.125   0.295
 7129SOL    HW222287   3.589   2.280   0.300
 7130SOL     OW22288   1.221   0.779   2.588
 7130SOL    HW122289   1.303   0.831   2.569
 7130SOL    HW222290   1.240   0.709   2.657
 7131SOL     OW22291   3.098   0.931   2.992
 7131SOL    HW122292   3.080   0.981   2.907
 7131SOL    HW222293   3.031   0.958   3.061
 7132SOL     OW22294   3.509   4.035   2.157
 7132SOL    HW122295   3.525   3.938   2.175
 7132SOL    HW222296   3.419   4.047   2.117
 7133SOL     OW22297   6.181   3.956   2.031
 7133SOL    HW122298   6.087   3.988   2.043
 7133SOL    HW222299   6.225   4.009   1.959
 7134SOL     OW22300   4.570   4.393   2.825
 7134SOL    HW122301   4.544   4.401   2.729
 7134SOL    HW222302   4.534   4.471   2.877
 7135SOL     OW22303   6.729   2.024   6.128
 7135SOL    HW122304   6.756   1.928   6.117
 7135SOL    HW222305   6.648   2.042   6.072
 7136SOL     OW22306   2.128   2.235   6.561
 7136SOL    HW122307   2.074   2.315   6.533
 7136SOL    HW222308   2.065   2.160   6.584
 7137SOL     OW22309   5.180   2.074   5.341
 7137SOL    HW122310   5.089   2.075   5.382
 7137SOL    HW222311   5.181   2.134   5.261
 7138SOL     OW22312   2.148   2.439   6.291
 7138SOL    HW122313   2.100   2.467   6.374
 7138SOL    HW222314   2.092   2.375   6.239
 7139SOL     OW22315   1.908   1.163   0.062
 7139SOL    HW122316   1.986   1.224   0.075
 7139SOL    HW222317   1.842   1.178   0.136
 7140SOL     OW22318   6.656   4.559   4.456
 7140SOL    HW122319   6.641   4.507   4.372
 7140SOL    HW222320   6.605   4.517   4.531
 7141SOL     OW22321   0.941   0.839   1.732
 7141SOL    HW122322   0.993   0.898   1.794
 7141SOL    HW222323   0.929   0.749   1.773
 7142SOL     OW22324   3.498   6.490   4.080
 7142SOL    HW122325   3.494   6.525   4.174
 7142SOL    HW222326   3.408   6.496   4.038
 7143SOL     OW22327   1.823   2.904   4.136
 7143SOL    HW122328   1.748   2.837   4.139
 7143SOL    HW222329   1.884   2.881   4.061
 7144SOL     OW22330   1.769   3.209   3.343
 7144SOL    HW122331   1.738   3.184   3.434
 7144SOL    HW222332   1.828   3.289   3.348
 7145SOL     OW22333   3.172   5.910   6.776
 7145SOL    HW122334   3.181   5.810   6.770
 7145SOL    HW222335   3.259   5.952   6.749
 7146SOL     OW22336   3.966   5.190   1.149
 7146SOL    HW122337   3.982   5.181   1.248
 7146SOL    HW222338   4.009   5.113   1.102
 7147SOL     OW22339   0.658   0.847   3.940
 7147SOL    HW122340   0.752   0.825   3.917
 7147SOL    HW222341   0.620   0.775   3.999
 7148SOL     OW22342   6.564   1.894   0.720
 7148SOL    HW122343   6.654   1.853   0.705
 7148SOL    HW222344   6.572   1.994   0.723
 7149SOL     OW22345   1.582   0.876   4.554
 7149SOL    HW122346   1.602   0.909   4.646
 7149SOL    HW222347   1.503   0.925   4.517
 7150SOL     OW22348   7.004   3.869   6.103
 7150SOL    HW122349   0.009   3.933   6.034
 7150SOL    HW222350   7.007   3.911   6.194
 7151SOL     OW22351   1.267   6.770   0.664
 7151SOL    HW122352   1.217   6.751   0.749
 7151SOL    HW222353   1.297   6.865   0.663
 7152SOL     OW22354   0.546   2.342   4.493
 7152SOL    HW122355   0.563   2.366   4.397
 7152SOL    HW222356   0.448   2.326   4.506
 7153SOL     OW22357   4.389   2.036   3.318
 7153SOL    HW122358   4.357   1.942   3.308
 7153SOL    HW222359   4.338   2.081   3.391
 7154SOL     OW22360   3.811   0.410   4.431
 7154SOL    HW122361   3.841   0.481   4.368
 7154SOL    HW222362   3.817   0.443   4.525
 7155SOL     OW22363   1.907   1.654   4.370
 7155SOL    HW122364   1.974   1.643   4.297
 7155SOL    HW222365   1.955   1.673   4.456
 7156SOL     OW22366   1.995   5.568   5.226
 7156SOL    HW122367   1.976   5.482   5.179
 7156SOL    HW222368   2.004   5.641   5.159
 7157SOL     OW22369   5.860   4.472   0.803
 7157SOL    HW122370   5.833   4.377   0.818
 7157SOL    HW222371   5.796   4.532   0.852
 7158SOL     OW22372   3.750   0.209   2.870
 7158SOL    HW122373   3.667   0.161   2.899
 7158SOL    HW222374   3.828   0.178   2.925
 7159SOL     OW22375   1.550   6.364   0.093
 7159SOL    HW122376   1.545   6.303   0.171
 7159SOL    HW222377   1.642   6.361   0.054
 7160SOL     OW22378   0.603   0.141   2.407
 7160SOL    HW122379   0.547   0.221   2.386
 7160SOL    HW222380   0.544   0.062   2.422
 7161SOL     OW22381   3.038   3.615   4.983
 7161SOL    HW122382   3.045   3.664   5.070
 7161SOL    HW222383   2.988   3.529   4.997
 7162SOL     OW22384   3.763   4.930   3.899
 7162SOL    HW122385   3.688   4.896   3.955
 7162SOL    HW222386   3.783   5.025   3.924
 7163SOL     OW22387   1.152   6.523   3.972
 7163SOL    HW122388   1.116   6.606   3.929
 7163SOL    HW222389   1.237   6.545   4.020
 7164SOL     OW22390   3.586   1.231   4.196
 7164SOL    HW122391   3.490   1.205   4.198
 7164SOL    HW222392   3.607   1.289   4.275
 7165SOL     OW22393   4.329   5.002   2.045
 7165SOL    HW122394   4.276   5.083   2.017
 7165SOL    HW222395   4.348   4.945   1.965
 7166SOL     OW22396   3.129   6.947   2.911
 7166SOL    HW122397   3.117   6.988   2.821
 7166SOL    HW222398   3.226   6.949   2.937
 7167SOL     OW22399   5.574   2.572   0.591
 7167SOL    HW122400   5.498   2.582   0.527
 7167SOL    HW222401   5.539   2.539   0.679
 7168SOL     OW22402   0.093   1.570   3.969
 7168SOL    HW122403   0.126   1.573   3.875
 7168SOL    HW222404   0.168   1.592   4.032
 7169SOL     OW22405   2.087   2.449   0.343
 7169SOL    HW122406   2.022   2.407   0.279
 7169SOL    HW222407   2.176   2.406   0.332
 7170SOL     OW22408   4.820   4.024   4.479
 7170SOL    HW122409   4.858   4.019   4.572
 7170SOL    HW222410   4.813   3.932   4.442
 7171SOL     OW22411   3.697   3.662   5.649
 7171SOL    HW122412   3.618   3.713   5.683
 7171SOL    HW222413   3.777   3.686   5.704
 7172SOL     OW22414   5.145   5.462   1.537
 7172SOL    HW122415   5.145   5.362   1.533
 7172SOL    HW222416   5.183   5.493   1.624
 7173SOL     OW22417   6.355   6.673   4.197
 7173SOL    HW122418   6.391   6.748   4.253
 7173SOL    HW222419   6.418   6.655   4.121
 7174SOL     OW22420   1.166   6.355   5.714
 7174SOL    HW122421   1.191   6.341   5.618
 7174SOL    HW222422   1.160   6.453   5.733
 7175SOL     OW22423   5.855   3.784   5.633
 7175SOL    HW122424   5.934   3.723   5.641
 7175SOL    HW222425   5.777   3.733   5.596
 7176SOL     OW22426   1.658   3.505   1.240
 7176SOL    HW122427   1.724   3.535   1.310
 7176SOL    HW222428   1.705   3.450   1.171
 7177SOL     OW22429   0.041   5.130   1.487
 7177SOL    HW122430   0.126   5.146   1.538
 7177SOL    HW222431   0.010   5.036   1.502
 7178SOL     OW22432   6.775   0.377   6.621
 7178SOL    HW122433   6.757   0.463   6.574
 7178SOL    HW222434   6.795   0.306   6.554
 7179SOL     OW22435   1.032   3.834   6.046
 7179SOL    HW122436   1.063   3.877   6.130
 7179SOL    HW222437   1.079   3.875   5.968
 7180SOL     OW22438   0.012   0.343   1.857
 7180SOL    HW122439   0.093   0.357   1.800
 7180SOL    HW222440   6.980   0.274   1.815
 7181SOL     OW22441   5.349   6.883   2.507
 7181SOL    HW122442   5.342   6.862   2.605
 7181SOL    HW222443   5.408   6.816   2.463
 7182SOL     OW22444   3.340   3.890   6.107
 7182SOL    HW122445   3.437   3.881   6.129
 7182SOL    HW222446   3.288   3.905   6.192
 7183SOL     OW22447   2.130   2.430   2.540
 7183SOL    HW122448   2.130   2.465   2.446
 7183SOL    HW222449   2.168   2.499   2.601
 7184SOL     OW22450   2.661   5.289   3.108
 7184SOL    HW122451   2.703   5.215   3.055
 7184SOL    HW222452   2.624   5.358   3.046
 7185SOL     OW22453   5.579   2.134   6.233
 7185SOL    HW122454   5.678   2.124   6.221
 7185SOL    HW222455   5.560   2.219   6.283
 7186SOL     OW22456   1.431   6.861   4.371
 7186SOL    HW122457   1.437   6.961   4.367
 7186SOL    HW222458   1.501   6.822   4.310
 7187SOL     OW22459   1.738   4.855   0.976
 7187SOL    HW122460   1.759   4.808   1.062
 7187SOL    HW222461   1.794   4.937   0.968
 7188SOL     OW22462   4.092   0.192   1.796
 7188SOL    HW122463   4.068   0.114   1.738
 7188SOL    HW222464   4.054   0.178   1.887
 7189SOL     OW22465   6.425   0.660   5.856
 7189SOL    HW122466   6.334   0.620   5.850
 7189SOL    HW222467   6.419   0.755   5.888
 7190SOL     OW22468   4.758   4.901   2.291
 7190SOL    HW122469   4.821   4.911   2.368
 7190SOL    HW222470   4.667   4.931   2.317
 7191SOL     OW22471   0.547   3.702   1.432
 7191SOL    HW122472   0.616   3.740   1.370
 7191SOL    HW222473   0.467   3.763   1.434
 7192SOL     OW22474   3.479   4.484   6.005
 7192SOL    HW122475   3.443   4.395   6.032
 7192SOL    HW222476   3.413   4.555   6.031
 7193SOL     OW22477   6.137   2.192   5.054
 7193SOL    HW122478   6.086   2.269   5.016
 7193SOL    HW222479   6.230   2.222   5.078
 7194SOL     OW22480   3.233   0.940   1.885
 7194SOL    HW122481   3.254   0.917   1.980
 7194SOL    HW222482   3.299   1.007   1.851
 7195SOL     OW22483   1.096   0.248   3.772
 7195SOL    HW122484   1.107   0.315   3.699
 7195SOL    HW222485   1.062   0.162   3.734
 7196SOL     OW22486   4.014   4.185   1.666
 7196SOL    HW122487   4.086   4.211   1.601
 7196SOL    HW222488   4.008   4.086   1.672
 7197SOL     OW22489   2.085   0.605   3.631
 7197SOL    HW122490   2.063   0.575   3.539
 7197SOL    HW222491   2.149   0.681   3.628
 7198SOL     OW22492   0.288   6.601   5.563
 7198SOL    HW122493   0.368   6.602   5.624
 7198SOL    HW222494   0.271   6.693   5.529
 7199SOL     OW22495   6.524   5.984   1.604
 7199SOL    HW122496   6.486   5.909   1.657
 7199SOL    HW222497   6.583   5.947   1.531
 7200SOL     OW22498   1.061   1.947   2.351
 7200SOL    HW122499   1.024   1.975   2.262
 7200SOL    HW222500   1.049   2.021   2.417
 7201SOL     OW22501   1.511   5.018   2.903
 7201SOL    HW122502   1.601   5.061   2.891
 7201SOL    HW222503   1.515   4.923   2.872
 7202SOL     OW22504   1.921   0.052   5.140
 7202SOL    HW122505   2.000   0.007   5.181
 7202SOL    HW222506   1.861   0.088   5.212
 7203SOL     OW22507   5.685   0.501   6.739
 7203SOL    HW122508   5.741   0.432   6.693
 7203SOL    HW222509   5.730   0.589   6.734
 7204SOL     OW22510   0.986   3.225   2.096
 7204SOL    HW122511   1.040   3.273   2.164
 7204SOL    HW222512   0.897   3.268   2.086
 7205SOL     OW22513   1.351   4.401   1.536
 7205SOL    HW122514   1.287   4.463   1.582
 7205SOL    HW222515   1.339   4.309   1.574
 7206SOL     OW22516   6.995   0.650   1.911
 7206SOL    HW122517   6.896   0.655   1.898
 7206SOL    HW222518   0.010   0.612   1.828
 7207SOL     OW22519   4.170   0.106   1.166
 7207SOL    HW122520   4.175   0.196   1.124
 7207SOL    HW222521   4.090   0.058   1.132
 7208SOL     OW22522   3.007   6.595   5.154
 7208SOL    HW122523   2.935   6.639   5.208
 7208SOL    HW222524   2.982   6.597   5.057
 7209SOL     OW22525   2.262   3.606   5.331
 7209SOL    HW122526   2.305   3.654   5.408
 7209SOL    HW222527   2.237   3.672   5.261
 7210SOL     OW22528   4.284   1.265   4.428
 7210SOL    HW122529   4.382   1.287   4.423
 7210SOL    HW222530   4.251   1.243   4.336
 7211SOL     OW22531   0.159   5.459   3.121
 7211SOL    HW122532   0.161   5.506   3.033
 7211SOL    HW222533   0.104   5.511   3.186
 7212SOL     OW22534   5.117   6.508   2.569
 7212SOL    HW122535   5.176   6.428   2.577
 7212SOL    HW222536   5.054   6.496   2.492
 7213SOL     OW22537   5.965   6.035   5.435
 7213SOL    HW122538   5.981   6.133   5.433
 7213SOL    HW222539   5.875   6.014   5.396
 7214SOL     OW22540   1.623   5.116   6.058
 7214SOL    HW122541   1.600   5.207   6.090
 7214SOL    HW222542   1.546   5.054   6.073
 7215SOL     OW22543   1.181   2.982   1.394
 7215SOL    HW122544   1.132   2.984   1.306
 7215SOL    HW222545   1.144   2.908   1.450
 7216SOL     OW22546   2.417   1.905   2.709
 7216SOL    HW122547   2.368   1.829   2.667
 7216SOL    HW222548   2.495   1.930   2.651
 7217SOL     OW22549   1.267   3.794   1.999
 7217SOL    HW122550   1.362   3.788   2.030
 7217SOL    HW222551   1.242   3.890   1.986
 7218SOL     OW22552   6.896   3.105   3.840
 7218SOL    HW122553   6.903   3.053   3.755
 7218SOL    HW222554   6.870   3.199   3.820
 7219SOL     OW22555   1.949   1.312   1.801
 7219SOL    HW122556   2.029   1.252   1.800
 7219SOL    HW222557   1.898   1.297   1.886
 7220SOL     OW22558   6.856   1.678   3.419
 7220SOL    HW122559   6.819   1.660   3.510
 7220SOL    HW222560   6.869   1.776   3.407
 7221SOL     OW22561   6.623   3.912   4.584
 7221SOL    HW122562   6.694   3.981   4.598
 7221SOL    HW222563   6.565   3.906   4.665
 7222SOL     OW22564   6.337   0.414   2.564
 7222SOL    HW122565   6.308   0.442   2.655
 7222SOL    HW222566   6.272   0.347   2.527
 7223SOL     OW22567   5.139   0.967   4.686
 7223SOL    HW122568   5.208   1.037   4.705
 7223SOL    HW222569   5.178   0.898   4.625
 7224SOL     OW22570   4.867   0.954   3.559
 7224SOL    HW122571   4.961   0.971   3.530
 7224SOL    HW222572   4.805   1.011   3.506
 7225SOL     OW22573   2.751   0.227   1.886
 7225SOL    HW122574   2.843   0.232   1.923
 7225SOL    HW222575   2.737   0.300   1.819
 7226SOL     OW22576   5.653   6.557   4.835
 7226SOL    HW122577   5.578   6.624   4.837
 7226SOL    HW222578   5.732   6.594   4.882
 7227SOL     OW22579   0.809   2.802   5.158
 7227SOL    HW122580   0.758   2.862   5.220
 7227SOL    HW222581   0.747   2.735   5.118
 7228SOL     OW22582   1.807   6.995   3.266
 7228SOL    HW122583   1.738   6.933   3.229
 7228SOL    HW222584   1.803   0.055   3.218
 7229SOL     OW22585   6.172   0.340   3.445
 7229SOL    HW122586   6.208   0.415   3.500
 7229SOL    HW222587   6.179   0.364   3.348
 7230SOL     OW22588   6.274   5.347   1.553
 7230SOL    HW122589   6.282   5.247   1.549
 7230SOL    HW222590   6.180   5.372   1.577
 7231SOL     OW22591   6.147   1.103   0.292
 7231SOL    HW122592   6.154   1.184   0.351
 7231SOL    HW222593   6.190   1.025   0.336
 7232SOL     OW22594   3.036   3.488   0.755
 7232SOL    HW122595   3.118   3.544   0.760
 7232SOL    HW222596   3.058   3.401   0.709
 7233SOL     OW22597   1.000   2.028   6.586
 7233SOL    HW122598   0.977   2.076   6.502
 7233SOL    HW222599   1.052   1.946   6.565
 7234SOL     OW22600   5.286   2.554   3.628
 7234SOL    HW122601   5.256   2.547   3.723
 7234SOL    HW222602   5.311   2.648   3.607
 7235SOL     OW22603   5.714   2.858   4.546
 7235SOL    HW122604   5.778   2.904   4.608
 7235SOL    HW222605   5.703   2.763   4.575
 7236SOL     OW22606   0.533   1.774   3.769
 7236SOL    HW122607   0.454   1.833   3.754
 7236SOL    HW222608   0.503   1.679   3.774
 7237SOL     OW22609   6.483   4.891   5.908
 7237SOL    HW122610   6.550   4.963   5.893
 7237SOL    HW222611   6.478   4.833   5.826
 7238SOL     OW22612   1.284   0.123   2.414
 7238SOL    HW122613   1.236   0.038   2.434
 7238SOL    HW222614   1.296   0.175   2.499
 7239SOL     OW22615   4.516   1.614   1.927
 7239SOL    HW122616   4.544   1.669   1.847
 7239SOL    HW222617   4.499   1.675   2.004
 7240SOL     OW22618   3.031   3.174   3.381
 7240SOL    HW122619   3.011   3.222   3.466
 7240SOL    HW222620   3.074   3.086   3.402
 7241SOL     OW22621   5.013   0.255   5.066
 7241SOL    HW122622   5.038   0.293   4.977
 7241SOL    HW222623   5.089   0.265   5.129
 7242SOL     OW22624   6.066   5.692   0.791
 7242SOL    HW122625   6.115   5.630   0.729
 7242SOL    HW222626   6.044   5.777   0.743
 7243SOL     OW22627   0.323   6.044   1.347
 7243SOL    HW122628   0.355   6.047   1.252
 7243SOL    HW222629   0.333   5.952   1.383
 7244SOL     OW22630   4.563   2.056   1.543
 7244SOL    HW122631   4.617   2.017   1.618
 7244SOL    HW222632   4.479   2.097   1.579
 7245SOL     OW22633   5.306   2.181   3.833
 7245SOL    HW122634   5.326   2.241   3.756
 7245SOL    HW222635   5.327   2.087   3.808
 7246SOL     OW22636   1.188   5.689   5.723
 7246SOL    HW122637   1.230   5.777   5.741
 7246SOL    HW222638   1.093   5.690   5.755
 7247SOL     OW22639   4.815   5.467   3.347
 7247SOL    HW122640   4.845   5.437   3.437
 7247SOL    HW222641   4.894   5.503   3.297
 7248SOL     OW22642   3.400   0.683   5.403
 7248SOL    HW122643   3.461   0.760   5.419
 7248SOL    HW222644   3.318   0.716   5.355
 7249SOL     OW22645   5.505   2.347   6.463
 7249SOL    HW122646   5.440   2.423   6.466
 7249SOL    HW222647   5.456   2.261   6.449
 7250SOL     OW22648   3.401   3.426   0.382
 7250SOL    HW122649   3.306   3.457   0.388
 7250SOL    HW222650   3.403   3.329   0.359
 7251SOL     OW22651   6.117   1.490   5.621
 7251SOL    HW122652   6.140   1.411   5.564
 7251SOL    HW222653   6.037   1.537   5.584
 7252SOL     OW22654   4.663   3.464   5.499
 7252SOL    HW122655   4.732   3.452   5.427
 7252SOL    HW222656   4.572   3.461   5.458
 7253SOL     OW22657   5.129   5.010   0.460
 7253SOL    HW122658   5.034   4.994   0.435
 7253SOL    HW222659   5.188   4.950   0.405
 7254SOL     OW22660   5.000   5.890   5.321
 7254SOL    HW122661   4.919   5.921   5.270
 7254SOL    HW222662   5.035   5.806   5.279
 7255SOL     OW22663   3.424   3.734   3.937
 7255SOL    HW122664   3.462   3.717   4.028
 7255SOL    HW222665   3.326   3.710   3.937
 7256SOL     OW22666   3.795   5.932   3.920
 7256SOL    HW122667   3.806   5.833   3.909
 7256SOL    HW222668   3.714   5.963   3.870
 7257SOL     OW22669   6.347   5.167   2.345
 7257SOL    HW122670   6.383   5.182   2.253
 7257SOL    HW222671   6.351   5.253   2.396
 7258SOL     OW22672   2.515   0.452   5.663
 7258SOL    HW122673   2.456   0.501   5.727
 7258SOL    HW222674   2.542   0.513   5.588
 7259SOL     OW22675   3.775   4.074   5.993
 7259SOL    HW122676   3.771   4.084   5.893
 7259SOL    HW222677   3.686   4.042   6.026
 7260SOL     OW22678   4.644   2.246   2.745
 7260SOL    HW122679   4.672   2.248   2.841
 7260SOL    HW222680   4.607   2.335   2.719
 7261SOL     OW22681   2.704   4.783   1.306
 7261SOL    HW122682   2.679   4.873   1.342
 7261SOL    HW222683   2.646   4.713   1.348
 7262SOL     OW22684   6.245   0.749   4.306
 7262SOL    HW122685   6.304   0.739   4.226
 7262SOL    HW222686   6.283   0.697   4.383
 7263SOL     OW22687   4.894   4.412   1.100
 7263SOL    HW122688   4.847   4.371   1.178
 7263SOL    HW222689   4.828   4.459   1.042
 7264SOL     OW22690   6.516   6.707   5.029
 7264SOL    HW122691   6.581   6.782   5.019
 7264SOL    HW222692   6.481   6.705   5.122
 7265SOL     OW22693   4.834   2.963   6.629
 7265SOL    HW122694   4.934   2.962   6.639
 7265SOL    HW222695   4.800   2.869   6.627
 7266SOL     OW22696   4.146   1.443   2.738
 7266SOL    HW122697   4.152   1.475   2.833
 7266SOL    HW222698   4.170   1.346   2.734
 7267SOL     OW22699   4.603   2.556   4.327
 7267SOL    HW122700   4.539   2.503   4.383
 7267SOL    HW222701   4.628   2.640   4.375
 7268SOL     OW22702   4.004   6.272   6.364
 7268SOL    HW122703   4.026   6.215   6.443
 7268SOL    HW222704   3.916   6.318   6.379
 7269SOL     OW22705   1.511   0.045   4.056
 7269SOL    HW122706   1.543   0.040   3.962
 7269SOL    HW222707   1.416   0.013   4.061
 7270SOL     OW22708   3.991   2.526   1.692
 7270SOL    HW122709   3.905   2.547   1.739
 7270SOL    HW222710   4.049   2.607   1.691
 7271SOL     OW22711   4.506   6.155   3.499
 7271SOL    HW122712   4.436   6.210   3.452
 7271SOL    HW222713   4.536   6.202   3.581
 7272SOL     OW22714   5.257   1.396   1.779
 7272SOL    HW122715   5.333   1.453   1.811
 7272SOL    HW222716   5.269   1.377   1.682
 7273SOL     OW22717   6.044   4.570   4.265
 7273SOL    HW122718   6.013   4.555   4.171
 7273SOL    HW222719   5.972   4.616   4.317
 7274SOL     OW22720   5.717   4.942   3.813
 7274SOL    HW122721   5.745   5.017   3.753
 7274SOL    HW222722   5.688   4.864   3.757
 7275SOL     OW22723   6.132   0.292   2.099
 7275SOL    HW122724   6.202   0.355   2.130
 7275SOL    HW222725   6.077   0.335   2.028
 7276SOL     OW22726   4.070   1.542   3.016
 7276SOL    HW122727   3.998   1.543   2.946
 7276SOL    HW222728   4.033   1.506   3.101
 7277SOL     OW22729   6.802   2.659   3.977
 7277SOL    HW122730   6.742   2.583   3.951
 7277SOL    HW222731   6.777   2.692   4.068
 7278SOL     OW22732   3.893   1.217   2.827
 7278SOL    HW122733   3.980   1.180   2.794
 7278SOL    HW222734   3.894   1.316   2.819
 7279SOL     OW22735   3.515   3.535   2.212
 7279SOL    HW122736   3.471   3.485   2.138
 7279SOL    HW222737   3.502   3.486   2.298
 7280SOL     OW22738   6.129   1.486   5.911
 7280SOL    HW122739   6.150   1.469   5.814
 7280SOL    HW222740   6.031   1.501   5.921
 7281SOL     OW22741   3.488   0.018   3.879
 7281SOL    HW122742   3.526   0.107   3.854
 7281SOL    HW222743   3.512   6.977   3.809
 7282SOL     OW22744   1.060   4.116   1.253
 7282SOL    HW122745   1.004   4.072   1.323
 7282SOL    HW222746   1.009   4.193   1.213
 7283SOL     OW22747   2.679   5.671   3.133
 7283SOL    HW122748   2.777   5.675   3.113
 7283SOL    HW222749   2.628   5.657   3.047
 7284SOL     OW22750   0.336   0.992   4.231
 7284SOL    HW122751   0.366   0.938   4.153
 7284SOL    HW222752   0.244   1.028   4.214
 7285SOL     OW22753   4.820   2.470   2.563
 7285SOL    HW122754   4.730   2.502   2.531
 7285SOL    HW222755   4.874   2.438   2.485
 7286SOL     OW22756   6.483   1.591   5.153
 7286SOL    HW122757   6.457   1.529   5.079
 7286SOL    HW222758   6.571   1.563   5.191
 7287SOL     OW22759   3.644   1.200   4.637
 7287SOL    HW122760   3.697   1.274   4.680
 7287SOL    HW222761   3.553   1.196   4.678
 7288SOL     OW22762   2.998   2.302   0.855
 7288SOL    HW122763   3.084   2.348   0.835
 7288SOL    HW222764   2.993   2.216   0.802
 7289SOL     OW22765   0.084   2.442   0.453
 7289SOL    HW122766   0.144   2.520   0.434
 7289SOL    HW222767   0.048   2.406   0.366
 7290SOL     OW22768   3.234   2.073   4.833
 7290SOL    HW122769   3.164   2.006   4.810
 7290SOL    HW222770   3.194   2.148   4.886
 7291SOL     OW22771   0.987   0.816   0.074
 7291SOL    HW122772   1.072   0.771   0.098
 7291SOL    HW222773   0.935   0.758   0.011
 7292SOL     OW22774   2.970   1.057   2.078
 7292SOL    HW122775   2.970   0.958   2.064
 7292SOL    HW222776   2.978   1.077   2.176
 7293SOL     OW22777   5.709   1.432   4.326
 7293SOL    HW122778   5.629   1.411   4.271
 7293SOL    HW222779   5.700   1.524   4.366
 7294SOL     OW22780   2.159   1.279   2.274
 7294SOL    HW122781   2.190   1.205   2.334
 7294SOL    HW222782   2.139   1.242   2.183
 7295SOL     OW22783   5.574   4.609   1.681
 7295SOL    HW122784   5.500   4.671   1.655
 7295SOL    HW222785   5.662   4.655   1.671
 7296SOL     OW22786   3.233   6.879   3.214
 7296SOL    HW122787   3.296   6.818   3.166
 7296SOL    HW222788   3.178   6.825   3.279
 7297SOL     OW22789   4.894   0.200   6.457
 7297SOL    HW122790   4.879   0.232   6.551
 7297SOL    HW222791   4.887   0.100   6.455
 7298SOL     OW22792   3.909   4.010   0.540
 7298SOL    HW122793   3.873   4.084   0.484
 7298SOL    HW222794   3.834   3.960   0.583
 7299SOL     OW22795   6.978   3.181   0.160
 7299SOL    HW122796   6.880   3.194   0.169
 7299SOL    HW222797   7.004   3.092   0.198
 7300SOL     OW22798   0.737   3.784   2.775
 7300SOL    HW122799   0.730   3.719   2.851
 7300SOL    HW222800   0.665   3.764   2.708
 7301SOL     OW22801   4.141   1.947   0.509
 7301SOL    HW122802   4.119   1.976   0.603
 7301SOL    HW222803   4.082   1.997   0.445
 7302SOL     OW22804   5.694   1.609   6.799
 7302SOL    HW122805   5.722   1.701   6.770
 7302SOL    HW222806   5.642   1.565   6.725
 7303SOL     OW22807   3.600   2.360   0.706
 7303SOL    HW122808   3.679   2.337   0.649
 7303SOL    HW222809   3.574   2.281   0.761
 7304SOL     OW22810   2.938   6.719   0.381
 7304SOL    HW122811   2.949   6.787   0.453
 7304SOL    HW222812   2.875   6.754   0.311
 7305SOL     OW22813   6.835   6.741   6.286
 7305SOL    HW122814   6.803   6.829   6.251
 7305SOL    HW222815   6.901   6.702   6.222
 7306SOL     OW22816   2.137   3.289   0.603
 7306SOL    HW122817   2.056   3.269   0.658
 7306SOL    HW222818   2.137   3.385   0.577
 7307SOL     OW22819   4.488   6.952   0.727
 7307SOL    HW122820   4.446   0.015   0.737
 7307SOL    HW222821   4.586   6.959   0.744
 7308SOL     OW22822   3.822   2.014   2.899
 7308SOL    HW122823   3.794   1.930   2.854
 7308SOL    HW222824   3.915   2.004   2.935
 7309SOL     OW22825   2.006   5.431   3.029
 7309SOL    HW122826   1.963   5.418   3.119
 7309SOL    HW222827   2.100   5.463   3.042
 7310SOL     OW22828   4.894   3.166   0.073
 7310SOL    HW122829   4.837   3.248   0.084
 7310SOL    HW222830   4.926   3.162   7.005
 7311SOL     OW22831   1.332   6.744   5.730
 7311SOL    HW122832   1.399   6.808   5.768
 7311SOL    HW222833   1.378   6.657   5.708
 7312SOL     OW22834   5.283   1.953   4.747
 7312SOL    HW122835   5.275   1.884   4.675
 7312SOL    HW222836   5.283   1.907   4.836
 7313SOL     OW22837   3.716   1.134   2.592
 7313SOL    HW122838   3.728   1.051   2.647
 7313SOL    HW222839   3.742   1.116   2.497
 7314SOL     OW22840   3.190   5.368   4.829
 7314SOL    HW122841   3.098   5.361   4.792
 7314SOL    HW222842   3.239   5.282   4.815
 7315SOL     OW22843   2.545   4.626   2.235
 7315SOL    HW122844   2.497   4.713   2.244
 7315SOL    HW222845   2.643   4.643   2.223
 7316SOL     OW22846   2.919   1.007   2.576
 7316SOL    HW122847   2.948   1.072   2.646
 7316SOL    HW222848   2.878   1.056   2.499
 7317SOL     OW22849   4.924   1.459   0.798
 7317SOL    HW122850   4.918   1.559   0.803
 7317SOL    HW222851   4.930   1.431   0.702
 7318SOL     OW22852   4.801   6.676   1.046
 7318SOL    HW122853   4.789   6.606   1.116
 7318SOL    HW222854   4.712   6.705   1.012
 7319SOL     OW22855   4.234   4.956   5.965
 7319SOL    HW122856   4.321   4.914   5.990
 7319SOL    HW222857   4.164   4.884   5.958
 7320SOL     OW22858   1.773   3.166   0.545
 7320SOL    HW122859   1.749   3.234   0.476
 7320SOL    HW222860   1.816   3.211   0.623
 7321SOL     OW22861   2.266   2.347   5.293
 7321SOL    HW122862   2.344   2.385   5.242
 7321SOL    HW222863   2.185   2.349   5.235
 7322SOL     OW22864   2.987   1.801   3.844
 7322SOL    HW122865   3.007   1.708   3.875
 7322SOL    HW222866   2.921   1.843   3.907
 7323SOL     OW22867   2.090   2.132   0.060
 7323SOL    HW122868   2.010   2.077   0.038
 7323SOL    HW222869   2.067   2.229   0.049
 7324SOL     OW22870   6.052   3.911   5.407
 7324SOL    HW122871   6.011   3.855   5.479
 7324SOL    HW222872   6.137   3.951   5.441
 7325SOL     OW22873   3.043   0.817   0.263
 7325SOL    HW122874   3.001   0.742   0.314
 7325SOL    HW222875   3.018   0.810   0.166
 7326SOL     OW22876   3.750   6.885   0.575
 7326SOL    HW122877   3.722   6.967   0.627
 7326SOL    HW222878   3.834   6.848   0.615
 7327SOL     OW22879   1.491   4.890   3.646
 7327SOL    HW122880   1.401   4.904   3.688
 7327SOL    HW222881   1.486   4.912   3.548
 7328SOL     OW22882   4.136   6.332   0.156
 7328SOL    HW122883   4.106   6.417   0.198
 7328SOL    HW222884   4.233   6.337   0.135
 7329SOL     OW22885   2.717   4.046   6.792
 7329SOL    HW122886   2.701   3.948   6.789
 7329SOL    HW222887   2.629   4.094   6.792
 7330SOL     OW22888   3.007   3.330   1.803
 7330SOL    HW122889   2.910   3.311   1.815
 7330SOL    HW222890   3.019   3.415   1.752
 7331SOL     OW22891   5.176   1.888   2.599
 7331SOL    HW122892   5.154   1.947   2.677
 7331SOL    HW222893   5.128   1.920   2.518
 7332SOL     OW22894   1.624   0.218   4.870
 7332SOL    HW122895   1.592   0.247   4.960
 7332SOL    HW222896   1.557   0.243   4.801
 7333SOL     OW22897   6.343   1.221   1.439
 7333SOL    HW122898   6.374   1.315   1.428
 7333SOL    HW222899   6.256   1.220   1.487
 7334SOL     OW22900   0.544   4.709   5.232
 7334SOL    HW122901   0.546   4.647   5.154
 7334SOL    HW222902   0.637   4.740   5.253
 7335SOL     OW22903   6.750   2.880   0.760
 7335SOL    HW122904   6.733   2.891   0.662
 7335SOL    HW222905   6.830   2.821   0.773
 7336SOL     OW22906   2.223   0.121   1.056
 7336SOL    HW122907   2.181   0.203   1.017
 7336SOL    HW222908   2.154   0.049   1.066
 7337SOL     OW22909   2.917   1.918   1.918
 7337SOL    HW122910   2.871   1.998   1.880
 7337SOL    HW222911   2.989   1.948   1.980
 7338SOL     OW22912   5.047   1.972   6.733
 7338SOL    HW122913   5.118   2.011   6.674
 7338SOL    HW222914   5.040   2.027   6.817
 7339SOL     OW22915   6.688   6.678   3.553
 7339SOL    HW122916   6.777   6.695   3.510
 7339SOL    HW222917   6.673   6.580   3.562
 7340SOL     OW22918   2.670   6.896   0.577
 7340SOL    HW122919   2.684   6.798   0.563
 7340SOL    HW222920   2.696   6.946   0.494
 7341SOL     OW22921   5.604   5.547   3.087
 7341SOL    HW122922   5.653   5.624   3.045
 7341SOL    HW222923   5.597   5.562   3.186
 7342SOL     OW22924   6.898   4.661   6.878
 7342SOL    HW122925   6.849   4.642   6.963
 7342SOL    HW222926   6.897   4.760   6.861
 7343SOL     OW22927   0.253   1.596   3.462
 7343SOL    HW122928   0.340   1.571   3.420
 7343SOL    HW222929   0.239   1.695   3.453
 7344SOL     OW22930   1.420   1.312   5.856
 7344SOL    HW122931   1.342   1.344   5.803
 7344SOL    HW222932   1.480   1.257   5.798
 7345SOL     OW22933   1.772   6.770   6.839
 7345SOL    HW122934   1.815   6.807   6.757
 7345SOL    HW222935   1.676   6.749   6.820
 7346SOL     OW22936   3.057   5.465   3.543
 7346SOL    HW122937   3.132   5.399   3.550
 7346SOL    HW222938   3.087   5.554   3.579
 7347SOL     OW22939   6.075   2.968   3.602
 7347SOL    HW122940   6.033   3.046   3.648
 7347SOL    HW222941   6.063   2.886   3.657
 7348SOL     OW22942   5.422   0.045   6.288
 7348SOL    HW122943   5.427   0.117   6.357
 7348SOL    HW222944   5.440   0.084   6.197
 7349SOL     OW22945   3.349   1.877   1.171
 7349SOL    HW122946   3.283   1.949   1.150
 7349SOL    HW222947   3.442   1.911   1.157
 7350SOL     OW22948   1.490   1.417   2.269
 7350SOL    HW122949   1.566   1.429   2.333
 7350SOL    HW222950   1.503   1.479   2.191
 7351SOL     OW22951   6.397   4.820   0.419
 7351SOL    HW122952   6.438   4.892   0.475
 7351SOL    HW222953   6.398   4.847   0.323
 7352SOL     OW22954   6.386   1.804   2.824
 7352SOL    HW122955   6.381   1.717   2.775
 7352SOL    HW222956   6.353   1.878   2.766
 7353SOL     OW22957   5.567   1.593   4.059
 7353SOL    HW122958   5.578   1.691   4.045
 7353SOL    HW222959   5.515   1.577   4.143
 7354SOL     OW22960   6.089   4.580   5.136
 7354SOL    HW122961   6.027   4.502   5.130
 7354SOL    HW222962   6.037   4.663   5.155
 7355SOL     OW22963   0.005   5.504   0.805
 7355SOL    HW122964   0.018   5.409   0.775
 7355SOL    HW222965   0.046   5.517   0.894
 7356SOL     OW22966   0.026   2.175   6.285
 7356SOL    HW122967   6.991   2.176   6.364
 7356SOL    HW222968   0.117   2.202   6.315
 7357SOL     OW22969   1.488   1.249   1.342
 7357SOL    HW122970   1.538   1.303   1.410
 7357SOL    HW222971   1.496   1.152   1.364
 7358SOL     OW22972   3.689   1.350   3.733
 7358SOL    HW122973   3.782   1.385   3.723
 7358SOL    HW222974   3.688   1.272   3.795
 7359SOL     OW22975   3.189   4.102   4.443
 7359SOL    HW122976   3.197   4.112   4.344
 7359SOL    HW222977   3.135   4.020   4.464
 7360SOL     OW22978   1.902   5.093   6.045
 7360SOL    HW122979   1.804   5.112   6.053
 7360SOL    HW222980   1.939   5.070   6.135
 7361SOL     OW22981   4.752   6.934   1.442
 7361SOL    HW122982   4.845   6.952   1.473
 7361SOL    HW222983   4.736   6.836   1.438
 7362SOL     OW22984   1.787   4.729   0.746
 7362SOL    HW122985   1.755   4.777   0.827
 7362SOL    HW222986   1.816   4.795   0.677
 7363SOL     OW22987   5.109   2.337   6.261
 7363SOL    HW122988   5.081   2.251   6.305
 7363SOL    HW222989   5.035   2.370   6.203
 7364SOL     OW22990   4.583   6.110   0.059
 7364SOL    HW122991   4.576   6.012   0.078
 7364SOL    HW222992   4.655   6.150   0.117
 7365SOL     OW22993   5.581   6.958   1.824
 7365SOL    HW122994   5.608   7.008   1.907
 7365SOL    HW222995   5.614   7.008   1.744
 7366SOL     OW22996   3.205   6.670   0.408
 7366SOL    HW122997   3.117   6.707   0.379
 7366SOL    HW222998   3.190   6.592   0.468
 7367SOL     OW22999   4.937   3.554   6.332
 7367SOL    HW123000   4.870   3.484   6.306
 7367SOL    HW223001   5.015   3.550   6.270
 7368SOL     OW23002   3.437   3.152   5.466
 7368SOL    HW123003   3.360   3.104   5.507
 7368SOL    HW223004   3.429   3.149   5.366
 7369SOL     OW23005   0.476   6.386   6.315
 7369SOL    HW123006   0.408   6.398   6.386
 7369SOL    HW223007   0.499   6.474   6.274
 7370SOL     OW23008   7.016   5.730   1.453
 7370SOL    HW123009   6.999   5.813   1.507
 7370SOL    HW223010   6.929   5.696   1.417
 7371SOL     OW23011   1.885   5.014   3.224
 7371SOL    HW123012   1.977   5.034   3.191
 7371SOL    HW223013   1.891   4.971   3.314
 7372SOL     OW23014   2.090   6.826   5.167
 7372SOL    HW123015   2.189   6.829   5.184
 7372SOL    HW223016   2.054   6.739   5.201
 7373SOL     OW23017   4.551   1.249   0.801
 7373SOL    HW123018   4.612   1.219   0.727
 7373SOL    HW223019   4.601   1.312   0.861
 7374SOL     OW23020   2.369   3.882   0.745
 7374SOL    HW123021   2.312   3.802   0.727
 7374SOL    HW223022   2.465   3.855   0.745
 7375SOL     OW23023   2.368   5.296   1.967
 7375SOL    HW123024   2.412   5.345   1.892
 7375SOL    HW223025   2.437   5.267   2.034
 7376SOL     OW23026   3.184   4.800   0.633
 7376SOL    HW123027   3.211   4.812   0.728
 7376SOL    HW223028   3.259   4.759   0.582
 7377SOL     OW23029   4.856   6.096   1.389
 7377SOL    HW123030   4.926   6.148   1.439
 7377SOL    HW223031   4.767   6.141   1.401
 7378SOL     OW23032   0.743   1.209   6.018
 7378SOL    HW123033   0.652   1.184   6.051
 7378SOL    HW223034   0.734   1.275   5.943
 7379SOL     OW23035   4.577   0.942   7.016
 7379SOL    HW123036   4.622   0.881   6.950
 7379SOL    HW223037   4.493   0.979   6.976
 7380SOL     OW23038   0.552   3.340   6.615
 7380SOL    HW123039   0.566   3.248   6.578
 7380SOL    HW223040   0.480   3.338   6.684
 7381SOL     OW23041   5.758   2.739   0.594
 7381SOL    HW123042   5.706   2.654   0.592
 7381SOL    HW223043   5.760   2.779   0.502
 7382SOL     OW23044   0.650   5.670   3.960
 7382SOL    HW123045   0.617   5.655   3.867
 7382SOL    HW223046   0.680   5.583   3.999
 7383SOL     OW23047   1.669   5.092   1.824
 7383SOL    HW123048   1.725   5.126   1.749
 7383SOL    HW223049   1.580   5.062   1.789
 7384SOL     OW23050   5.861   0.532   1.867
 7384SOL    HW123051   5.921   0.584   1.807
 7384SOL    HW223052   5.805   0.470   1.812
 7385SOL     OW23053   5.230   0.102   1.858
 7385SOL    HW123054   5.202   0.196   1.836
 7385SOL    HW223055   5.288   0.103   1.939
 7386SOL     OW23056   5.747   1.591   5.150
 7386SOL    HW123057   5.758   1.493   5.163
 7386SOL    HW223058   5.654   1.618   5.175
 7387SOL     OW23059   5.225   5.692   4.452
 7387SOL    HW123060   5.254   5.678   4.547
 7387SOL    HW223061   5.145   5.635   4.433
 7388SOL     OW23062   4.846   3.784   3.762
 7388SOL    HW123063   4.786   3.863   3.776
 7388SOL    HW223064   4.942   3.813   3.767
 7389SOL     OW23065   2.268   3.682   6.015
 7389SOL    HW123066   2.217   3.596   6.016
 7389SOL    HW223067   2.240   3.739   6.092
 7390SOL     OW23068   3.986   5.757   0.724
 7390SOL    HW123069   4.075   5.740   0.683
 7390SOL    HW223070   3.921   5.782   0.653
 7391SOL     OW23071   6.945   4.802   1.035
 7391SOL    HW123072   6.947   4.750   1.120
 7391SOL    HW223073   0.003   4.853   1.025
 7392SOL     OW23074   1.417   4.760   1.754
 7392SOL    HW123075   1.452   4.757   1.661
 7392SOL    HW223076   1.364   4.678   1.773
 7393SOL     OW23077   1.760   3.610   0.527
 7393SOL    HW123078   1.679   3.667   0.516
 7393SOL    HW223079   1.745   3.545   0.602
 7394SOL     OW23080   3.148   4.450   6.949
 7394SOL    HW123081   3.121   4.452   0.018
 7394SOL    HW223082   3.119   4.364   6.908
 7395SOL     OW23083   2.805   6.666   1.067
 7395SOL    HW123084   2.832   6.641   1.160
 7395SOL    HW223085   2.819   6.588   1.006
 7396SOL     OW23086   6.392   0.173   2.375
 7396SOL    HW123087   6.304   0.138   2.405
 7396SOL    HW223088   6.464   0.143   2.437
 7397SOL     OW23089   5.980   4.047   3.678
 7397SOL    HW123090   5.976   4.128   3.619
 7397SOL    HW223091   5.888   4.024   3.709
 7398SOL     OW23092   4.461   4.971   3.477
 7398SOL    HW123093   4.464   5.070   3.491
 7398SOL    HW223094   4.552   4.932   3.493
 7399SOL     OW23095   4.562   6.701   3.770
 7399SOL    HW123096   4.562   6.702   3.870
 7399SOL    HW223097   4.655   6.712   3.736
 7400SOL     OW23098   1.696   4.621   6.731
 7400SOL    HW123099   1.597   4.632   6.729
 7400SOL    HW223100   1.736   4.692   6.790
 7401SOL     OW23101   6.807   3.052   4.175
 7401SOL    HW123102   6.820   3.150   4.165
 7401SOL    HW223103   6.827   3.006   4.088
 7402SOL     OW23104   1.892   6.106   5.220
 7402SOL    HW123105   1.870   6.048   5.298
 7402SOL    HW223106   1.981   6.079   5.183
 7403SOL     OW23107   1.811   2.969   1.566
 7403SOL    HW123108   1.898   3.012   1.541
 7403SOL    HW223109   1.819   2.870   1.554
 7404SOL     OW23110   1.047   2.500   2.728
 7404SOL    HW123111   1.103   2.427   2.768
 7404SOL    HW223112   1.046   2.579   2.789
 7405SOL     OW23113   3.630   5.731   5.808
 7405SOL    HW123114   3.563   5.668   5.845
 7405SOL    HW223115   3.613   5.745   5.711
 7406SOL     OW23116   6.001   5.614   2.841
 7406SOL    HW123117   5.946   5.603   2.758
 7406SOL    HW223118   6.076   5.547   2.841
 7407SOL     OW23119   4.454   1.522   5.827
 7407SOL    HW123120   4.543   1.517   5.872
 7407SOL    HW223121   4.440   1.442   5.769
 7408SOL     OW23122   0.819   3.575   5.112
 7408SOL    HW123123   0.782   3.564   5.019
 7408SOL    HW223124   0.901   3.518   5.121
 7409SOL     OW23125   2.093   6.957   4.387
 7409SOL    HW123126   2.174   6.979   4.332
 7409SOL    HW223127   2.115   6.883   4.450
 7410SOL     OW23128   3.740   5.079   5.799
 7410SOL    HW123129   3.711   4.997   5.848
 7410SOL    HW223130   3.712   5.160   5.852
 7411SOL     OW23131   5.844   3.307   5.420
 7411SOL    HW123132   5.846   3.218   5.466
 7411SOL    HW223133   5.918   3.312   5.353
 7412SOL     OW23134   0.815   0.965   0.832
 7412SOL    HW123135   0.846   1.017   0.912
 7412SOL    HW223136   0.887   0.903   0.803
 7413SOL     OW23137   6.633   3.668   3.517
 7413SOL    HW123138   6.580   3.691   3.599
 7413SOL    HW223139   6.582   3.694   3.436
 7414SOL     OW23140   0.649   5.009   2.131
 7414SOL    HW123141   0.659   4.910   2.119
 7414SOL    HW223142   0.739   5.051   2.134
 7415SOL     OW23143   2.717   1.505   3.240
 7415SOL    HW123144   2.636   1.558   3.212
 7415SOL    HW223145   2.780   1.564   3.290
 7416SOL     OW23146   6.727   0.531   1.811
 7416SOL    HW123147   6.780   0.450   1.834
 7416SOL    HW223148   6.635   0.523   1.850
 7417SOL     OW23149   0.728   5.481   1.610
 7417SOL    HW123150   0.695   5.512   1.699
 7417SOL    HW223151   0.650   5.469   1.548
 7418SOL     OW23152   2.128   2.987   0.583
 7418SOL    HW123153   2.151   3.080   0.611
 7418SOL    HW223154   2.071   2.990   0.501
 7419SOL     OW23155   6.017   2.217   5.889
 7419SOL    HW123156   6.052   2.265   5.809
 7419SOL    HW223157   5.967   2.281   5.947
 7420SOL     OW23158   0.968   6.525   1.949
 7420SOL    HW123159   0.890   6.579   1.981
 7420SOL    HW223160   0.993   6.458   2.020
 7421SOL     OW23161   4.826   1.778   1.360
 7421SOL    HW123162   4.782   1.691   1.385
 7421SOL    HW223163   4.756   1.843   1.332
 7422SOL     OW23164   0.989   2.136   0.448
 7422SOL    HW123165   0.939   2.052   0.467
 7422SOL    HW223166   1.083   2.127   0.480
 7423SOL     OW23167   3.019   4.021   0.856
 7423SOL    HW123168   2.934   4.035   0.806
 7423SOL    HW223169   3.031   3.923   0.876
 7424SOL     OW23170   5.490   6.681   3.557
 7424SOL    HW123171   5.453   6.592   3.531
 7424SOL    HW223172   5.571   6.669   3.615
 7425SOL     OW23173   4.461   0.053   4.651
 7425SOL    HW123174   4.519   0.087   4.725
 7425SOL    HW223175   4.393   0.122   4.628
 7426SOL     OW23176   6.938   6.992   6.193
 7426SOL    HW123177   6.980   6.982   6.283
 7426SOL    HW223178   6.942   0.061   6.166
 7427SOL     OW23179   5.252   4.571   6.057
 7427SOL    HW123180   5.299   4.505   5.998
 7427SOL    HW223181   5.155   4.571   6.036
 7428SOL     OW23182   5.412   2.055   5.023
 7428SOL    HW123183   5.376   1.962   5.014
 7428SOL    HW223184   5.338   2.116   5.051
 7429SOL     OW23185   5.520   6.398   3.070
 7429SOL    HW123186   5.592   6.328   3.076
 7429SOL    HW223187   5.434   6.360   3.106
 7430SOL     OW23188   0.571   4.445   4.631
 7430SOL    HW123189   0.663   4.407   4.640
 7430SOL    HW223190   0.568   4.534   4.676
 7431SOL     OW23191   0.270   3.930   3.330
 7431SOL    HW123192   0.195   3.864   3.326
 7431SOL    HW223193   0.358   3.881   3.324
 7432SOL     OW23194   2.007   6.405   5.926
 7432SOL    HW123195   1.962   6.492   5.948
 7432SOL    HW223196   2.074   6.419   5.854
 7433SOL     OW23197   0.970   6.404   1.269
 7433SOL    HW123198   0.939   6.312   1.292
 7433SOL    HW223199   1.044   6.399   1.203
 7434SOL     OW23200   4.613   6.804   0.090
 7434SOL    HW123201   4.695   6.846   0.128
 7434SOL    HW223202   4.550   6.780   0.164
 7435SOL     OW23203   0.920   3.857   6.901
 7435SOL    HW123204   0.933   3.795   6.979
 7435SOL    HW223205   0.822   3.864   6.881
 7436SOL     OW23206   5.142   3.218   6.549
 7436SOL    HW123207   5.200   3.257   6.620
 7436SOL    HW223208   5.060   3.274   6.538
 7437SOL     OW23209   6.829   6.495   5.459
 7437SOL    HW123210   6.832   6.500   5.359
 7437SOL    HW223211   6.916   6.526   5.498
 7438SOL     OW23212   6.343   3.815   1.071
 7438SOL    HW123213   6.248   3.839   1.048
 7438SOL    HW223214   6.402   3.894   1.053
 7439SOL     OW23215   1.460   6.617   2.729
 7439SOL    HW123216   1.530   6.589   2.796
 7439SOL    HW223217   1.375   6.567   2.747
 7440SOL     OW23218   1.635   0.561   4.533
 7440SOL    HW123219   1.679   0.604   4.454
 7440SOL    HW223220   1.586   0.631   4.585
 7441SOL     OW23221   6.627   1.759   3.274
 7441SOL    HW123222   6.702   1.731   3.333
 7441SOL    HW223223   6.653   1.745   3.178
 7442SOL     OW23224   1.573   0.969   0.540
 7442SOL    HW123225   1.524   0.953   0.454
 7442SOL    HW223226   1.523   1.034   0.596
 7443SOL     OW23227   5.953   0.940   1.087
 7443SOL    HW123228   5.875   0.899   1.134
 7443SOL    HW223229   5.934   1.037   1.070
 7444SOL     OW23230   2.449   2.316   4.539
 7444SOL    HW123231   2.406   2.253   4.475
 7444SOL    HW223232   2.472   2.402   4.493
 7445SOL     OW23233   6.255   2.565   2.408
 7445SOL    HW123234   6.255   2.497   2.481
 7445SOL    HW223235   6.262   2.656   2.448
 7446SOL     OW23236   4.339   4.623   2.433
 7446SOL    HW123237   4.350   4.583   2.343
 7446SOL    HW223238   4.426   4.620   2.483
 7447SOL     OW23239   1.617   2.901   6.411
 7447SOL    HW123240   1.692   2.966   6.413
 7447SOL    HW223241   1.642   2.822   6.356
 7448SOL     OW23242   0.018   0.563   5.507
 7448SOL    HW123243   7.007   0.560   5.415
 7448SOL    HW223244   0.017   0.657   5.541
 7449SOL     OW23245   3.366   1.250   2.807
 7449SOL    HW123246   3.331   1.193   2.882
 7449SOL    HW223247   3.436   1.312   2.843
 7450SOL     OW23248   3.610   1.936   1.904
 7450SOL    HW123249   3.605   2.028   1.942
 7450SOL    HW223250   3.597   1.940   1.805
 7451SOL     OW23251   1.190   0.558   1.683
 7451SOL    HW123252   1.096   0.580   1.657
 7451SOL    HW223253   1.195   0.463   1.714
 7452SOL     OW23254   1.982   5.764   2.928
 7452SOL    HW123255   2.031   5.837   2.976
 7452SOL    HW223256   2.049   5.700   2.889
 7453SOL     OW23257   6.442   4.198   4.693
 7453SOL    HW123258   6.452   4.103   4.720
 7453SOL    HW223259   6.349   4.230   4.713
 7454SOL     OW23260   2.654   1.770   0.271
 7454SOL    HW123261   2.617   1.722   0.351
 7454SOL    HW223262   2.657   1.868   0.290
 7455SOL     OW23263   5.485   6.835   0.221
 7455SOL    HW123264   5.424   6.757   0.230
 7455SOL    HW223265   5.575   6.812   0.257
 7456SOL     OW23266   1.496   2.390   6.716
 7456SOL    HW123267   1.493   2.486   6.743
 7456SOL    HW223268   1.533   2.382   6.624
 7457SOL     OW23269   0.462   6.393   4.928
 7457SOL    HW123270   0.395   6.360   4.995
 7457SOL    HW223271   0.553   6.389   4.968
 7458SOL     OW23272   3.362   0.387   1.936
 7458SOL    HW123273   3.277   0.396   1.884
 7458SOL    HW223274   3.432   0.447   1.897
 7459SOL     OW23275   4.031   4.932   3.651
 7459SOL    HW123276   4.106   4.866   3.646
 7459SOL    HW223277   4.042   4.989   3.733
 7460SOL     OW23278   1.288   5.109   6.279
 7460SOL    HW123279   1.222   5.154   6.219
 7460SOL    HW223280   1.294   5.012   6.256
 7461SOL     OW23281   3.430   1.656   3.504
 7461SOL    HW123282   3.525   1.631   3.487
 7461SOL    HW223283   3.405   1.634   3.598
 7462SOL     OW23284   1.167   2.367   3.981
 7462SOL    HW123285   1.093   2.316   3.938
 7462SOL    HW223286   1.134   2.457   4.011
 7463SOL     OW23287   3.779   3.674   2.651
 7463SOL    HW123288   3.747   3.745   2.588
 7463SOL    HW223289   3.846   3.713   2.714
 7464SOL     OW23290   4.459   5.585   0.547
 7464SOL    HW123291   4.362   5.599   0.569
 7464SOL    HW223292   4.475   5.488   0.531
 7465SOL     OW23293   3.121   1.103   2.750
 7465SOL    HW123294   3.182   1.181   2.761
 7465SOL    HW223295   3.166   1.034   2.693
 7466SOL     OW23296   7.014   6.505   1.088
 7466SOL    HW123297   6.932   6.452   1.107
 7466SOL    HW223298   7.002   6.598   1.123
 7467SOL     OW23299   3.743   2.633   0.735
 7467SOL    HW123300   3.660   2.594   0.695
 7467SOL    HW223301   3.720   2.679   0.821
 7468SOL     OW23302   5.170   5.077   4.852
 7468SOL    HW123303   5.169   5.176   4.868
 7468SOL    HW223304   5.259   5.050   4.816
 7469SOL     OW23305   5.078   2.138   0.985
 7469SOL    HW123306   5.145   2.172   1.051
 7469SOL    HW223307   5.118   2.143   0.893
 7470SOL     OW23308   0.949   3.379   3.234
 7470SOL    HW123309   1.035   3.428   3.243
 7470SOL    HW223310   0.875   3.433   3.276
 7471SOL     OW23311   0.042   4.464   5.853
 7471SOL    HW123312   0.064   4.385   5.797
 7471SOL    HW223313   0.115   4.480   5.920
 7472SOL     OW23314   3.375   5.704   2.955
 7472SOL    HW123315   3.399   5.609   2.973
 7472SOL    HW223316   3.456   5.754   2.924
 7473SOL     OW23317   1.711   2.178   6.284
 7473SOL    HW123318   1.690   2.099   6.226
 7473SOL    HW223319   1.803   2.211   6.263
 7474SOL     OW23320   2.591   1.176   1.900
 7474SOL    HW123321   2.528   1.243   1.862
 7474SOL    HW223322   2.666   1.222   1.947
 7475SOL     OW23323   5.723   0.987   6.293
 7475SOL    HW123324   5.692   0.894   6.275
 7475SOL    HW223325   5.753   1.030   6.208
 7476SOL     OW23326   1.804   6.673   4.629
 7476SOL    HW123327   1.811   6.688   4.530
 7476SOL    HW223328   1.839   6.753   4.677
 7477SOL     OW23329   4.828   4.087   5.082
 7477SOL    HW123330   4.828   4.174   5.034
 7477SOL    HW223331   4.858   4.100   5.176
 7478SOL     OW23332   6.394   4.322   1.463
 7478SOL    HW123333   6.369   4.233   1.499
 7478SOL    HW223334   6.493   4.326   1.448
 7479SOL     OW23335   4.074   6.972   4.587
 7479SOL    HW123336   4.124   6.888   4.611
 7479SOL    HW223337   4.057   6.972   4.488
 7480SOL     OW23338   6.185   5.082   0.094
 7480SOL    HW123339   6.213   5.037   0.178
 7480SOL    HW223340   6.089   5.062   0.075
 7481SOL     OW23341   6.020   6.824   0.355
 7481SOL    HW123342   6.011   6.741   0.410
 7481SOL    HW223343   5.929   6.862   0.336
 7482SOL     OW23344   5.236   0.285   5.251
 7482SOL    HW123345   5.335   0.268   5.257
 7482SOL    HW223346   5.203   0.319   5.339
 7483SOL     OW23347   3.749   6.894   6.077
 7483SOL    HW123348   3.687   6.819   6.057
 7483SOL    HW223349   3.834   6.882   6.024
 7484SOL     OW23350   3.075   6.075   1.248
 7484SOL    HW123351   2.992   6.039   1.204
 7484SOL    HW223352   3.067   6.174   1.258
 7485SOL     OW23353   1.187   0.123   4.991
 7485SOL    HW123354   1.251   0.164   4.925
 7485SOL    HW223355   1.204   0.025   4.998
 7486SOL     OW23356   1.976   2.114   4.832
 7486SOL    HW123357   1.927   2.082   4.750
 7486SOL    HW223358   2.009   2.207   4.816
 7487SOL     OW23359   1.595   6.554   2.335
 7487SOL    HW123360   1.585   6.649   2.362
 7487SOL    HW223361   1.528   6.498   2.384
 7488SOL     OW23362   4.923   2.389   4.683
 7488SOL    HW123363   4.918   2.489   4.679
 7488SOL    HW223364   4.837   2.353   4.720
 7489SOL     OW23365   1.380   3.300   3.333
 7489SOL    HW123366   1.283   3.324   3.331
 7489SOL    HW223367   1.424   3.343   3.411
 7490SOL     OW23368   5.542   0.613   2.477
 7490SOL    HW123369   5.527   0.552   2.555
 7490SOL    HW223370   5.638   0.639   2.473
 7491SOL     OW23371   0.980   0.071   1.220
 7491SOL    HW123372   1.012   7.004   1.207
 7491SOL    HW223373   0.912   0.093   1.151
 7492SOL     OW23374   1.516   1.951   3.047
 7492SOL    HW123375   1.478   2.038   3.079
 7492SOL    HW223376   1.554   1.962   2.956
 7493SOL     OW23377   5.830   4.293   6.882
 7493SOL    HW123378   5.837   4.295   6.982
 7493SOL    HW223379   5.835   4.386   6.846
 7494SOL     OW23380   4.807   2.479   0.951
 7494SOL    HW123381   4.767   2.415   1.017
 7494SOL    HW223382   4.739   2.546   0.924
 7495SOL     OW23383   1.403   2.160   3.451
 7495SOL    HW123384   1.396   2.134   3.354
 7495SOL    HW223385   1.325   2.122   3.501
 7496SOL     OW23386   0.313   5.192   5.951
 7496SOL    HW123387   0.376   5.114   5.950
 7496SOL    HW223388   0.359   5.271   5.991
 7497SOL     OW23389   0.423   4.469   3.112
 7497SOL    HW123390   0.421   4.414   3.196
 7497SOL    HW223391   0.335   4.461   3.065
 7498SOL     OW23392   5.100   1.738   4.486
 7498SOL    HW123393   5.197   1.764   4.488
 7498SOL    HW223394   5.043   1.820   4.483
 7499SOL     OW23395   3.497   5.036   3.450
 7499SOL    HW123396   3.432   5.070   3.517
 7499SOL    HW223397   3.589   5.034   3.490
 7500SOL     OW23398   4.773   3.928   1.441
 7500SOL    HW123399   4.764   3.833   1.410
 7500SOL    HW223400   4.748   3.935   1.537
 7501SOL     OW23401   1.150   4.401   3.510
 7501SOL    HW123402   1.221   4.398   3.581
 7501SOL    HW223403   1.147   4.312   3.463
 7502SOL     OW23404   1.389   1.856   5.036
 7502SOL    HW123405   1.399   1.800   4.954
 7502SOL    HW223406   1.383   1.952   5.010
 7503SOL     OW23407   2.343   2.203   1.091
 7503SOL    HW123408   2.387   2.225   1.004
 7503SOL    HW223409   2.251   2.167   1.074
 7504SOL     OW23410   5.383   5.264   6.191
 7504SOL    HW123411   5.465   5.322   6.192
 7504SOL    HW223412   5.302   5.320   6.206
 7505SOL     OW23413   1.242   1.915   3.231
 7505SOL    HW123414   1.331   1.883   3.262
 7505SOL    HW223415   1.247   1.939   3.134
 7506SOL     OW23416   3.463   0.336   3.134
 7506SOL    HW123417   3.494   0.276   3.208
 7506SOL    HW223418   3.495   0.300   3.046
 7507SOL     OW23419   2.100   6.053   5.007
 7507SOL    HW123420   2.178   6.113   5.023
 7507SOL    HW223421   2.113   6.004   4.921
 7508SOL     OW23422   4.779   6.205   3.375
 7508SOL    HW123423   4.789   6.134   3.305
 7508SOL    HW223424   4.699   6.186   3.431
 7509SOL     OW23425   2.125   4.475   6.893
 7509SOL    HW123426   2.111   4.529   6.976
 7509SOL    HW223427   2.211   4.425   6.899
 7510SOL     OW23428   3.908   3.050   4.237
 7510SOL    HW123429   3.830   3.010   4.189
 7510SOL    HW223430   3.982   3.069   4.172
 7511SOL     OW23431   1.538   0.821   1.833
 7511SOL    HW123432   1.448   0.799   1.872
 7511SOL    HW223433   1.563   0.752   1.766
 7512SOL     OW23434   1.464   3.030   2.492
 7512SOL    HW123435   1.455   2.931   2.479
 7512SOL    HW223436   1.531   3.067   2.428
 7513SOL     OW23437   2.269   3.019   6.921
 7513SOL    HW123438   2.180   3.002   6.963
 7513SOL    HW223439   2.284   3.118   6.913
 7514SOL     OW23440   2.866   5.089   3.019
 7514SOL    HW123441   2.877   5.011   3.081
 7514SOL    HW223442   2.825   5.057   2.933
 7515SOL     OW23443   6.379   5.209   3.803
 7515SOL    HW123444   6.397   5.306   3.821
 7515SOL    HW223445   6.304   5.201   3.737
 7516SOL     OW23446   1.742   3.324   1.055
 7516SOL    HW123447   1.825   3.269   1.060
 7516SOL    HW223448   1.677   3.282   0.991
 7517SOL     OW23449   1.167   5.977   2.263
 7517SOL    HW123450   1.150   5.981   2.362
 7517SOL    HW223451   1.091   5.930   2.218
 7518SOL     OW23452   5.085   3.622   2.100
 7518SOL    HW123453   5.027   3.695   2.137
 7518SOL    HW223454   5.032   3.564   2.038
 7519SOL     OW23455   1.947   0.743   4.523
 7519SOL    HW123456   1.876   0.800   4.482
 7519SOL    HW223457   1.980   0.785   4.607
 7520SOL     OW23458   1.545   0.306   4.597
 7520SOL    HW123459   1.579   0.239   4.532
 7520SOL    HW223460   1.589   0.394   4.582
 7521SOL     OW23461   3.882   2.533   5.840
 7521SOL    HW123462   3.894   2.439   5.872
 7521SOL    HW223463   3.955   2.590   5.876
 7522SOL     OW23464   1.876   6.768   2.332
 7522SOL    HW123465   1.948   6.742   2.397
 7522SOL    HW223466   1.787   6.737   2.366
 7523SOL     OW23467   6.708   5.835   6.163
 7523SOL    HW123468   6.728   5.922   6.209
 7523SOL    HW223469   6.666   5.773   6.229
 7524SOL     OW23470   6.127   2.682   6.200
 7524SOL    HW123471   6.104   2.767   6.247
 7524SOL    HW223472   6.130   2.698   6.101
 7525SOL     OW23473   0.542   0.316   0.500
 7525SOL    HW123474   0.517   0.367   0.583
 7525SOL    HW223475   0.538   0.377   0.421
 7526SOL     OW23476   3.586   3.418   5.715
 7526SOL    HW123477   3.495   3.396   5.749
 7526SOL    HW223478   3.602   3.517   5.721
 7527SOL     OW23479   2.609   6.337   1.422
 7527SOL    HW123480   2.520   6.291   1.425
 7527SOL    HW223481   2.598   6.431   1.453
 7528SOL     OW23482   5.661   2.155   0.422
 7528SOL    HW123483   5.686   2.191   0.511
 7528SOL    HW223484   5.586   2.209   0.383
 7529SOL     OW23485   1.197   0.291   4.023
 7529SOL    HW123486   1.153   0.274   3.935
 7529SOL    HW223487   1.286   0.335   4.008
 7530SOL     OW23488   0.181   3.481   2.596
 7530SOL    HW123489   0.194   3.473   2.695
 7530SOL    HW223490   0.203   3.394   2.553
 7531SOL     OW23491   1.969   2.148   4.413
 7531SOL    HW123492   1.901   2.088   4.372
 7531SOL    HW223493   2.019   2.196   4.341
 7532SOL     OW23494   4.737   4.354   2.169
 7532SOL    HW123495   4.775   4.444   2.150
 7532SOL    HW223496   4.649   4.344   2.121
 7533SOL     OW23497   3.734   0.117   5.388
 7533SOL    HW123498   3.737   0.157   5.296
 7533SOL    HW223499   3.652   0.150   5.435
 7534SOL     OW23500   4.231   0.100   4.205
 7534SOL    HW123501   4.269   0.008   4.213
 7534SOL    HW223502   4.276   0.148   4.129
 7535SOL     OW23503   3.034   4.454   6.550
 7535SOL    HW123504   2.985   4.537   6.579
 7535SOL    HW223505   2.989   4.374   6.588
 7536SOL     OW23506   4.573   4.913   6.951
 7536SOL    HW123507   4.560   4.875   6.859
 7536SOL    HW223508   4.669   4.903   6.978
 7537SOL     OW23509   1.826   4.548   5.126
 7537SOL    HW123510   1.816   4.454   5.159
 7537SOL    HW223511   1.861   4.546   5.032
 7538SOL     OW23512   3.402   4.029   5.638
 7538SOL    HW123513   3.496   4.038   5.607
 7538SOL    HW223514   3.340   4.059   5.565
 7539SOL     OW23515   1.266   3.031   4.269
 7539SOL    HW123516   1.252   2.934   4.285
 7539SOL    HW223517   1.275   3.047   4.170
 7540SOL     OW23518   2.909   0.596   0.412
 7540SOL    HW123519   2.937   0.529   0.344
 7540SOL    HW223520   2.954   0.577   0.499
 7541SOL     OW23521   0.340   1.900   5.979
 7541SOL    HW123522   0.359   1.854   6.065
 7541SOL    HW223523   0.425   1.910   5.927
 7542SOL     OW23524   1.789   0.570   4.227
 7542SOL    HW123525   1.856   0.543   4.296
 7542SOL    HW223526   1.796   0.509   4.148
 7543SOL     OW23527   2.228   2.310   2.165
 7543SOL    HW123528   2.324   2.331   2.148
 7543SOL    HW223529   2.190   2.261   2.087
 7544SOL     OW23530   1.093   2.218   2.816
 7544SOL    HW123531   0.997   2.208   2.844
 7544SOL    HW223532   1.152   2.171   2.882
 7545SOL     OW23533   3.821   0.225   3.969
 7545SOL    HW123534   3.879   0.305   3.987
 7545SOL    HW223535   3.785   0.190   4.055
 7546SOL     OW23536   4.766   6.283   4.889
 7546SOL    HW123537   4.820   6.314   4.967
 7546SOL    HW223538   4.708   6.207   4.917
 7547SOL     OW23539   1.683   6.619   1.391
 7547SOL    HW123540   1.595   6.640   1.433
 7547SOL    HW223541   1.757   6.640   1.456
 7548SOL     OW23542   2.622   4.013   1.005
 7548SOL    HW123543   2.676   4.016   0.921
 7548SOL    HW223544   2.582   3.922   1.016
 7549SOL     OW23545   6.032   6.907   2.397
 7549SOL    HW123546   5.991   6.910   2.488
 7549SOL    HW223547   6.013   6.992   2.348
 7550SOL     OW23548   0.982   5.465   0.830
 7550SOL    HW123549   0.912   5.523   0.787
 7550SOL    HW223550   1.065   5.466   0.774
 7551SOL     OW23551   4.785   3.805   5.766
 7551SOL    HW123552   4.855   3.791   5.837
 7551SOL    HW223553   4.728   3.883   5.791
 7552SOL     OW23554   3.695   5.438   4.841
 7552SOL    HW123555   3.631   5.483   4.903
 7552SOL    HW223556   3.725   5.502   4.770
 7553SOL     OW23557   4.297   4.404   5.639
 7553SOL    HW123558   4.376   4.463   5.654
 7553SOL    HW223559   4.268   4.364   5.726
 7554SOL     OW23560   6.692   0.559   1.001
 7554SOL    HW123561   6.763   0.623   0.970
 7554SOL    HW223562   6.604   0.587   0.962
 7555SOL     OW23563   3.038   6.326   6.613
 7555SOL    HW123564   3.129   6.315   6.654
 7555SOL    HW223565   2.968   6.308   6.681
 7556SOL     OW23566   0.159   4.058   2.944
 7556SOL    HW123567   0.150   3.959   2.955
 7556SOL    HW223568   0.192   4.097   3.030
 7557SOL     OW23569   4.491   4.015   0.704
 7557SOL    HW123570   4.497   3.939   0.768
 7557SOL    HW223571   4.399   4.054   0.707
 7558SOL     OW23572   1.500   3.815   3.597
 7558SOL    HW123573   1.594   3.831   3.569
 7558SOL    HW223574   1.497   3.736   3.659
 7559SOL     OW23575   1.029   5.292   0.492
 7559SOL    HW123576   1.055   5.264   0.585
 7559SOL    HW223577   0.968   5.223   0.452
 7560SOL     OW23578   4.361   0.174   5.898
 7560SOL    HW123579   4.294   0.100   5.904
 7560SOL    HW223580   4.447   0.145   5.940
 7561SOL     OW23581   1.681   2.941   0.407
 7561SOL    HW123582   1.595   2.974   0.369
 7561SOL    HW223583   1.737   3.018   0.437
 7562SOL     OW23584   4.517   6.245   5.404
 7562SOL    HW123585   4.499   6.332   5.450
 7562SOL    HW223586   4.567   6.262   5.319
 7563SOL     OW23587   2.705   1.224   3.262
 7563SOL    HW123588   2.693   1.323   3.263
 7563SOL    HW223589   2.656   1.184   3.339
 7564SOL     OW23590   6.420   5.715   3.926
 7564SOL    HW123591   6.447   5.811   3.929
 7564SOL    HW223592   6.326   5.708   3.891
 7565SOL     OW23593   4.462   5.200   6.583
 7565SOL    HW123594   4.481   5.103   6.568
 7565SOL    HW223595   4.520   5.255   6.524
 7566SOL     OW23596   1.614   5.846   4.053
 7566SOL    HW123597   1.681   5.773   4.067
 7566SOL    HW223598   1.662   5.932   4.036
 7567SOL     OW23599   2.874   4.356   0.305
 7567SOL    HW123600   2.826   4.443   0.308
 7567SOL    HW223601   2.808   4.281   0.312
 7568SOL     OW23602   4.184   4.748   4.205
 7568SOL    HW123603   4.133   4.782   4.284
 7568SOL    HW223604   4.124   4.744   4.126
 7569SOL     OW23605   3.412   6.898   2.894
 7569SOL    HW123606   3.447   6.946   2.974
 7569SOL    HW223607   3.485   6.891   2.825
 7570SOL     OW23608   6.264   5.066   5.151
 7570SOL    HW123609   6.303   5.089   5.240
 7570SOL    HW223610   6.330   5.086   5.078
 7571SOL     OW23611   6.598   4.483   0.628
 7571SOL    HW123612   6.577   4.522   0.718
 7571SOL    HW223613   6.545   4.532   0.558
 7572SOL     OW23614   6.110   1.299   3.411
 7572SOL    HW123615   6.184   1.235   3.392
 7572SOL    HW223616   6.022   1.250   3.405
 7573SOL     OW23617   3.226   5.028   3.772
 7573SOL    HW123618   3.211   4.975   3.855
 7573SOL    HW223619   3.322   5.020   3.745
 7574SOL     OW23620   4.238   6.124   1.631
 7574SOL    HW123621   4.267   6.030   1.649
 7574SOL    HW223622   4.151   6.123   1.582
 7575SOL     OW23623   5.347   3.639   3.784
 7575SOL    HW123624   5.301   3.562   3.829
 7575SOL    HW223625   5.303   3.658   3.696
 7576SOL     OW23626   0.294   4.718   1.965
 7576SOL    HW123627   0.302   4.663   2.048
 7576SOL    HW223628   0.343   4.672   1.890
 7577SOL     OW23629   3.929   1.598   3.616
 7577SOL    HW123630   3.947   1.524   3.681
 7577SOL    HW223631   3.942   1.686   3.661
 7578SOL     OW23632   2.097   5.148   5.558
 7578SOL    HW123633   2.018   5.136   5.498
 7578SOL    HW223634   2.085   5.094   5.641
 7579SOL     OW23635   4.097   2.241   4.631
 7579SOL    HW123636   4.023   2.220   4.695
 7579SOL    HW223637   4.060   2.258   4.540
 7580SOL     OW23638   1.637   3.174   2.788
 7580SOL    HW123639   1.699   3.164   2.710
 7580SOL    HW223640   1.571   3.247   2.770
 7581SOL     OW23641   5.378   1.022   0.930
 7581SOL    HW123642   5.356   1.003   0.834
 7581SOL    HW223643   5.346   0.946   0.987
 7582SOL     OW23644   3.938   3.466   1.388
 7582SOL    HW123645   3.905   3.462   1.483
 7582SOL    HW223646   3.913   3.382   1.341
 7583SOL     OW23647   6.074   4.675   3.112
 7583SOL    HW123648   6.156   4.729   3.096
 7583SOL    HW223649   6.067   4.651   3.209
 7584SOL     OW23650   1.703   2.590   2.085
 7584SOL    HW123651   1.621   2.570   2.031
 7584SOL    HW223652   1.676   2.614   2.178
 7585SOL     OW23653   2.925   3.897   0.547
 7585SOL    HW123654   2.947   3.977   0.492
 7585SOL    HW223655   2.885   3.926   0.634
 7586SOL     OW23656   1.226   2.482   3.194
 7586SOL    HW123657   1.187   2.390   3.201
 7586SOL    HW223658   1.177   2.533   3.123
 7587SOL     OW23659   3.029   0.515   5.473
 7587SOL    HW123660   2.987   0.603   5.450
 7587SOL    HW223661   3.100   0.493   5.406
 7588SOL     OW23662   0.436   4.377   1.539
 7588SOL    HW123663   0.452   4.291   1.491
 7588SOL    HW223664   0.448   4.453   1.475
 7589SOL     OW23665   4.691   5.955   6.382
 7589SOL    HW123666   4.744   5.877   6.348
 7589SOL    HW223667   4.597   5.926   6.400
 7590SOL     OW23668   2.308   0.865   5.332
 7590SOL    HW123669   2.379   0.814   5.284
 7590SOL    HW223670   2.282   0.816   5.416
 7591SOL     OW23671   0.296   5.815   6.252
 7591SOL    HW123672   0.350   5.874   6.313
 7591SOL    HW223673   0.355   5.779   6.180
 7592SOL     OW23674   4.835   4.677   6.635
 7592SOL    HW123675   4.919   4.674   6.581
 7592SOL    HW223676   4.854   4.723   6.722
 7593SOL     OW23677   6.822   4.780   0.367
 7593SOL    HW123678   6.904   4.768   0.311
 7593SOL    HW223679   6.789   4.874   0.359
 7594SOL     OW23680   1.262   0.559   4.626
 7594SOL    HW123681   1.308   0.504   4.556
 7594SOL    HW223682   1.330   0.614   4.675
 7595SOL     OW23683   0.210   4.144   6.853
 7595SOL    HW123684   0.160   4.113   6.772
 7595SOL    HW223685   0.215   4.069   6.919
 7596SOL     OW23686   5.653   5.321   2.207
 7596SOL    HW123687   5.630   5.398   2.147
 7596SOL    HW223688   5.623   5.341   2.300
 7597SOL     OW23689   2.496   4.520   2.838
 7597SOL    HW123690   2.527   4.505   2.932
 7597SOL    HW223691   2.510   4.616   2.813
 7598SOL     OW23692   6.118   1.566   2.676
 7598SOL    HW123693   6.213   1.534   2.679
 7598SOL    HW223694   6.080   1.566   2.768
 7599SOL     OW23695   5.495   4.049   1.506
 7599SOL    HW123696   5.552   4.029   1.586
 7599SOL    HW223697   5.498   3.970   1.444
 7600SOL     OW23698   1.746   2.748   2.643
 7600SOL    HW123699   1.745   2.650   2.658
 7600SOL    HW223700   1.656   2.786   2.665
 7601SOL     OW23701   1.903   0.629   5.584
 7601SOL    HW123702   1.893   0.654   5.488
 7601SOL    HW223703   1.949   0.540   5.591
 7602SOL     OW23704   2.186   3.020   5.210
 7602SOL    HW123705   2.146   2.946   5.157
 7602SOL    HW223706   2.285   3.018   5.201
 7603SOL     OW23707   5.557   1.225   1.596
 7603SOL    HW123708   5.549   1.279   1.512
 7603SOL    HW223709   5.621   1.150   1.581
 7604SOL     OW23710   5.812   5.276   6.378
 7604SOL    HW123711   5.759   5.191   6.379
 7604SOL    HW223712   5.906   5.257   6.351
 7605SOL     OW23713   4.826   3.066   5.312
 7605SOL    HW123714   4.918   3.089   5.343
 7605SOL    HW223715   4.792   3.137   5.251
 7606SOL     OW23716   5.343   1.049   3.695
 7606SOL    HW123717   5.407   0.999   3.637
 7606SOL    HW223718   5.295   1.118   3.640
 7607SOL     OW23719   4.908   6.234   6.298
 7607SOL    HW123720   4.992   6.180   6.294
 7607SOL    HW223721   4.930   6.328   6.324
 7608SOL     OW23722   3.563   3.139   4.897
 7608SOL    HW123723   3.506   3.059   4.915
 7608SOL    HW223724   3.607   3.130   4.807
 7609SOL     OW23725   0.755   2.711   3.022
 7609SOL    HW123726   0.786   2.791   2.971
 7609SOL    HW223727   0.662   2.726   3.055
 7610SOL     OW23728   5.744   0.331   2.276
 7610SOL    HW123729   5.777   0.345   2.369
 7610SOL    HW223730   5.764   0.413   2.221
 7611SOL     OW23731   1.574   2.082   1.581
 7611SOL    HW123732   1.506   2.149   1.550
 7611SOL    HW223733   1.598   2.100   1.676
 7612SOL     OW23734   3.549   0.750   2.756
 7612SOL    HW123735   3.513   0.814   2.689
 7612SOL    HW223736   3.488   0.671   2.762
 7613SOL     OW23737   6.662   0.961   2.002
 7613SOL    HW123738   6.756   0.983   1.977
 7613SOL    HW223739   6.609   0.941   1.920
 7614SOL     OW23740   4.395   1.349   6.990
 7614SOL    HW123741   4.484   1.338   0.008
 7614SOL    HW223742   4.407   1.399   6.905
 7615SOL     OW23743   4.694   4.938   6.305
 7615SOL    HW123744   4.674   4.918   6.209
 7615SOL    HW223745   4.609   4.951   6.355
 7616SOL     OW23746   0.038   5.797   3.743
 7616SOL    HW123747   7.002   5.729   3.707
 7616SOL    HW223748   0.015   5.816   3.839
 7617SOL     OW23749   4.173   5.263   3.644
 7617SOL    HW123750   4.265   5.276   3.682
 7617SOL    HW223751   4.172   5.289   3.548
 7618SOL     OW23752   3.418   1.406   0.329
 7618SOL    HW123753   3.368   1.400   0.243
 7618SOL    HW223754   3.493   1.471   0.319
 7619SOL     OW23755   5.670   3.539   5.849
 7619SOL    HW123756   5.681   3.450   5.893
 7619SOL    HW223757   5.733   3.605   5.889
 7620SOL     OW23758   2.695   5.482   1.908
 7620SOL    HW123759   2.643   5.558   1.948
 7620SOL    HW223760   2.774   5.462   1.967
 7621SOL     OW23761   2.509   3.254   1.544
 7621SOL    HW123762   2.432   3.309   1.510
 7621SOL    HW223763   2.585   3.261   1.479
 7622SOL     OW23764   4.863   1.748   0.765
 7622SOL    HW123765   4.893   1.820   0.827
 7622SOL    HW223766   4.817   1.789   0.686
 7623SOL     OW23767   6.801   6.969   5.222
 7623SOL    HW123768   6.863   6.920   5.283
 7623SOL    HW223769   6.742   0.002   5.276
 7624SOL     OW23770   6.693   1.459   4.845
 7624SOL    HW123771   6.784   1.460   4.885
 7624SOL    HW223772   6.698   1.432   4.749
 7625SOL     OW23773   2.319   4.315   0.468
 7625SOL    HW123774   2.413   4.316   0.435
 7625SOL    HW223775   2.315   4.354   0.560
 7626SOL     OW23776   2.518   3.931   5.329
 7626SOL    HW123777   2.471   3.861   5.383
 7626SOL    HW223778   2.459   3.961   5.254
 7627SOL     OW23779   0.057   6.786   6.661
 7627SOL    HW123780   0.074   6.697   6.703
 7627SOL    HW223781   0.072   6.858   6.729
 7628SOL     OW23782   4.309   1.396   0.629
 7628SOL    HW123783   4.383   1.381   0.695
 7628SOL    HW223784   4.228   1.345   0.656
 7629SOL     OW23785   6.052   5.532   2.109
 7629SOL    HW123786   6.056   5.468   2.186
 7629SOL    HW223787   6.139   5.530   2.060
 7630SOL     OW23788   5.494   2.383   2.322
 7630SOL    HW123789   5.490   2.324   2.403
 7630SOL    HW223790   5.584   2.425   2.316
 7631SOL     OW23791   0.810   0.491   4.051
 7631SOL    HW123792   0.803   0.393   4.072
 7631SOL    HW223793   0.804   0.504   3.952
 7632SOL     OW23794   5.342   1.139   4.734
 7632SOL    HW123795   5.401   1.061   4.758
 7632SOL    HW223796   5.382   1.187   4.656
 7633SOL     OW23797   5.776   3.517   6.187
 7633SOL    HW123798   5.825   3.568   6.117
 7633SOL    HW223799   5.678   3.536   6.179
 7634SOL     OW23800   0.657   1.569   2.045
 7634SOL    HW123801   0.626   1.586   1.952
 7634SOL    HW223802   0.716   1.644   2.075
 7635SOL     OW23803   2.063   4.651   5.801
 7635SOL    HW123804   2.040   4.693   5.888
 7635SOL    HW223805   2.075   4.552   5.814
 7636SOL     OW23806   0.687   1.492   3.454
 7636SOL    HW123807   0.749   1.539   3.517
 7636SOL    HW223808   0.638   1.558   3.398
 7637SOL     OW23809   3.392   6.616   3.775
 7637SOL    HW123810   3.420   6.527   3.738
 7637SOL    HW223811   3.470   6.677   3.780
 7638SOL     OW23812   4.478   5.170   1.717
 7638SOL    HW123813   4.572   5.203   1.715
 7638SOL    HW223814   4.416   5.244   1.690
 7639SOL     OW23815   0.623   2.014   4.169
 7639SOL    HW123816   0.650   1.934   4.116
 7639SOL    HW223817   0.698   2.042   4.229
 7640SOL     OW23818   2.242   2.895   6.671
 7640SOL    HW123819   2.277   2.808   6.706
 7640SOL    HW223820   2.244   2.963   6.743
 7641SOL     OW23821   6.036   2.972   0.926
 7641SOL    HW123822   6.075   3.016   1.006
 7641SOL    HW223823   6.099   2.902   0.892
 7642SOL     OW23824   1.120   3.203   3.350
 7642SOL    HW123825   1.042   3.257   3.319
 7642SOL    HW223826   1.117   3.112   3.308
 7643SOL     OW23827   5.938   3.708   3.491
 7643SOL    HW123828   6.024   3.700   3.542
 7643SOL    HW223829   5.864   3.733   3.554
 7644SOL     OW23830   6.986   2.761   4.319
 7644SOL    HW123831   6.992   2.810   4.232
 7644SOL    HW223832   0.033   2.693   4.324
 7645SOL     OW23833   3.522   2.912   0.837
 7645SOL    HW123834   3.578   2.961   0.771
 7645SOL    HW223835   3.460   2.977   0.882
 7646SOL     OW23836   0.422   0.347   2.361
 7646SOL    HW123837   0.341   0.380   2.411
 7646SOL    HW223838   0.397   0.330   2.266
 7647SOL     OW23839   2.757   4.746   0.048
 7647SOL    HW123840   2.815   4.749   6.994
 7647SOL    HW223841   2.776   4.662   0.100
 7648SOL     OW23842   2.658   0.525   3.876
 7648SOL    HW123843   2.565   0.535   3.841
 7648SOL    HW223844   2.720   0.582   3.823
 7649SOL     OW23845   3.567   2.307   1.232
 7649SOL    HW123846   3.482   2.360   1.236
 7649SOL    HW223847   3.635   2.349   1.293
 7650SOL     OW23848   0.529   4.665   1.134
 7650SOL    HW123849   0.472   4.687   1.054
 7650SOL    HW223850   0.592   4.741   1.151
 7651SOL     OW23851   5.570   2.671   5.942
 7651SOL    HW123852   5.540   2.577   5.930
 7651SOL    HW223853   5.491   2.730   5.957
 7652SOL     OW23854   0.518   2.715   2.084
 7652SOL    HW123855   0.603   2.763   2.107
 7652SOL    HW223856   0.441   2.758   2.131
 7653SOL     OW23857   4.925   2.362   1.361
 7653SOL    HW123858   4.885   2.311   1.437
 7653SOL    HW223859   4.876   2.448   1.349
 7654SOL     OW23860   5.998   3.850   4.833
 7654SOL    HW123861   5.933   3.777   4.854
 7654SOL    HW223862   5.978   3.930   4.888
 7655SOL     OW23863   5.043   3.922   6.346
 7655SOL    HW123864   4.992   3.845   6.384
 7655SOL    HW223865   5.035   4.001   6.407
 7656SOL     OW23866   6.825   0.413   5.157
 7656SOL    HW123867   6.881   0.465   5.221
 7656SOL    HW223868   6.729   0.415   5.188
 7657SOL     OW23869   3.639   2.114   3.333
 7657SOL    HW123870   3.662   2.019   3.351
 7657SOL    HW223871   3.608   2.123   3.238
 7658SOL     OW23872   4.662   1.212   5.378
 7658SOL    HW123873   4.682   1.308   5.394
 7658SOL    HW223874   4.568   1.192   5.408
 7659SOL     OW23875   4.990   5.817   6.574
 7659SOL    HW123876   5.088   5.837   6.566
 7659SOL    HW223877   4.955   5.787   6.485
 7660SOL     OW23878   5.485   5.574   3.862
 7660SOL    HW123879   5.437   5.661   3.852
 7660SOL    HW223880   5.567   5.587   3.918
 7661SOL     OW23881   5.819   3.306   3.544
 7661SOL    HW123882   5.804   3.378   3.611
 7661SOL    HW223883   5.916   3.280   3.544
 7662SOL     OW23884   6.350   5.570   3.534
 7662SOL    HW123885   6.375   5.551   3.629
 7662SOL    HW223886   6.433   5.575   3.478
 7663SOL     OW23887   1.060   6.311   6.980
 7663SOL    HW123888   1.126   6.275   6.915
 7663SOL    HW223889   1.037   6.405   6.957
 7664SOL     OW23890   5.134   4.877   5.127
 7664SOL    HW123891   5.092   4.954   5.079
 7664SOL    HW223892   5.122   4.793   5.074
 7665SOL     OW23893   1.987   5.948   4.294
 7665SOL    HW123894   1.998   5.872   4.359
 7665SOL    HW223895   2.075   5.966   4.250
 7666SOL     OW23896   2.100   0.091   2.333
 7666SOL    HW123897   2.054   0.179   2.349
 7666SOL    HW223898   2.153   0.096   2.249
 7667SOL     OW23899   5.743   0.091   5.493
 7667SOL    HW123900   5.773   0.035   5.570
 7667SOL    HW223901   5.788   0.060   5.410
 7668SOL     OW23902   3.563   4.060   3.242
 7668SOL    HW123903   3.469   4.094   3.236
 7668SOL    HW223904   3.618   4.102   3.170
 7669SOL     OW23905   4.160   6.117   4.893
 7669SOL    HW123906   4.235   6.166   4.848
 7669SOL    HW223907   4.082   6.179   4.905
 7670SOL     OW23908   1.331   5.879   0.827
 7670SOL    HW123909   1.264   5.944   0.860
 7670SOL    HW223910   1.356   5.902   0.732
 7671SOL     OW23911   5.130   2.993   5.033
 7671SOL    HW123912   5.124   2.903   5.077
 7671SOL    HW223913   5.217   3.000   4.983
 7672SOL     OW23914   5.202   6.992   1.564
 7672SOL    HW123915   5.231   0.030   1.634
 7672SOL    HW223916   5.224   0.002   1.474
 7673SOL     OW23917   1.900   3.929   6.786
 7673SOL    HW123918   1.992   3.926   6.748
 7673SOL    HW223919   1.895   4.001   6.855
 7674SOL     OW23920   6.281   1.446   6.650
 7674SOL    HW123921   6.380   1.459   6.638
 7674SOL    HW223922   6.260   1.437   6.747
 7675SOL     OW23923   5.344   6.988   3.546
 7675SOL    HW123924   5.275   6.987   3.473
 7675SOL    HW223925   5.308   6.940   3.626
 7676SOL     OW23926   2.443   0.436   0.274
 7676SOL    HW123927   2.530   0.484   0.283
 7676SOL    HW223928   2.369   0.493   0.310
 7677SOL     OW23929   1.390   2.023   2.557
 7677SOL    HW123930   1.320   2.069   2.502
 7677SOL    HW223931   1.477   2.022   2.508
 7678SOL     OW23932   4.926   6.864   5.620
 7678SOL    HW123933   4.894   6.816   5.702
 7678SOL    HW223934   4.923   6.963   5.636
 7679SOL     OW23935   1.928   4.934   4.290
 7679SOL    HW123936   1.956   5.016   4.240
 7679SOL    HW223937   1.875   4.875   4.229
 7680SOL     OW23938   4.677   0.296   0.743
 7680SOL    HW123939   4.637   0.387   0.732
 7680SOL    HW223940   4.653   0.259   0.833
 7681SOL     OW23941   4.435   2.472   5.459
 7681SOL    HW123942   4.452   2.525   5.542
 7681SOL    HW223943   4.518   2.425   5.431
 7682SOL     OW23944   3.672   1.155   6.981
 7682SOL    HW123945   3.736   1.148   0.030
 7682SOL    HW223946   3.587   1.197   7.013
 7683SOL     OW23947   6.407   3.519   3.305
 7683SOL    HW123948   6.366   3.509   3.214
 7683SOL    HW223949   6.398   3.614   3.335
 7684SOL     OW23950   3.838   2.165   6.526
 7684SOL    HW123951   3.846   2.243   6.588
 7684SOL    HW223952   3.925   2.115   6.523
 7685SOL     OW23953   4.678   4.263   1.673
 7685SOL    HW123954   4.656   4.244   1.577
 7685SOL    HW223955   4.609   4.221   1.732
 7686SOL     OW23956   2.148   0.697   2.228
 7686SOL    HW123957   2.120   0.780   2.277
 7686SOL    HW223958   2.233   0.715   2.179
 7687SOL     OW23959   4.756   4.453   5.305
 7687SOL    HW123960   4.723   4.457   5.399
 7687SOL    HW223961   4.724   4.369   5.261
 7688SOL     OW23962   6.984   0.434   3.600
 7688SOL    HW123963   7.007   0.403   3.692
 7688SOL    HW223964   0.035   0.483   3.561
 7689SOL     OW23965   3.452   0.079   5.005
 7689SOL    HW123966   3.519   0.147   5.033
 7689SOL    HW223967   3.483   7.015   5.034
 7690SOL     OW23968   0.837   5.507   3.141
 7690SOL    HW123969   0.757   5.540   3.191
 7690SOL    HW223970   0.890   5.584   3.106
 7691SOL     OW23971   0.136   4.283   5.667
 7691SOL    HW123972   0.083   4.209   5.625
 7691SOL    HW223973   0.233   4.269   5.649
 7692SOL     OW23974   1.231   6.051   1.393
 7692SOL    HW123975   1.271   6.129   1.344
 7692SOL    HW223976   1.272   5.966   1.359
 7693SOL     OW23977   4.036   1.410   6.830
 7693SOL    HW123978   4.017   1.315   6.807
 7693SOL    HW223979   3.953   1.453   6.866
 7694SOL     OW23980   5.697   5.674   4.028
 7694SOL    HW123981   5.727   5.597   4.083
 7694SOL    HW223982   5.689   5.756   4.086
 7695SOL     OW23983   5.272   6.679   6.175
 7695SOL    HW123984   5.288   6.729   6.090
 7695SOL    HW223985   5.181   6.637   6.173
 7696SOL     OW23986   1.180   4.027   5.517
 7696SOL    HW123987   1.198   4.116   5.557
 7696SOL    HW223988   1.265   3.974   5.513
 7697SOL     OW23989   4.325   0.111   1.943
 7697SOL    HW123990   4.372   0.025   1.963
 7697SOL    HW223991   4.264   0.099   1.865
 7698SOL     OW23992   0.315   2.219   6.294
 7698SOL    HW123993   0.334   2.226   6.196
 7698SOL    HW223994   0.326   2.309   6.336
 7699SOL     OW23995   3.335   3.673   1.729
 7699SOL    HW123996   3.280   3.757   1.719
 7699SOL    HW223997   3.388   3.659   1.646
 7700SOL     OW23998   5.809   1.096   5.614
 7700SOL    HW123999   5.716   1.133   5.619
 7700SOL    HW224000   5.846   1.112   5.523
 7701SOL     OW24001   6.785   2.631   5.164
 7701SOL    HW124002   6.693   2.649   5.130
 7701SOL    HW224003   6.831   2.718   5.181
 7702SOL     OW24004   0.954   6.032   0.075
 7702SOL    HW124005   0.989   6.123   0.050
 7702SOL    HW224006   0.857   6.026   0.052
 7703SOL     OW24007   1.374   2.719   0.308
 7703SOL    HW124008   1.343   2.798   0.255
 7703SOL    HW224009   1.420   2.654   0.246
 7704SOL     OW24010   4.138   3.521   1.744
 7704SOL    HW124011   4.146   3.611   1.786
 7704SOL    HW224012   4.075   3.526   1.666
 7705SOL     OW24013   3.785   2.917   5.017
 7705SOL    HW124014   3.807   2.951   4.926
 7705SOL    HW224015   3.854   2.851   5.046
 7706SOL     OW24016   6.070   1.043   5.472
 7706SOL    HW124017   6.061   0.944   5.481
 7706SOL    HW224018   5.999   1.077   5.411
 7707SOL     OW24019   0.300   5.006   6.314
 7707SOL    HW124020   0.393   5.042   6.317
 7707SOL    HW224021   0.301   4.909   6.337
 7708SOL     OW24022   5.361   1.532   5.677
 7708SOL    HW124023   5.439   1.523   5.739
 7708SOL    HW224024   5.322   1.442   5.658
 7709SOL     OW24025   4.112   2.310   1.771
 7709SOL    HW124026   4.189   2.335   1.829
 7709SOL    HW224027   4.062   2.392   1.744
 7710SOL     OW24028   3.188   1.221   6.074
 7710SOL    HW124029   3.176   1.304   6.128
 7710SOL    HW224030   3.134   1.147   6.114
 7711SOL     OW24031   5.118   6.766   4.660
 7711SOL    HW124032   5.180   6.695   4.628
 7711SOL    HW224033   5.026   6.727   4.671
 7712SOL     OW24034   6.560   4.292   6.181
 7712SOL    HW124035   6.562   4.388   6.209
 7712SOL    HW224036   6.607   4.282   6.093
 7713SOL     OW24037   1.084   5.072   6.594
 7713SOL    HW124038   1.066   5.128   6.513
 7713SOL    HW224039   1.012   5.088   6.662
 7714SOL     OW24040   6.495   4.834   5.084
 7714SOL    HW124041   6.592   4.840   5.110
 7714SOL    HW224042   6.443   4.792   5.158
 7715SOL     OW24043   3.305   1.351   1.245
 7715SOL    HW124044   3.293   1.292   1.324
 7715SOL    HW224045   3.294   1.447   1.273
 7716SOL     OW24046   3.636   2.091   4.433
 7716SOL    HW124047   3.545   2.102   4.392
 7716SOL    HW224048   3.705   2.120   4.367
 7717SOL     OW24049   3.173   6.350   0.557
 7717SOL    HW124050   3.258   6.364   0.607
 7717SOL    HW224051   3.154   6.252   0.549
 7718SOL     OW24052   1.338   6.062   3.126
 7718SOL    HW124053   1.329   6.140   3.188
 7718SOL    HW224054   1.291   5.982   3.165
 7719SOL     OW24055   5.309   2.724   5.992
 7719SOL    HW124056   5.285   2.627   5.984
 7719SOL    HW224057   5.317   2.748   6.089
 7720SOL     OW24058   4.602   6.237   1.373
 7720SOL    HW124059   4.536   6.198   1.309
 7720SOL    HW224060   4.553   6.281   1.448
 7721SOL     OW24061   0.473   4.912   3.761
 7721SOL    HW124062   0.534   4.983   3.729
 7721SOL    HW224063   0.415   4.948   3.834
 7722SOL     OW24064   0.522   5.793   3.431
 7722SOL    HW124065   0.435   5.837   3.451
 7722SOL    HW224066   0.590   5.862   3.407
 7723SOL     OW24067   0.144   2.387   5.919
 7723SOL    HW124068   0.132   2.309   5.858
 7723SOL    HW224069   0.173   2.467   5.866
 7724SOL     OW24070   2.811   6.038   6.922
 7724SOL    HW124071   2.821   5.954   6.869
 7724SOL    HW224072   2.741   6.025   6.992
 7725SOL     OW24073   4.909   4.262   3.297
 7725SOL    HW124074   4.986   4.227   3.350
 7725SOL    HW224075   4.824   4.250   3.349
 7726SOL     OW24076   5.043   6.276   3.379
 7726SOL    HW124077   5.089   6.339   3.316
 7726SOL    HW224078   4.945   6.275   3.359
 7727SOL     OW24079   6.002   3.483   2.492
 7727SOL    HW124080   6.073   3.550   2.466
 7727SOL    HW224081   5.912   3.519   2.466
 7728SOL     OW24082   2.108   3.349   2.926
 7728SOL    HW124083   2.017   3.340   2.885
 7728SOL    HW224084   2.177   3.319   2.860
 7729SOL     OW24085   5.632   1.258   6.065
 7729SOL    HW124086   5.729   1.247   6.084
 7729SOL    HW224087   5.581   1.185   6.110
 7730SOL     OW24088   4.515   6.052   3.249
 7730SOL    HW124089   4.476   5.962   3.269
 7730SOL    HW224090   4.532   6.100   3.334
 7731SOL     OW24091   6.407   1.232   3.453
 7731SOL    HW124092   6.434   1.157   3.393
 7731SOL    HW224093   6.486   1.292   3.468
 7732SOL     OW24094   4.056   4.714   0.865
 7732SOL    HW124095   4.096   4.650   0.931
 7732SOL    HW224096   4.126   4.739   0.798
 7733SOL     OW24097   3.786   5.609   1.626
 7733SOL    HW124098   3.874   5.653   1.640
 7733SOL    HW224099   3.796   5.533   1.562
 7734SOL     OW24100   0.925   3.031   2.259
 7734SOL    HW124101   0.997   3.013   2.327
 7734SOL    HW224102   0.961   3.091   2.188
 7735SOL     OW24103   5.746   3.983   0.657
 7735SOL    HW124104   5.824   4.008   0.715
 7735SOL    HW224105   5.689   3.916   0.705
 7736SOL     OW24106   5.866   4.590   6.831
 7736SOL    HW124107   5.900   4.600   6.738
 7736SOL    HW224108   5.934   4.625   6.896
 7737SOL     OW24109   4.987   3.311   6.877
 7737SOL    HW124110   5.005   3.326   6.779
 7737SOL    HW224111   5.026   3.386   6.930
 7738SOL     OW24112   1.681   4.826   6.398
 7738SOL    HW124113   1.704   4.857   6.491
 7738SOL    HW224114   1.582   4.812   6.392
 7739SOL     OW24115   6.085   4.859   2.339
 7739SOL    HW124116   6.099   4.822   2.247
 7739SOL    HW224117   6.000   4.823   2.377
 7740SOL     OW24118   6.801   6.082   3.271
 7740SOL    HW124119   6.704   6.100   3.285
 7740SOL    HW224120   6.848   6.167   3.248
 7741SOL     OW24121   2.223   5.675   3.611
 7741SOL    HW124122   2.226   5.592   3.555
 7741SOL    HW224123   2.312   5.721   3.607
 7742SOL     OW24124   6.896   0.663   4.310
 7742SOL    HW124125   6.930   0.753   4.283
 7742SOL    HW224126   6.970   0.596   4.304
 7743SOL     OW24127   4.900   3.474   1.965
 7743SOL    HW124128   4.908   3.374   1.954
 7743SOL    HW224129   4.836   3.510   1.898
 7744SOL     OW24130   0.126   6.571   3.247
 7744SOL    HW124131   0.169   6.507   3.183
 7744SOL    HW224132   0.195   6.636   3.280
 7745SOL     OW24133   6.582   2.725   5.533
 7745SOL    HW124134   6.628   2.637   5.526
 7745SOL    HW224135   6.544   2.749   5.443
 7746SOL     OW24136   1.823   0.506   6.419
 7746SOL    HW124137   1.726   0.507   6.444
 7746SOL    HW224138   1.875   0.455   6.487
 7747SOL     OW24139   4.726   4.809   0.669
 7747SOL    HW124140   4.815   4.763   0.664
 7747SOL    HW224141   4.738   4.897   0.715
 7748SOL     OW24142   1.182   3.718   6.633
 7748SOL    HW124143   1.232   3.803   6.642
 7748SOL    HW224144   1.243   3.645   6.602
 7749SOL     OW24145   5.690   3.109   5.596
 7749SOL    HW124146   5.633   3.189   5.580
 7749SOL    HW224147   5.648   3.029   5.554
 7750SOL     OW24148   3.750   5.625   2.876
 7750SOL    HW124149   3.710   5.705   2.921
 7750SOL    HW224150   3.738   5.544   2.934
 7751SOL     OW24151   1.040   2.476   1.402
 7751SOL    HW124152   0.986   2.449   1.481
 7751SOL    HW224153   1.089   2.396   1.366
 7752SOL     OW24154   2.807   1.190   2.400
 7752SOL    HW124155   2.718   1.172   2.357
 7752SOL    HW224156   2.810   1.286   2.429
 7753SOL     OW24157   5.128   0.416   4.835
 7753SOL    HW124158   5.206   0.424   4.896
 7753SOL    HW224159   5.068   0.496   4.848
 7754SOL     OW24160   4.438   6.172   1.156
 7754SOL    HW124161   4.447   6.224   1.071
 7754SOL    HW224162   4.384   6.090   1.138
 7755SOL     OW24163   1.494   3.127   5.990
 7755SOL    HW124164   1.481   3.097   6.085
 7755SOL    HW224165   1.474   3.225   5.983
 7756SOL     OW24166   1.368   4.550   2.082
 7756SOL    HW124167   1.416   4.463   2.091
 7756SOL    HW224168   1.435   4.625   2.081
 7757SOL     OW24169   0.392   4.274   0.576
 7757SOL    HW124170   0.465   4.219   0.536
 7757SOL    HW224171   0.344   4.221   0.646
 7758SOL     OW24172   6.877   1.337   5.156
 7758SOL    HW124173   6.894   1.355   5.059
 7758SOL    HW224174   6.834   1.417   5.198
 7759SOL     OW24175   3.459   1.140   2.575
 7759SOL    HW124176   3.415   1.172   2.659
 7759SOL    HW224177   3.558   1.152   2.583
 7760SOL     OW24178   5.464   2.829   0.439
 7760SOL    HW124179   5.522   2.839   0.520
 7760SOL    HW224180   5.516   2.851   0.357
 7761SOL     OW24181   4.993   5.094   2.938
 7761SOL    HW124182   5.045   5.178   2.951
 7761SOL    HW224183   5.056   5.019   2.919
 7762SOL     OW24184   4.722   1.205   6.966
 7762SOL    HW124185   4.661   1.128   6.984
 7762SOL    HW224186   4.718   1.230   6.870
 7763SOL     OW24187   1.423   0.734   3.007
 7763SOL    HW124188   1.335   0.711   2.963
 7763SOL    HW224189   1.471   0.649   3.030
 7764SOL     OW24190   3.789   4.280   5.310
 7764SOL    HW124191   3.878   4.238   5.331
 7764SOL    HW224192   3.795   4.379   5.325
 7765SOL     OW24193   6.479   4.125   4.070
 7765SOL    HW124194   6.432   4.045   4.108
 7765SOL    HW224195   6.510   4.105   3.977
 7766SOL     OW24196   0.468   3.047   5.524
 7766SOL    HW124197   0.463   2.947   5.524
 7766SOL    HW224198   0.506   3.078   5.612
 7767SOL     OW24199   4.029   0.546   3.009
 7767SOL    HW124200   3.999   0.595   2.926
 7767SOL    HW224201   4.128   0.553   3.018
 7768SOL     OW24202   3.195   6.192   4.147
 7768SOL    HW124203   3.136   6.111   4.151
 7768SOL    HW224204   3.214   6.224   4.240
 7769SOL     OW24205   4.055   1.691   6.051
 7769SOL    HW124206   3.985   1.740   5.999
 7769SOL    HW224207   4.145   1.726   6.025
 7770SOL     OW24208   1.343   2.866   3.531
 7770SOL    HW124209   1.405   2.933   3.490
 7770SOL    HW224210   1.369   2.774   3.500
 7771SOL     OW24211   1.293   2.974   5.210
 7771SOL    HW124212   1.268   3.000   5.117
 7771SOL    HW224213   1.216   2.994   5.271
 7772SOL     OW24214   5.324   6.885   2.049
 7772SOL    HW124215   5.379   6.812   2.009
 7772SOL    HW224216   5.236   6.891   2.003
 7773SOL     OW24217   2.602   6.869   5.920
 7773SOL    HW124218   2.589   6.965   5.898
 7773SOL    HW224219   2.513   6.825   5.933
 7774SOL     OW24220   5.172   1.201   2.536
 7774SOL    HW124221   5.151   1.248   2.450
 7774SOL    HW224222   5.112   1.122   2.546
 7775SOL     OW24223   4.049   2.421   1.432
 7775SOL    HW124224   4.006   2.334   1.410
 7775SOL    HW224225   4.000   2.465   1.507
 7776SOL     OW24226   2.627   1.916   3.623
 7776SOL    HW124227   2.668   1.838   3.671
 7776SOL    HW224228   2.635   1.998   3.681
 7777SOL     OW24229   5.023   4.475   2.795
 7777SOL    HW124230   5.116   4.511   2.807
 7777SOL    HW224231   5.004   4.408   2.866
 7778SOL     OW24232   0.977   3.266   1.752
 7778SOL    HW124233   0.995   3.328   1.828
 7778SOL    HW224234   0.987   3.171   1.783
 7779SOL     OW24235   2.146   1.398   3.836
 7779SOL    HW124236   2.125   1.342   3.756
 7779SOL    HW224237   2.067   1.453   3.860
 7780SOL     OW24238   6.521   5.973   3.840
 7780SOL    HW124239   6.503   6.011   3.931
 7780SOL    HW224240   6.510   6.045   3.771
 7781SOL     OW24241   3.277   3.198   1.549
 7781SOL    HW124242   3.202   3.247   1.504
 7781SOL    HW224243   3.287   3.231   1.642
 7782SOL     OW24244   5.214   5.273   3.294
 7782SOL    HW124245   5.154   5.347   3.325
 7782SOL    HW224246   5.305   5.285   3.334
 7783SOL     OW24247   0.238   6.550   3.558
 7783SOL    HW124248   0.218   6.570   3.654
 7783SOL    HW224249   0.267   6.634   3.512
 7784SOL     OW24250   0.441   2.993   2.462
 7784SOL    HW124251   0.500   2.937   2.520
 7784SOL    HW224252   0.464   2.978   2.366
 7785SOL     OW24253   5.931   0.525   2.629
 7785SOL    HW124254   6.019   0.524   2.677
 7785SOL    HW224255   5.945   0.558   2.536
 7786SOL     OW24256   5.611   0.718   6.267
 7786SOL    HW124257   5.591   0.674   6.180
 7786SOL    HW224258   5.570   0.665   6.342
 7787SOL     OW24259   0.921   2.030   0.817
 7787SOL    HW124260   0.845   2.016   0.754
 7787SOL    HW224261   0.984   2.099   0.780
 7788SOL     OW24262   0.661   4.121   2.716
 7788SOL    HW124263   0.695   4.189   2.781
 7788SOL    HW224264   0.580   4.076   2.754
 7789SOL     OW24265   4.103   6.803   6.617
 7789SOL    HW124266   4.071   6.734   6.682
 7789SOL    HW224267   4.155   6.874   6.666
 7790SOL     OW24268   4.056   4.835   4.962
 7790SOL    HW124269   4.086   4.796   5.049
 7790SOL    HW224270   4.053   4.934   4.969
 7791SOL     OW24271   1.799   6.327   1.348
 7791SOL    HW124272   1.823   6.235   1.318
 7791SOL    HW224273   1.711   6.354   1.309
 7792SOL     OW24274   1.300   1.703   1.657
 7792SOL    HW124275   1.345   1.665   1.577
 7792SOL    HW224276   1.244   1.782   1.630
 7793SOL     OW24277   4.826   1.103   0.913
 7793SOL    HW124278   4.874   1.110   0.826
 7793SOL    HW224279   4.819   1.193   0.955
 7794SOL     OW24280   1.206   1.737   2.972
 7794SOL    HW124281   1.241   1.697   2.887
 7794SOL    HW224282   1.178   1.664   3.034
 7795SOL     OW24283   4.578   3.296   0.935
 7795SOL    HW124284   4.560   3.260   1.026
 7795SOL    HW224285   4.607   3.221   0.875
 7796SOL     OW24286   3.974   1.885   0.146
 7796SOL    HW124287   4.021   1.954   0.202
 7796SOL    HW224288   3.887   1.922   0.114
 7797SOL     OW24289   1.550   6.053   2.807
 7797SOL    HW124290   1.577   5.998   2.728
 7797SOL    HW224291   1.504   5.994   2.874
 7798SOL     OW24292   2.250   2.758   0.677
 7798SOL    HW124293   2.297   2.751   0.765
 7798SOL    HW224294   2.260   2.851   0.641
 7799SOL     OW24295   2.666   6.031   4.051
 7799SOL    HW124296   2.606   6.107   4.025
 7799SOL    HW224297   2.705   5.990   3.968
 7800SOL     OW24298   0.475   1.387   1.554
 7800SOL    HW124299   0.413   1.395   1.477
 7800SOL    HW224300   0.569   1.374   1.521
 7801SOL     OW24301   2.959   2.615   0.839
 7801SOL    HW124302   2.988   2.520   0.851
 7801SOL    HW224303   2.993   2.648   0.751
 7802SOL     OW24304   0.117   4.699   4.427
 7802SOL    HW124305   0.109   4.676   4.524
 7802SOL    HW224306   0.054   4.641   4.374
 7803SOL     OW24307   2.950   2.247   6.497
 7803SOL    HW124308   3.010   2.191   6.440
 7803SOL    HW224309   2.930   2.200   6.582
 7804SOL     OW24310   3.165   1.529   5.367
 7804SOL    HW124311   3.109   1.462   5.319
 7804SOL    HW224312   3.112   1.613   5.380
 7805SOL     OW24313   0.137   1.726   6.375
 7805SOL    HW124314   0.108   1.797   6.311
 7805SOL    HW224315   0.236   1.727   6.385
 7806SOL     OW24316   6.622   2.874   5.004
 7806SOL    HW124317   6.606   2.931   5.084
 7806SOL    HW224318   6.568   2.908   4.927
 7807SOL     OW24319   2.559   6.299   5.446
 7807SOL    HW124320   2.654   6.310   5.475
 7807SOL    HW224321   2.503   6.274   5.524
 7808SOL     OW24322   0.527   3.120   4.592
 7808SOL    HW124323   0.534   3.079   4.683
 7808SOL    HW224324   0.584   3.202   4.589
 7809SOL     OW24325   2.936   0.452   2.960
 7809SOL    HW124326   2.885   0.478   2.878
 7809SOL    HW224327   3.026   0.496   2.958
 7810SOL     OW24328   2.722   6.797   5.551
 7810SOL    HW124329   2.675   6.729   5.607
 7810SOL    HW224330   2.662   6.876   5.538
 7811SOL     OW24331   1.312   5.850   3.328
 7811SOL    HW124332   1.304   5.765   3.277
 7811SOL    HW224333   1.238   5.856   3.395
 7812SOL     OW24334   3.218   0.101   5.585
 7812SOL    HW124335   3.183   0.193   5.599
 7812SOL    HW224336   3.317   0.104   5.576
 7813SOL     OW24337   4.999   1.152   0.510
 7813SOL    HW124338   4.905   1.154   0.544
 7813SOL    HW224339   5.057   1.207   0.570
 7814SOL     OW24340   6.536   2.002   1.583
 7814SOL    HW124341   6.511   2.003   1.487
 7814SOL    HW224342   6.462   1.961   1.637
 7815SOL     OW24343   4.740   5.705   3.598
 7815SOL    HW124344   4.829   5.692   3.554
 7815SOL    HW224345   4.673   5.646   3.554
 7816SOL     OW24346   1.517   1.133   5.661
 7816SOL    HW124347   1.487   1.161   5.570
 7816SOL    HW224348   1.492   1.037   5.676
 7817SOL     OW24349   5.255   0.946   5.502
 7817SOL    HW124350   5.171   0.911   5.460
 7817SOL    HW224351   5.295   0.875   5.559
 7818SOL     OW24352   3.938   7.020   3.374
 7818SOL    HW124353   3.889   6.966   3.306
 7818SOL    HW224354   4.030   6.982   3.386
 7819SOL     OW24355   2.770   2.313   4.277
 7819SOL    HW124356   2.815   2.310   4.188
 7819SOL    HW224357   2.817   2.252   4.341
 7820SOL     OW24358   1.911   0.641   7.000
 7820SOL    HW124359   1.944   0.703   0.044
 7820SOL    HW224360   1.949   0.668   6.912
 7821SOL     OW24361   2.804   6.081   5.879
 7821SOL    HW124362   2.844   6.074   5.971
 7821SOL    HW224363   2.711   6.045   5.881
 7822SOL     OW24364   0.599   1.543   4.692
 7822SOL    HW124365   0.522   1.558   4.754
 7822SOL    HW224366   0.676   1.601   4.721
 7823SOL     OW24367   1.768   2.277   5.011
 7823SOL    HW124368   1.832   2.353   5.007
 7823SOL    HW224369   1.804   2.200   4.959
 7824SOL     OW24370   6.397   4.312   2.891
 7824SOL    HW124371   6.307   4.352   2.911
 7824SOL    HW224372   6.441   4.284   2.976
 7825SOL     OW24373   3.238   3.960   3.863
 7825SOL    HW124374   3.240   3.864   3.836
 7825SOL    HW224375   3.330   3.991   3.885
 7826SOL     OW24376   6.195   6.985   0.965
 7826SOL    HW124377   6.201   6.990   1.065
 7826SOL    HW224378   6.172   0.048   0.928
 7827SOL     OW24379   5.154   3.579   0.228
 7827SOL    HW124380   5.146   3.555   0.131
 7827SOL    HW224381   5.145   3.678   0.238
 7828SOL     OW24382   0.930   5.447   0.141
 7828SOL    HW124383   0.890   5.538   0.153
 7828SOL    HW224384   1.013   5.440   0.197
 7829SOL     OW24385   3.247   4.088   2.929
 7829SOL    HW124386   3.165   4.050   2.886
 7829SOL    HW224387   3.324   4.081   2.866
 7830SOL     OW24388   0.025   4.759   0.222
 7830SOL    HW124389   0.118   4.726   0.237
 7830SOL    HW224390   0.011   4.774   0.124
 7831SOL     OW24391   3.226   3.789   0.458
 7831SOL    HW124392   3.190   3.766   0.548
 7831SOL    HW224393   3.189   3.877   0.428
 7832SOL     OW24394   3.951   3.027   5.744
 7832SOL    HW124395   3.904   2.941   5.727
 7832SOL    HW224396   4.027   3.037   5.679
 7833SOL     OW24397   6.430   6.557   1.989
 7833SOL    HW124398   6.363   6.624   1.956
 7833SOL    HW224399   6.501   6.544   1.919
 7834SOL     OW24400   4.873   1.148   1.484
 7834SOL    HW124401   4.916   1.109   1.566
 7834SOL    HW224402   4.789   1.195   1.510
 7835SOL     OW24403   2.055   2.343   4.185
 7835SOL    HW124404   2.147   2.349   4.146
 7835SOL    HW224405   2.019   2.435   4.201
 7836SOL     OW24406   2.252   6.883   0.238
 7836SOL    HW124407   2.351   6.886   0.229
 7836SOL    HW224408   2.211   6.864   0.148
 7837SOL     OW24409   5.083   6.874   1.835
 7837SOL    HW124410   5.033   6.840   1.755
 7837SOL    HW224411   5.117   6.966   1.815
 7838SOL     OW24412   3.412   5.176   3.972
 7838SOL    HW124413   3.390   5.115   4.048
 7838SOL    HW224414   3.355   5.258   3.977
 7839SOL     OW24415   7.012   5.633   3.299
 7839SOL    HW124416   6.917   5.602   3.305
 7839SOL    HW224417   7.016   5.732   3.316
 7840SOL     OW24418   4.149   3.011   6.204
 7840SOL    HW124419   4.084   2.979   6.135
 7840SOL    HW224420   4.154   3.111   6.202
 7841SOL     OW24421   1.270   1.417   5.675
 7841SOL    HW124422   1.295   1.366   5.592
 7841SOL    HW224423   1.227   1.504   5.648
 7842SOL     OW24424   0.815   1.020   2.356
 7842SOL    HW124425   0.761   1.081   2.298
 7842SOL    HW224426   0.910   1.049   2.357
 7843SOL     OW24427   6.587   1.908   1.880
 7843SOL    HW124428   6.510   1.861   1.924
 7843SOL    HW224429   6.572   1.913   1.782
 7844SOL     OW24430   3.869   1.506   2.826
 7844SOL    HW124431   3.868   1.605   2.812
 7844SOL    HW224432   3.793   1.479   2.884
 7845SOL     OW24433   1.155   0.892   4.785
 7845SOL    HW124434   1.147   0.800   4.745
 7845SOL    HW224435   1.180   0.957   4.713
 7846SOL     OW24436   5.327   6.806   2.766
 7846SOL    HW124437   5.243   6.853   2.794
 7846SOL    HW224438   5.332   6.718   2.813
 7847SOL     OW24439   0.851   6.430   5.639
 7847SOL    HW124440   0.913   6.507   5.627
 7847SOL    HW224441   0.827   6.422   5.736
 7848SOL     OW24442   4.334   3.028   1.274
 7848SOL    HW124443   4.334   2.948   1.334
 7848SOL    HW224444   4.272   3.097   1.309
 7849SOL     OW24445   6.719   4.691   5.773
 7849SOL    HW124446   6.729   4.653   5.865
 7849SOL    HW224447   6.626   4.675   5.740
 7850SOL     OW24448   1.450   2.864   4.933
 7850SOL    HW124449   1.430   2.766   4.924
 7850SOL    HW224450   1.447   2.890   5.030
 7851SOL     OW24451   2.862   6.251   0.692
 7851SOL    HW124452   2.938   6.308   0.660
 7851SOL    HW224453   2.886   6.154   0.680
 7852SOL     OW24454   2.461   6.330   0.473
 7852SOL    HW124455   2.514   6.297   0.394
 7852SOL    HW224456   2.500   6.417   0.504
 7853SOL     OW24457   2.768   2.089   6.682
 7853SOL    HW124458   2.829   2.013   6.660
 7853SOL    HW224459   2.704   2.061   6.754
 7854SOL     OW24460   3.945   3.992   4.807
 7854SOL    HW124461   4.010   3.922   4.776
 7854SOL    HW224462   3.957   4.008   4.905
 7855SOL     OW24463   3.079   6.998   5.053
 7855SOL    HW124464   3.088   6.944   5.137
 7855SOL    HW224465   3.164   6.993   5.001
 7856SOL     OW24466   2.725   2.466   6.001
 7856SOL    HW124467   2.757   2.430   6.088
 7856SOL    HW224468   2.645   2.413   5.971
 7857SOL     OW24469   0.407   3.731   4.929
 7857SOL    HW124470   0.499   3.696   4.947
 7857SOL    HW224471   0.340   3.672   4.975
 7858SOL     OW24472   5.096   2.823   3.528
 7858SOL    HW124473   5.125   2.800   3.434
 7858SOL    HW224474   5.076   2.920   3.534
 7859SOL     OW24475   6.715   6.501   0.028
 7859SOL    HW124476   6.762   6.432   7.000
 7859SOL    HW224477   6.728   6.479   0.125
 7860SOL     OW24478   4.305   0.034   0.253
 7860SOL    HW124479   4.297   7.003   0.334
 7860SOL    HW224480   4.392   0.083   0.257
 7861SOL     OW24481   6.457   3.806   0.126
 7861SOL    HW124482   6.540   3.759   0.155
 7861SOL    HW224483   6.386   3.797   0.196
 7862SOL     OW24484   3.045   4.644   1.610
 7862SOL    HW124485   3.006   4.596   1.688
 7862SOL    HW224486   3.033   4.743   1.622
 7863SOL     OW24487   4.577   5.799   2.517
 7863SOL    HW124488   4.621   5.710   2.507
 7863SOL    HW224489   4.577   5.847   2.429
 7864SOL     OW24490   2.238   5.649   5.379
 7864SOL    HW124491   2.152   5.607   5.348
 7864SOL    HW224492   2.221   5.743   5.409
 7865SOL     OW24493   4.588   0.406   3.143
 7865SOL    HW124494   4.588   0.371   3.049
 7865SOL    HW224495   4.566   0.331   3.206
 7866SOL     OW24496   2.782   0.419   5.375
 7866SOL    HW124497   2.753   0.513   5.353
 7866SOL    HW224498   2.870   0.422   5.422
 7867SOL     OW24499   0.012   2.394   0.192
 7867SOL    HW124500   6.972   2.469   0.187
 7867SOL    HW224501   6.995   2.308   0.166
 7868SOL     OW24502   5.373   0.219   1.382
 7868SOL    HW124503   5.343   0.264   1.466
 7868SOL    HW224504   5.395   0.288   1.313
 7869SOL     OW24505   5.882   1.874   4.345
 7869SOL    HW124506   5.931   1.833   4.422
 7869SOL    HW224507   5.945   1.884   4.268
 7870SOL     OW24508   6.047   0.162   3.220
 7870SOL    HW124509   6.056   0.261   3.224
 7870SOL    HW224510   6.102   0.120   3.292
 7871SOL     OW24511   5.566   2.608   2.990
 7871SOL    HW124512   5.651   2.653   2.961
 7871SOL    HW224513   5.532   2.550   2.916
 7872SOL     OW24514   5.296   4.179   3.818
 7872SOL    HW124515   5.305   4.137   3.728
 7872SOL    HW224516   5.376   4.157   3.874
 7873SOL     OW24517   6.934   6.349   4.527
 7873SOL    HW124518   6.917   6.425   4.464
 7873SOL    HW224519   7.018   6.302   4.502
 7874SOL     OW24520   5.915   6.386   0.360
 7874SOL    HW124521   5.873   6.391   0.451
 7874SOL    HW224522   6.010   6.357   0.369
 7875SOL     OW24523   5.353   2.487   0.412
 7875SOL    HW124524   5.343   2.507   0.314
 7875SOL    HW224525   5.311   2.559   0.466
 7876SOL     OW24526   6.924   2.849   5.241
 7876SOL    HW124527   7.018   2.875   5.218
 7876SOL    HW224528   6.867   2.930   5.248
 7877SOL     OW24529   5.946   3.525   1.145
 7877SOL    HW124530   5.862   3.471   1.133
 7877SOL    HW224531   6.015   3.468   1.189
 7878SOL     OW24532   4.069   3.576   2.381
 7878SOL    HW124533   4.066   3.673   2.358
 7878SOL    HW224534   4.127   3.563   2.462
 7879SOL     OW24535   6.585   1.633   5.546
 7879SOL    HW124536   6.579   1.603   5.641
 7879SOL    HW224537   6.528   1.714   5.533
 7880SOL     OW24538   1.947   6.167   6.478
 7880SOL    HW124539   2.026   6.170   6.540
 7880SOL    HW224540   1.976   6.190   6.385
 7881SOL     OW24541   6.957   4.789   5.570
 7881SOL    HW124542   6.859   4.801   5.559
 7881SOL    HW224543   7.003   4.878   5.569
 7882SOL     OW24544   1.158   4.700   0.871
 7882SOL    HW124545   1.248   4.737   0.895
 7882SOL    HW224546   1.168   4.606   0.839
 7883SOL     OW24547   3.154   2.191   2.703
 7883SOL    HW124548   3.145   2.190   2.604
 7883SOL    HW224549   3.108   2.271   2.741
 7884SOL     OW24550   6.500   2.418   5.878
 7884SOL    HW124551   6.427   2.436   5.943
 7884SOL    HW224552   6.487   2.327   5.837
 7885SOL     OW24553   4.661   4.627   2.241
 7885SOL    HW124554   4.565   4.601   2.227
 7885SOL    HW224555   4.671   4.725   2.224
 7886SOL     OW24556   3.876   5.265   3.520
 7886SOL    HW124557   3.823   5.184   3.491
 7886SOL    HW224558   3.963   5.235   3.559
 7887SOL     OW24559   0.391   3.441   0.746
 7887SOL    HW124560   0.334   3.369   0.708
 7887SOL    HW224561   0.335   3.522   0.764
 7888SOL     OW24562   0.426   1.194   5.229
 7888SOL    HW124563   0.445   1.159   5.321
 7888SOL    HW224564   0.327   1.191   5.212
 7889SOL     OW24565   6.151   4.479   0.524
 7889SOL    HW124566   6.103   4.550   0.474
 7889SOL    HW224567   6.108   4.390   0.506
 7890SOL     OW24568   1.151   2.363   1.857
 7890SOL    HW124569   1.200   2.283   1.891
 7890SOL    HW224570   1.156   2.436   1.925
 7891SOL     OW24571   6.799   1.067   5.250
 7891SOL    HW124572   6.824   1.149   5.199
 7891SOL    HW224573   6.873   1.042   5.312
 7892SOL     OW24574   0.496   1.898   4.759
 7892SOL    HW124575   0.543   1.899   4.670
 7892SOL    HW224576   0.423   1.966   4.758
 7893SOL     OW24577   5.976   6.219   0.637
 7893SOL    HW124578   6.075   6.224   0.655
 7893SOL    HW224579   5.950   6.125   0.616
 7894SOL     OW24580   2.830   0.122   6.328
 7894SOL    HW124581   2.910   0.128   6.269
 7894SOL    HW224582   2.749   0.102   6.273
 7895SOL     OW24583   5.020   0.051   2.326
 7895SOL    HW124584   5.113   0.043   2.288
 7895SOL    HW224585   5.021   0.120   2.398
 7896SOL     OW24586   3.052   1.829   1.397
 7896SOL    HW124587   3.011   1.851   1.486
 7896SOL    HW224588   3.119   1.899   1.373
 7897SOL     OW24589   5.138   0.981   1.467
 7897SOL    HW124590   5.235   0.966   1.447
 7897SOL    HW224591   5.121   1.079   1.477
 7898SOL     OW24592   3.804   5.963   3.463
 7898SOL    HW124593   3.760   5.875   3.444
 7898SOL    HW224594   3.857   5.956   3.548
 7899SOL     OW24595   5.639   4.829   2.582
 7899SOL    HW124596   5.590   4.831   2.670
 7899SOL    HW224597   5.574   4.844   2.508
 7900SOL     OW24598   0.340   4.126   0.816
 7900SOL    HW124599   0.430   4.141   0.856
 7900SOL    HW224600   0.271   4.124   0.889
 7901SOL     OW24601   0.081   3.329   6.304
 7901SOL    HW124602   0.005   3.353   6.364
 7901SOL    HW224603   0.047   3.268   6.231
 7902SOL     OW24604   1.490   0.999   1.479
 7902SOL    HW124605   1.408   0.943   1.486
 7902SOL    HW224606   1.534   1.005   1.569
 7903SOL     OW24607   3.461   2.057   5.798
 7903SOL    HW124608   3.476   2.146   5.757
 7903SOL    HW224609   3.392   2.007   5.746
 7904SOL     OW24610   5.709   3.306   3.099
 7904SOL    HW124611   5.716   3.361   3.016
 7904SOL    HW224612   5.800   3.275   3.126
 7905SOL     OW24613   6.543   2.187   0.795
 7905SOL    HW124614   6.516   2.235   0.712
 7905SOL    HW224615   6.466   2.186   0.859
 7906SOL     OW24616   6.905   5.998   5.953
 7906SOL    HW124617   7.005   6.000   5.953
 7906SOL    HW224618   6.871   6.027   6.043
 7907SOL     OW24619   5.159   5.652   3.010
 7907SOL    HW124620   5.081   5.636   2.950
 7907SOL    HW224621   5.183   5.749   3.007
 7908SOL     OW24622   1.656   6.972   6.394
 7908SOL    HW124623   1.596   0.025   6.392
 7908SOL    HW224624   1.616   6.902   6.452
 7909SOL     OW24625   6.960   4.060   3.183
 7909SOL    HW124626   0.005   4.128   3.177
 7909SOL    HW224627   6.962   4.001   3.102
 7910SOL     OW24628   1.381   4.176   4.295
 7910SOL    HW124629   1.451   4.227   4.344
 7910SOL    HW224630   1.294   4.225   4.299
 7911SOL     OW24631   5.837   4.009   6.545
 7911SOL    HW124632   5.893   3.932   6.577
 7911SOL    HW224633   5.771   3.976   6.478
 7912SOL     OW24634   5.901   5.661   1.645
 7912SOL    HW124635   5.868   5.742   1.595
 7912SOL    HW224636   5.930   5.689   1.737
 7913SOL     OW24637   0.907   3.850   6.538
 7913SOL    HW124638   0.984   3.826   6.597
 7913SOL    HW224639   0.855   3.767   6.515
 7914SOL     OW24640   1.296   0.303   4.811
 7914SOL    HW124641   1.337   0.332   4.725
 7914SOL    HW224642   1.252   0.381   4.855
 7915SOL     OW24643   2.550   6.220   1.744
 7915SOL    HW124644   2.495   6.267   1.675
 7915SOL    HW224645   2.600   6.287   1.798
 7916SOL     OW24646   2.126   0.435   2.808
 7916SOL    HW124647   2.212   0.441   2.757
 7916SOL    HW224648   2.065   0.369   2.764
 7917SOL     OW24649   4.652   1.092   2.844
 7917SOL    HW124650   4.686   1.092   2.750
 7917SOL    HW224651   4.704   1.157   2.898
 7918SOL     OW24652   1.388   2.577   2.682
 7918SOL    HW124653   1.383   2.497   2.623
 7918SOL    HW224654   1.401   2.548   2.777
 7919SOL     OW24655   0.834   0.425   4.435
 7919SOL    HW124656   0.840   0.506   4.493
 7919SOL    HW224657   0.762   0.438   4.366
 7920SOL     OW24658   5.096   0.048   1.258
 7920SOL    HW124659   5.025   0.117   1.246
 7920SOL    HW224660   5.056   6.984   1.249
 7921SOL     OW24661   6.520   3.363   1.047
 7921SOL    HW124662   6.546   3.410   0.962
 7921SOL    HW224663   6.485   3.430   1.113
 7922SOL     OW24664   1.977   6.743   3.286
 7922SOL    HW124665   1.906   6.678   3.257
 7922SOL    HW224666   1.936   6.834   3.297
 7923SOL     OW24667   5.545   0.197   6.812
 7923SOL    HW124668   5.595   0.249   6.881
 7923SOL    HW224669   5.447   0.216   6.821
 7924SOL     OW24670   5.323   5.659   6.826
 7924SOL    HW124671   5.233   5.631   6.791
 7924SOL    HW224672   5.313   5.693   6.919
 7925SOL     OW24673   2.272   4.341   6.485
 7925SOL    HW124674   2.297   4.437   6.488
 7925SOL    HW224675   2.196   4.324   6.547
 7926SOL     OW24676   4.845   5.718   0.399
 7926SOL    HW124677   4.824   5.621   0.388
 7926SOL    HW224678   4.776   5.761   0.456
 7927SOL     OW24679   4.825   6.775   3.681
 7927SOL    HW124680   4.877   6.857   3.707
 7927SOL    HW224681   4.885   6.695   3.685
 7928SOL     OW24682   5.734   2.975   3.957
 7928SOL    HW124683   5.720   2.982   4.055
 7928SOL    HW224684   5.802   3.043   3.928
 7929SOL     OW24685   4.563   4.109   5.602
 7929SOL    HW124686   4.542   4.098   5.699
 7929SOL    HW224687   4.478   4.115   5.549
 7930SOL     OW24688   3.550   5.210   0.869
 7930SOL    HW124689   3.596   5.147   0.930
 7930SOL    HW224690   3.606   5.224   0.787
 7931SOL     OW24691   5.350   0.765   0.279
 7931SOL    HW124692   5.401   0.851   0.283
 7931SOL    HW224693   5.408   0.690   0.310
 7932SOL     OW24694   1.126   3.618   0.773
 7932SOL    HW124695   1.082   3.682   0.710
 7932SOL    HW224696   1.170   3.545   0.720
 7933SOL     OW24697   2.440   1.490   0.263
 7933SOL    HW124698   2.465   1.417   0.326
 7933SOL    HW224699   2.435   1.454   0.170
 7934SOL     OW24700   6.506   5.240   0.592
 7934SOL    HW124701   6.454   5.309   0.642
 7934SOL    HW224702   6.604   5.259   0.602
 7935SOL     OW24703   6.277   4.362   3.807
 7935SOL    HW124704   6.373   4.380   3.783
 7935SOL    HW224705   6.219   4.431   3.765
 7936SOL     OW24706   2.240   5.582   3.921
 7936SOL    HW124707   2.315   5.516   3.930
 7936SOL    HW224708   2.224   5.601   3.824
 7937SOL     OW24709   4.123   0.780   1.835
 7937SOL    HW124710   4.113   0.831   1.750
 7937SOL    HW224711   4.218   0.750   1.845
 7938SOL     OW24712   1.728   0.046   3.511
 7938SOL    HW124713   1.691   0.136   3.488
 7938SOL    HW224714   1.760   0.001   3.427
 7939SOL     OW24715   1.959   0.246   3.925
 7939SOL    HW124716   2.033   0.310   3.905
 7939SOL    HW224717   1.940   0.192   3.843
 7940SOL     OW24718   6.524   1.183   5.688
 7940SOL    HW124719   6.495   1.262   5.634
 7940SOL    HW224720   6.502   1.198   5.784
 7941SOL     OW24721   2.723   0.519   0.960
 7941SOL    HW124722   2.716   0.426   0.925
 7941SOL    HW224723   2.733   0.583   0.883
 7942SOL     OW24724   1.848   3.521   0.810
 7942SOL    HW124725   1.779   3.490   0.875
 7942SOL    HW224726   1.826   3.613   0.779
 7943SOL     OW24727   1.678   5.739   6.656
 7943SOL    HW124728   1.589   5.754   6.699
 7943SOL    HW224729   1.717   5.826   6.627
 7944SOL     OW24730   1.318   1.845   0.663
 7944SOL    HW124731   1.273   1.809   0.745
 7944SOL    HW224732   1.407   1.883   0.688
 7945SOL     OW24733   6.386   4.600   3.672
 7945SOL    HW124734   6.433   4.527   3.722
 7945SOL    HW224735   6.439   4.625   3.591
 7946SOL     OW24736   5.572   1.171   5.768
 7946SOL    HW124737   5.602   1.224   5.848
 7946SOL    HW224738   5.565   1.074   5.793
 7947SOL     OW24739   0.741   4.124   0.078
 7947SOL    HW124740   0.696   4.213   0.086
 7947SOL    HW224741   0.704   4.075   7.025
 7948SOL     OW24742   1.595   5.757   1.098
 7948SOL    HW124743   1.682   5.763   1.148
 7948SOL    HW224744   1.549   5.672   1.123
 7949SOL     OW24745   3.912   5.375   5.354
 7949SOL    HW124746   3.821   5.397   5.390
 7949SOL    HW224747   3.938   5.443   5.287
 7950SOL     OW24748   6.272   2.555   6.578
 7950SOL    HW124749   6.211   2.490   6.622
 7950SOL    HW224750   6.331   2.507   6.513
 7951SOL     OW24751   3.109   0.289   2.746
 7951SOL    HW124752   3.154   0.293   2.836
 7951SOL    HW224753   3.022   0.338   2.750
 7952SOL     OW24754   0.333   3.453   5.478
 7952SOL    HW124755   0.377   3.375   5.434
 7952SOL    HW224756   0.319   3.526   5.410
 7953SOL     OW24757   0.466   0.889   6.821
 7953SOL    HW124758   0.508   0.930   6.740
 7953SOL    HW224759   0.531   0.890   6.897
 7954SOL     OW24760   3.882   2.185   0.875
 7954SOL    HW124761   3.942   2.263   0.858
 7954SOL    HW224762   3.792   2.218   0.902
 7955SOL     OW24763   6.527   6.585   6.853
 7955SOL    HW124764   6.564   6.549   6.939
 7955SOL    HW224765   6.591   6.565   6.778
 7956SOL     OW24766   0.291   6.688   1.426
 7956SOL    HW124767   0.219   6.640   1.475
 7956SOL    HW224768   0.354   6.730   1.492
 7957SOL     OW24769   6.181   2.021   6.419
 7957SOL    HW124770   6.275   2.053   6.425
 7957SOL    HW224771   6.120   2.098   6.400
 7958SOL     OW24772   5.015   2.310   5.921
 7958SOL    HW124773   5.075   2.266   5.988
 7958SOL    HW224774   4.923   2.273   5.930
 7959SOL     OW24775   5.406   2.864   0.120
 7959SOL    HW124776   5.492   2.909   0.143
 7959SOL    HW224777   5.342   2.932   0.081
 7960SOL     OW24778   0.913   2.997   4.949
 7960SOL    HW124779   0.893   2.951   5.035
 7960SOL    HW224780   0.996   3.053   4.959
 7961SOL     OW24781   6.281   0.162   6.155
 7961SOL    HW124782   6.349   0.102   6.113
 7961SOL    HW224783   6.326   0.243   6.192
 7962SOL     OW24784   6.273   0.632   4.562
 7962SOL    HW124785   6.234   0.547   4.596
 7962SOL    HW224786   6.211   0.708   4.582
 7963SOL     OW24787   5.629   6.205   2.678
 7963SOL    HW124788   5.675   6.281   2.723
 7963SOL    HW224789   5.691   6.127   2.672
 7964SOL     OW24790   1.218   4.954   1.877
 7964SOL    HW124791   1.291   4.934   1.812
 7964SOL    HW224792   1.132   4.915   1.844
 7965SOL     OW24793   4.738   1.771   6.515
 7965SOL    HW124794   4.741   1.851   6.574
 7965SOL    HW224795   4.685   1.792   6.432
 7966SOL     OW24796   5.686   4.107   5.210
 7966SOL    HW124797   5.659   4.017   5.245
 7966SOL    HW224798   5.610   4.171   5.222
 7967SOL     OW24799   2.001   4.456   1.797
 7967SOL    HW124800   2.037   4.395   1.868
 7967SOL    HW224801   2.005   4.409   1.709
 7968SOL     OW24802   2.080   2.490   3.108
 7968SOL    HW124803   2.141   2.413   3.129
 7968SOL    HW224804   2.133   2.565   3.069
 7969SOL     OW24805   2.430   4.166   6.348
 7969SOL    HW124806   2.369   4.233   6.391
 7969SOL    HW224807   2.396   4.143   6.257
 7970SOL     OW24808   6.517   2.558   2.722
 7970SOL    HW124809   6.522   2.504   2.639
 7970SOL    HW224810   6.488   2.651   2.700
 7971SOL     OW24811   2.566   7.003   0.087
 7971SOL    HW124812   2.615   0.004   0.004
 7971SOL    HW224813   2.511   0.052   0.121
 7972SOL     OW24814   3.473   2.981   4.018
 7972SOL    HW124815   3.463   2.958   3.921
 7972SOL    HW224816   3.402   3.047   4.043
 7973SOL     OW24817   1.191   5.423   2.262
 7973SOL    HW124818   1.241   5.458   2.341
 7973SOL    HW224819   1.117   5.363   2.292
 7974SOL     OW24820   0.343   3.009   3.875
 7974SOL    HW124821   0.373   2.951   3.799
 7974SOL    HW224822   0.253   3.048   3.854
 7975SOL     OW24823   3.625   0.363   6.534
 7975SOL    HW124824   3.613   0.326   6.442
 7975SOL    HW224825   3.615   0.462   6.533
 7976SOL     OW24826   6.748   0.179   0.802
 7976SOL    HW124827   6.665   0.136   0.836
 7976SOL    HW224828   6.823   0.163   0.867
 7977SOL     OW24829   5.406   5.088   3.074
 7977SOL    HW124830   5.485   5.143   3.048
 7977SOL    HW224831   5.329   5.109   3.014
 7978SOL     OW24832   0.455   4.098   1.502
 7978SOL    HW124833   0.399   4.029   1.456
 7978SOL    HW224834   0.536   4.054   1.541
 7979SOL     OW24835   3.848   2.783   5.691
 7979SOL    HW124836   3.828   2.721   5.767
 7979SOL    HW224837   3.829   2.736   5.604
 7980SOL     OW24838   4.024   5.936   2.630
 7980SOL    HW124839   3.985   6.002   2.695
 7980SOL    HW224840   4.105   5.977   2.586
 7981SOL     OW24841   0.990   2.794   3.855
 7981SOL    HW124842   0.951   2.740   3.780
 7981SOL    HW224843   0.927   2.869   3.878
 7982SOL     OW24844   6.664   6.920   0.764
 7982SOL    HW124845   6.592   6.918   0.695
 7982SOL    HW224846   6.742   6.973   0.730
 7983SOL     OW24847   3.884   1.803   0.785
 7983SOL    HW124848   3.972   1.758   0.771
 7983SOL    HW224849   3.875   1.830   0.880
 7984SOL     OW24850   5.678   1.279   1.937
 7984SOL    HW124851   5.606   1.218   1.969
 7984SOL    HW224852   5.642   1.340   1.866
 7985SOL     OW24853   2.889   3.763   6.040
 7985SOL    HW124854   2.828   3.724   6.109
 7985SOL    HW224855   2.977   3.717   6.043
 7986SOL     OW24856   2.109   1.208   3.553
 7986SOL    HW124857   2.086   1.302   3.532
 7986SOL    HW224858   2.043   1.171   3.618
 7987SOL     OW24859   0.501   2.669   0.131
 7987SOL    HW124860   0.490   2.762   0.165
 7987SOL    HW224861   0.412   2.633   0.103
 7988SOL     OW24862   6.215   0.036   1.998
 7988SOL    HW124863   6.180   0.124   2.032
 7988SOL    HW224864   6.273   7.022   2.068
 7989SOL     OW24865   0.815   5.124   1.822
 7989SOL    HW124866   0.725   5.080   1.816
 7989SOL    HW224867   0.835   5.143   1.918
 7990SOL     OW24868   4.156   4.772   5.520
 7990SOL    HW124869   4.109   4.859   5.506
 7990SOL    HW224870   4.089   4.699   5.526
 7991SOL     OW24871   5.095   0.425   4.171
 7991SOL    HW124872   5.081   0.335   4.129
 7991SOL    HW224873   5.144   0.484   4.106
 7992SOL     OW24874   3.161   0.376   0.616
 7992SOL    HW124875   3.117   0.294   0.580
 7992SOL    HW224876   3.094   0.450   0.623
 7993SOL     OW24877   6.201   4.674   1.171
 7993SOL    HW124878   6.113   4.632   1.147
 7993SOL    HW224879   6.185   4.750   1.234
 7994SOL     OW24880   0.820   0.926   5.049
 7994SOL    HW124881   0.835   0.875   5.134
 7994SOL    HW224882   0.748   0.994   5.064
 7995SOL     OW24883   0.664   5.787   0.331
 7995SOL    HW124884   0.675   5.887   0.327
 7995SOL    HW224885   0.718   5.751   0.407
 7996SOL     OW24886   1.695   6.438   3.996
 7996SOL    HW124887   1.625   6.416   4.064
 7996SOL    HW224888   1.651   6.469   3.911
 7997SOL     OW24889   2.578   0.698   6.104
 7997SOL    HW124890   2.592   0.600   6.089
 7997SOL    HW224891   2.543   0.712   6.197
 7998SOL     OW24892   1.847   2.061   1.949
 7998SOL    HW124893   1.869   2.108   1.863
 7998SOL    HW224894   1.931   2.028   1.992
 7999SOL     OW24895   6.923   0.667   2.493
 7999SOL    HW124896   6.882   0.709   2.574
 7999SOL    HW224897   7.022   0.665   2.503
 8000SOL     OW24898   4.710   5.968   0.352
 8000SOL    HW124899   4.629   6.018   0.385
 8000SOL    HW224900   4.680   5.887   0.302
 8001SOL     OW24901   5.109   5.100   2.187
 8001SOL    HW124902   5.168   5.148   2.122
 8001SOL    HW224903   5.152   5.015   2.215
 8002SOL     OW24904   1.232   0.478   5.017
 8002SOL    HW124905   1.211   0.576   5.008
 8002SOL    HW224906   1.191   0.443   5.101
 8003SOL     OW24907   2.258   5.539   3.065
 8003SOL    HW124908   2.305   5.557   2.979
 8003SOL    HW224909   2.325   5.511   3.134
 8004SOL     OW24910   2.260   4.046   3.665
 8004SOL    HW124911   2.252   4.086   3.573
 8004SOL    HW224912   2.249   4.117   3.734
 8005SOL     OW24913   2.921   0.199   4.902
 8005SOL    HW124914   2.968   0.116   4.935
 8005SOL    HW224915   2.866   0.237   4.976
 8006SOL     OW24916   4.663   5.461   6.380
 8006SOL    HW124917   4.733   5.461   6.309
 8006SOL    HW224918   4.574   5.479   6.339
 8007SOL     OW24919   0.670   0.313   1.181
 8007SOL    HW124920   0.747   0.338   1.123
 8007SOL    HW224921   0.632   0.394   1.224
 8008SOL     OW24922   4.938   5.363   1.226
 8008SOL    HW124923   4.923   5.317   1.313
 8008SOL    HW224924   4.854   5.409   1.197
 8009SOL     OW24925   5.582   0.157   1.607
 8009SOL    HW124926   5.483   0.168   1.608
 8009SOL    HW224927   5.611   0.124   1.517
 8010SOL     OW24928   3.009   6.909   0.566
 8010SOL    HW124929   3.104   6.926   0.594
 8010SOL    HW224930   2.959   6.869   0.643
 8011SOL     OW24931   3.633   1.237   1.758
 8011SOL    HW124932   3.602   1.310   1.697
 8011SOL    HW224933   3.713   1.267   1.810
 8012SOL     OW24934   5.972   0.678   5.246
 8012SOL    HW124935   6.025   0.594   5.230
 8012SOL    HW224936   5.974   0.734   5.163
 8013SOL     OW24937   3.513   0.779   3.590
 8013SOL    HW124938   3.595   0.762   3.537
 8013SOL    HW224939   3.496   0.701   3.651
 8014SOL     OW24940   2.017   2.506   3.372
 8014SOL    HW124941   2.028   2.595   3.416
 8014SOL    HW224942   2.030   2.517   3.273
 8015SOL     OW24943   3.926   5.655   5.155
 8015SOL    HW124944   3.832   5.622   5.166
 8015SOL    HW224945   3.953   5.648   5.058
 8016SOL     OW24946   2.649   3.725   5.636
 8016SOL    HW124947   2.646   3.640   5.583
 8016SOL    HW224948   2.730   3.778   5.611
 8017SOL     OW24949   5.480   6.649   1.939
 8017SOL    HW124950   5.447   6.684   1.852
 8017SOL    HW224951   5.580   6.650   1.939
 8018SOL     OW24952   3.455   2.843   1.191
 8018SOL    HW124953   3.540   2.799   1.164
 8018SOL    HW224954   3.404   2.783   1.253
 8019SOL     OW24955   3.080   3.234   0.639
 8019SOL    HW124956   3.168   3.189   0.626
 8019SOL    HW224957   3.005   3.171   0.617
 8020SOL     OW24958   0.810   6.762   0.042
 8020SOL    HW124959   0.766   6.774   0.131
 8020SOL    HW224960   0.908   6.782   0.050
 8021SOL     OW24961   1.261   2.099   0.552
 8021SOL    HW124962   1.284   2.111   0.456
 8021SOL    HW224963   1.287   2.007   0.581
 8022SOL     OW24964   3.933   6.995   2.565
 8022SOL    HW124965   3.953   6.910   2.614
 8022SOL    HW224966   3.962   6.986   2.470
 8023SOL     OW24967   3.676   4.957   2.633
 8023SOL    HW124968   3.766   4.921   2.658
 8023SOL    HW224969   3.686   5.022   2.557
 8024SOL     OW24970   2.514   1.099   6.539
 8024SOL    HW124971   2.439   1.083   6.604
 8024SOL    HW224972   2.600   1.066   6.578
 8025SOL     OW24973   1.450   6.684   1.795
 8025SOL    HW124974   1.481   6.727   1.880
 8025SOL    HW224975   1.371   6.626   1.814
 8026SOL     OW24976   0.723   6.566   5.414
 8026SOL    HW124977   0.776   6.503   5.471
 8026SOL    HW224978   0.786   6.631   5.369
 8027SOL     OW24979   3.990   0.034   6.249
 8027SOL    HW124980   3.916   0.070   6.191
 8027SOL    HW224981   4.012   0.101   6.320
 8028SOL     OW24982   3.571   5.751   6.145
 8028SOL    HW124983   3.495   5.777   6.086
 8028SOL    HW224984   3.638   5.826   6.148
 8029SOL     OW24985   1.791   6.813   1.219
 8029SOL    HW124986   1.769   6.727   1.266
 8029SOL    HW224987   1.725   6.830   1.147
 8030SOL     OW24988   0.970   3.451   0.479
 8030SOL    HW124989   0.960   3.542   0.518
 8030SOL    HW224990   1.047   3.450   0.415
 8031SOL     OW24991   0.522   0.551   4.389
 8031SOL    HW124992   0.579   0.594   4.459
 8031SOL    HW224993   0.427   0.581   4.401
 8032SOL     OW24994   0.865   3.693   1.745
 8032SOL    HW124995   0.915   3.656   1.667
 8032SOL    HW224996   0.773   3.720   1.716
 8033SOL     OW24997   3.475   5.029   0.468
 8033SOL    HW124998   3.568   5.051   0.439
 8033SOL    HW224999   3.414   5.036   0.390
 8034SOL     OW25000   0.951   1.407   5.138
 8034SOL    HW125001   0.975   1.421   5.042
 8034SOL    HW225002   0.861   1.364   5.144
 8035SOL     OW25003   5.121   0.521   3.483
 8035SOL    HW125004   5.158   0.435   3.448
 8035SOL    HW225005   5.187   0.595   3.466
 8036SOL     OW25006   5.423   5.101   5.472
 8036SOL    HW125007   5.356   5.124   5.543
 8036SOL    HW225008   5.393   5.018   5.424
 8037SOL     OW25009   3.674   1.020   6.533
 8037SOL    HW125010   3.579   1.046   6.517
 8037SOL    HW225011   3.677   0.928   6.573
 8038SOL     OW25012   5.408   5.852   2.188
 8038SOL    HW125013   5.435   5.910   2.266
 8038SOL    HW225014   5.313   5.872   2.163
 8039SOL     OW25015   1.943   2.600   4.980
 8039SOL    HW125016   1.854   2.645   4.970
 8039SOL    HW225017   1.997   2.614   4.897
 8040SOL     OW25018   0.641   6.876   4.895
 8040SOL    HW125019   0.548   6.845   4.913
 8040SOL    HW225020   0.660   6.957   4.951
 8041SOL     OW25021   3.110   1.974   2.826
 8041SOL    HW125022   3.115   2.045   2.756
 8041SOL    HW225023   3.166   1.896   2.799
 8042SOL     OW25024   5.086   4.591   6.557
 8042SOL    HW125025   5.122   4.615   6.467
 8042SOL    HW225026   5.159   4.597   6.625
 8043SOL     OW25027   5.833   5.334   0.167
 8043SOL    HW125028   5.922   5.328   0.122
 8043SOL    HW225029   5.785   5.416   0.135
 8044SOL     OW25030   1.317   3.244   1.242
 8044SOL    HW125031   1.370   3.306   1.301
 8044SOL    HW225032   1.325   3.150   1.277
 8045SOL     OW25033   5.865   2.907   4.975
 8045SOL    HW125034   5.882   2.963   5.056
 8045SOL    HW225035   5.766   2.897   4.961
 8046SOL     OW25036   0.096   4.432   1.634
 8046SOL    HW125037   0.153   4.351   1.616
 8046SOL    HW225038   0.076   4.438   1.732
 8047SOL     OW25039   2.892   6.161   0.238
 8047SOL    HW125040   2.812   6.143   0.180
 8047SOL    HW225041   2.873   6.129   0.331
 8048SOL     OW25042   4.787   2.025   6.673
 8048SOL    HW125043   4.739   2.018   6.761
 8048SOL    HW225044   4.879   1.988   6.682
 8049SOL     OW25045   2.348   1.757   0.223
 8049SOL    HW125046   2.388   1.666   0.234
 8049SOL    HW225047   2.379   1.817   0.296
 8050SOL     OW25048   0.088   4.738   5.806
 8050SOL    HW125049   0.057   4.652   5.847
 8050SOL    HW225050   0.055   4.743   5.712
 8051SOL     OW25051   4.227   6.309   3.440
 8051SOL    HW125052   4.192   6.312   3.346
 8051SOL    HW225053   4.155   6.277   3.501
 8052SOL     OW25054   2.032   1.522   3.010
 8052SOL    HW125055   1.938   1.514   2.978
 8052SOL    HW225056   2.034   1.530   3.109
 8053SOL     OW25057   1.849   1.108   6.677
 8053SOL    HW125058   1.809   1.032   6.729
 8053SOL    HW225059   1.786   1.138   6.606
 8054SOL     OW25060   4.900   3.808   4.977
 8054SOL    HW125061   4.845   3.728   5.000
 8054SOL    HW225062   4.877   3.883   5.039
 8055SOL     OW25063   6.749   1.243   6.068
 8055SOL    HW125064   6.778   1.224   5.974
 8055SOL    HW225065   6.779   1.169   6.128
 8056SOL     OW25066   1.432   2.341   2.537
 8056SOL    HW125067   1.496   2.293   2.597
 8056SOL    HW225068   1.416   2.285   2.455
 8057SOL     OW25069   3.100   1.633   2.035
 8057SOL    HW125070   3.127   1.663   1.944
 8057SOL    HW225071   3.113   1.708   2.100
 8058SOL     OW25072   3.286   6.315   1.777
 8058SOL    HW125073   3.352   6.336   1.850
 8058SOL    HW225074   3.252   6.222   1.788
 8059SOL     OW25075   4.604   4.343   5.061
 8059SOL    HW125076   4.698   4.336   5.029
 8059SOL    HW225077   4.576   4.255   5.101
 8060SOL     OW25078   0.305   1.325   4.923
 8060SOL    HW125079   0.207   1.310   4.909
 8060SOL    HW225080   0.357   1.275   4.853
 8061SOL     OW25081   6.988   0.168   0.540
 8061SOL    HW125082   6.963   0.264   0.557
 8061SOL    HW225083   0.027   0.138   0.609
 8062SOL     OW25084   4.916   4.374   6.799
 8062SOL    HW125085   4.835   4.353   6.745
 8062SOL    HW225086   4.998   4.347   6.749
 8063SOL     OW25087   2.566   4.597   1.959
 8063SOL    HW125088   2.666   4.604   1.963
 8063SOL    HW225089   2.526   4.640   2.040
 8064SOL     OW25090   6.880   2.166   0.074
 8064SOL    HW125091   6.896   2.076   0.114
 8064SOL    HW225092   6.784   2.173   0.047
 8065SOL     OW25093   5.597   6.945   6.766
 8065SOL    HW125094   5.604   0.016   6.785
 8065SOL    HW225095   5.561   6.897   6.846
 8066SOL     OW25096   6.746   1.137   5.514
 8066SOL    HW125097   6.667   1.172   5.564
 8066SOL    HW225098   6.722   1.125   5.418
 8067SOL     OW25099   5.739   0.872   4.321
 8067SOL    HW125100   5.728   0.825   4.234
 8067SOL    HW225101   5.677   0.832   4.389
 8068SOL     OW25102   6.711   4.111   1.463
 8068SOL    HW125103   6.730   4.167   1.543
 8068SOL    HW225104   6.683   4.170   1.387
 8069SOL     OW25105   0.828   2.393   1.929
 8069SOL    HW125106   0.850   2.339   1.847
 8069SOL    HW225107   0.871   2.352   2.009
 8070SOL     OW25108   5.650   4.189   0.841
 8070SOL    HW125109   5.596   4.116   0.800
 8070SOL    HW225110   5.689   4.158   0.927
 8071SOL     OW25111   1.924   6.963   6.387
 8071SOL    HW125112   1.998   0.001   6.375
 8071SOL    HW225113   1.839   7.012   6.406
 8072SOL     OW25114   2.580   1.625   5.651
 8072SOL    HW125115   2.661   1.684   5.657
 8072SOL    HW225116   2.499   1.681   5.636
 8073SOL     OW25117   5.249   5.269   0.445
 8073SOL    HW125118   5.218   5.178   0.474
 8073SOL    HW225119   5.333   5.260   0.391
 8074SOL     OW25120   6.705   0.887   0.747
 8074SOL    HW125121   6.643   0.817   0.712
 8074SOL    HW225122   6.655   0.951   0.806
 8075SOL     OW25123   0.209   6.862   1.248
 8075SOL    HW125124   0.253   6.803   1.316
 8075SOL    HW225125   0.137   6.811   1.201
 8076SOL     OW25126   6.750   5.813   0.498
 8076SOL    HW125127   6.734   5.781   0.404
 8076SOL    HW225128   6.670   5.794   0.553
 8077SOL     OW25129   5.840   4.270   1.494
 8077SOL    HW125130   5.755   4.248   1.542
 8077SOL    HW225131   5.900   4.190   1.497
 8078SOL     OW25132   5.075   1.740   1.490
 8078SOL    HW125133   5.093   1.758   1.586
 8078SOL    HW225134   4.977   1.749   1.472
 8079SOL     OW25135   6.898   1.128   5.841
 8079SOL    HW125136   6.831   1.063   5.805
 8079SOL    HW225137   6.953   1.165   5.766
 8080SOL     OW25138   6.718   4.018   3.529
 8080SOL    HW125139   6.624   3.996   3.555
 8080SOL    HW225140   6.732   3.993   3.433
 8081SOL     OW25141   5.627   1.182   5.015
 8081SOL    HW125142   5.600   1.122   4.940
 8081SOL    HW225143   5.608   1.138   5.102
 8082SOL     OW25144   5.045   2.732   5.161
 8082SOL    HW125145   4.962   2.694   5.204
 8082SOL    HW225146   5.123   2.716   5.221
 8083SOL     OW25147   0.200   3.039   3.581
 8083SOL    HW125148   0.256   3.050   3.499
 8083SOL    HW225149   0.183   3.128   3.622
 8084SOL     OW25150   5.817   1.447   6.976
 8084SOL    HW125151   5.821   1.493   0.037
 8084SOL    HW225152   5.784   1.512   6.907
 8085SOL     OW25153   1.617   6.257   4.512
 8085SOL    HW125154   1.520   6.269   4.490
 8085SOL    HW225155   1.671   6.323   4.461
 8086SOL     OW25156   6.997   1.835   1.774
 8086SOL    HW125157   6.942   1.905   1.820
 8086SOL    HW225158   0.063   1.869   1.762
 8087SOL     OW25159   6.150   0.942   6.836
 8087SOL    HW125160   6.173   0.848   6.862
 8087SOL    HW225161   6.108   0.989   6.913
 8088SOL     OW25162   6.131   6.905   5.788
 8088SOL    HW125163   6.094   6.883   5.878
 8088SOL    HW225164   6.231   6.915   5.795
 8089SOL     OW25165   6.574   0.788   0.267
 8089SOL    HW125166   6.665   0.824   0.289
 8089SOL    HW225167   6.573   0.753   0.174
 8090SOL     OW25168   3.597   2.111   4.965
 8090SOL    HW125169   3.567   2.075   4.876
 8090SOL    HW225170   3.517   2.135   5.020
 8091SOL     OW25171   1.008   3.293   5.483
 8091SOL    HW125172   1.065   3.220   5.521
 8091SOL    HW225173   1.065   3.366   5.447
 8092SOL     OW25174   4.892   6.225   5.586
 8092SOL    HW125175   4.974   6.217   5.642
 8092SOL    HW225176   4.917   6.219   5.489
 8093SOL     OW25177   3.730   0.257   3.575
 8093SOL    HW125178   3.655   0.258   3.510
 8093SOL    HW225179   3.743   0.165   3.610
 8094SOL     OW25180   2.406   5.138   3.133
 8094SOL    HW125181   2.494   5.171   3.168
 8094SOL    HW225182   2.414   5.041   3.108
 8095SOL     OW25183   0.505   5.094   5.232
 8095SOL    HW125184   0.439   5.023   5.256
 8095SOL    HW225185   0.490   5.122   5.137
 8096SOL     OW25186   1.115   5.164   0.709
 8096SOL    HW125187   1.140   5.070   0.685
 8096SOL    HW225188   1.129   5.179   0.807
 8097SOL     OW25189   5.308   0.580   6.703
 8097SOL    HW125190   5.336   0.571   6.798
 8097SOL    HW225191   5.222   0.531   6.688
 8098SOL     OW25192   2.764   6.276   5.004
 8098SOL    HW125193   2.809   6.196   5.043
 8098SOL    HW225194   2.709   6.322   5.074
 8099SOL     OW25195   2.302   4.749   3.317
 8099SOL    HW125196   2.315   4.836   3.366
 8099SOL    HW225197   2.261   4.766   3.228
 8100SOL     OW25198   0.062   6.620   0.602
 8100SOL    HW125199   0.100   6.531   0.581
 8100SOL    HW225200   0.115   6.691   0.557
 8101SOL     OW25201   3.154   4.979   6.538
 8101SOL    HW125202   3.206   4.894   6.533
 8101SOL    HW225203   3.074   4.966   6.597
 8102SOL     OW25204   0.977   4.464   3.785
 8102SOL    HW125205   1.060   4.416   3.757
 8102SOL    HW225206   0.974   4.554   3.743
 8103SOL     OW25207   5.279   0.626   1.525
 8103SOL    HW125208   5.313   0.683   1.600
 8103SOL    HW225209   5.192   0.662   1.493
 8104SOL     OW25210   1.619   6.203   0.321
 8104SOL    HW125211   1.713   6.171   0.315
 8104SOL    HW225212   1.613   6.278   0.387
 8105SOL     OW25213   0.063   6.926   2.807
 8105SOL    HW125214   0.128   6.973   2.867
 8105SOL    HW225215   0.078   6.828   2.813
 8106SOL     OW25216   4.094   7.001   6.860
 8106SOL    HW125217   4.033   0.042   6.901
 8106SOL    HW225218   4.142   6.952   6.933
 8107SOL     OW25219   0.424   6.377   0.016
 8107SOL    HW125220   0.389   6.289   0.048
 8107SOL    HW225221   0.349   6.443   0.012
 8108SOL     OW25222   2.008   1.254   1.074
 8108SOL    HW125223   2.012   1.323   1.146
 8108SOL    HW225224   1.948   1.285   1.000
 8109SOL     OW25225   0.316   3.813   2.434
 8109SOL    HW125226   0.224   3.787   2.463
 8109SOL    HW225227   0.310   3.869   2.351
 8110SOL     OW25228   5.091   3.786   6.679
 8110SOL    HW125229   5.069   3.692   6.654
 8110SOL    HW225230   5.065   3.848   6.605
 8111SOL     OW25231   5.402   2.140   2.787
 8111SOL    HW125232   5.427   2.125   2.883
 8111SOL    HW225233   5.307   2.112   2.774
 8112SOL     OW25234   1.861   4.471   6.559
 8112SOL    HW125235   1.797   4.528   6.610
 8112SOL    HW225236   1.829   4.461   6.465
 8113SOL     OW25237   5.921   5.008   0.032
 8113SOL    HW125238   5.890   5.007   6.964
 8113SOL    HW225239   5.843   4.998   0.093
 8114SOL     OW25240   1.934   2.525   2.860
 8114SOL    HW125241   1.967   2.475   2.940
 8114SOL    HW225242   2.001   2.595   2.834
 8115SOL     OW25243   2.587   1.872   5.883
 8115SOL    HW125244   2.535   1.871   5.798
 8115SOL    HW225245   2.524   1.886   5.960
 8116SOL     OW25246   4.012   3.050   1.850
 8116SOL    HW125247   4.075   3.128   1.851
 8116SOL    HW225248   3.975   3.036   1.942
 8117SOL     OW25249   0.980   0.882   2.711
 8117SOL    HW125250   0.913   0.809   2.720
 8117SOL    HW225251   1.049   0.855   2.644
 8118SOL     OW25252   5.789   1.895   6.815
 8118SOL    HW125253   5.753   1.935   6.730
 8118SOL    HW225254   5.888   1.880   6.806
 8119SOL     OW25255   5.789   5.005   6.820
 8119SOL    HW125256   5.740   4.930   6.775
 8119SOL    HW225257   5.741   5.091   6.804
 8120SOL     OW25258   1.980   6.721   2.595
 8120SOL    HW125259   1.920   6.652   2.635
 8120SOL    HW225260   2.074   6.706   2.626
 8121SOL     OW25261   1.711   2.131   3.457
 8121SOL    HW125262   1.747   2.225   3.455
 8121SOL    HW225263   1.612   2.134   3.444
 8122SOL     OW25264   0.484   5.445   1.412
 8122SOL    HW125265   0.562   5.490   1.368
 8122SOL    HW225266   0.400   5.470   1.364
 8123SOL     OW25267   6.843   0.369   5.809
 8123SOL    HW125268   6.800   0.279   5.813
 8123SOL    HW225269   6.773   0.440   5.813
 8124SOL     OW25270   6.363   5.525   6.071
 8124SOL    HW125271   6.325   5.503   6.161
 8124SOL    HW225272   6.294   5.509   6.000
 8125SOL     OW25273   0.936   6.137   1.385
 8125SOL    HW125274   1.032   6.109   1.381
 8125SOL    HW225275   0.879   6.067   1.342
 8126SOL     OW25276   3.488   5.507   4.989
 8126SOL    HW125277   3.417   5.577   4.981
 8126SOL    HW225278   3.449   5.424   5.029
 8127SOL     OW25279   4.449   1.896   5.442
 8127SOL    HW125280   4.388   1.884   5.364
 8127SOL    HW225281   4.434   1.823   5.509
 8128SOL     OW25282   3.678   2.980   0.604
 8128SOL    HW125283   3.648   2.927   0.525
 8128SOL    HW225284   3.701   3.073   0.574
 8129SOL     OW25285   6.282   3.292   3.725
 8129SOL    HW125286   6.312   3.206   3.682
 8129SOL    HW225287   6.255   3.273   3.820
 8130SOL     OW25288   0.123   6.479   0.269
 8130SOL    HW125289   0.142   6.381   0.278
 8130SOL    HW225290   0.034   6.500   0.309
 8131SOL     OW25291   2.878   1.989   7.018
 8131SOL    HW125292   2.858   1.918   0.058
 8131SOL    HW225293   2.797   2.046   7.004
 8132SOL     OW25294   6.348   1.829   4.496
 8132SOL    HW125295   6.344   1.906   4.433
 8132SOL    HW225296   6.259   1.817   4.540
 8133SOL     OW25297   4.344   5.510   1.119
 8133SOL    HW125298   4.417   5.578   1.123
 8133SOL    HW225299   4.349   5.461   1.032
 8134SOL     OW25300   6.488   1.789   0.035
 8134SOL    HW125301   6.427   1.738   7.001
 8134SOL    HW225302   6.498   1.739   0.121
 8135SOL     OW25303   2.625   5.938   1.848
 8135SOL    HW125304   2.707   5.896   1.887
 8135SOL    HW225305   2.631   6.038   1.860
 8136SOL     OW25306   4.177   4.813   2.221
 8136SOL    HW125307   4.239   4.736   2.207
 8136SOL    HW225308   4.227   4.889   2.263
 8137SOL     OW25309   3.648   1.225   6.219
 8137SOL    HW125310   3.595   1.157   6.168
 8137SOL    HW225311   3.707   1.179   6.285
 8138SOL     OW25312   6.436   1.190   2.448
 8138SOL    HW125313   6.346   1.227   2.424
 8138SOL    HW225314   6.486   1.167   2.364
 8139SOL     OW25315   1.289   1.674   5.220
 8139SOL    HW125316   1.326   1.716   5.137
 8139SOL    HW225317   1.277   1.744   5.290
 8140SOL     OW25318   4.845   2.779   3.415
 8140SOL    HW125319   4.833   2.848   3.345
 8140SOL    HW225320   4.936   2.786   3.455
 8141SOL     OW25321   6.305   3.874   4.108
 8141SOL    HW125322   6.246   3.838   4.180
 8141SOL    HW225323   6.397   3.836   4.117
 8142SOL     OW25324   0.232   6.113   0.734
 8142SOL    HW125325   0.289   6.193   0.749
 8142SOL    HW225326   0.147   6.140   0.688
 8143SOL     OW25327   6.896   2.865   6.130
 8143SOL    HW125328   6.839   2.940   6.165
 8143SOL    HW225329   6.990   2.897   6.117
 8144SOL     OW25330   4.239   5.920   0.447
 8144SOL    HW125331   4.316   5.956   0.500
 8144SOL    HW225332   4.199   5.994   0.393
 8145SOL     OW25333   4.611   0.368   4.537
 8145SOL    HW125334   4.580   0.283   4.496
 8145SOL    HW225335   4.546   0.441   4.518
 8146SOL     OW25336   3.185   1.635   2.848
 8146SOL    HW125337   3.269   1.581   2.843
 8146SOL    HW225338   3.132   1.605   2.928
 8147SOL     OW25339   4.763   1.865   3.841
 8147SOL    HW125340   4.710   1.872   3.757
 8147SOL    HW225341   4.817   1.949   3.853
 8148SOL     OW25342   0.791   2.938   3.452
 8148SOL    HW125343   0.797   2.974   3.359
 8148SOL    HW225344   0.882   2.911   3.483
 8149SOL     OW25345   4.014   5.342   4.410
 8149SOL    HW125346   3.947   5.400   4.365
 8149SOL    HW225347   4.058   5.283   4.341
 8150SOL     OW25348   1.844   6.083   0.267
 8150SOL    HW125349   1.787   6.002   0.278
 8150SOL    HW225350   1.940   6.059   0.277
 8151SOL     OW25351   1.043   1.782   4.968
 8151SOL    HW125352   1.108   1.794   4.893
 8151SOL    HW225353   1.023   1.685   4.979
 8152SOL     OW25354   0.463   0.968   3.379
 8152SOL    HW125355   0.456   1.059   3.338
 8152SOL    HW225356   0.479   0.900   3.308
 8153SOL     OW25357   1.537   6.723   6.524
 8153SOL    HW125358   1.587   6.694   6.442
 8153SOL    HW225359   1.454   6.667   6.533
 8154SOL     OW25360   2.029   6.887   3.840
 8154SOL    HW125361   1.996   6.925   3.926
 8154SOL    HW225362   2.022   6.787   3.842
 8155SOL     OW25363   4.251   3.549   5.329
 8155SOL    HW125364   4.160   3.510   5.343
 8155SOL    HW225365   4.320   3.478   5.341
 8156SOL     OW25366   1.123   6.281   4.831
 8156SOL    HW125367   1.024   6.290   4.844
 8156SOL    HW225368   1.155   6.349   4.764
 8157SOL     OW25369   6.135   2.785   6.540
 8157SOL    HW125370   6.042   2.753   6.560
 8157SOL    HW225371   6.200   2.710   6.555
 8158SOL     OW25372   0.996   5.708   2.315
 8158SOL    HW125373   0.997   5.674   2.220
 8158SOL    HW225374   1.004   5.631   2.378
 8159SOL     OW25375   0.505   6.540   0.529
 8159SOL    HW125376   0.535   6.609   0.595
 8159SOL    HW225377   0.448   6.584   0.459
 8160SOL     OW25378   6.111   2.060   0.689
 8160SOL    HW125379   6.163   1.988   0.643
 8160SOL    HW225380   6.015   2.033   0.694
 8161SOL     OW25381   3.661   3.950   1.685
 8161SOL    HW125382   3.603   4.028   1.710
 8161SOL    HW225383   3.667   3.888   1.763
 8162SOL     OW25384   5.517   0.663   1.106
 8162SOL    HW125385   5.460   0.700   1.032
 8162SOL    HW225386   5.594   0.613   1.066
 8163SOL     OW25387   2.643   3.020   5.378
 8163SOL    HW125388   2.577   3.020   5.453
 8163SOL    HW225389   2.595   3.014   5.291
 8164SOL     OW25390   5.435   4.370   1.511
 8164SOL    HW125391   5.480   4.440   1.568
 8164SOL    HW225392   5.377   4.313   1.569
 8165SOL     OW25393   1.672   3.628   1.881
 8165SOL    HW125394   1.765   3.619   1.845
 8165SOL    HW225395   1.607   3.589   1.816
 8166SOL     OW25396   2.671   0.133   2.858
 8166SOL    HW125397   2.621   0.187   2.925
 8166SOL    HW225398   2.749   0.088   2.902
 8167SOL     OW25399   5.210   3.204   4.276
 8167SOL    HW125400   5.216   3.150   4.192
 8167SOL    HW225401   5.179   3.145   4.351
 8168SOL     OW25402   2.911   1.495   2.432
 8168SOL    HW125403   2.988   1.433   2.420
 8168SOL    HW225404   2.921   1.546   2.517
 8169SOL     OW25405   5.530   3.984   5.698
 8169SOL    HW125406   5.573   4.073   5.682
 8169SOL    HW225407   5.501   3.978   5.794
 8170SOL     OW25408   0.720   4.911   4.502
 8170SOL    HW125409   0.755   4.817   4.501
 8170SOL    HW225410   0.631   4.914   4.457
 8171SOL     OW25411   2.278   0.655   6.957
 8171SOL    HW125412   2.328   0.633   0.013
 8171SOL    HW225413   2.284   0.578   6.893
 8172SOL     OW25414   0.182   5.336   2.540
 8172SOL    HW125415   0.125   5.371   2.466
 8172SOL    HW225416   0.126   5.318   2.620
 8173SOL     OW25417   0.166   3.632   6.741
 8173SOL    HW125418   0.086   3.577   6.720
 8173SOL    HW225419   0.201   3.675   6.658
 8174SOL     OW25420   5.264   6.571   2.329
 8174SOL    HW125421   5.340   6.622   2.367
 8174SOL    HW225422   5.188   6.570   2.394
 8175SOL     OW25423   1.176   2.384   3.495
 8175SOL    HW125424   1.095   2.352   3.445
 8175SOL    HW225425   1.205   2.473   3.459
 8176SOL     OW25426   4.746   4.594   3.033
 8176SOL    HW125427   4.788   4.603   2.943
 8176SOL    HW225428   4.696   4.507   3.038
 8177SOL     OW25429   2.314   0.311   6.040
 8177SOL    HW125430   2.387   0.285   5.978
 8177SOL    HW225431   2.238   0.246   6.031
 8178SOL     OW25432   1.890   6.113   6.872
 8178SOL    HW125433   1.965   6.132   6.937
 8178SOL    HW225434   1.928   6.095   6.782
 8179SOL     OW25435   4.093   6.980   5.161
 8179SOL    HW125436   4.048   7.006   5.075
 8179SOL    HW225437   4.081   0.025   5.228
 8180SOL     OW25438   4.737   4.206   4.290
 8180SOL    HW125439   4.764   4.147   4.366
 8180SOL    HW225440   4.719   4.151   4.209
 8181SOL     OW25441   2.273   1.640   2.943
 8181SOL    HW125442   2.190   1.603   2.985
 8181SOL    HW225443   2.257   1.735   2.915
 8182SOL     OW25444   5.898   3.031   5.211
 8182SOL    HW125445   5.937   3.004   5.299
 8182SOL    HW225446   5.822   3.093   5.225
 8183SOL     OW25447   2.204   4.251   3.827
 8183SOL    HW125448   2.298   4.286   3.823
 8183SOL    HW225449   2.147   4.312   3.882
 8184SOL     OW25450   6.300   6.132   5.258
 8184SOL    HW125451   6.349   6.045   5.260
 8184SOL    HW225452   6.349   6.199   5.314
 8185SOL     OW25453   0.335   2.134   3.478
 8185SOL    HW125454   0.345   2.213   3.538
 8185SOL    HW225455   0.322   2.164   3.384
 8186SOL     OW25456   4.171   2.994   6.515
 8186SOL    HW125457   4.260   2.963   6.551
 8186SOL    HW225458   4.185   3.038   6.426
 8187SOL     OW25459   2.603   1.688   6.574
 8187SOL    HW125460   2.661   1.675   6.655
 8187SOL    HW225461   2.571   1.782   6.571
 8188SOL     OW25462   4.891   3.717   2.958
 8188SOL    HW125463   4.906   3.811   2.930
 8188SOL    HW225464   4.808   3.682   2.916
 8189SOL     OW25465   0.372   5.924   3.002
 8189SOL    HW125466   0.412   5.947   2.914
 8189SOL    HW225467   0.442   5.888   3.063
 8190SOL     OW25468   5.387   3.723   2.518
 8190SOL    HW125469   5.354   3.695   2.428
 8190SOL    HW225470   5.412   3.820   2.516
 8191SOL     OW25471   5.783   4.406   1.261
 8191SOL    HW125472   5.797   4.385   1.358
 8191SOL    HW225473   5.689   4.385   1.235
 8192SOL     OW25474   2.253   1.564   0.553
 8192SOL    HW125475   2.275   1.555   0.650
 8192SOL    HW225476   2.327   1.526   0.498
 8193SOL     OW25477   3.849   6.323   5.935
 8193SOL    HW125478   3.876   6.271   5.854
 8193SOL    HW225479   3.767   6.282   5.976
 8194SOL     OW25480   0.305   1.083   2.504
 8194SOL    HW125481   0.366   1.011   2.473
 8194SOL    HW225482   0.211   1.062   2.476
 8195SOL     OW25483   6.289   1.156   0.782
 8195SOL    HW125484   6.218   1.089   0.802
 8195SOL    HW225485   6.338   1.129   0.699
 8196SOL     OW25486   2.415   0.649   0.790
 8196SOL    HW125487   2.441   0.721   0.853
 8196SOL    HW225488   2.438   0.675   0.697
 8197SOL     OW25489   0.837   6.694   0.740
 8197SOL    HW125490   0.841   6.792   0.722
 8197SOL    HW225491   0.748   6.670   0.778
 8198SOL     OW25492   2.604   0.827   2.796
 8198SOL    HW125493   2.582   0.911   2.847
 8198SOL    HW225494   2.702   0.808   2.803
 8199SOL     OW25495   5.952   4.556   1.089
 8199SOL    HW125496   5.921   4.490   1.157
 8199SOL    HW225497   5.927   4.525   0.997
 8200SOL     OW25498   3.743   4.824   1.565
 8200SOL    HW125499   3.720   4.727   1.570
 8200SOL    HW225500   3.754   4.860   1.657
 8201SOL     OW25501   0.718   1.163   4.660
 8201SOL    HW125502   0.793   1.126   4.716
 8201SOL    HW225503   0.632   1.152   4.710
 8202SOL     OW25504   1.844   3.684   4.350
 8202SOL    HW125505   1.750   3.652   4.354
 8202SOL    HW225506   1.849   3.778   4.383
 8203SOL     OW25507   6.386   4.258   6.824
 8203SOL    HW125508   6.427   4.231   6.911
 8203SOL    HW225509   6.309   4.197   6.803
 8204SOL     OW25510   2.614   6.470   1.905
 8204SOL    HW125511   2.641   6.427   1.991
 8204SOL    HW225512   2.546   6.541   1.922
 8205SOL     OW25513   3.555   6.668   3.141
 8205SOL    HW125514   3.544   6.666   3.240
 8205SOL    HW225515   3.465   6.674   3.098
 8206SOL     OW25516   3.847   2.062   4.600
 8206SOL    HW125517   3.833   1.971   4.638
 8206SOL    HW225518   3.776   2.080   4.531
 8207SOL     OW25519   2.350   6.560   0.173
 8207SOL    HW125520   2.275   6.556   0.106
 8207SOL    HW225521   2.312   6.577   0.264
 8208SOL     OW25522   1.049   5.828   1.253
 8208SOL    HW125523   1.033   5.801   1.158
 8208SOL    HW225524   1.095   5.917   1.255
 8209SOL     OW25525   0.651   6.114   4.114
 8209SOL    HW125526   0.628   6.037   4.054
 8209SOL    HW225527   0.699   6.081   4.195
 8210SOL     OW25528   2.490   0.188   1.131
 8210SOL    HW125529   2.396   0.172   1.101
 8210SOL    HW225530   2.552   0.180   1.053
 8211SOL     OW25531   3.358   3.987   4.704
 8211SOL    HW125532   3.386   4.034   4.620
 8211SOL    HW225533   3.268   3.947   4.692
 8212SOL     OW25534   3.555   5.350   6.765
 8212SOL    HW125535   3.556   5.450   6.760
 8212SOL    HW225536   3.486   5.314   6.701
 8213SOL     OW25537   4.983   3.932   2.040
 8213SOL    HW125538   5.055   4.001   2.034
 8213SOL    HW225539   4.969   3.890   1.950
 8214SOL     OW25540   4.021   4.848   3.403
 8214SOL    HW125541   4.017   4.895   3.491
 8214SOL    HW225542   4.116   4.832   3.378
 8215SOL     OW25543   2.859   6.047   5.192
 8215SOL    HW125544   2.846   6.037   5.291
 8215SOL    HW225545   2.809   5.975   5.145
 8216SOL     OW25546   6.549   4.599   7.013
 8216SOL    HW125547   6.495   4.542   0.048
 8216SOL    HW225548   6.582   4.544   6.937
 8217SOL     OW25549   3.663   6.180   3.672
 8217SOL    HW125550   3.706   6.204   3.759
 8217SOL    HW225551   3.666   6.081   3.659
 8218SOL     OW25552   1.986   5.831   3.557
 8218SOL    HW125553   2.071   5.790   3.592
 8218SOL    HW225554   1.979   5.814   3.459
 8219SOL     OW25555   3.960   3.617   4.891
 8219SOL    HW125556   3.979   3.677   4.813
 8219SOL    HW225557   3.956   3.671   4.975
 8220SOL     OW25558   4.729   4.052   5.947
 8220SOL    HW125559   4.638   4.092   5.955
 8220SOL    HW225560   4.746   3.991   6.024
 8221SOL     OW25561   6.537   3.705   4.162
 8221SOL    HW125562   6.451   3.657   4.178
 8221SOL    HW225563   6.594   3.698   4.244
 8222SOL     OW25564   5.362   1.544   5.972
 8222SOL    HW125565   5.332   1.636   5.948
 8222SOL    HW225566   5.283   1.489   5.998
 8223SOL     OW25567   1.498   6.546   5.667
 8223SOL    HW125568   1.553   6.508   5.742
 8223SOL    HW225569   1.493   6.479   5.593
 8224SOL     OW25570   4.879   1.555   5.085
 8224SOL    HW125571   4.789   1.538   5.045
 8224SOL    HW225572   4.945   1.575   5.013
 8225SOL     OW25573   6.138   1.483   6.959
 8225SOL    HW125574   6.210   1.415   6.975
 8225SOL    HW225575   6.050   1.447   6.992
 8226SOL     OW25576   3.967   0.718   6.618
 8226SOL    HW125577   4.006   0.793   6.672
 8226SOL    HW225578   4.037   0.681   6.557
 8227SOL     OW25579   6.046   3.416   2.753
 8227SOL    HW125580   6.101   3.336   2.778
 8227SOL    HW225581   6.029   3.416   2.654
 8228SOL     OW25582   2.941   1.452   5.224
 8228SOL    HW125583   2.875   1.500   5.281
 8228SOL    HW225584   2.908   1.359   5.205
 8229SOL     OW25585   4.849   3.539   0.767
 8229SOL    HW125586   4.861   3.442   0.744
 8229SOL    HW225587   4.751   3.559   0.771
 8230SOL     OW25588   6.126   1.277   6.484
 8230SOL    HW125589   6.186   1.338   6.535
 8230SOL    HW225590   6.088   1.208   6.545
 8231SOL     OW25591   3.221   1.012   1.396
 8231SOL    HW125592   3.147   1.060   1.444
 8231SOL    HW225593   3.303   1.069   1.397
 8232SOL     OW25594   3.989   5.875   4.438
 8232SOL    HW125595   4.072   5.847   4.486
 8232SOL    HW225596   4.012   5.947   4.372
 8233SOL     OW25597   2.886   0.528   6.952
 8233SOL    HW125598   2.945   0.468   6.898
 8233SOL    HW225599   2.799   0.481   6.971
 8234SOL     OW25600   0.232   2.758   6.174
 8234SOL    HW125601   0.319   2.755   6.224
 8234SOL    HW225602   0.200   2.853   6.170
 8235SOL     OW25603   1.497   6.444   6.852
 8235SOL    HW125604   1.579   6.465   6.799
 8235SOL    HW225605   1.524   6.422   6.946
 8236SOL     OW25606   0.654   0.707   0.751
 8236SOL    HW125607   0.715   0.632   0.775
 8236SOL    HW225608   0.707   0.782   0.711
 8237SOL     OW25609   4.950   4.152   5.833
 8237SOL    HW125610   4.964   4.207   5.916
 8237SOL    HW225611   4.873   4.090   5.848
 8238SOL     OW25612   0.102   5.417   0.097
 8238SOL    HW125613   0.069   5.494   0.151
 8238SOL    HW225614   0.170   5.448   0.031
 8239SOL     OW25615   5.141   2.771   3.805
 8239SOL    HW125616   5.112   2.783   3.710
 8239SOL    HW225617   5.237   2.798   3.814
 8240SOL     OW25618   3.070   3.309   5.237
 8240SOL    HW125619   2.993   3.282   5.294
 8240SOL    HW225620   3.120   3.383   5.282
 8241SOL     OW25621   0.665   2.995   5.311
 8241SOL    HW125622   0.609   3.006   5.393
 8241SOL    HW225623   0.736   3.065   5.309
 8242SOL     OW25624   0.808   3.908   3.228
 8242SOL    HW125625   0.863   3.830   3.201
 8242SOL    HW225626   0.728   3.876   3.280
 8243SOL     OW25627   2.204   5.864   4.050
 8243SOL    HW125628   2.253   5.887   4.133
 8243SOL    HW225629   2.227   5.770   4.022
 8244SOL     OW25630   5.794   6.852   4.763
 8244SOL    HW125631   5.843   6.868   4.677
 8244SOL    HW225632   5.860   6.841   4.837
 8245SOL     OW25633   5.265   4.310   1.737
 8245SOL    HW125634   5.189   4.357   1.692
 8245SOL    HW225635   5.230   4.231   1.788
 8246SOL     OW25636   1.959   4.061   0.321
 8246SOL    HW125637   1.997   4.069   0.413
 8246SOL    HW225638   1.862   4.084   0.323
 8247SOL     OW25639   1.889   4.872   3.475
 8247SOL    HW125640   1.981   4.859   3.514
 8247SOL    HW225641   1.830   4.916   3.542
 8248SOL     OW25642   5.936   0.995   3.085
 8248SOL    HW125643   5.992   1.077   3.067
 8248SOL    HW225644   5.866   0.986   3.014
 8249SOL     OW25645   3.475   6.926   5.575
 8249SOL    HW125646   3.485   6.853   5.507
 8249SOL    HW225647   3.473   7.015   5.529
 8250SOL     OW25648   2.132   1.016   0.227
 8250SOL    HW125649   2.085   1.098   0.194
 8250SOL    HW225650   2.214   1.000   0.172
 8251SOL     OW25651   1.864   1.578   6.512
 8251SOL    HW125652   1.963   1.570   6.525
 8251SOL    HW225653   1.844   1.590   6.415
 8252SOL     OW25654   0.673   0.886   6.284
 8252SOL    HW125655   0.619   0.964   6.252
 8252SOL    HW225656   0.768   0.915   6.296
 8253SOL     OW25657   6.978   3.636   4.333
 8253SOL    HW125658   7.020   3.685   4.256
 8253SOL    HW225659   6.878   3.647   4.329
 8254SOL     OW25660   4.773   4.041   0.378
 8254SOL    HW125661   4.776   3.981   0.458
 8254SOL    HW225662   4.858   4.093   0.372
 8255SOL     OW25663   1.671   5.990   5.840
 8255SOL    HW125664   1.600   5.960   5.777
 8255SOL    HW225665   1.642   5.975   5.934
 8256SOL     OW25666   1.773   5.962   3.229
 8256SOL    HW125667   1.695   5.901   3.229
 8256SOL    HW225668   1.856   5.911   3.207
 8257SOL     OW25669   5.065   4.523   3.494
 8257SOL    HW125670   4.980   4.540   3.443
 8257SOL    HW225671   5.073   4.589   3.568
 8258SOL     OW25672   0.529   2.726   4.069
 8258SOL    HW125673   0.560   2.729   4.164
 8258SOL    HW225674   0.469   2.647   4.056
 8259SOL     OW25675   5.113   3.897   3.832
 8259SOL    HW125676   5.190   3.959   3.850
 8259SOL    HW225677   5.131   3.808   3.875
 8260SOL     OW25678   4.803   2.189   6.133
 8260SOL    HW125679   4.826   2.182   6.230
 8260SOL    HW225680   4.722   2.246   6.122
 8261SOL     OW25681   5.261   2.497   3.357
 8261SOL    HW125682   5.286   2.508   3.453
 8261SOL    HW225683   5.193   2.566   3.332
 8262SOL     OW25684   5.281   3.934   2.283
 8262SOL    HW125685   5.327   3.845   2.278
 8262SOL    HW225686   5.230   3.950   2.199
 8263SOL     OW25687   6.946   1.457   0.056
 8263SOL    HW125688   6.947   1.365   0.016
 8263SOL    HW225689   6.853   1.494   0.052
 8264SOL     OW25690   3.463   1.621   1.897
 8264SOL    HW125691   3.563   1.618   1.897
 8264SOL    HW225692   3.432   1.703   1.946
 8265SOL     OW25693   6.406   5.217   0.157
 8265SOL    HW125694   6.459   5.225   0.073
 8265SOL    HW225695   6.317   5.177   0.137
 8266SOL     OW25696   4.400   2.414   2.921
 8266SOL    HW125697   4.315   2.365   2.937
 8266SOL    HW225698   4.432   2.397   2.828
 8267SOL     OW25699   1.565   3.777   2.386
 8267SOL    HW125700   1.607   3.866   2.406
 8267SOL    HW225701   1.467   3.788   2.374
 8268SOL     OW25702   2.295   5.264   1.468
 8268SOL    HW125703   2.319   5.338   1.531
 8268SOL    HW225704   2.307   5.295   1.374
 8269SOL     OW25705   6.163   2.200   3.058
 8269SOL    HW125706   6.124   2.230   3.145
 8269SOL    HW225707   6.174   2.101   3.058
 8270SOL     OW25708   4.586   5.284   0.441
 8270SOL    HW125709   4.599   5.201   0.386
 8270SOL    HW225710   4.569   5.258   0.536
 8271SOL     OW25711   2.651   0.442   6.083
 8271SOL    HW125712   2.598   0.396   6.154
 8271SOL    HW225713   2.736   0.391   6.066
 8272SOL     OW25714   6.945   1.305   2.202
 8272SOL    HW125715   0.005   1.268   2.170
 8272SOL    HW225716   6.871   1.243   2.177
 8273SOL     OW25717   5.732   0.458   5.995
 8273SOL    HW125718   5.695   0.413   6.076
 8273SOL    HW225719   5.784   0.391   5.941
 8274SOL     OW25720   4.953   0.176   4.064
 8274SOL    HW125721   4.862   0.175   4.105
 8274SOL    HW225722   5.016   0.126   4.123
 8275SOL     OW25723   4.884   0.724   4.549
 8275SOL    HW125724   4.791   0.753   4.526
 8275SOL    HW225725   4.948   0.761   4.481
 8276SOL     OW25726   4.682   2.416   6.734
 8276SOL    HW125727   4.776   2.451   6.735
 8276SOL    HW225728   4.679   2.331   6.682
 8277SOL     OW25729   1.297   0.249   1.407
 8277SOL    HW125730   1.260   0.237   1.499
 8277SOL    HW225731   1.387   0.205   1.401
 8278SOL     OW25732   1.652   1.452   1.475
 8278SOL    HW125733   1.696   1.485   1.391
 8278SOL    HW225734   1.573   1.510   1.497
 8279SOL     OW25735   5.696   4.558   6.205
 8279SOL    HW125736   5.655   4.559   6.296
 8279SOL    HW225737   5.773   4.494   6.203
 8280SOL     OW25738   6.906   5.021   0.803
 8280SOL    HW125739   6.806   5.024   0.798
 8280SOL    HW225740   6.934   4.961   0.877
 8281SOL     OW25741   2.111   4.458   0.362
 8281SOL    HW125742   2.166   4.516   0.302
 8281SOL    HW225743   2.162   4.375   0.385
 8282SOL     OW25744   4.338   2.973   0.550
 8282SOL    HW125745   4.294   2.939   0.633
 8282SOL    HW225746   4.299   3.062   0.526
 8283SOL     OW25747   0.563   1.979   3.013
 8283SOL    HW125748   0.493   1.911   2.992
 8283SOL    HW225749   0.547   2.016   3.105
 8284SOL     OW25750   3.996   2.425   0.802
 8284SOL    HW125751   3.916   2.485   0.812
 8284SOL    HW225752   4.074   2.480   0.771
 8285SOL     OW25753   0.823   4.585   0.573
 8285SOL    HW125754   0.728   4.578   0.604
 8285SOL    HW225755   0.850   4.498   0.531
 8286SOL     OW25756   6.771   1.921   6.696
 8286SOL    HW125757   6.776   1.898   6.599
 8286SOL    HW225758   6.764   2.021   6.706
 8287SOL     OW25759   0.889   1.784   2.481
 8287SOL    HW125760   0.823   1.848   2.518
 8287SOL    HW225761   0.978   1.829   2.472
 8288SOL     OW25762   1.757   6.506   2.590
 8288SOL    HW125763   1.743   6.407   2.596
 8288SOL    HW225764   1.716   6.540   2.505
 8289SOL     OW25765   5.492   6.253   0.282
 8289SOL    HW125766   5.405   6.275   0.239
 8289SOL    HW225767   5.512   6.321   0.353
 8290SOL     OW25768   4.564   2.855   1.663
 8290SOL    HW125769   4.642   2.793   1.670
 8290SOL    HW225770   4.556   2.908   1.747
 8291SOL     OW25771   5.987   5.863   5.210
 8291SOL    HW125772   6.073   5.811   5.209
 8291SOL    HW225773   5.986   5.922   5.290
 8292SOL     OW25774   0.922   4.096   5.999
 8292SOL    HW125775   0.905   4.189   6.030
 8292SOL    HW225776   0.916   4.033   6.077
 8293SOL     OW25777   3.622   5.377   3.664
 8293SOL    HW125778   3.666   5.404   3.750
 8293SOL    HW225779   3.692   5.366   3.593
 8294SOL     OW25780   6.113   3.453   5.898
 8294SOL    HW125781   6.208   3.480   5.889
 8294SOL    HW225782   6.072   3.444   5.807
 8295SOL     OW25783   3.894   5.124   1.672
 8295SOL    HW125784   3.847   5.054   1.727
 8295SOL    HW225785   3.963   5.170   1.728
 8296SOL     OW25786   3.549   0.190   2.039
 8296SOL    HW125787   3.506   0.263   1.985
 8296SOL    HW225788   3.608   0.135   1.979
 8297SOL     OW25789   4.961   4.829   1.869
 8297SOL    HW125790   5.047   4.877   1.854
 8297SOL    HW225791   4.889   4.895   1.888
 8298SOL     OW25792   0.209   5.820   0.708
 8298SOL    HW125793   0.118   5.792   0.677
 8298SOL    HW225794   0.208   5.917   0.731
 8299SOL     OW25795   1.169   1.215   6.807
 8299SOL    HW125796   1.227   1.295   6.796
 8299SOL    HW225797   1.096   1.236   6.872
 8300SOL     OW25798   4.557   5.959   5.384
 8300SOL    HW125799   4.537   6.054   5.409
 8300SOL    HW225800   4.642   5.956   5.331
 8301SOL     OW25801   6.095   4.155   6.901
 8301SOL    HW125802   6.100   4.055   6.895
 8301SOL    HW225803   6.000   4.184   6.889
 8302SOL     OW25804   3.514   6.500   6.341
 8302SOL    HW125805   3.554   6.551   6.417
 8302SOL    HW225806   3.430   6.454   6.371
 8303SOL     OW25807   6.656   4.443   4.191
 8303SOL    HW125808   6.571   4.488   4.164
 8303SOL    HW225809   6.730   4.472   4.130
 8304SOL     OW25810   5.388   2.883   3.791
 8304SOL    HW125811   5.432   2.845   3.709
 8304SOL    HW225812   5.362   2.978   3.774
 8305SOL     OW25813   4.357   6.245   5.724
 8305SOL    HW125814   4.449   6.208   5.738
 8305SOL    HW225815   4.364   6.338   5.690
 8306SOL     OW25816   4.349   0.889   3.223
 8306SOL    HW125817   4.267   0.832   3.227
 8306SOL    HW225818   4.430   0.832   3.232
 8307SOL     OW25819   0.982   5.229   4.031
 8307SOL    HW125820   1.005   5.234   4.128
 8307SOL    HW225821   0.884   5.208   4.021
 8308SOL     OW25822   2.077   4.116   0.558
 8308SOL    HW125823   2.012   4.182   0.597
 8308SOL    HW225824   2.170   4.151   0.569
 8309SOL     OW25825   5.850   5.541   2.608
 8309SOL    HW125826   5.903   5.456   2.610
 8309SOL    HW225827   5.757   5.523   2.641
 8310SOL     OW25828   2.491   5.738   3.329
 8310SOL    HW125829   2.424   5.785   3.271
 8310SOL    HW225830   2.580   5.738   3.284
 8311SOL     OW25831   4.854   6.854   2.419
 8311SOL    HW125832   4.760   6.881   2.437
 8311SOL    HW225833   4.910   6.935   2.401
 8312SOL     OW25834   6.450   6.790   1.048
 8312SOL    HW125835   6.496   6.709   1.084
 8312SOL    HW225836   6.385   6.762   0.977
 8313SOL     OW25837   5.117   1.933   5.671
 8313SOL    HW125838   5.023   1.956   5.644
 8313SOL    HW225839   5.174   2.015   5.663
 8314SOL     OW25840   5.287   5.617   5.677
 8314SOL    HW125841   5.256   5.643   5.585
 8314SOL    HW225842   5.335   5.530   5.672
 8315SOL     OW25843   3.327   2.000   6.828
 8315SOL    HW125844   3.391   2.071   6.803
 8315SOL    HW225845   3.366   1.944   6.902
 8316SOL     OW25846   1.555   1.057   5.078
 8316SOL    HW125847   1.563   1.110   5.162
 8316SOL    HW225848   1.543   0.960   5.101
 8317SOL     OW25849   2.661   1.527   6.344
 8317SOL    HW125850   2.628   1.577   6.424
 8317SOL    HW225851   2.636   1.431   6.351
 8318SOL     OW25852   5.040   5.933   4.985
 8318SOL    HW125853   5.075   5.881   5.063
 8318SOL    HW225854   5.076   6.026   4.987
 8319SOL     OW25855   3.009   6.245   6.350
 8319SOL    HW125856   2.931   6.185   6.368
 8319SOL    HW225857   3.034   6.293   6.435
 8320SOL     OW25858   3.883   4.714   5.598
 8320SOL    HW125859   3.917   4.803   5.626
 8320SOL    HW225860   3.916   4.644   5.662
 8321SOL     OW25861   0.669   6.460   0.124
 8321SOL    HW125862   0.722   6.468   0.040
 8321SOL    HW225863   0.582   6.416   0.106
 8322SOL     OW25864   2.740   0.145   2.385
 8322SOL    HW125865   2.774   0.073   2.325
 8322SOL    HW225866   2.724   0.107   2.476
 8323SOL     OW25867   6.711   5.782   6.707
 8323SOL    HW125868   6.690   5.694   6.750
 8323SOL    HW225869   6.741   5.847   6.777
 8324SOL     OW25870   6.839   5.771   4.725
 8324SOL    HW125871   6.745   5.751   4.696
 8324SOL    HW225872   6.867   5.705   4.794
 8325SOL     OW25873   1.689   5.152   4.644
 8325SOL    HW125874   1.763   5.218   4.639
 8325SOL    HW225875   1.605   5.197   4.674
 8326SOL     OW25876   3.492   0.839   0.098
 8326SOL    HW125877   3.549   0.907   0.145
 8326SOL    HW225878   3.496   0.752   0.148
 8327SOL     OW25879   0.973   6.065   5.492
 8327SOL    HW125880   0.890   6.076   5.547
 8327SOL    HW225881   0.957   5.998   5.420
 8328SOL     OW25882   1.329   6.877   1.040
 8328SOL    HW125883   1.309   6.802   0.978
 8328SOL    HW225884   1.313   6.848   1.134
 8329SOL     OW25885   1.745   1.862   6.484
 8329SOL    HW125886   1.807   1.848   6.406
 8329SOL    HW225887   1.673   1.926   6.457
 8330SOL     OW25888   3.291   6.732   0.164
 8330SOL    HW125889   3.249   6.654   0.118
 8330SOL    HW225890   3.287   6.719   0.263
 8331SOL     OW25891   1.684   2.684   6.263
 8331SOL    HW125892   1.710   2.685   6.167
 8331SOL    HW225893   1.645   2.595   6.286
 8332SOL     OW25894   5.003   4.457   0.846
 8332SOL    HW125895   4.984   4.432   0.941
 8332SOL    HW225896   5.085   4.410   0.815
 8333SOL     OW25897   1.910   4.288   5.624
 8333SOL    HW125898   1.987   4.340   5.661
 8333SOL    HW225899   1.908   4.296   5.525
 8334SOL     OW25900   3.276   2.760   6.136
 8334SOL    HW125901   3.286   2.709   6.221
 8334SOL    HW225902   3.366   2.792   6.106
 8335SOL     OW25903   6.780   2.934   0.480
 8335SOL    HW125904   6.689   2.968   0.456
 8335SOL    HW225905   6.823   2.892   0.401
 8336SOL     OW25906   0.663   4.325   3.622
 8336SOL    HW125907   0.569   4.358   3.611
 8336SOL    HW225908   0.726   4.388   3.577
 8337SOL     OW25909   6.567   6.812   4.324
 8337SOL    HW125910   6.621   6.763   4.393
 8337SOL    HW225911   6.513   6.883   4.369
 8338SOL     OW25912   2.316   4.469   0.691
 8338SOL    HW125913   2.300   4.435   0.784
 8338SOL    HW225914   2.374   4.550   0.695
 8339SOL     OW25915   6.689   6.887   1.671
 8339SOL    HW125916   6.655   6.893   1.765
 8339SOL    HW225917   6.787   6.908   1.670
 8340SOL     OW25918   5.885   2.479   6.210
 8340SOL    HW125919   5.961   2.538   6.236
 8340SOL    HW225920   5.908   2.384   6.228
 8341SOL     OW25921   3.504   6.911   0.964
 8341SOL    HW125922   3.597   6.882   0.941
 8341SOL    HW225923   3.500   7.011   0.966
 8342SOL     OW25924   4.101   1.073   1.369
 8342SOL    HW125925   4.167   1.144   1.345
 8342SOL    HW225926   4.029   1.069   1.299
 8343SOL     OW25927   4.648   6.135   3.005
 8343SOL    HW125928   4.583   6.108   2.933
 8343SOL    HW225929   4.610   6.109   3.094
 8344SOL     OW25930   2.195   4.308   4.899
 8344SOL    HW125931   2.242   4.377   4.955
 8344SOL    HW225932   2.233   4.218   4.919
 8345SOL     OW25933   6.993   0.103   3.948
 8345SOL    HW125934   7.004   0.198   3.918
 8345SOL    HW225935   0.055   0.058   3.950
 8346SOL     OW25936   5.313   4.177   2.714
 8346SOL    HW125937   5.308   4.227   2.627
 8346SOL    HW225938   5.396   4.203   2.762
 8347SOL     OW25939   1.797   1.335   6.854
 8347SOL    HW125940   1.797   1.255   6.795
 8347SOL    HW225941   1.774   1.308   6.948
 8348SOL     OW25942   2.456   6.584   0.791
 8348SOL    HW125943   2.506   6.658   0.837
 8348SOL    HW225944   2.510   6.501   0.793
 8349SOL     OW25945   4.528   6.272   0.867
 8349SOL    HW125946   4.558   6.189   0.819
 8349SOL    HW225947   4.607   6.330   0.886
 8350SOL     OW25948   2.336   0.973   6.357
 8350SOL    HW125949   2.407   1.020   6.410
 8350SOL    HW225950   2.361   0.877   6.346
 8351SOL     OW25951   1.032   4.466   2.999
 8351SOL    HW125952   0.988   4.554   3.018
 8351SOL    HW225953   1.058   4.422   3.084
 8352SOL     OW25954   2.321   6.725   6.807
 8352SOL    HW125955   2.374   6.641   6.793
 8352SOL    HW225956   2.322   6.780   6.724
 8353SOL     OW25957   1.818   6.025   2.827
 8353SOL    HW125958   1.720   6.015   2.838
 8353SOL    HW225959   1.862   5.935   2.837
 8354SOL     OW25960   5.229   3.212   3.672
 8354SOL    HW125961   5.225   3.261   3.585
 8354SOL    HW225962   5.266   3.272   3.743
 8355SOL     OW25963   3.457   3.779   5.755
 8355SOL    HW125964   3.390   3.722   5.707
 8355SOL    HW225965   3.440   3.875   5.733
 8356SOL     OW25966   3.703   2.905   2.541
 8356SOL    HW125967   3.606   2.925   2.546
 8356SOL    HW225968   3.723   2.854   2.457
 8357SOL     OW25969   3.634   6.776   4.966
 8357SOL    HW125970   3.679   6.818   4.887
 8357SOL    HW225971   3.615   6.680   4.946
 8358SOL     OW25972   0.046   0.974   4.483
 8358SOL    HW125973   7.026   0.969   4.395
 8358SOL    HW225974   0.081   1.066   4.497
 8359SOL     OW25975   5.250   2.771   5.438
 8359SOL    HW125976   5.162   2.748   5.480
 8359SOL    HW225977   5.315   2.796   5.510
 8360SOL     OW25978   3.493   0.270   2.574
 8360SOL    HW125979   3.544   0.355   2.584
 8360SOL    HW225980   3.496   0.240   2.478
 8361SOL     OW25981   4.871   1.873   0.025
 8361SOL    HW125982   4.902   1.918   0.109
 8361SOL    HW225983   4.949   1.828   7.008
 8362SOL     OW25984   0.429   4.459   2.121
 8362SOL    HW125985   0.334   4.457   2.153
 8362SOL    HW225986   0.488   4.415   2.189
 8363SOL     OW25987   3.692   2.493   1.449
 8363SOL    HW125988   3.691   2.534   1.540
 8363SOL    HW225989   3.767   2.530   1.396
 8364SOL     OW25990   0.543   1.325   3.651
 8364SOL    HW125991   0.565   1.227   3.655
 8364SOL    HW225992   0.606   1.371   3.588
 8365SOL     OW25993   2.239   2.738   1.132
 8365SOL    HW125994   2.315   2.778   1.183
 8365SOL    HW225995   2.208   2.655   1.178
 8366SOL     OW25996   5.409   6.029   1.253
 8366SOL    HW125997   5.318   5.987   1.262
 8366SOL    HW225998   5.411   6.115   1.303
 8367SOL     OW25999   0.840   5.084   4.263
 8367SOL    HW126000   0.902   5.008   4.241
 8367SOL    HW226001   0.746   5.057   4.243
 8368SOL     OW26002   0.594   3.525   6.407
 8368SOL    HW126003   0.591   3.500   6.504
 8368SOL    HW226004   0.671   3.586   6.390
 8369SOL     OW26005   1.256   0.920   0.454
 8369SOL    HW126006   1.156   0.924   0.448
 8369SOL    HW226007   1.289   0.999   0.506
 8370SOL     OW26008   2.734   3.223   1.765
 8370SOL    HW126009   2.639   3.235   1.738
 8370SOL    HW226010   2.766   3.132   1.738
 8371SOL     OW26011   2.522   4.638   5.366
 8371SOL    HW126012   2.597   4.574   5.350
 8371SOL    HW226013   2.456   4.596   5.429
 8372SOL     OW26014   1.518   0.067   3.128
 8372SOL    HW126015   1.580   0.056   3.049
 8372SOL    HW226016   1.519   7.011   3.182
 8373SOL     OW26017   6.546   0.683   4.471
 8373SOL    HW126018   6.455   0.681   4.513
 8373SOL    HW226019   6.574   0.589   4.450
 8374SOL     OW26020   0.303   1.921   3.684
 8374SOL    HW126021   0.212   1.931   3.726
 8374SOL    HW226022   0.304   1.968   3.595
 8375SOL     OW26023   1.439   2.279   5.751
 8375SOL    HW126024   1.517   2.283   5.688
 8375SOL    HW226025   1.355   2.298   5.701
 8376SOL     OW26026   1.177   0.772   3.358
 8376SOL    HW126027   1.106   0.753   3.426
 8376SOL    HW226028   1.157   0.723   3.273
 8377SOL     OW26029   4.444   5.783   2.000
 8377SOL    HW126030   4.493   5.751   1.919
 8377SOL    HW226031   4.456   5.882   2.010
 8378SOL     OW26032   4.302   6.164   5.996
 8378SOL    HW126033   4.325   6.189   5.902
 8378SOL    HW226034   4.238   6.232   6.033
 8379SOL     OW26035   6.289   2.972   1.715
 8379SOL    HW126036   6.258   3.061   1.748
 8379SOL    HW226037   6.324   2.981   1.622
 8380SOL     OW26038   1.440   5.395   2.909
 8380SOL    HW126039   1.537   5.418   2.907
 8380SOL    HW226040   1.413   5.355   2.822
 8381SOL     OW26041   0.315   2.647   2.509
 8381SOL    HW126042   0.294   2.646   2.411
 8381SOL    HW226043   0.238   2.608   2.559
 8382SOL     OW26044   0.921   0.632   2.043
 8382SOL    HW126045   1.006   0.604   2.086
 8382SOL    HW226046   0.858   0.554   2.038
 8383SOL     OW26047   2.462   6.543   4.569
 8383SOL    HW126048   2.450   6.624   4.627
 8383SOL    HW226049   2.435   6.461   4.620
 8384SOL     OW26050   0.619   3.685   3.882
 8384SOL    HW126051   0.715   3.689   3.910
 8384SOL    HW226052   0.576   3.774   3.896
 8385SOL     OW26053   3.907   2.183   1.408
 8385SOL    HW126054   3.863   2.171   1.497
 8385SOL    HW226055   3.949   2.096   1.380
 8386SOL     OW26056   6.652   5.617   2.338
 8386SOL    HW126057   6.677   5.522   2.358
 8386SOL    HW226058   6.572   5.619   2.279
 8387SOL     OW26059   0.533   2.175   3.952
 8387SOL    HW126060   0.443   2.197   3.989
 8387SOL    HW226061   0.582   2.115   4.016
 8388SOL     OW26062   3.336   6.372   1.408
 8388SOL    HW126063   3.247   6.404   1.376
 8388SOL    HW226064   3.371   6.302   1.346
 8389SOL     OW26065   0.866   2.707   4.382
 8389SOL    HW126066   0.768   2.697   4.363
 8389SOL    HW226067   0.879   2.729   4.478
 8390SOL     OW26068   1.325   6.526   6.640
 8390SOL    HW126069   1.298   6.453   6.577
 8390SOL    HW226070   1.366   6.486   6.721
 8391SOL     OW26071   5.079   6.237   1.111
 8391SOL    HW126072   5.040   6.145   1.124
 8391SOL    HW226073   5.040   6.278   1.028
 8392SOL     OW26074   3.377   5.729   0.678
 8392SOL    HW126075   3.354   5.641   0.636
 8392SOL    HW226076   3.333   5.736   0.768
 8393SOL     OW26077   1.209   6.693   2.258
 8393SOL    HW126078   1.192   6.732   2.168
 8393SOL    HW226079   1.302   6.718   2.288
 8394SOL     OW26080   1.704   1.487   4.419
 8394SOL    HW126081   1.774   1.559   4.416
 8394SOL    HW226082   1.737   1.410   4.473
 8395SOL     OW26083   2.071   6.403   6.825
 8395SOL    HW126084   2.099   6.317   6.783
 8395SOL    HW226085   2.020   6.457   6.759
 8396SOL     OW26086   4.763   2.135   0.298
 8396SOL    HW126087   4.688   2.170   0.243
 8396SOL    HW226088   4.739   2.141   0.395
 8397SOL     OW26089   0.433   4.413   3.566
 8397SOL    HW126090   0.333   4.415   3.560
 8397SOL    HW226091   0.466   4.505   3.589
 8398SOL     OW26092   5.749   1.885   6.516
 8398SOL    HW126093   5.663   1.857   6.473
 8398SOL    HW226094   5.752   1.985   6.523
 8399SOL     OW26095   5.339   0.012   5.052
 8399SOL    HW126096   5.272   6.998   4.991
 8399SOL    HW226097   5.321   7.011   5.146
 8400SOL     OW26098   5.769   5.749   3.210
 8400SOL    HW126099   5.797   5.814   3.281
 8400SOL    HW226100   5.828   5.669   3.213
 8401SOL     OW26101   2.149   3.441   4.814
 8401SOL    HW126102   2.140   3.343   4.832
 8401SOL    HW226103   2.165   3.455   4.716
 8402SOL     OW26104   4.857   1.090   4.367
 8402SOL    HW126105   4.930   1.062   4.305
 8402SOL    HW226106   4.849   1.190   4.365
 8403SOL     OW26107   0.994   1.761   6.442
 8403SOL    HW126108   1.075   1.775   6.386
 8403SOL    HW226109   0.912   1.777   6.387
 8404SOL     OW26110   4.855   5.465   5.563
 8404SOL    HW126111   4.830   5.466   5.467
 8404SOL    HW226112   4.937   5.408   5.576
 8405SOL     OW26113   0.318   3.045   6.212
 8405SOL    HW126114   0.409   3.010   6.189
 8405SOL    HW226115   0.328   3.126   6.270
 8406SOL     OW26116   5.734   3.604   1.821
 8406SOL    HW126117   5.778   3.551   1.748
 8406SOL    HW226118   5.795   3.609   1.899
 8407SOL     OW26119   5.614   3.249   2.042
 8407SOL    HW126120   5.577   3.342   2.043
 8407SOL    HW226121   5.542   3.185   2.068
 8408SOL     OW26122   5.429   4.040   4.431
 8408SOL    HW126123   5.370   3.986   4.370
 8408SOL    HW226124   5.447   4.129   4.390
 8409SOL     OW26125   0.969   1.998   3.734
 8409SOL    HW126126   0.880   1.975   3.693
 8409SOL    HW226127   0.990   1.931   3.806
 8410SOL     OW26128   1.665   5.324   2.164
 8410SOL    HW126129   1.747   5.336   2.109
 8410SOL    HW226130   1.687   5.342   2.260
 8411SOL     OW26131   1.956   3.622   2.970
 8411SOL    HW126132   1.903   3.587   2.893
 8411SOL    HW226133   2.024   3.554   2.998
 8412SOL     OW26134   5.593   2.501   2.595
 8412SOL    HW126135   5.507   2.522   2.641
 8412SOL    HW226136   5.660   2.573   2.616
 8413SOL     OW26137   1.851   5.244   1.964
 8413SOL    HW126138   1.791   5.175   1.924
 8413SOL    HW226139   1.938   5.201   1.989
 8414SOL     OW26140   6.474   0.417   4.046
 8414SOL    HW126141   6.377   0.423   4.023
 8414SOL    HW226142   6.506   0.504   4.081
 8415SOL     OW26143   0.751   4.875   1.102
 8415SOL    HW126144   0.783   4.826   1.184
 8415SOL    HW226145   0.815   4.949   1.081
 8416SOL     OW26146   4.290   4.766   2.726
 8416SOL    HW126147   4.389   4.772   2.736
 8416SOL    HW226148   4.267   4.741   2.632
 8417SOL     OW26149   0.786   5.520   6.904
 8417SOL    HW126150   0.876   5.497   6.867
 8417SOL    HW226151   0.797   5.573   6.988
 8418SOL     OW26152   5.727   6.416   2.831
 8418SOL    HW126153   5.779   6.499   2.813
 8418SOL    HW226154   5.746   6.384   2.924
 8419SOL     OW26155   2.381   1.573   3.399
 8419SOL    HW126156   2.431   1.631   3.336
 8419SOL    HW226157   2.327   1.506   3.348
 8420SOL     OW26158   5.102   1.680   5.472
 8420SOL    HW126159   5.109   1.765   5.524
 8420SOL    HW226160   5.038   1.692   5.396
 8421SOL     OW26161   0.009   1.166   1.191
 8421SOL    HW126162   6.961   1.101   1.202
 8421SOL    HW226163   7.001   1.253   1.158
 8422SOL     OW26164   2.890   1.092   1.106
 8422SOL    HW126165   2.851   1.086   1.014
 8422SOL    HW226166   2.939   1.178   1.116
 8423SOL     OW26167   1.553   4.747   1.981
 8423SOL    HW126168   1.644   4.721   1.949
 8423SOL    HW226169   1.495   4.767   1.902
 8424SOL     OW26170   2.504   2.374   2.183
 8424SOL    HW126171   2.568   2.301   2.157
 8424SOL    HW226172   2.530   2.410   2.273
 8425SOL     OW26173   0.095   5.537   5.937
 8425SOL    HW126174   0.072   5.502   5.846
 8425SOL    HW226175   0.012   5.547   5.991
 8426SOL     OW26176   3.667   4.146   3.510
 8426SOL    HW126177   3.741   4.212   3.502
 8426SOL    HW226178   3.623   4.133   3.421
 8427SOL     OW26179   2.296   1.012   6.687
 8427SOL    HW126180   2.236   1.059   6.752
 8427SOL    HW226181   2.242   0.950   6.631
 8428SOL     OW26182   0.030   2.756   1.754
 8428SOL    HW126183   0.129   2.744   1.753
 8428SOL    HW226184   0.007   2.845   1.715
 8429SOL     OW26185   1.139   6.574   3.083
 8429SOL    HW126186   1.164   6.624   3.000
 8429SOL    HW226187   1.181   6.618   3.163
 8430SOL     OW26188   3.465   6.358   3.715
 8430SOL    HW126189   3.407   6.312   3.782
 8430SOL    HW226190   3.538   6.296   3.686
 8431SOL     OW26191   3.307   3.498   3.241
 8431SOL    HW126192   3.290   3.496   3.142
 8431SOL    HW226193   3.301   3.592   3.274
 8432SOL     OW26194   3.946   5.543   0.370
 8432SOL    HW126195   3.994   5.486   0.303
 8432SOL    HW226196   3.866   5.584   0.326
 8433SOL     OW26197   6.478   1.539   3.438
 8433SOL    HW126198   6.555   1.475   3.446
 8433SOL    HW226199   6.513   1.630   3.415
 8434SOL     OW26200   5.391   6.392   6.993
 8434SOL    HW126201   5.339   6.445   0.032
 8434SOL    HW226202   5.328   6.350   6.928
 8435SOL     OW26203   5.354   3.639   0.404
 8435SOL    HW126204   5.419   3.700   0.360
 8435SOL    HW226205   5.278   3.621   0.342
 8436SOL     OW26206   3.437   4.310   1.604
 8436SOL    HW126207   3.535   4.312   1.584
 8436SOL    HW226208   3.405   4.402   1.624
 8437SOL     OW26209   0.385   3.101   0.771
 8437SOL    HW126210   0.338   3.143   0.693
 8437SOL    HW226211   0.415   3.009   0.745
 8438SOL     OW26212   2.527   5.708   1.724
 8438SOL    HW126213   2.581   5.781   1.765
 8438SOL    HW226214   2.473   5.663   1.795
 8439SOL     OW26215   5.552   0.791   2.094
 8439SOL    HW126216   5.589   0.708   2.051
 8439SOL    HW226217   5.456   0.801   2.067
 8440SOL     OW26218   1.267   3.828   3.418
 8440SOL    HW126219   1.330   3.828   3.495
 8440SOL    HW226220   1.317   3.805   3.334
 8441SOL     OW26221   4.643   5.901   0.914
 8441SOL    HW126222   4.711   5.830   0.899
 8441SOL    HW226223   4.687   5.991   0.909
 8442SOL     OW26224   2.911   3.044   0.577
 8442SOL    HW126225   2.853   2.976   0.532
 8442SOL    HW226226   2.880   3.056   0.672
 8443SOL     OW26227   6.769   2.682   0.376
 8443SOL    HW126228   6.754   2.694   0.474
 8443SOL    HW226229   6.761   2.586   0.352
 8444SOL     OW26230   5.284   2.725   2.989
 8444SOL    HW126231   5.264   2.795   2.920
 8444SOL    HW226232   5.348   2.659   2.951
 8445SOL     OW26233   3.381   5.431   3.528
 8445SOL    HW126234   3.461   5.405   3.583
 8445SOL    HW226235   3.409   5.447   3.433
 8446SOL     OW26236   6.082   4.138   3.301
 8446SOL    HW126237   5.986   4.165   3.300
 8446SOL    HW226238   6.088   4.038   3.291
 8447SOL     OW26239   5.527   4.974   0.777
 8447SOL    HW126240   5.569   5.032   0.708
 8447SOL    HW226241   5.558   5.003   0.868
 8448SOL     OW26242   1.282   4.524   5.429
 8448SOL    HW126243   1.235   4.513   5.517
 8448SOL    HW226244   1.350   4.596   5.436
 8449SOL     OW26245   2.290   1.015   5.842
 8449SOL    HW126246   2.205   1.063   5.863
 8449SOL    HW226247   2.350   1.076   5.789
 8450SOL     OW26248   1.811   6.007   0.691
 8450SOL    HW126249   1.763   6.022   0.778
 8450SOL    HW226250   1.876   6.082   0.675
 8451SOL     OW26251   2.846   4.283   1.572
 8451SOL    HW126252   2.827   4.188   1.597
 8451SOL    HW226253   2.924   4.316   1.625
 8452SOL     OW26254   6.882   5.559   2.608
 8452SOL    HW126255   6.822   5.548   2.529
 8452SOL    HW226256   6.827   5.560   2.692
 8453SOL     OW26257   0.821   4.386   5.414
 8453SOL    HW126258   0.892   4.378   5.344
 8453SOL    HW226259   0.846   4.329   5.493
 8454SOL     OW26260   2.259   6.938   6.000
 8454SOL    HW126261   2.185   7.000   6.026
 8454SOL    HW226262   2.221   6.858   5.954
 8455SOL     OW26263   6.229   2.226   0.050
 8455SOL    HW126264   6.193   2.270   0.132
 8455SOL    HW226265   6.271   2.139   0.074
 8456SOL     OW26266   6.063   4.777   3.554
 8456SOL    HW126267   6.042   4.700   3.494
 8456SOL    HW226268   6.063   4.862   3.501
 8457SOL     OW26269   5.468   6.167   6.123
 8457SOL    HW126270   5.427   6.132   6.207
 8457SOL    HW226271   5.568   6.167   6.132
 8458SOL     OW26272   1.122   1.181   1.518
 8458SOL    HW126273   1.112   1.259   1.456
 8458SOL    HW226274   1.085   1.099   1.474
 8459SOL     OW26275   1.697   4.836   2.780
 8459SOL    HW126276   1.633   4.771   2.821
 8459SOL    HW226277   1.791   4.809   2.803
 8460SOL     OW26278   3.713   1.114   1.181
 8460SOL    HW126279   3.660   1.172   1.119
 8460SOL    HW226280   3.783   1.170   1.226
 8461SOL     OW26281   5.252   4.827   3.051
 8461SOL    HW126282   5.173   4.812   3.111
 8461SOL    HW226283   5.296   4.914   3.075
 8462SOL     OW26284   1.983   3.211   0.234
 8462SOL    HW126285   1.984   3.278   0.309
 8462SOL    HW226286   1.994   3.259   0.147
 8463SOL     OW26287   0.669   6.340   1.749
 8463SOL    HW126288   0.712   6.250   1.759
 8463SOL    HW226289   0.736   6.403   1.709
 8464SOL     OW26290   6.827   3.034   6.880
 8464SOL    HW126291   6.833   3.001   6.786
 8464SOL    HW226292   6.884   3.115   6.891
 8465SOL     OW26293   6.027   3.815   0.546
 8465SOL    HW126294   5.938   3.813   0.592
 8465SOL    HW226295   6.084   3.885   0.588
 8466SOL     OW26296   0.210   1.538   4.733
 8466SOL    HW126297   0.284   1.605   4.736
 8466SOL    HW226298   0.228   1.467   4.801
 8467SOL     OW26299   3.015   0.613   0.651
 8467SOL    HW126300   3.044   0.704   0.681
 8467SOL    HW226301   2.929   0.589   0.697
 8468SOL     OW26302   6.887   3.385   1.892
 8468SOL    HW126303   6.955   3.329   1.844
 8468SOL    HW226304   6.846   3.331   1.966
 8469SOL     OW26305   3.473   2.749   5.652
 8469SOL    HW126306   3.516   2.733   5.563
 8469SOL    HW226307   3.391   2.804   5.640
 8470SOL     OW26308   1.646   5.593   0.276
 8470SOL    HW126309   1.574   5.546   0.225
 8470SOL    HW226310   1.607   5.634   0.359
 8471SOL     OW26311   3.546   1.774   3.790
 8471SOL    HW126312   3.501   1.858   3.761
 8471SOL    HW226313   3.478   1.703   3.806
 8472SOL     OW26314   6.346   1.307   6.954
 8472SOL    HW126315   6.364   1.254   6.871
 8472SOL    HW226316   6.430   1.355   6.981
 8473SOL     OW26317   4.970   5.157   5.744
 8473SOL    HW126318   4.961   5.205   5.831
 8473SOL    HW226319   5.033   5.206   5.685
 8474SOL     OW26320   2.860   4.233   6.643
 8474SOL    HW126321   2.797   4.248   6.567
 8474SOL    HW226322   2.815   4.176   6.712
 8475SOL     OW26323   0.966   1.861   3.343
 8475SOL    HW126324   1.062   1.875   3.317
 8475SOL    HW226325   0.959   1.785   3.407
 8476SOL     OW26326   6.742   0.511   2.348
 8476SOL    HW126327   6.702   0.582   2.292
 8476SOL    HW226328   6.822   0.547   2.396
 8477SOL     OW26329   6.190   0.245   1.057
 8477SOL    HW126330   6.185   0.217   0.961
 8477SOL    HW226331   6.244   0.328   1.065
 8478SOL     OW26332   2.109   6.906   6.985
 8478SOL    HW126333   2.049   6.829   6.963
 8478SOL    HW226334   2.156   6.937   6.902
 8479SOL     OW26335   1.564   1.801   0.118
 8479SOL    HW126336   1.579   1.704   0.097
 8479SOL    HW226337   1.506   1.841   0.048
 8480SOL     OW26338   3.311   4.555   1.625
 8480SOL    HW126339   3.358   4.641   1.645
 8480SOL    HW226340   3.225   4.574   1.577
 8481SOL     OW26341   5.765   3.209   1.844
 8481SOL    HW126342   5.765   3.276   1.770
 8481SOL    HW226343   5.703   3.240   1.917
 8482SOL     OW26344   5.072   6.765   5.416
 8482SOL    HW126345   5.031   6.776   5.325
 8482SOL    HW226346   5.006   6.792   5.486
 8483SOL     OW26347   4.701   5.309   3.797
 8483SOL    HW126348   4.699   5.212   3.820
 8483SOL    HW226349   4.738   5.360   3.875
 8484SOL     OW26350   5.721   6.638   5.376
 8484SOL    HW126351   5.673   6.582   5.444
 8484SOL    HW226352   5.778   6.579   5.318
 8485SOL     OW26353   3.297   0.688   6.012
 8485SOL    HW126354   3.378   0.724   6.059
 8485SOL    HW226355   3.225   0.757   6.011
 8486SOL     OW26356   4.939   2.622   4.520
 8486SOL    HW126357   4.970   2.623   4.425
 8486SOL    HW226358   4.978   2.700   4.569
 8487SOL     OW26359   1.058   1.301   5.850
 8487SOL    HW126360   1.113   1.314   5.932
 8487SOL    HW226361   1.099   1.352   5.774
 8488SOL     OW26362   4.051   5.727   3.025
 8488SOL    HW126363   4.081   5.643   2.981
 8488SOL    HW226364   3.951   5.731   3.024
 8489SOL     OW26365   6.271   2.322   1.748
 8489SOL    HW126366   6.344   2.381   1.714
 8489SOL    HW226367   6.250   2.252   1.679
 8490SOL     OW26368   4.447   0.336   6.857
 8490SOL    HW126369   4.364   0.385   6.883
 8490SOL    HW226370   4.496   0.309   6.940
 8491SOL     OW26371   2.968   6.233   1.814
 8491SOL    HW126372   2.965   6.152   1.756
 8491SOL    HW226373   2.925   6.214   1.901
 8492SOL     OW26374   6.007   6.398   4.226
 8492SOL    HW126375   6.018   6.495   4.208
 8492SOL    HW226376   6.096   6.356   4.242
 8493SOL     OW26377   4.803   0.219   5.207
 8493SOL    HW126378   4.715   0.190   5.169
 8493SOL    HW226379   4.869   0.228   5.133
 8494SOL     OW26380   0.193   3.562   2.128
 8494SOL    HW126381   0.158   3.653   2.107
 8494SOL    HW226382   0.280   3.547   2.081
 8495SOL     OW26383   3.951   5.474   4.669
 8495SOL    HW126384   3.876   5.534   4.642
 8495SOL    HW226385   3.982   5.422   4.590
 8496SOL     OW26386   4.032   2.173   2.349
 8496SOL    HW126387   4.026   2.146   2.445
 8496SOL    HW226388   3.940   2.185   2.311
 8497SOL     OW26389   5.891   1.123   3.387
 8497SOL    HW126390   5.814   1.177   3.352
 8497SOL    HW226391   5.938   1.078   3.311
 8498SOL     OW26392   6.226   6.031   5.538
 8498SOL    HW126393   6.294   5.976   5.490
 8498SOL    HW226394   6.137   6.021   5.493
 8499SOL     OW26395   6.608   0.047   6.052
 8499SOL    HW126396   6.682   0.002   6.102
 8499SOL    HW226397   6.602   0.143   6.081
 8500SOL     OW26398   0.326   0.330   5.658
 8500SOL    HW126399   0.363   0.254   5.605
 8500SOL    HW226400   0.227   0.336   5.643
 8501SOL     OW26401   3.990   6.655   4.646
 8501SOL    HW126402   3.936   6.570   4.650
 8501SOL    HW226403   4.008   6.678   4.550
 8502SOL     OW26404   6.578   2.632   0.615
 8502SOL    HW126405   6.486   2.656   0.584
 8502SOL    HW226406   6.578   2.618   0.714
 8503SOL     OW26407   4.767   2.752   5.955
 8503SOL    HW126408   4.754   2.724   5.860
 8503SOL    HW226409   4.862   2.779   5.969
 8504SOL     OW26410   1.648   1.258   3.146
 8504SOL    HW126411   1.713   1.319   3.193
 8504SOL    HW226412   1.653   1.167   3.187
 8505SOL     OW26413   5.968   1.425   2.461
 8505SOL    HW126414   6.028   1.477   2.522
 8505SOL    HW226415   5.888   1.393   2.513
 8506SOL     OW26416   2.289   1.146   4.260
 8506SOL    HW126417   2.208   1.095   4.287
 8506SOL    HW226418   2.290   1.157   4.160
 8507SOL     OW26419   4.123   5.418   0.213
 8507SOL    HW126420   4.221   5.430   0.228
 8507SOL    HW226421   4.099   5.450   0.122
 8508SOL     OW26422   3.001   1.079   6.279
 8508SOL    HW126423   2.984   1.040   6.370
 8508SOL    HW226424   2.952   1.166   6.271
 8509SOL     OW26425   3.765   1.633   2.199
 8509SOL    HW126426   3.692   1.664   2.260
 8509SOL    HW226427   3.771   1.533   2.203
 8510SOL     OW26428   0.750   2.344   5.549
 8510SOL    HW126429   0.805   2.355   5.633
 8510SOL    HW226430   0.791   2.398   5.476
 8511SOL     OW26431   5.904   1.886   3.819
 8511SOL    HW126432   5.883   1.812   3.882
 8511SOL    HW226433   5.888   1.855   3.725
 8512SOL     OW26434   2.579   7.002   6.416
 8512SOL    HW126435   2.588   6.938   6.339
 8512SOL    HW226436   2.667   7.009   6.464
 8513SOL     OW26437   3.584   6.078   6.878
 8513SOL    HW126438   3.653   6.056   6.947
 8513SOL    HW226439   3.516   6.140   6.919
 8514SOL     OW26440   4.660   5.851   4.513
 8514SOL    HW126441   4.727   5.787   4.552
 8514SOL    HW226442   4.623   5.812   4.428
 8515SOL     OW26443   5.267   2.646   1.966
 8515SOL    HW126444   5.324   2.620   2.044
 8515SOL    HW226445   5.278   2.744   1.948
 8516SOL     OW26446   0.089   3.014   1.231
 8516SOL    HW126447   0.172   3.018   1.286
 8516SOL    HW226448   0.067   2.919   1.210
 8517SOL     OW26449   0.899   3.623   4.752
 8517SOL    HW126450   0.917   3.709   4.706
 8517SOL    HW226451   0.964   3.612   4.828
 8518SOL     OW26452   3.357   5.441   1.550
 8518SOL    HW126453   3.321   5.458   1.642
 8518SOL    HW226454   3.351   5.524   1.496
 8519SOL     OW26455   3.023   5.533   3.220
 8519SOL    HW126456   2.991   5.532   3.315
 8519SOL    HW226457   3.010   5.442   3.179
 8520SOL     OW26458   3.565   5.647   6.747
 8520SOL    HW126459   3.593   5.723   6.689
 8520SOL    HW226460   3.542   5.682   6.838
 8521SOL     OW26461   0.401   0.897   3.987
 8521SOL    HW126462   0.342   0.910   3.907
 8521SOL    HW226463   0.496   0.900   3.959
 8522SOL     OW26464   2.670   5.898   4.531
 8522SOL    HW126465   2.613   5.897   4.613
 8522SOL    HW226466   2.663   5.987   4.486
 8523SOL     OW26467   1.913   5.391   6.918
 8523SOL    HW126468   2.001   5.406   6.963
 8523SOL    HW226469   1.846   5.455   6.956
 8524SOL     OW26470   1.886   1.062   6.189
 8524SOL    HW126471   1.969   1.116   6.202
 8524SOL    HW226472   1.863   1.016   6.275
 8525SOL     OW26473   5.670   4.103   4.914
 8525SOL    HW126474   5.614   4.116   4.995
 8525SOL    HW226475   5.658   4.009   4.880
 8526SOL     OW26476   6.654   2.903   1.342
 8526SOL    HW126477   6.592   2.936   1.271
 8526SOL    HW226478   6.742   2.948   1.334
 8527SOL     OW26479   4.638   1.557   4.941
 8527SOL    HW126480   4.555   1.611   4.927
 8527SOL    HW226481   4.623   1.464   4.908
 8528SOL     OW26482   6.200   6.918   0.121
 8528SOL    HW126483   6.162   6.858   0.192
 8528SOL    HW226484   6.252   6.863   0.055
 8529SOL     OW26485   0.092   1.481   4.461
 8529SOL    HW126486   7.025   1.512   4.463
 8529SOL    HW226487   0.143   1.523   4.535
 8530SOL     OW26488   1.686   5.558   5.586
 8530SOL    HW126489   1.613   5.530   5.648
 8530SOL    HW226490   1.705   5.483   5.522
 8531SOL     OW26491   2.909   5.273   3.314
 8531SOL    HW126492   2.816   5.289   3.280
 8531SOL    HW226493   2.921   5.322   3.400
 8532SOL     OW26494   1.181   2.955   6.745
 8532SOL    HW126495   1.145   2.889   6.810
 8532SOL    HW226496   1.162   2.925   6.651
 8533SOL     OW26497   3.002   0.434   6.729
 8533SOL    HW126498   2.960   0.368   6.666
 8533SOL    HW226499   3.101   0.433   6.717
 8534SOL     OW26500   3.438   2.468   0.910
 8534SOL    HW126501   3.469   2.484   0.817
 8534SOL    HW226502   3.510   2.424   0.963
 8535SOL     OW26503   0.117   1.934   5.547
 8535SOL    HW126504   0.136   1.994   5.469
 8535SOL    HW226505   0.019   1.918   5.555
 8536SOL     OW26506   6.622   0.335   6.080
 8536SOL    HW126507   6.566   0.350   6.162
 8536SOL    HW226508   6.597   0.401   6.010
 8537SOL     OW26509   3.185   6.376   3.603
 8537SOL    HW126510   3.250   6.359   3.678
 8537SOL    HW226511   3.143   6.466   3.615
 8538SOL     OW26512   3.951   2.033   5.357
 8538SOL    HW126513   3.953   1.955   5.294
 8538SOL    HW226514   3.879   2.097   5.328
 8539SOL     OW26515   0.837   2.887   2.793
 8539SOL    HW126516   0.902   2.936   2.852
 8539SOL    HW226517   0.787   2.953   2.737
 8540SOL     OW26518   4.496   6.032   6.148
 8540SOL    HW126519   4.439   6.070   6.075
 8540SOL    HW226520   4.509   5.934   6.131
 8541SOL     OW26521   3.476   6.110   5.677
 8541SOL    HW126522   3.438   6.115   5.770
 8541SOL    HW226523   3.454   6.194   5.628
 8542SOL     OW26524   1.675   4.990   4.413
 8542SOL    HW126525   1.679   5.063   4.482
 8542SOL    HW226526   1.766   4.977   4.375
 8543SOL     OW26527   3.491   1.738   5.762
 8543SOL    HW126528   3.575   1.792   5.764
 8543SOL    HW226529   3.442   1.751   5.849
 8544SOL     OW26530   4.874   4.084   5.354
 8544SOL    HW126531   4.940   4.009   5.352
 8544SOL    HW226532   4.882   4.133   5.441
 8545SOL     OW26533   2.068   0.724   6.754
 8545SOL    HW126534   2.092   0.741   6.659
 8545SOL    HW226535   2.144   0.749   6.813
 8546SOL     OW26536   2.735   1.686   4.247
 8546SOL    HW126537   2.796   1.736   4.308
 8546SOL    HW226538   2.647   1.672   4.291
 8547SOL     OW26539   5.540   4.683   5.864
 8547SOL    HW126540   5.498   4.751   5.804
 8547SOL    HW226541   5.576   4.728   5.946
 8548SOL     OW26542   1.761   3.993   3.785
 8548SOL    HW126543   1.818   3.943   3.850
 8548SOL    HW226544   1.752   3.939   3.701
 8549SOL     OW26545   2.754   0.152   3.584
 8549SOL    HW126546   2.810   0.088   3.637
 8549SOL    HW226547   2.692   0.101   3.525
 8550SOL     OW26548   0.169   3.603   4.978
 8550SOL    HW126549   0.138   3.653   4.898
 8550SOL    HW226550   0.201   3.512   4.950
 8551SOL     OW26551   3.375   2.034   4.317
 8551SOL    HW126552   3.297   2.049   4.257
 8551SOL    HW226553   3.406   1.939   4.309
 8552SOL     OW26554   3.865   1.255   1.906
 8552SOL    HW126555   3.936   1.185   1.908
 8552SOL    HW226556   3.896   1.336   1.956
 8553SOL     OW26557   6.077   2.289   0.273
 8553SOL    HW126558   6.102   2.274   0.369
 8553SOL    HW226559   5.994   2.239   0.251
 8554SOL     OW26560   0.218   0.952   6.368
 8554SOL    HW126561   0.132   0.927   6.324
 8554SOL    HW226562   0.289   0.886   6.343
 8555SOL     OW26563   3.653   1.602   4.048
 8555SOL    HW126564   3.643   1.661   3.968
 8555SOL    HW226565   3.749   1.580   4.063
 8556SOL     OW26566   1.301   3.847   6.180
 8556SOL    HW126567   1.361   3.774   6.146
 8556SOL    HW226568   1.235   3.808   6.244
 8557SOL     OW26569   6.164   6.791   0.772
 8557SOL    HW126570   6.141   6.862   0.838
 8557SOL    HW226571   6.084   6.771   0.714
 8558SOL     OW26572   1.977   6.153   3.649
 8558SOL    HW126573   1.985   6.225   3.718
 8558SOL    HW226574   1.892   6.103   3.662
 8559SOL     OW26575   1.596   2.261   2.760
 8559SOL    HW126576   1.515   2.256   2.818
 8559SOL    HW226577   1.653   2.180   2.774
 8560SOL     OW26578   3.468   4.799   1.663
 8560SOL    HW126579   3.495   4.733   1.733
 8560SOL    HW226580   3.550   4.837   1.620
 8561SOL     OW26581   3.783   0.997   2.358
 8561SOL    HW126582   3.796   1.021   2.262
 8561SOL    HW226583   3.750   0.903   2.365
 8562SOL     OW26584   5.824   4.141   6.023
 8562SOL    HW126585   5.831   4.219   5.962
 8562SOL    HW226586   5.727   4.115   6.034
 8563SOL     OW26587   0.329   4.160   3.668
 8563SOL    HW126588   0.404   4.128   3.611
 8563SOL    HW226589   0.242   4.131   3.628
 8564SOL     OW26590   4.156   6.570   6.971
 8564SOL    HW126591   4.084   6.517   7.016
 8564SOL    HW226592   4.115   6.650   6.927
 8565SOL     OW26593   1.767   5.128   1.014
 8565SOL    HW126594   1.752   5.132   0.916
 8565SOL    HW226595   1.761   5.220   1.053
 8566SOL     OW26596   2.826   1.120   4.023
 8566SOL    HW126597   2.788   1.212   4.033
 8566SOL    HW226598   2.759   1.053   4.053
 8567SOL     OW26599   1.538   2.688   0.074
 8567SOL    HW126600   1.513   2.784   0.067
 8567SOL    HW226601   1.636   2.676   0.057
 8568SOL     OW26602   5.827   0.264   5.824
 8568SOL    HW126603   5.832   0.167   5.801
 8568SOL    HW226604   5.853   0.319   5.745
 8569SOL     OW26605   4.550   1.835   5.972
 8569SOL    HW126606   4.630   1.855   6.028
 8569SOL    HW226607   4.572   1.853   5.876
 8570SOL     OW26608   1.501   2.122   3.993
 8570SOL    HW126609   1.535   2.098   3.902
 8570SOL    HW226610   1.473   2.218   3.994
 8571SOL     OW26611   1.698   0.810   3.595
 8571SOL    HW126612   1.651   0.895   3.574
 8571SOL    HW226613   1.658   0.769   3.677
 8572SOL     OW26614   2.615   3.237   6.296
 8572SOL    HW126615   2.678   3.238   6.374
 8572SOL    HW226616   2.531   3.285   6.321
 8573SOL     OW26617   1.788   6.338   5.297
 8573SOL    HW126618   1.692   6.316   5.316
 8573SOL    HW226619   1.836   6.255   5.271
 8574SOL     OW26620   6.512   2.710   5.909
 8574SOL    HW126621   6.540   2.638   5.845
 8574SOL    HW226622   6.580   2.784   5.907
 8575SOL     OW26623   1.579   6.771   3.880
 8575SOL    HW126624   1.603   6.686   3.833
 8575SOL    HW226625   1.538   6.835   3.815
 8576SOL     OW26626   1.606   4.358   4.359
 8576SOL    HW126627   1.565   4.427   4.420
 8576SOL    HW226628   1.665   4.403   4.293
 8577SOL     OW26629   1.984   1.068   1.406
 8577SOL    HW126630   1.956   1.142   1.466
 8577SOL    HW226631   1.918   0.993   1.411
 8578SOL     OW26632   1.989   0.698   6.330
 8578SOL    HW126633   2.007   0.650   6.244
 8578SOL    HW226634   1.930   0.642   6.387
 8579SOL     OW26635   2.547   6.981   3.151
 8579SOL    HW126636   2.504   7.019   3.232
 8579SOL    HW226637   2.631   6.933   3.176
 8580SOL     OW26638   1.076   0.011   1.921
 8580SOL    HW126639   1.045   6.962   1.979
 8580SOL    HW226640   1.171   0.033   1.943
 8581SOL     OW26641   3.947   3.214   3.636
 8581SOL    HW126642   4.030   3.176   3.675
 8581SOL    HW226643   3.868   3.187   3.691
 8582SOL     OW26644   5.476   5.237   0.277
 8582SOL    HW126645   5.520   5.325   0.295
 8582SOL    HW226646   5.490   5.212   0.182
 8583SOL     OW26647   3.599   6.856   2.064
 8583SOL    HW126648   3.601   6.935   2.002
 8583SOL    HW226649   3.689   6.847   2.108
 8584SOL     OW26650   5.886   3.158   6.385
 8584SOL    HW126651   5.802   3.106   6.364
 8584SOL    HW226652   5.869   3.217   6.464
 8585SOL     OW26653   5.307   2.910   2.749
 8585SOL    HW126654   5.285   3.006   2.731
 8585SOL    HW226655   5.325   2.862   2.663
 8586SOL     OW26656   6.054   6.799   6.031
 8586SOL    HW126657   6.089   6.723   5.977
 8586SOL    HW226658   6.045   6.771   6.126
 8587SOL     OW26659   5.943   6.909   1.230
 8587SOL    HW126660   6.030   6.955   1.219
 8587SOL    HW226661   5.956   6.810   1.221
 8588SOL     OW26662   1.714   2.986   5.914
 8588SOL    HW126663   1.751   3.057   5.855
 8588SOL    HW226664   1.626   3.014   5.951
 8589SOL     OW26665   6.433   3.276   6.323
 8589SOL    HW126666   6.341   3.268   6.362
 8589SOL    HW226667   6.473   3.185   6.312
 8590SOL     OW26668   1.046   1.310   2.648
 8590SOL    HW126669   0.961   1.276   2.687
 8590SOL    HW226670   1.042   1.409   2.640
 8591SOL     OW26671   1.002   4.588   6.472
 8591SOL    HW126672   1.087   4.637   6.454
 8591SOL    HW226673   0.986   4.584   6.571
 8592SOL     OW26674   0.065   2.013   4.837
 8592SOL    HW126675   0.051   1.949   4.912
 8592SOL    HW226676   0.028   2.102   4.862
 8593SOL     OW26677   0.489   0.707   0.455
 8593SOL    HW126678   0.390   0.701   0.466
 8593SOL    HW226679   0.520   0.635   0.392
 8594SOL     OW26680   6.068   2.436   6.993
 8594SOL    HW126681   6.117   2.351   7.012
 8594SOL    HW226682   6.125   2.496   6.936
 8595SOL     OW26683   5.630   6.783   1.561
 8595SOL    HW126684   5.653   6.688   1.543
 8595SOL    HW226685   5.710   6.831   1.595
 8596SOL     OW26686   0.459   2.786   5.479
 8596SOL    HW126687   0.413   2.754   5.396
 8596SOL    HW226688   0.528   2.719   5.507
 8597SOL     OW26689   6.221   2.788   5.956
 8597SOL    HW126690   6.305   2.737   5.940
 8597SOL    HW226691   6.244   2.883   5.978
 8598SOL     OW26692   6.385   6.866   5.689
 8598SOL    HW126693   6.411   6.862   5.786
 8598SOL    HW226694   6.340   6.781   5.663
 8599SOL     OW26695   6.285   4.460   5.833
 8599SOL    HW126696   6.272   4.495   5.741
 8599SOL    HW226697   6.268   4.532   5.900
 8600SOL     OW26698   3.359   3.034   1.917
 8600SOL    HW126699   3.282   2.984   1.956
 8600SOL    HW226700   3.437   3.027   1.979
 8601SOL     OW26701   4.611   4.700   1.153
 8601SOL    HW126702   4.605   4.679   1.251
 8601SOL    HW226703   4.704   4.727   1.130
 8602SOL     OW26704   2.269   6.252   5.197
 8602SOL    HW126705   2.305   6.284   5.109
 8602SOL    HW226706   2.259   6.329   5.259
 8603SOL     OW26707   0.449   1.304   6.845
 8603SOL    HW126708   0.386   1.227   6.834
 8603SOL    HW226709   0.408   1.371   6.908
 8604SOL     OW26710   1.818   6.065   6.203
 8604SOL    HW126711   1.815   6.144   6.264
 8604SOL    HW226712   1.816   5.981   6.257
 8605SOL     OW26713   0.181   4.961   4.349
 8605SOL    HW126714   0.166   4.865   4.372
 8605SOL    HW226715   0.110   5.017   4.390
 8606SOL     OW26716   0.232   0.174   6.429
 8606SOL    HW126717   0.258   0.204   6.337
 8606SOL    HW226718   0.226   0.254   6.489
 8607SOL     OW26719   3.164   2.459   1.381
 8607SOL    HW126720   3.075   2.489   1.348
 8607SOL    HW226721   3.215   2.417   1.305
 8608SOL     OW26722   1.582   5.593   2.107
 8608SOL    HW126723   1.623   5.504   2.126
 8608SOL    HW226724   1.501   5.581   2.050
 8609SOL     OW26725   5.321   2.737   4.356
 8609SOL    HW126726   5.335   2.703   4.263
 8609SOL    HW226727   5.387   2.694   4.418
 8610SOL     OW26728   0.523   5.314   2.406
 8610SOL    HW126729   0.525   5.238   2.471
 8610SOL    HW226730   0.533   5.279   2.313
 8611SOL     OW26731   1.927   1.421   6.095
 8611SOL    HW126732   1.953   1.375   6.010
 8611SOL    HW226733   1.860   1.365   6.144
 8612SOL     OW26734   3.579   2.940   6.296
 8612SOL    HW126735   3.614   3.008   6.232
 8612SOL    HW226736   3.614   2.850   6.270
 8613SOL     OW26737   3.449   3.250   3.814
 8613SOL    HW126738   3.421   3.326   3.872
 8613SOL    HW226739   3.375   3.183   3.809
 8614SOL     OW26740   0.158   3.546   3.795
 8614SOL    HW126741   0.129   3.628   3.745
 8614SOL    HW226742   0.231   3.571   3.859
 8615SOL     OW26743   3.782   0.270   5.124
 8615SOL    HW126744   3.796   0.364   5.156
 8615SOL    HW226745   3.854   0.246   5.059
 8616SOL     OW26746   6.427   4.044   5.020
 8616SOL    HW126747   6.414   3.999   5.109
 8616SOL    HW226748   6.349   4.103   5.000
 8617SOL     OW26749   0.767   6.852   4.638
 8617SOL    HW126750   0.735   6.909   4.563
 8617SOL    HW226751   0.725   6.882   4.723
 8618SOL     OW26752   0.185   4.608   0.770
 8618SOL    HW126753   0.103   4.574   0.816
 8618SOL    HW226754   0.196   4.561   0.683
 8619SOL     OW26755   6.128   4.243   6.476
 8619SOL    HW126756   6.138   4.232   6.377
 8619SOL    HW226757   6.053   4.186   6.508
 8620SOL     OW26758   0.635   6.699   4.100
 8620SOL    HW126759   0.643   6.768   4.173
 8620SOL    HW226760   0.642   6.744   4.011
 8621SOL     OW26761   6.708   3.261   2.060
 8621SOL    HW126762   6.656   3.198   2.118
 8621SOL    HW226763   6.685   3.355   2.084
 8622SOL     OW26764   0.844   5.931   1.949
 8622SOL    HW126765   0.913   5.859   1.940
 8622SOL    HW226766   0.787   5.934   1.867
 8623SOL     OW26767   1.719   2.338   3.836
 8623SOL    HW126768   1.631   2.386   3.840
 8623SOL    HW226769   1.786   2.394   3.789
 8624SOL     OW26770   3.659   3.750   6.383
 8624SOL    HW126771   3.620   3.658   6.394
 8624SOL    HW226772   3.657   3.798   6.471
 8625SOL     OW26773   4.375   2.799   6.223
 8625SOL    HW126774   4.324   2.881   6.198
 8625SOL    HW226775   4.442   2.821   6.293
 8626SOL     OW26776   5.784   1.381   0.399
 8626SOL    HW126777   5.748   1.304   0.453
 8626SOL    HW226778   5.708   1.441   0.374
 8627SOL     OW26779   6.891   0.259   2.608
 8627SOL    HW126780   6.806   0.312   2.605
 8627SOL    HW226781   6.882   0.177   2.552
 8628SOL     OW26782   1.441   6.179   0.616
 8628SOL    HW126783   1.488   6.221   0.693
 8628SOL    HW226784   1.379   6.246   0.574
 8629SOL     OW26785   0.383   1.065   4.525
 8629SOL    HW126786   0.348   0.988   4.579
 8629SOL    HW226787   0.388   1.039   4.429
 8630SOL     OW26788   6.231   3.695   1.357
 8630SOL    HW126789   6.247   3.644   1.442
 8630SOL    HW226790   6.220   3.631   1.281
 8631SOL     OW26791   1.750   5.778   0.042
 8631SOL    HW126792   1.694   5.744   0.118
 8631SOL    HW226793   1.733   5.876   0.030
 8632SOL     OW26794   5.833   5.898   2.803
 8632SOL    HW126795   5.830   5.925   2.707
 8632SOL    HW226796   5.927   5.877   2.830
 8633SOL     OW26797   6.701   4.119   5.948
 8633SOL    HW126798   6.655   4.189   5.892
 8633SOL    HW226799   6.792   4.151   5.972
 8634SOL     OW26800   4.690   4.238   0.175
 8634SOL    HW126801   4.710   4.201   0.266
 8634SOL    HW226802   4.768   4.221   0.114
 8635SOL     OW26803   5.280   1.508   0.097
 8635SOL    HW126804   5.254   1.428   0.043
 8635SOL    HW226805   5.369   1.541   0.067
 8636SOL     OW26806   4.808   6.109   0.817
 8636SOL    HW126807   4.794   6.174   0.741
 8636SOL    HW226808   4.882   6.046   0.792
 8637SOL     OW26809   2.943   2.856   0.988
 8637SOL    HW126810   2.905   2.771   0.950
 8637SOL    HW226811   2.972   2.840   1.082
 8638SOL     OW26812   5.045   2.357   4.950
 8638SOL    HW126813   5.071   2.453   4.939
 8638SOL    HW226814   5.057   2.309   4.863
 8639SOL     OW26815   4.040   3.917   0.311
 8639SOL    HW126816   3.997   3.952   0.394
 8639SOL    HW226817   4.140   3.920   0.321
 8640SOL     OW26818   2.862   2.756   0.157
 8640SOL    HW126819   2.868   2.657   0.152
 8640SOL    HW226820   2.953   2.796   0.148
 8641SOL     OW26821   3.289   4.894   3.083
 8641SOL    HW126822   3.336   4.876   2.996
 8641SOL    HW226823   3.352   4.881   3.159
 8642SOL     OW26824   2.792   6.539   3.286
 8642SOL    HW126825   2.786   6.452   3.335
 8642SOL    HW226826   2.720   6.545   3.218
 8643SOL     OW26827   3.739   6.508   1.171
 8643SOL    HW126828   3.669   6.477   1.107
 8643SOL    HW226829   3.720   6.472   1.262
 8644SOL     OW26830   4.860   2.456   6.416
 8644SOL    HW126831   4.869   2.439   6.318
 8644SOL    HW226832   4.831   2.371   6.462
 8645SOL     OW26833   4.653   4.849   3.145
 8645SOL    HW126834   4.657   4.938   3.100
 8645SOL    HW226835   4.716   4.786   3.099
 8646SOL     OW26836   5.812   2.274   4.002
 8646SOL    HW126837   5.726   2.226   4.020
 8646SOL    HW226838   5.874   2.212   3.953
 8647SOL     OW26839   2.268   4.859   2.027
 8647SOL    HW126840   2.224   4.942   1.993
 8647SOL    HW226841   2.337   4.884   2.095
 8648SOL     OW26842   5.777   6.002   6.510
 8648SOL    HW126843   5.836   5.921   6.511
 8648SOL    HW226844   5.682   5.975   6.495
 8649SOL     OW26845   5.250   3.173   1.887
 8649SOL    HW126846   5.227   3.244   1.821
 8649SOL    HW226847   5.350   3.166   1.895
 8650SOL     OW26848   1.337   1.288   5.390
 8650SOL    HW126849   1.265   1.232   5.430
 8650SOL    HW226850   1.301   1.340   5.313
 8651SOL     OW26851   4.709   1.534   1.416
 8651SOL    HW126852   4.737   1.468   1.346
 8651SOL    HW226853   4.759   1.515   1.501
 8652SOL     OW26854   6.240   3.469   4.906
 8652SOL    HW126855   6.305   3.531   4.861
 8652SOL    HW226856   6.229   3.386   4.850
 8653SOL     OW26857   4.390   1.036   6.836
 8653SOL    HW126858   4.398   1.108   6.766
 8653SOL    HW226859   4.318   0.973   6.810
 8654SOL     OW26860   6.664   4.856   3.684
 8654SOL    HW126861   6.739   4.805   3.641
 8654SOL    HW226862   6.644   4.816   3.773
 8655SOL     OW26863   1.952   6.945   4.675
 8655SOL    HW126864   1.943   6.965   4.577
 8655SOL    HW226865   1.908   7.017   4.728
 8656SOL     OW26866   4.048   6.530   0.335
 8656SOL    HW126867   3.966   6.586   0.323
 8656SOL    HW226868   4.050   6.492   0.427
 8657SOL     OW26869   2.739   1.656   2.311
 8657SOL    HW126870   2.801   1.591   2.355
 8657SOL    HW226871   2.764   1.749   2.338
 8658SOL     OW26872   5.967   4.019   0.876
 8658SOL    HW126873   5.963   4.109   0.919
 8658SOL    HW226874   5.978   3.949   0.947
 8659SOL     OW26875   3.103   6.647   3.656
 8659SOL    HW126876   3.007   6.649   3.685
 8659SOL    HW226877   3.156   6.710   3.712
 8660SOL     OW26878   6.582   4.259   1.035
 8660SOL    HW126879   6.500   4.292   0.988
 8660SOL    HW226880   6.577   4.159   1.044
 8661SOL     OW26881   6.067   2.387   1.386
 8661SOL    HW126882   6.060   2.438   1.471
 8661SOL    HW226883   6.044   2.448   1.309
 8662SOL     OW26884   1.717   3.066   1.818
 8662SOL    HW126885   1.755   2.985   1.773
 8662SOL    HW226886   1.748   3.069   1.913
 8663SOL     OW26887   3.660   5.832   1.885
 8663SOL    HW126888   3.684   5.784   1.970
 8663SOL    HW226889   3.586   5.783   1.839
 8664SOL     OW26890   3.499   5.760   4.729
 8664SOL    HW126891   3.402   5.735   4.739
 8664SOL    HW226892   3.510   5.858   4.749
 8665SOL     OW26893   0.611   3.060   6.533
 8665SOL    HW126894   0.562   2.975   6.552
 8665SOL    HW226895   0.709   3.046   6.550
 8666SOL     OW26896   3.823   6.950   2.273
 8666SOL    HW126897   3.761   6.892   2.326
 8666SOL    HW226898   3.814   0.018   2.304
 8667SOL     OW26899   4.190   2.253   2.141
 8667SOL    HW126900   4.140   2.317   2.082
 8667SOL    HW226901   4.129   2.216   2.210
 8668SOL     OW26902   3.421   1.843   3.236
 8668SOL    HW126903   3.454   1.752   3.212
 8668SOL    HW226904   3.472   1.912   3.184
 8669SOL     OW26905   0.175   6.195   6.357
 8669SOL    HW126906   0.115   6.116   6.350
 8669SOL    HW226907   0.153   6.260   6.284
 8670SOL     OW26908   6.656   5.141   5.363
 8670SOL    HW126909   6.727   5.163   5.429
 8670SOL    HW226910   6.697   5.134   5.272
 8671SOL     OW26911   6.738   3.946   3.272
 8671SOL    HW126912   6.729   3.846   3.271
 8671SOL    HW226913   6.823   3.972   3.225
 8672SOL     OW26914   6.339   0.974   1.890
 8672SOL    HW126915   6.418   0.940   1.840
 8672SOL    HW226916   6.270   0.902   1.898
 8673SOL     OW26917   6.827   1.025   2.292
 8673SOL    HW126918   6.887   1.070   2.358
 8673SOL    HW226919   6.861   0.933   2.272
 8674SOL     OW26920   0.491   2.545   3.798
 8674SOL    HW126921   0.450   2.524   3.887
 8674SOL    HW226922   0.547   2.627   3.807
 8675SOL     OW26923   5.730   2.594   4.610
 8675SOL    HW126924   5.718   2.495   4.605
 8675SOL    HW226925   5.827   2.615   4.618
 8676SOL     OW26926   5.651   2.699   1.207
 8676SOL    HW126927   5.700   2.686   1.121
 8676SOL    HW226928   5.555   2.716   1.188
 8677SOL     OW26929   3.114   1.604   6.921
 8677SOL    HW126930   3.074   1.556   6.999
 8677SOL    HW226931   3.104   1.703   6.933
 8678SOL     OW26932   2.423   2.200   0.016
 8678SOL    HW126933   2.484   2.161   0.085
 8678SOL    HW226934   2.363   2.128   7.007
 8679SOL     OW26935   1.950   2.396   6.809
 8679SOL    HW126936   1.906   2.306   6.806
 8679SOL    HW226937   1.881   2.468   6.799
 8680SOL     OW26938   6.921   0.050   0.975
 8680SOL    HW126939   6.941   6.985   0.942
 8680SOL    HW226940   7.001   0.108   0.963
 8681SOL     OW26941   5.704   5.251   1.537
 8681SOL    HW126942   5.605   5.258   1.522
 8681SOL    HW226943   5.752   5.268   1.451
 8682SOL     OW26944   1.414   2.261   1.436
 8682SOL    HW126945   1.317   2.247   1.416
 8682SOL    HW226946   1.458   2.308   1.359
 8683SOL     OW26947   2.762   4.942   4.400
 8683SOL    HW126948   2.835   4.989   4.350
 8683SOL    HW226949   2.773   4.960   4.498
 8684SOL     OW26950   2.540   4.729   3.823
 8684SOL    HW126951   2.508   4.635   3.817
 8684SOL    HW226952   2.622   4.739   3.767
 8685SOL     OW26953   4.018   3.408   5.369
 8685SOL    HW126954   3.923   3.407   5.399
 8685SOL    HW226955   4.042   3.318   5.333
 8686SOL     OW26956   0.486   4.809   2.592
 8686SOL    HW126957   0.497   4.907   2.606
 8686SOL    HW226958   0.492   4.762   2.680
 8687SOL     OW26959   5.306   3.105   5.526
 8687SOL    HW126960   5.364   3.066   5.455
 8687SOL    HW226961   5.212   3.110   5.493
 8688SOL     OW26962   1.631   3.235   4.275
 8688SOL    HW126963   1.545   3.284   4.262
 8688SOL    HW226964   1.631   3.193   4.366
 8689SOL     OW26965   5.229   3.365   0.650
 8689SOL    HW126966   5.202   3.291   0.711
 8689SOL    HW226967   5.210   3.453   0.693
 8690SOL     OW26968   1.291   2.812   2.783
 8690SOL    HW126969   1.265   2.745   2.715
 8690SOL    HW226970   1.386   2.839   2.769
 8691SOL     OW26971   4.316   1.253   6.655
 8691SOL    HW126972   4.369   1.248   6.570
 8691SOL    HW226973   4.220   1.236   6.634
 8692SOL     OW26974   5.605   2.068   4.803
 8692SOL    HW126975   5.526   2.088   4.862
 8692SOL    HW226976   5.690   2.084   4.854
 8693SOL     OW26977   1.148   0.750   5.025
 8693SOL    HW126978   1.056   0.714   5.010
 8693SOL    HW226979   1.178   0.801   4.944
 8694SOL     OW26980   3.157   3.645   6.038
 8694SOL    HW126981   3.202   3.731   6.061
 8694SOL    HW226982   3.225   3.571   6.034
 8695SOL     OW26983   4.209   4.028   1.320
 8695SOL    HW126984   4.227   4.078   1.405
 8695SOL    HW226985   4.240   3.933   1.330
 8696SOL     OW26986   2.593   4.453   6.718
 8696SOL    HW126987   2.682   4.442   6.761
 8696SOL    HW226988   2.597   4.418   6.624
 8697SOL     OW26989   0.941   3.283   4.792
 8697SOL    HW126990   0.853   3.263   4.836
 8697SOL    HW226991   0.950   3.230   4.708
 8698SOL     OW26992   5.259   4.628   6.750
 8698SOL    HW126993   5.357   4.612   6.749
 8698SOL    HW226994   5.241   4.724   6.774
 8699SOL     OW26995   2.033   1.597   1.416
 8699SOL    HW126996   2.089   1.566   1.494
 8699SOL    HW226997   2.093   1.627   1.342
 8700SOL     OW26998   0.576   2.647   5.057
 8700SOL    HW126999   0.535   2.657   4.966
 8700SOL    HW227000   0.525   2.578   5.109
 8701SOL     OW27001   2.758   3.096   0.260
 8701SOL    HW127002   2.836   3.143   0.302
 8701SOL    HW227003   2.739   3.012   0.310
 8702SOL     OW27004   4.970   4.230   0.409
 8702SOL    HW127005   5.020   4.284   0.342
 8702SOL    HW227006   4.926   4.291   0.475
 8703SOL     OW27007   2.252   5.550   0.653
 8703SOL    HW127008   2.316   5.485   0.611
 8703SOL    HW227009   2.158   5.523   0.632
 8704SOL     OW27010   6.630   1.750   3.856
 8704SOL    HW127011   6.565   1.703   3.915
 8704SOL    HW227012   6.690   1.809   3.911
 8705SOL     OW27013   3.395   2.166   0.585
 8705SOL    HW127014   3.462   2.241   0.579
 8705SOL    HW227015   3.388   2.135   0.680
 8706SOL     OW27016   5.122   3.272   5.008
 8706SOL    HW127017   5.044   3.308   4.957
 8706SOL    HW227018   5.118   3.172   5.008
 8707SOL     OW27019   1.599   0.517   3.151
 8707SOL    HW127020   1.621   0.573   3.231
 8707SOL    HW227021   1.630   0.563   3.068
 8708SOL     OW27022   5.392   2.101   0.216
 8708SOL    HW127023   5.468   2.040   0.239
 8708SOL    HW227024   5.335   2.057   0.146
 8709SOL     OW27025   5.959   6.104   4.222
 8709SOL    HW127026   5.964   6.119   4.123
 8709SOL    HW227027   5.892   6.166   4.262
 8710SOL     OW27028   1.798   2.738   3.412
 8710SOL    HW127029   1.767   2.646   3.439
 8710SOL    HW227030   1.728   2.780   3.354
 8711SOL     OW27031   0.676   1.985   2.482
 8711SOL    HW127032   0.649   1.906   2.427
 8711SOL    HW227033   0.602   2.009   2.545
 8712SOL     OW27034   1.143   3.990   4.231
 8712SOL    HW127035   1.090   3.950   4.305
 8712SOL    HW227036   1.211   4.053   4.269
 8713SOL     OW27037   0.405   4.246   4.502
 8713SOL    HW127038   0.459   4.320   4.541
 8713SOL    HW227039   0.315   4.244   4.546
 8714SOL     OW27040   1.484   3.483   6.264
 8714SOL    HW127041   1.491   3.556   6.332
 8714SOL    HW227042   1.524   3.399   6.302
 8715SOL     OW27043   2.228   4.751   1.380
 8715SOL    HW127044   2.188   4.713   1.463
 8715SOL    HW227045   2.296   4.821   1.405
 8716SOL     OW27046   5.630   6.916   2.766
 8716SOL    HW127047   5.534   6.888   2.777
 8716SOL    HW227048   5.680   6.899   2.851
 8717SOL     OW27049   4.974   1.633   6.524
 8717SOL    HW127050   4.895   1.693   6.524
 8717SOL    HW227051   5.032   1.654   6.603
 8718SOL     OW27052   2.523   5.047   6.224
 8718SOL    HW127053   2.603   5.089   6.268
 8718SOL    HW227054   2.543   5.029   6.128
 8719SOL     OW27055   3.124   1.743   4.250
 8719SOL    HW127056   3.077   1.831   4.248
 8719SOL    HW227057   3.160   1.722   4.160
 8720SOL     OW27058   0.385   6.800   4.917
 8720SOL    HW127059   0.328   6.737   4.970
 8720SOL    HW227060   0.336   6.826   4.833
 8721SOL     OW27061   0.652   0.677   1.856
 8721SOL    HW127062   0.653   0.716   1.764
 8721SOL    HW227063   0.679   0.747   1.922
 8722SOL     OW27064   3.611   1.247   0.638
 8722SOL    HW127065   3.538   1.310   0.613
 8722SOL    HW227066   3.576   1.153   0.636
 8723SOL     OW27067   2.903   6.325   3.619
 8723SOL    HW127068   2.848   6.294   3.541
 8723SOL    HW227069   3.000   6.321   3.596
 8724SOL     OW27070   5.796   6.793   5.091
 8724SOL    HW127071   5.710   6.833   5.061
 8724SOL    HW227072   5.778   6.706   5.137
 8725SOL     OW27073   6.500   1.050   2.675
 8725SOL    HW127074   6.544   0.962   2.660
 8725SOL    HW227075   6.505   1.105   2.592
 8726SOL     OW27076   6.598   6.913   1.243
 8726SOL    HW127077   6.587   7.012   1.245
 8726SOL    HW227078   6.556   6.876   1.160
 8727SOL     OW27079   4.767   5.168   6.451
 8727SOL    HW127080   4.826   5.246   6.427
 8727SOL    HW227081   4.781   5.095   6.384
 8728SOL     OW27082   5.109   0.314   3.891
 8728SOL    HW127083   5.038   0.261   3.935
 8728SOL    HW227084   5.075   0.406   3.872
 8729SOL     OW27085   5.547   5.625   6.324
 8729SOL    HW127086   5.580   5.554   6.262
 8729SOL    HW227087   5.499   5.695   6.272
 8730SOL     OW27088   4.053   4.717   1.855
 8730SOL    HW127089   4.050   4.654   1.778
 8730SOL    HW227090   4.147   4.749   1.868
 8731SOL     OW27091   0.246   2.708   3.731
 8731SOL    HW127092   0.280   2.618   3.756
 8731SOL    HW227093   0.147   2.703   3.715
 8732SOL     OW27094   5.530   6.481   5.535
 8732SOL    HW127095   5.435   6.512   5.539
 8732SOL    HW227096   5.560   6.454   5.627
 8733SOL     OW27097   6.032   4.022   1.792
 8733SOL    HW127098   6.029   3.928   1.757
 8733SOL    HW227099   5.944   4.046   1.832
 8734SOL     OW27100   6.838   6.514   0.707
 8734SOL    HW127101   6.753   6.565   0.724
 8734SOL    HW227102   6.911   6.579   0.687
 8735SOL     OW27103   1.564   1.976   6.731
 8735SOL    HW127104   1.585   2.014   6.641
 8735SOL    HW227105   1.485   2.024   6.770
 8736SOL     OW27106   0.375   6.163   3.808
 8736SOL    HW127107   0.417   6.239   3.857
 8736SOL    HW227108   0.406   6.077   3.847
 8737SOL     OW27109   0.813   5.829   6.496
 8737SOL    HW127110   0.880   5.903   6.487
 8737SOL    HW227111   0.735   5.848   6.436
 8738SOL     OW27112   1.318   2.158   1.950
 8738SOL    HW127113   1.297   2.060   1.948
 8738SOL    HW227114   1.417   2.171   1.942
 8739SOL     OW27115   5.048   4.805   3.238
 8739SOL    HW127116   4.969   4.760   3.279
 8739SOL    HW227117   5.034   4.904   3.241
 8740SOL     OW27118   1.715   0.612   2.910
 8740SOL    HW127119   1.812   0.603   2.931
 8740SOL    HW227120   1.703   0.641   2.815
 8741SOL     OW27121   1.746   2.477   2.646
 8741SOL    HW127122   1.829   2.471   2.701
 8741SOL    HW227123   1.694   2.392   2.655
 8742SOL     OW27124   1.409   3.572   0.321
 8742SOL    HW127125   1.413   3.605   0.416
 8742SOL    HW227126   1.363   3.640   0.264
 8743SOL     OW27127   2.183   2.718   0.320
 8743SOL    HW127128   2.131   2.801   0.340
 8743SOL    HW227129   2.126   2.638   0.339
 8744SOL     OW27130   2.768   4.172   5.510
 8744SOL    HW127131   2.784   4.078   5.540
 8744SOL    HW227132   2.780   4.234   5.587
 8745SOL     OW27133   5.504   0.727   0.044
 8745SOL    HW127134   5.503   0.728   0.144
 8745SOL    HW227135   5.444   0.799   0.009
 8746SOL     OW27136   4.572   4.774   4.706
 8746SOL    HW127137   4.545   4.678   4.717
 8746SOL    HW227138   4.523   4.814   4.629
 8747SOL     OW27139   6.650   6.560   1.433
 8747SOL    HW127140   6.644   6.517   1.523
 8747SOL    HW227141   6.694   6.649   1.442
 8748SOL     OW27142   5.662   2.378   5.209
 8748SOL    HW127143   5.696   2.298   5.258
 8748SOL    HW227144   5.606   2.433   5.272
 8749SOL     OW27145   1.651   1.428   3.906
 8749SOL    HW127146   1.738   1.464   3.940
 8749SOL    HW227147   1.575   1.474   3.952
 8750SOL     OW27148   3.717   4.078   2.328
 8750SOL    HW127149   3.637   4.062   2.270
 8750SOL    HW227150   3.777   4.144   2.283
 8751SOL     OW27151   1.267   6.688   6.913
 8751SOL    HW127152   1.233   6.645   6.830
 8751SOL    HW227153   1.298   6.618   6.978
 8752SOL     OW27154   0.941   2.606   7.001
 8752SOL    HW127155   0.843   2.589   6.990
 8752SOL    HW227156   0.986   2.523   0.005
 8753SOL     OW27157   2.162   1.832   1.298
 8753SOL    HW127158   2.204   1.869   1.380
 8753SOL    HW227159   2.068   1.865   1.290
 8754SOL     OW27160   1.820   6.403   0.012
 8754SOL    HW127161   1.833   6.500   0.028
 8754SOL    HW227162   1.880   6.373   6.964
 8755SOL     OW27163   6.107   1.215   1.569
 8755SOL    HW127164   6.059   1.132   1.594
 8755SOL    HW227165   6.097   1.283   1.643
 8756SOL     OW27166   1.699   1.051   2.030
 8756SOL    HW127167   1.658   1.029   1.942
 8756SOL    HW227168   1.637   1.108   2.083
 8757SOL     OW27169   5.204   5.862   6.041
 8757SOL    HW127170   5.157   5.781   6.008
 8757SOL    HW227171   5.277   5.835   6.104
 8758SOL     OW27172   3.932   5.037   6.696
 8758SOL    HW127173   3.987   5.114   6.727
 8758SOL    HW227174   3.837   5.067   6.683
 8759SOL     OW27175   6.810   0.713   1.606
 8759SOL    HW127176   6.777   0.652   1.678
 8759SOL    HW227177   6.761   0.693   1.521
 8760SOL     OW27178   1.582   2.407   4.316
 8760SOL    HW127179   1.519   2.330   4.304
 8760SOL    HW227180   1.535   2.481   4.365
 8761SOL     OW27181   5.064   2.677   4.266
 8761SOL    HW127182   5.057   2.706   4.171
 8761SOL    HW227183   5.155   2.701   4.301
 8762SOL     OW27184   3.879   6.352   2.503
 8762SOL    HW127185   3.883   6.377   2.600
 8762SOL    HW227186   3.944   6.277   2.486
 8763SOL     OW27187   6.489   1.904   5.523
 8763SOL    HW127188   6.390   1.911   5.533
 8763SOL    HW227189   6.531   1.993   5.544
 8764SOL     OW27190   2.255   5.373   5.674
 8764SOL    HW127191   2.207   5.291   5.645
 8764SOL    HW227192   2.317   5.403   5.602
 8765SOL     OW27193   4.822   0.106   3.264
 8765SOL    HW127194   4.735   0.154   3.269
 8765SOL    HW227195   4.832   0.046   3.344
 8766SOL     OW27196   6.449   0.567   4.848
 8766SOL    HW127197   6.545   0.541   4.860
 8766SOL    HW227198   6.401   0.496   4.796
 8767SOL     OW27199   1.761   1.303   5.075
 8767SOL    HW127200   1.835   1.278   5.136
 8767SOL    HW227201   1.732   1.223   5.023
 8768SOL     OW27202   0.170   2.487   6.937
 8768SOL    HW127203   0.200   2.510   0.003
 8768SOL    HW227204   0.134   2.394   6.936
 8769SOL     OW27205   0.433   0.412   6.883
 8769SOL    HW127206   0.344   0.457   6.890
 8769SOL    HW227207   0.488   0.457   6.813
 8770SOL     OW27208   4.258   1.821   0.951
 8770SOL    HW127209   4.234   1.790   0.858
 8770SOL    HW227210   4.175   1.834   1.004
 8771SOL     OW27211   0.668   2.569   6.895
 8771SOL    HW127212   0.598   2.513   6.938
 8771SOL    HW227213   0.640   2.665   6.897
 8772SOL     OW27214   6.618   0.090   3.413
 8772SOL    HW127215   6.610   0.004   3.363
 8772SOL    HW227216   6.574   0.081   3.502
 8773SOL     OW27217   6.366   1.618   4.324
 8773SOL    HW127218   6.372   1.680   4.402
 8773SOL    HW227219   6.421   1.536   4.342
 8774SOL     OW27220   1.088   2.212   6.908
 8774SOL    HW127221   1.085   2.273   6.987
 8774SOL    HW227222   1.016   2.237   6.843
 8775SOL     OW27223   4.666   2.009   2.497
 8775SOL    HW127224   4.569   1.985   2.500
 8775SOL    HW227225   4.677   2.103   2.530
 8776SOL     OW27226   5.964   3.022   0.671
 8776SOL    HW127227   5.989   2.995   0.764
 8776SOL    HW227228   6.025   3.095   0.641
 8777SOL     OW27229   6.485   2.522   4.698
 8777SOL    HW127230   6.512   2.613   4.664
 8777SOL    HW227231   6.392   2.526   4.732
 8778SOL     OW27232   1.663   4.334   5.373
 8778SOL    HW127233   1.679   4.325   5.275
 8778SOL    HW227234   1.747   4.363   5.418
 8779SOL     OW27235   2.814   6.711   3.688
 8779SOL    HW127236   2.799   6.732   3.592
 8779SOL    HW227237   2.782   6.618   3.707
 8780SOL     OW27238   1.389   3.359   4.188
 8780SOL    HW127239   1.392   3.425   4.262
 8780SOL    HW227240   1.361   3.405   4.104
 8781SOL     OW27241   3.876   0.605   2.468
 8781SOL    HW127242   3.836   0.620   2.377
 8781SOL    HW227243   3.963   0.557   2.459
 8782SOL     OW27244   0.337   2.757   6.869
 8782SOL    HW127245   0.275   2.679   6.878
 8782SOL    HW227246   0.283   2.841   6.865
 8783SOL     OW27247   3.361   4.064   6.507
 8783SOL    HW127248   3.438   4.001   6.511
 8783SOL    HW227249   3.390   4.155   6.537
 8784SOL     OW27250   4.784   2.011   5.749
 8784SOL    HW127251   4.833   2.010   5.836
 8784SOL    HW227252   4.803   2.096   5.701
 8785SOL     OW27253   0.137   6.868   6.096
 8785SOL    HW127254   0.044   6.888   6.126
 8785SOL    HW227255   0.203   6.916   6.155
 8786SOL     OW27256   4.256   2.319   3.240
 8786SOL    HW127257   4.340   2.269   3.218
 8786SOL    HW227258   4.258   2.409   3.196
 8787SOL     OW27259   3.038   5.618   2.515
 8787SOL    HW127260   3.121   5.642   2.565
 8787SOL    HW227261   2.979   5.698   2.509
 8788SOL     OW27262   6.371   0.659   3.159
 8788SOL    HW127263   6.459   0.631   3.121
 8788SOL    HW227264   6.351   0.604   3.241
 8789SOL     OW27265   1.892   4.171   6.926
 8789SOL    HW127266   1.950   4.219   6.992
 8789SOL    HW227267   1.824   4.233   6.888
 8790SOL     OW27268   4.858   3.634   5.316
 8790SOL    HW127269   4.941   3.594   5.278
 8790SOL    HW227270   4.782   3.623   5.252
 8791SOL     OW27271   3.653   6.952   5.167
 8791SOL    HW127272   3.664   6.887   5.092
 8791SOL    HW227273   3.722   6.935   5.237
 8792SOL     OW27274   5.135   4.035   1.019
 8792SOL    HW127275   5.100   4.073   0.933
 8792SOL    HW227276   5.063   3.981   1.063
 8793SOL     OW27277   6.782   0.959   4.902
 8793SOL    HW127278   6.698   0.908   4.882
 8793SOL    HW227279   6.859   0.916   4.854
 8794SOL     OW27280   1.550   2.858   2.801
 8794SOL    HW127281   1.559   2.824   2.894
 8794SOL    HW227282   1.604   2.941   2.790
 8795SOL     OW27283   1.014   0.450   6.527
 8795SOL    HW127284   0.981   0.422   6.617
 8795SOL    HW227285   0.995   0.547   6.512
 8796SOL     OW27286   5.985   5.459   4.039
 8796SOL    HW127287   5.958   5.541   4.089
 8796SOL    HW227288   6.055   5.410   4.091
 8797SOL     OW27289   5.657   5.412   6.199
 8797SOL    HW127290   5.705   5.426   6.112
 8797SOL    HW227291   5.719   5.368   6.264
 8798SOL     OW27292   2.048   5.099   6.972
 8798SOL    HW127293   2.127   5.149   6.936
 8798SOL    HW227294   2.080   5.016   7.018
 8799SOL     OW27295   0.533   5.800   2.387
 8799SOL    HW127296   0.504   5.715   2.344
 8799SOL    HW227297   0.454   5.846   2.427
 8800SOL     OW27298   6.996   6.671   4.569
 8800SOL    HW127299   6.929   6.630   4.508
 8800SOL    HW227300   0.020   6.598   4.615
 8801SOL     OW27301   5.678   3.244   5.902
 8801SOL    HW127302   5.692   3.193   5.817
 8801SOL    HW227303   5.625   3.188   5.966
 8802SOL     OW27304   1.266   6.272   6.805
 8802SOL    HW127305   1.353   6.294   6.849
 8802SOL    HW227306   1.283   6.227   6.717
 8803SOL     OW27307   4.974   4.883   4.849
 8803SOL    HW127308   5.057   4.935   4.829
 8803SOL    HW227309   4.914   4.938   4.907
 8804SOL     OW27310   2.075   6.152   1.506
 8804SOL    HW127311   2.039   6.234   1.550
 8804SOL    HW227312   2.062   6.073   1.566
 8805SOL     OW27313   4.815   5.446   0.441
 8805SOL    HW127314   4.729   5.400   0.419
 8805SOL    HW227315   4.886   5.415   0.377
 8806SOL     OW27316   1.575   1.098   1.743
 8806SOL    HW127317   1.517   1.026   1.780
 8806SOL    HW227318   1.544   1.187   1.777
 8807SOL     OW27319   5.231   1.255   1.439
 8807SOL    HW127320   5.187   1.344   1.453
 8807SOL    HW227321   5.262   1.248   1.344
 8808SOL     OW27322   1.824   1.580   0.644
 8808SOL    HW127323   1.850   1.655   0.583
 8808SOL    HW227324   1.745   1.607   0.699
 8809SOL     OW27325   1.384   3.256   2.631
 8809SOL    HW127326   1.415   3.170   2.592
 8809SOL    HW227327   1.379   3.325   2.559
 8810SOL     OW27328   6.609   2.696   3.613
 8810SOL    HW127329   6.586   2.622   3.676
 8810SOL    HW227330   6.594   2.784   3.659
 8811SOL     OW27331   3.496   6.018   2.443
 8811SOL    HW127332   3.492   6.055   2.536
 8811SOL    HW227333   3.592   6.006   2.417
 8812SOL     OW27334   5.775   0.825   6.989
 8812SOL    HW127335   5.773   0.921   7.014
 8812SOL    HW227336   5.694   0.779   7.026
 8813SOL     OW27337   1.542   2.611   1.037
 8813SOL    HW127338   1.457   2.583   0.993
 8813SOL    HW227339   1.615   2.613   0.969
 8814SOL     OW27340   6.136   1.009   4.292
 8814SOL    HW127341   6.146   0.910   4.289
 8814SOL    HW227342   6.108   1.042   4.202
 8815SOL     OW27343   5.008   0.754   1.401
 8815SOL    HW127344   4.925   0.741   1.456
 8815SOL    HW227345   5.045   0.846   1.417
 8816SOL     OW27346   6.374   1.508   2.761
 8816SOL    HW127347   6.388   1.449   2.841
 8816SOL    HW227348   6.435   1.480   2.688
 8817SOL     OW27349   0.859   2.150   4.314
 8817SOL    HW127350   0.863   2.105   4.403
 8817SOL    HW227351   0.868   2.249   4.327
 8818SOL     OW27352   1.652   5.505   6.387
 8818SOL    HW127353   1.742   5.462   6.397
 8818SOL    HW227354   1.609   5.513   6.477
 8819SOL     OW27355   5.248   5.962   6.846
 8819SOL    HW127356   5.269   5.865   6.832
 8819SOL    HW227357   5.311   6.000   6.914
 8820SOL     OW27358   3.672   6.437   5.499
 8820SOL    HW127359   3.577   6.456   5.474
 8820SOL    HW227360   3.685   6.455   5.597
 8821SOL     OW27361   1.751   5.360   5.404
 8821SOL    HW127362   1.677   5.322   5.350
 8821SOL    HW227363   1.835   5.309   5.386
 8822SOL     OW27364   0.288   0.849   5.127
 8822SOL    HW127365   0.262   0.843   5.224
 8822SOL    HW227366   0.308   0.758   5.092
 8823SOL     OW27367   4.570   2.579   3.446
 8823SOL    HW127368   4.658   2.628   3.441
 8823SOL    HW227369   4.526   2.583   3.356
 8824SOL     OW27370   1.124   0.343   3.258
 8824SOL    HW127371   1.216   0.347   3.299
 8824SOL    HW227372   1.096   0.248   3.249
 8825SOL     OW27373   1.647   6.423   6.447
 8825SOL    HW127374   1.747   6.419   6.451
 8825SOL    HW227375   1.620   6.482   6.371
 8826SOL     OW27376   0.971   2.847   0.116
 8826SOL    HW127377   0.948   2.755   0.083
 8826SOL    HW227378   0.905   2.875   0.185
 8827SOL     OW27379   4.926   6.681   4.078
 8827SOL    HW127380   4.988   6.664   4.001
 8827SOL    HW227381   4.975   6.724   4.153
 8828SOL     OW27382   5.031   2.787   5.873
 8828SOL    HW127383   5.019   2.886   5.884
 8828SOL    HW227384   5.124   2.762   5.899
 8829SOL     OW27385   6.200   0.540   2.749
 8829SOL    HW127386   6.231   0.528   2.844
 8829SOL    HW227387   6.228   0.631   2.717
 8830SOL     OW27388   2.715   2.228   2.718
 8830SOL    HW127389   2.642   2.294   2.704
 8830SOL    HW227390   2.751   2.238   2.811
 8831SOL     OW27391   0.275   1.982   2.593
 8831SOL    HW127392   0.229   2.026   2.515
 8831SOL    HW227393   0.315   2.052   2.652
 8832SOL     OW27394   6.119   0.042   5.080
 8832SOL    HW127395   6.056   0.119   5.072
 8832SOL    HW227396   6.213   0.074   5.064
 8833SOL     OW27397   4.900   2.844   1.228
 8833SOL    HW127398   4.835   2.888   1.166
 8833SOL    HW227399   4.973   2.801   1.174
 8834SOL     OW27400   6.375   4.038   5.777
 8834SOL    HW127401   6.416   4.022   5.867
 8834SOL    HW227402   6.279   4.065   5.788
 8835SOL     OW27403   5.998   1.468   5.294
 8835SOL    HW127404   6.001   1.557   5.249
 8835SOL    HW227405   5.962   1.400   5.231
 8836SOL     OW27406   4.191   1.372   0.150
 8836SOL    HW127407   4.232   1.372   0.241
 8836SOL    HW227408   4.260   1.342   0.083
 8837SOL     OW27409   5.809   5.323   1.310
 8837SOL    HW127410   5.815   5.254   1.238
 8837SOL    HW227411   5.790   5.412   1.269
 8838SOL     OW27412   0.817   2.672   1.887
 8838SOL    HW127413   0.740   2.697   1.827
 8838SOL    HW227414   0.812   2.575   1.909
 8839SOL     OW27415   4.650   4.479   1.845
 8839SOL    HW127416   4.600   4.421   1.909
 8839SOL    HW227417   4.671   4.427   1.762
 8840SOL     OW27418   0.301   6.734   0.945
 8840SOL    HW127419   0.215   6.774   0.975
 8840SOL    HW227420   0.335   6.672   1.016
 8841SOL     OW27421   4.737   2.121   0.567
 8841SOL    HW127422   4.656   2.072   0.597
 8841SOL    HW227423   4.789   2.153   0.647
 8842SOL     OW27424   3.160   2.969   3.463
 8842SOL    HW127425   3.186   2.990   3.558
 8842SOL    HW227426   3.242   2.966   3.406
 8843SOL     OW27427   2.476   6.370   5.000
 8843SOL    HW127428   2.441   6.456   4.961
 8843SOL    HW227429   2.523   6.389   5.086
 8844SOL     OW27430   4.060   2.480   5.352
 8844SOL    HW127431   4.113   2.544   5.295
 8844SOL    HW227432   4.093   2.484   5.446
 8845SOL     OW27433   0.109   3.631   2.378
 8845SOL    HW127434   0.151   3.595   2.295
 8845SOL    HW227435   0.140   3.578   2.457
 8846SOL     OW27436   5.079   5.631   4.171
 8846SOL    HW127437   5.004   5.669   4.226
 8846SOL    HW227438   5.130   5.706   4.129
 8847SOL     OW27439   1.105   3.152   3.636
 8847SOL    HW127440   1.143   3.184   3.549
 8847SOL    HW227441   1.083   3.054   3.629
 8848SOL     OW27442   6.393   2.697   1.377
 8848SOL    HW127443   6.422   2.624   1.438
 8848SOL    HW227444   6.473   2.746   1.342
 8849SOL     OW27445   3.700   5.091   4.466
 8849SOL    HW127446   3.687   5.155   4.391
 8849SOL    HW227447   3.687   5.138   4.553
 8850SOL     OW27448   4.432   1.456   1.295
 8850SOL    HW127449   4.522   1.473   1.334
 8850SOL    HW227450   4.426   1.499   1.205
 8851SOL     OW27451   6.574   5.097   3.586
 8851SOL    HW127452   6.629   5.019   3.616
 8851SOL    HW227453   6.545   5.150   3.665
 8852SOL     OW27454   5.804   4.689   4.426
 8852SOL    HW127455   5.802   4.727   4.518
 8852SOL    HW227456   5.714   4.653   4.402
 8853SOL     OW27457   4.463   1.749   4.425
 8853SOL    HW127458   4.520   1.809   4.482
 8853SOL    HW227459   4.409   1.689   4.484
 8854SOL     OW27460   2.754   0.567   6.650
 8854SOL    HW127461   2.699   0.590   6.730
 8854SOL    HW227462   2.842   0.530   6.680
 8855SOL     OW27463   6.746   4.530   6.410
 8855SOL    HW127464   6.778   4.535   6.315
 8855SOL    HW227465   6.824   4.511   6.470
 8856SOL     OW27466   5.490   1.583   6.217
 8856SOL    HW127467   5.496   1.499   6.272
 8856SOL    HW227468   5.444   1.563   6.131
 8857SOL     OW27469   1.699   3.407   4.601
 8857SOL    HW127470   1.633   3.367   4.665
 8857SOL    HW227471   1.768   3.338   4.578
 8858SOL     OW27472   1.663   3.428   5.946
 8858SOL    HW127473   1.706   3.337   5.943
 8858SOL    HW227474   1.637   3.455   5.854
 8859SOL     OW27475   2.931   5.329   4.727
 8859SOL    HW127476   2.869   5.286   4.661
 8859SOL    HW227477   2.919   5.285   4.816
 8860SOL     OW27478   2.506   0.932   1.815
 8860SOL    HW127479   2.412   0.941   1.784
 8860SOL    HW227480   2.541   1.022   1.842
 8861SOL     OW27481   2.365   1.038   0.095
 8861SOL    HW127482   2.407   1.128   0.091
 8861SOL    HW227483   2.392   0.985   0.015
 8862SOL     OW27484   0.664   3.516   3.587
 8862SOL    HW127485   0.578   3.477   3.553
 8862SOL    HW227486   0.645   3.568   3.671
 8863SOL     OW27487   1.658   5.864   4.980
 8863SOL    HW127488   1.599   5.845   5.058
 8863SOL    HW227489   1.670   5.781   4.926
 8864SOL     OW27490   2.160   3.803   5.164
 8864SOL    HW127491   2.232   3.871   5.154
 8864SOL    HW227492   2.136   3.765   5.074
 8865SOL     OW27493   3.083   2.002   5.710
 8865SOL    HW127494   3.087   2.091   5.664
 8865SOL    HW227495   3.075   1.930   5.642
 8866SOL     OW27496   5.615   7.013   5.007
 8866SOL    HW127497   5.664   0.019   4.927
 8866SOL    HW227498   5.517   0.002   4.997
 8867SOL     OW27499   5.163   1.402   2.939
 8867SOL    HW127500   5.119   1.485   2.973
 8867SOL    HW227501   5.154   1.398   2.839
 8868SOL     OW27502   6.031   2.734   0.602
 8868SOL    HW127503   5.937   2.765   0.614
 8868SOL    HW227504   6.068   2.770   0.517
 8869SOL     OW27505   1.526   1.121   4.009
 8869SOL    HW127506   1.535   1.160   3.918
 8869SOL    HW227507   1.444   1.157   4.053
 8870SOL     OW27508   3.717   6.867   1.449
 8870SOL    HW127509   3.753   6.777   1.474
 8870SOL    HW227510   3.629   6.882   1.494
 8871SOL     OW27511   0.704   2.193   3.540
 8871SOL    HW127512   0.712   2.111   3.597
 8871SOL    HW227513   0.611   2.227   3.543
 8872SOL     OW27514   0.440   0.823   2.395
 8872SOL    HW127515   0.460   0.737   2.443
 8872SOL    HW227516   0.503   0.833   2.318
 8873SOL     OW27517   6.878   5.799   4.436
 8873SOL    HW127518   6.846   5.821   4.528
 8873SOL    HW227519   6.921   5.708   4.436
 8874SOL     OW27520   0.490   1.212   5.820
 8874SOL    HW127521   0.395   1.188   5.803
 8874SOL    HW227522   0.547   1.131   5.813
 8875SOL     OW27523   1.438   0.813   4.158
 8875SOL    HW127524   1.512   0.842   4.097
 8875SOL    HW227525   1.457   0.721   4.192
 8876SOL     OW27526   3.289   1.217   4.215
 8876SOL    HW127527   3.304   1.221   4.314
 8876SOL    HW227528   3.200   1.256   4.193
 8877SOL     OW27529   2.330   6.688   5.746
 8877SOL    HW127530   2.240   6.732   5.745
 8877SOL    HW227531   2.337   6.629   5.826
 8878SOL     OW27532   6.022   4.255   5.345
 8878SOL    HW127533   5.949   4.209   5.396
 8878SOL    HW227534   6.111   4.221   5.377
 8879SOL     OW27535   6.269   5.886   4.840
 8879SOL    HW127536   6.361   5.925   4.849
 8879SOL    HW227537   6.275   5.794   4.802
 8880SOL     OW27538   1.421   0.060   5.131
 8880SOL    HW127539   1.335   0.102   5.102
 8880SOL    HW227540   1.494   0.128   5.127
 8881SOL     OW27541   5.964   1.000   1.575
 8881SOL    HW127542   6.025   0.927   1.543
 8881SOL    HW227543   5.870   0.980   1.547
 8882SOL     OW27544   4.989   1.960   0.251
 8882SOL    HW127545   4.904   2.005   0.277
 8882SOL    HW227546   5.024   1.907   0.329
 8883SOL     OW27547   5.848   1.474   5.810
 8883SOL    HW127548   5.764   1.506   5.854
 8883SOL    HW227549   5.865   1.526   5.727
 8884SOL     OW27550   0.867   1.483   6.408
 8884SOL    HW127551   0.917   1.421   6.347
 8884SOL    HW227552   0.902   1.576   6.397
 8885SOL     OW27553   5.709   3.653   1.476
 8885SOL    HW127554   5.645   3.691   1.543
 8885SOL    HW227555   5.736   3.561   1.504
 8886SOL     OW27556   3.032   6.433   6.160
 8886SOL    HW127557   3.019   6.361   6.228
 8886SOL    HW227558   3.129   6.445   6.142
 8887SOL     OW27559   1.538   1.119   6.864
 8887SOL    HW127560   1.629   1.081   6.882
 8887SOL    HW227561   1.498   1.074   6.784
 8888SOL     OW27562   1.727   1.931   3.226
 8888SOL    HW127563   1.717   1.986   3.310
 8888SOL    HW227564   1.645   1.943   3.170
 8889SOL     OW27565   3.265   1.009   5.831
 8889SOL    HW127566   3.226   0.974   5.916
 8889SOL    HW227567   3.201   0.993   5.756
 8890SOL     OW27568   5.979   5.574   3.139
 8890SOL    HW127569   6.041   5.501   3.170
 8890SOL    HW227570   5.984   5.582   3.040
 8891SOL     OW27571   3.369   2.021   6.363
 8891SOL    HW127572   3.366   2.093   6.293
 8891SOL    HW227573   3.328   2.055   6.447
 8892SOL     OW27574   0.954   0.489   3.815
 8892SOL    HW127575   0.990   0.404   3.852
 8892SOL    HW227576   1.004   0.513   3.731
 8893SOL     OW27577   0.241   0.377   0.589
 8893SOL    HW127578   0.320   0.435   0.610
 8893SOL    HW227579   0.159   0.434   0.581
 8894SOL     OW27580   5.057   3.205   5.430
 8894SOL    HW127581   4.991   3.266   5.473
 8894SOL    HW227582   5.110   3.255   5.362
 8895SOL     OW27583   0.852   1.091   3.470
 8895SOL    HW127584   0.882   1.174   3.423
 8895SOL    HW227585   0.776   1.113   3.532
 8896SOL     OW27586   1.611   4.032   4.241
 8896SOL    HW127587   1.521   4.075   4.248
 8896SOL    HW227588   1.610   3.964   4.168
 8897SOL     OW27589   0.273   1.606   2.266
 8897SOL    HW127590   0.324   1.689   2.247
 8897SOL    HW227591   0.277   1.545   2.186
 8898SOL     OW27592   1.320   2.108   4.977
 8898SOL    HW127593   1.400   2.164   4.956
 8898SOL    HW227594   1.261   2.158   5.041
 8899SOL     OW27595   4.067   6.741   3.220
 8899SOL    HW127596   4.123   6.807   3.270
 8899SOL    HW227597   3.975   6.779   3.207
 8900SOL     OW27598   6.187   1.833   3.826
 8900SOL    HW127599   6.088   1.828   3.819
 8900SOL    HW227600   6.225   1.857   3.736
 8901SOL     OW27601   1.042   6.803   2.055
 8901SOL    HW127602   1.046   6.727   1.990
 8901SOL    HW227603   0.953   6.804   2.100
 8902SOL     OW27604   4.413   6.694   5.692
 8902SOL    HW127605   4.315   6.698   5.673
 8902SOL    HW227606   4.453   6.785   5.684
 8903SOL     OW27607   6.008   1.848   3.030
 8903SOL    HW127608   6.022   1.749   3.037
 8903SOL    HW227609   6.089   1.891   2.990
 8904SOL     OW27610   2.484   4.510   4.031
 8904SOL    HW127611   2.408   4.575   4.024
 8904SOL    HW227612   2.468   4.449   4.109
 8905SOL     OW27613   1.905   4.229   4.892
 8905SOL    HW127614   1.979   4.297   4.893
 8905SOL    HW227615   1.944   4.138   4.899
 8906SOL     OW27616   1.476   4.965   4.184
 8906SOL    HW127617   1.554   4.965   4.246
 8906SOL    HW227618   1.444   4.871   4.171
 8907SOL     OW27619   3.859   2.992   7.003
 8907SOL    HW127620   3.929   2.982   6.933
 8907SOL    HW227621   3.876   3.076   0.028
 8908SOL     OW27622   1.156   2.839   3.016
 8908SOL    HW127623   1.205   2.829   2.929
 8908SOL    HW227624   1.215   2.886   3.082
 8909SOL     OW27625   3.472   7.020   4.740
 8909SOL    HW127626   3.426   0.029   4.821
 8909SOL    HW227627   3.558   6.977   4.768
 8910SOL     OW27628   4.413   2.816   6.813
 8910SOL    HW127629   4.331   2.787   6.862
 8910SOL    HW227630   4.475   2.862   6.876
 8911SOL     OW27631   5.168   3.860   4.957
 8911SOL    HW127632   5.069   3.849   4.948
 8911SOL    HW227633   5.209   3.775   4.990
 8912SOL     OW27634   3.887   1.139   0.157
 8912SOL    HW127635   3.913   1.227   0.199
 8912SOL    HW227636   3.942   1.066   0.196
 8913SOL     OW27637   3.838   3.383   1.640
 8913SOL    HW127638   3.863   3.287   1.626
 8913SOL    HW227639   3.790   3.392   1.727
 8914SOL     OW27640   5.575   4.573   3.130
 8914SOL    HW127641   5.507   4.644   3.109
 8914SOL    HW227642   5.601   4.580   3.226
 8915SOL     OW27643   1.490   5.620   1.763
 8915SOL    HW127644   1.586   5.593   1.768
 8915SOL    HW227645   1.448   5.610   1.853
 8916SOL     OW27646   5.337   2.567   1.011
 8916SOL    HW127647   5.354   2.655   1.054
 8916SOL    HW227648   5.242   2.563   0.979
 8917SOL     OW27649   5.524   4.051   6.069
 8917SOL    HW127650   5.490   4.131   6.119
 8917SOL    HW227651   5.448   4.006   6.022
 8918SOL     OW27652   5.067   4.835   5.417
 8918SOL    HW127653   4.971   4.829   5.442
 8918SOL    HW227654   5.075   4.867   5.322
 8919SOL     OW27655   1.976   3.157   1.005
 8919SOL    HW127656   1.994   3.059   1.017
 8919SOL    HW227657   2.062   3.204   0.983
 8920SOL     OW27658   5.707   5.450   5.686
 8920SOL    HW127659   5.761   5.367   5.672
 8920SOL    HW227660   5.706   5.473   5.784
 8921SOL     OW27661   0.333   5.281   3.233
 8921SOL    HW127662   0.419   5.333   3.235
 8921SOL    HW227663   0.265   5.333   3.182
 8922SOL     OW27664   1.083   3.005   0.565
 8922SOL    HW127665   1.012   3.069   0.537
 8922SOL    HW227666   1.108   3.022   0.660
 8923SOL     OW27667   2.164   5.128   4.403
 8923SOL    HW127668   2.071   5.135   4.366
 8923SOL    HW227669   2.160   5.132   4.503
 8924SOL     OW27670   1.777   6.397   4.331
 8924SOL    HW127671   1.840   6.342   4.276
 8924SOL    HW227672   1.768   6.488   4.290
 8925SOL     OW27673   4.666   5.408   1.180
 8925SOL    HW127674   4.627   5.366   1.262
 8925SOL    HW227675   4.599   5.408   1.107
 8926SOL     OW27676   5.617   6.609   0.365
 8926SOL    HW127677   5.640   6.525   0.414
 8926SOL    HW227678   5.684   6.624   0.292
 8927SOL     OW27679   2.834   2.064   5.348
 8927SOL    HW127680   2.891   2.147   5.350
 8927SOL    HW227681   2.793   2.054   5.258
 8928SOL     OW27682   1.658   0.252   6.056
 8928SOL    HW127683   1.571   0.234   6.101
 8928SOL    HW227684   1.703   0.166   6.034
 8929SOL     OW27685   4.685   4.244   3.048
 8929SOL    HW127686   4.772   4.272   3.006
 8929SOL    HW227687   4.617   4.231   2.976
 8930SOL     OW27688   0.753   5.611   5.274
 8930SOL    HW127689   0.702   5.675   5.331
 8930SOL    HW227690   0.773   5.654   5.186
 8931SOL     OW27691   5.789   1.008   1.813
 8931SOL    HW127692   5.763   0.952   1.734
 8931SOL    HW227693   5.707   1.035   1.863
 8932SOL     OW27694   3.534   0.609   6.500
 8932SOL    HW127695   3.593   0.663   6.560
 8932SOL    HW227696   3.440   0.641   6.507
 8933SOL     OW27697   1.593   0.527   5.670
 8933SOL    HW127698   1.615   0.604   5.609
 8933SOL    HW227699   1.527   0.557   5.739
 8934SOL     OW27700   2.337   6.366   3.058
 8934SOL    HW127701   2.270   6.427   3.016
 8934SOL    HW227702   2.289   6.291   3.104
 8935SOL     OW27703   4.808   2.341   2.180
 8935SOL    HW127704   4.783   2.256   2.226
 8935SOL    HW227705   4.870   2.394   2.238
 8936SOL     OW27706   0.881   3.650   2.361
 8936SOL    HW127707   0.783   3.655   2.340
 8936SOL    HW227708   0.925   3.736   2.334
 8937SOL     OW27709   3.459   6.108   5.156
 8937SOL    HW127710   3.380   6.060   5.193
 8937SOL    HW227711   3.443   6.207   5.160
 8938SOL     OW27712   4.539   6.483   2.463
 8938SOL    HW127713   4.526   6.563   2.523
 8938SOL    HW227714   4.610   6.424   2.501
 8939SOL     OW27715   6.987   3.601   5.658
 8939SOL    HW127716   7.014   3.518   5.608
 8939SOL    HW227717   6.899   3.586   5.702
 8940SOL     OW27718   5.987   3.923   2.937
 8940SOL    HW127719   5.900   3.963   2.907
 8940SOL    HW227720   6.040   3.895   2.857
 8941SOL     OW27721   6.000   2.622   4.116
 8941SOL    HW127722   5.931   2.591   4.050
 8941SOL    HW227723   6.021   2.718   4.098
 8942SOL     OW27724   5.259   6.560   4.446
 8942SOL    HW127725   5.160   6.554   4.436
 8942SOL    HW227726   5.298   6.468   4.448
 8943SOL     OW27727   4.526   3.407   0.564
 8943SOL    HW127728   4.545   3.399   0.466
 8943SOL    HW227729   4.584   3.342   0.614
 8944SOL     OW27730   4.350   5.772   6.104
 8944SOL    HW127731   4.274   5.791   6.042
 8944SOL    HW227732   4.348   5.835   6.181
 8945SOL     OW27733   6.558   4.213   2.192
 8945SOL    HW127734   6.514   4.270   2.122
 8945SOL    HW227735   6.519   4.120   2.187
 8946SOL     OW27736   3.994   1.857   3.790
 8946SOL    HW127737   3.913   1.915   3.799
 8946SOL    HW227738   4.045   1.858   3.876
 8947SOL     OW27739   3.319   5.467   0.566
 8947SOL    HW127740   3.379   5.420   0.502
 8947SOL    HW227741   3.308   5.410   0.648
 8948SOL     OW27742   5.782   6.838   2.965
 8948SOL    HW127743   5.842   6.769   2.923
 8948SOL    HW227744   5.832   6.885   3.038
 8949SOL     OW27745   3.636   6.252   0.793
 8949SOL    HW127746   3.690   6.287   0.717
 8949SOL    HW227747   3.686   6.178   0.838
 8950SOL     OW27748   3.299   3.489   3.672
 8950SOL    HW127749   3.327   3.451   3.760
 8950SOL    HW227750   3.305   3.419   3.601
 8951SOL     OW27751   0.619   0.675   4.137
 8951SOL    HW127752   0.593   0.660   4.233
 8951SOL    HW227753   0.696   0.616   4.114
 8952SOL     OW27754   1.807   4.227   4.504
 8952SOL    HW127755   1.894   4.218   4.454
 8952SOL    HW227756   1.735   4.257   4.441
 8953SOL     OW27757   2.183   5.221   0.541
 8953SOL    HW127758   2.138   5.274   0.469
 8953SOL    HW227759   2.261   5.274   0.577
 8954SOL     OW27760   2.069   3.793   5.445
 8954SOL    HW127761   2.057   3.882   5.490
 8954SOL    HW227762   2.129   3.805   5.366
 8955SOL     OW27763   6.769   2.558   6.477
 8955SOL    HW127764   6.844   2.578   6.540
 8955SOL    HW227765   6.796   2.582   6.384
 8956SOL     OW27766   1.165   6.417   0.865
 8956SOL    HW127767   1.132   6.339   0.813
 8956SOL    HW227768   1.212   6.384   0.948
 8957SOL     OW27769   0.497   0.080   4.118
 8957SOL    HW127770   0.525   0.172   4.143
 8957SOL    HW227771   0.397   0.072   4.127
 8958SOL     OW27772   0.304   2.999   4.469
 8958SOL    HW127773   0.392   3.018   4.514
 8958SOL    HW227774   0.302   3.042   4.379
 8959SOL     OW27775   5.843   1.531   3.582
 8959SOL    HW127776   5.784   1.524   3.662
 8959SOL    HW227777   5.934   1.496   3.604
 8960SOL     OW27778   3.510   6.758   1.629
 8960SOL    HW127779   3.473   6.732   1.540
 8960SOL    HW227780   3.572   6.687   1.662
 8961SOL     OW27781   2.171   2.531   5.515
 8961SOL    HW127782   2.197   2.464   5.584
 8961SOL    HW227783   2.169   2.489   5.425
 8962SOL     OW27784   6.877   5.452   0.487
 8962SOL    HW127785   6.944   5.387   0.450
 8962SOL    HW227786   6.879   5.536   0.433
 8963SOL     OW27787   2.265   5.144   5.131
 8963SOL    HW127788   2.322   5.068   5.101
 8963SOL    HW227789   2.292   5.174   5.222
 8964SOL     OW27790   1.708   3.677   3.985
 8964SOL    HW127791   1.790   3.734   3.992
 8964SOL    HW227792   1.718   3.598   4.046
 8965SOL     OW27793   3.087   6.856   6.268
 8965SOL    HW127794   3.073   6.944   6.225
 8965SOL    HW227795   3.077   6.783   6.201
 8966SOL     OW27796   4.009   6.734   5.304
 8966SOL    HW127797   4.088   6.679   5.333
 8966SOL    HW227798   4.041   6.813   5.252
 8967SOL     OW27799   2.075   0.086   3.032
 8967SOL    HW127800   2.166   0.045   3.036
 8967SOL    HW227801   2.084   0.186   3.034
 8968SOL     OW27802   3.058   5.478   2.769
 8968SOL    HW127803   3.154   5.473   2.742
 8968SOL    HW227804   3.043   5.419   2.849
 8969SOL     OW27805   6.804   0.432   1.202
 8969SOL    HW127806   6.762   0.475   1.121
 8969SOL    HW227807   6.903   0.444   1.197
 8970SOL     OW27808   2.859   2.125   4.715
 8970SOL    HW127809   2.868   2.200   4.780
 8970SOL    HW227810   2.764   2.119   4.683
 8971SOL     OW27811   2.735   6.007   1.199
 8971SOL    HW127812   2.688   6.061   1.129
 8971SOL    HW227813   2.699   6.030   1.289
 8972SOL     OW27814   6.748   4.318   0.251
 8972SOL    HW127815   6.803   4.388   0.296
 8972SOL    HW227816   6.769   4.317   0.154
 8973SOL     OW27817   2.701   1.915   3.137
 8973SOL    HW127818   2.796   1.884   3.132
 8973SOL    HW227819   2.654   1.892   3.052
 8974SOL     OW27820   0.593   4.632   5.518
 8974SOL    HW127821   0.622   4.708   5.460
 8974SOL    HW227822   0.577   4.551   5.462
 8975SOL     OW27823   1.123   3.731   6.353
 8975SOL    HW127824   1.166   3.641   6.350
 8975SOL    HW227825   1.107   3.758   6.448
 8976SOL     OW27826   5.500   6.726   1.308
 8976SOL    HW127827   5.429   6.777   1.259
 8976SOL    HW227828   5.548   6.787   1.371
 8977SOL     OW27829   0.974   5.461   6.200
 8977SOL    HW127830   0.955   5.538   6.139
 8977SOL    HW227831   1.036   5.396   6.155
 8978SOL     OW27832   6.620   4.904   4.655
 8978SOL    HW127833   6.573   4.865   4.734
 8978SOL    HW227834   6.718   4.885   4.662
 8979SOL     OW27835   1.713   4.808   3.176
 8979SOL    HW127836   1.755   4.897   3.189
 8979SOL    HW227837   1.750   4.743   3.243
 8980SOL     OW27838   4.837   1.395   6.481
 8980SOL    HW127839   4.809   1.387   6.385
 8980SOL    HW227840   4.896   1.475   6.491
 8981SOL     OW27841   3.820   2.402   6.723
 8981SOL    HW127842   3.727   2.431   6.742
 8981SOL    HW227843   3.852   2.340   6.795
 8982SOL     OW27844   0.244   0.884   3.730
 8982SOL    HW127845   0.258   0.843   3.640
 8982SOL    HW227846   0.146   0.893   3.748
 8983SOL     OW27847   1.494   6.983   2.197
 8983SOL    HW127848   1.513   0.013   2.117
 8983SOL    HW227849   1.428   0.003   2.257
 8984SOL     OW27850   6.492   0.931   3.600
 8984SOL    HW127851   6.412   0.913   3.543
 8984SOL    HW227852   6.516   0.849   3.651
 8985SOL     OW27853   5.415   0.309   0.213
 8985SOL    HW127854   5.329   0.317   0.162
 8985SOL    HW227855   5.464   0.396   0.208
 8986SOL     OW27856   1.189   0.072   6.302
 8986SOL    HW127857   1.179   0.037   6.395
 8986SOL    HW227858   1.128   0.150   6.288
 8987SOL     OW27859   3.257   6.307   3.338
 8987SOL    HW127860   3.212   6.367   3.272
 8987SOL    HW227861   3.228   6.333   3.430
 8988SOL     OW27862   1.956   6.365   1.596
 8988SOL    HW127863   1.922   6.442   1.542
 8988SOL    HW227864   1.889   6.342   1.667
 8989SOL     OW27865   6.247   1.790   2.237
 8989SOL    HW127866   6.303   1.710   2.261
 8989SOL    HW227867   6.152   1.763   2.228
 8990SOL     OW27868   3.758   1.857   3.360
 8990SOL    HW127869   3.716   1.771   3.331
 8990SOL    HW227870   3.851   1.863   3.324
 8991SOL     OW27871   1.710   2.206   1.145
 8991SOL    HW127872   1.751   2.119   1.115
 8991SOL    HW227873   1.646   2.239   1.075
 8992SOL     OW27874   0.882   5.292   4.695
 8992SOL    HW127875   0.803   5.232   4.701
 8992SOL    HW227876   0.947   5.256   4.627
 8993SOL     OW27877   5.333   4.441   3.709
 8993SOL    HW127878   5.325   4.391   3.796
 8993SOL    HW227879   5.291   4.388   3.636
 8994SOL     OW27880   1.171   5.984   2.871
 8994SOL    HW127881   1.218   6.050   2.931
 8994SOL    HW227882   1.073   5.985   2.892
 8995SOL     OW27883   1.683   3.714   3.060
 8995SOL    HW127884   1.747   3.746   3.130
 8995SOL    HW227885   1.715   3.627   3.023
 8996SOL     OW27886   3.350   4.059   1.478
 8996SOL    HW127887   3.363   4.150   1.518
 8996SOL    HW227888   3.300   4.068   1.392
 8997SOL     OW27889   4.486   1.251   4.955
 8997SOL    HW127890   4.460   1.297   5.040
 8997SOL    HW227891   4.412   1.190   4.926
 8998SOL     OW27892   0.818   1.540   5.899
 8998SOL    HW127893   0.724   1.505   5.893
 8998SOL    HW227894   0.849   1.536   5.993
 8999SOL     OW27895   0.156   2.945   5.160
 8999SOL    HW127896   0.185   2.851   5.179
 8999SOL    HW227897   0.172   2.965   5.063
 9000SOL     OW27898   4.055   5.174   1.422
 9000SOL    HW127899   4.018   5.144   1.510
 9000SOL    HW227900   4.139   5.124   1.403
 9001SOL     OW27901   1.318   3.513   3.954
 9001SOL    HW127902   1.238   3.561   3.992
 9001SOL    HW227903   1.287   3.429   3.910
 9002SOL     OW27904   5.182   2.945   6.908
 9002SOL    HW127905   5.169   3.027   6.963
 9002SOL    HW227906   5.138   2.867   6.954
 9003SOL     OW27907   0.435   3.593   0.449
 9003SOL    HW127908   0.357   3.596   0.511
 9003SOL    HW227909   0.506   3.656   0.481
 9004SOL     OW27910   5.685   5.828   1.141
 9004SOL    HW127911   5.745   5.886   1.195
 9004SOL    HW227912   5.605   5.881   1.111
 9005SOL     OW27913   4.801   4.058   3.866
 9005SOL    HW127914   4.781   4.045   3.963
 9005SOL    HW227915   4.895   4.031   3.847
 9006SOL     OW27916   3.317   6.402   2.918
 9006SOL    HW127917   3.337   6.489   2.963
 9006SOL    HW227918   3.341   6.408   2.821
 9007SOL     OW27919   2.029   0.384   5.456
 9007SOL    HW127920   2.081   0.432   5.385
 9007SOL    HW227921   2.092   0.331   5.513
 9008SOL     OW27922   6.931   5.160   1.786
 9008SOL    HW127923   6.966   5.172   1.879
 9008SOL    HW227924   7.007   5.161   1.722
 9009SOL     OW27925   4.414   6.482   6.839
 9009SOL    HW127926   4.475   6.557   6.813
 9009SOL    HW227927   4.321   6.516   6.851
 9010SOL     OW27928   6.677   6.281   4.619
 9010SOL    HW127929   6.763   6.309   4.577
 9010SOL    HW227930   6.652   6.190   4.588
 9011SOL     OW27931   4.555   2.579   2.437
 9011SOL    HW127932   4.492   2.553   2.363
 9011SOL    HW227933   4.612   2.655   2.407
 9012SOL     OW27934   3.928   4.824   2.064
 9012SOL    HW127935   3.996   4.840   2.136
 9012SOL    HW227936   3.973   4.790   1.982
 9013SOL     OW27937   3.245   6.076   0.970
 9013SOL    HW127938   3.298   6.064   1.054
 9013SOL    HW227939   3.241   6.174   0.947
 9014SOL     OW27940   2.240   1.801   2.306
 9014SOL    HW127941   2.207   1.710   2.283
 9014SOL    HW227942   2.339   1.806   2.291
 9015SOL     OW27943   6.457   2.319   4.922
 9015SOL    HW127944   6.450   2.396   4.986
 9015SOL    HW227945   6.490   2.351   4.834
 9016SOL     OW27946   0.231   5.010   0.358
 9016SOL    HW127947   0.155   4.974   0.413
 9016SOL    HW227948   0.313   5.016   0.416
 9017SOL     OW27949   6.051   2.947   2.062
 9017SOL    HW127950   5.953   2.953   2.077
 9017SOL    HW227951   6.076   2.854   2.037
 9018SOL     OW27952   5.708   2.314   6.656
 9018SOL    HW127953   5.669   2.342   6.743
 9018SOL    HW227954   5.647   2.342   6.582
 9019SOL     OW27955   2.100   6.028   0.225
 9019SOL    HW127956   2.158   6.084   0.285
 9019SOL    HW227957   2.115   5.931   0.246
 9020SOL     OW27958   0.694   5.111   4.694
 9020SOL    HW127959   0.612   5.060   4.718
 9020SOL    HW227960   0.752   5.056   4.633
 9021SOL     OW27961   6.728   5.340   5.011
 9021SOL    HW127962   6.648   5.280   5.016
 9021SOL    HW227963   6.753   5.352   4.915
 9022SOL     OW27964   0.942   7.009   5.501
 9022SOL    HW127965   0.995   0.062   5.526
 9022SOL    HW227966   1.005   6.933   5.482
 9023SOL     OW27967   3.435   3.785   4.337
 9023SOL    HW127968   3.344   3.809   4.302
 9023SOL    HW227969   3.439   3.803   4.435
 9024SOL     OW27970   1.528   0.506   0.906
 9024SOL    HW127971   1.462   0.439   0.939
 9024SOL    HW227972   1.535   0.581   0.972
 9025SOL     OW27973   0.304   2.654   0.420
 9025SOL    HW127974   0.303   2.746   0.382
 9025SOL    HW227975   0.385   2.642   0.477
 9026SOL     OW27976   2.754   4.393   6.201
 9026SOL    HW127977   2.712   4.478   6.230
 9026SOL    HW227978   2.692   4.344   6.140
 9027SOL     OW27979   1.224   3.506   1.878
 9027SOL    HW127980   1.276   3.503   1.793
 9027SOL    HW227981   1.176   3.594   1.885
 9028SOL     OW27982   1.880   3.632   5.216
 9028SOL    HW127983   1.965   3.684   5.211
 9028SOL    HW227984   1.871   3.576   5.134
 9029SOL     OW27985   4.781   5.265   2.835
 9029SOL    HW127986   4.702   5.232   2.886
 9029SOL    HW227987   4.861   5.209   2.858
 9030SOL     OW27988   5.124   2.669   2.283
 9030SOL    HW127989   5.076   2.745   2.327
 9030SOL    HW227990   5.104   2.669   2.185
 9031SOL     OW27991   2.489   0.776   2.565
 9031SOL    HW127992   2.534   0.796   2.652
 9031SOL    HW227993   2.447   0.859   2.529
 9032SOL     OW27994   0.774   3.986   2.963
 9032SOL    HW127995   0.738   3.937   2.884
 9032SOL    HW227996   0.781   3.923   3.041
 9033SOL     OW27997   0.604   2.714   2.432
 9033SOL    HW127998   0.652   2.712   2.520
 9033SOL    HW227999   0.506   2.702   2.448
 9034SOL     OW28000   1.233   6.407   1.140
 9034SOL    HW128001   1.307   6.352   1.179
 9034SOL    HW228002   1.221   6.489   1.194
 9035SOL     OW28003   6.050   1.577   4.480
 9035SOL    HW128004   6.070   1.673   4.501
 9035SOL    HW228005   6.129   1.536   4.435
 9036SOL     OW28006   6.841   1.915   3.951
 9036SOL    HW128007   6.865   1.951   4.041
 9036SOL    HW228008   6.917   1.927   3.888
 9037SOL     OW28009   2.671   4.291   6.460
 9037SOL    HW128010   2.717   4.323   6.377
 9037SOL    HW228011   2.585   4.246   6.435
 9038SOL     OW28012   3.742   6.009   5.663
 9038SOL    HW128013   3.759   5.913   5.643
 9038SOL    HW228014   3.653   6.036   5.625
 9039SOL     OW28015   2.645   4.896   0.502
 9039SOL    HW128016   2.702   4.899   0.420
 9039SOL    HW228017   2.568   4.834   0.487
 9040SOL     OW28018   3.678   1.410   2.567
 9040SOL    HW128019   3.685   1.326   2.622
 9040SOL    HW228020   3.750   1.474   2.594
 9041SOL     OW28021   2.503   2.750   5.230
 9041SOL    HW128022   2.430   2.684   5.214
 9041SOL    HW228023   2.472   2.842   5.205
 9042SOL     OW28024   1.556   5.263   2.538
 9042SOL    HW128025   1.575   5.188   2.474
 9042SOL    HW228026   1.487   5.233   2.604
 9043SOL     OW28027   0.630   1.454   6.683
 9043SOL    HW128028   0.591   1.399   6.758
 9043SOL    HW228029   0.661   1.393   6.610
 9044SOL     OW28030   0.499   4.380   1.172
 9044SOL    HW128031   0.515   4.474   1.141
 9044SOL    HW228032   0.407   4.372   1.209
 9045SOL     OW28033   1.563   4.729   5.146
 9045SOL    HW128034   1.486   4.760   5.090
 9045SOL    HW228035   1.594   4.640   5.113
 9046SOL     OW28036   4.169   4.709   6.157
 9046SOL    HW128037   4.183   4.673   6.065
 9046SOL    HW228038   4.091   4.771   6.157
 9047SOL     OW28039   0.683   5.176   4.016
 9047SOL    HW128040   0.607   5.222   3.970
 9047SOL    HW228041   0.646   5.104   4.075
 9048SOL     OW28042   1.012   1.773   5.911
 9048SOL    HW128043   1.110   1.792   5.905
 9048SOL    HW228044   0.994   1.718   5.993
 9049SOL     OW28045   4.205   5.810   5.636
 9049SOL    HW128046   4.303   5.817   5.652
 9049SOL    HW228047   4.187   5.806   5.538
 9050SOL     OW28048   0.696   3.558   0.045
 9050SOL    HW128049   0.655   3.579   6.984
 9050SOL    HW228050   0.636   3.592   0.118
 9051SOL     OW28051   6.991   5.833   6.514
 9051SOL    HW128052   6.891   5.833   6.518
 9051SOL    HW228053   7.020   5.818   6.419
 9052SOL     OW28054   2.169   4.456   4.249
 9052SOL    HW128055   2.077   4.478   4.281
 9052SOL    HW228056   2.233   4.527   4.278
 9053SOL     OW28057   0.931   0.377   2.881
 9053SOL    HW128058   0.864   0.443   2.914
 9053SOL    HW228059   0.899   0.336   2.796
 9054SOL     OW28060   1.369   6.929   1.669
 9054SOL    HW128061   1.365   6.855   1.736
 9054SOL    HW228062   1.281   6.978   1.668
 9055SOL     OW28063   1.569   3.083   5.617
 9055SOL    HW128064   1.583   3.004   5.677
 9055SOL    HW228065   1.650   3.095   5.558
 9056SOL     OW28066   5.087   2.280   1.970
 9056SOL    HW128067   5.096   2.349   1.898
 9056SOL    HW228068   5.169   2.281   2.028
 9057SOL     OW28069   3.583   0.313   6.024
 9057SOL    HW128070   3.504   0.297   6.083
 9057SOL    HW228071   3.552   0.342   5.934
 9058SOL     OW28072   2.229   2.759   3.633
 9058SOL    HW128073   2.282   2.675   3.643
 9058SOL    HW228074   2.165   2.750   3.557
 9059SOL     OW28075   0.514   6.824   2.228
 9059SOL    HW128076   0.494   6.853   2.322
 9059SOL    HW228077   0.553   6.901   2.178
 9060SOL     OW28078   0.585   4.835   0.518
 9060SOL    HW128079   0.591   4.851   0.419
 9060SOL    HW228080   0.673   4.857   0.561
 9061SOL     OW28081   3.944   4.855   2.688
 9061SOL    HW128082   3.986   4.807   2.611
 9061SOL    HW228083   3.999   4.839   2.771
 9062SOL     OW28084   6.671   6.038   2.953
 9062SOL    HW128085   6.683   6.134   2.980
 9062SOL    HW228086   6.745   6.012   2.891
 9063SOL     OW28087   5.922   6.374   1.115
 9063SOL    HW128088   5.829   6.344   1.093
 9063SOL    HW228089   5.983   6.295   1.112
 9064SOL     OW28090   1.397   6.391   3.646
 9064SOL    HW128091   1.355   6.302   3.664
 9064SOL    HW228092   1.326   6.457   3.620
 9065SOL     OW28093   3.341   3.991   6.865
 9065SOL    HW128094   3.285   3.919   6.907
 9065SOL    HW228095   3.330   3.987   6.765
 9066SOL     OW28096   5.316   5.369   3.952
 9066SOL    HW128097   5.378   5.299   3.917
 9066SOL    HW228098   5.355   5.459   3.938
 9067SOL     OW28099   2.170   0.333   3.655
 9067SOL    HW128100   2.173   0.268   3.579
 9067SOL    HW228101   2.150   0.425   3.619
 9068SOL     OW28102   5.605   0.705   4.500
 9068SOL    HW128103   5.580   0.609   4.493
 9068SOL    HW228104   5.538   0.753   4.557
 9069SOL     OW28105   4.300   2.603   1.112
 9069SOL    HW128106   4.221   2.548   1.141
 9069SOL    HW228107   4.366   2.609   1.186
 9070SOL     OW28108   0.648   0.465   6.334
 9070SOL    HW128109   0.571   0.483   6.272
 9070SOL    HW228110   0.718   0.414   6.285
 9071SOL     OW28111   5.651   2.505   0.309
 9071SOL    HW128112   5.632   2.479   0.404
 9071SOL    HW228113   5.566   2.535   0.265
 9072SOL     OW28114   6.026   0.689   1.705
 9072SOL    HW128115   6.034   0.656   1.611
 9072SOL    HW228116   6.018   0.789   1.705
 9073SOL     OW28117   4.758   3.094   6.372
 9073SOL    HW128118   4.753   3.016   6.310
 9073SOL    HW228119   4.827   3.077   6.442
 9074SOL     OW28120   2.142   0.346   3.072
 9074SOL    HW128121   2.120   0.374   2.978
 9074SOL    HW228122   2.139   0.425   3.132
 9075SOL     OW28123   5.133   5.673   1.280
 9075SOL    HW128124   5.144   5.577   1.304
 9075SOL    HW228125   5.221   5.709   1.247
 9076SOL     OW28126   0.809   6.901   2.297
 9076SOL    HW128127   0.816   7.000   2.298
 9076SOL    HW228128   0.729   6.874   2.243
 9077SOL     OW28129   6.235   0.204   6.857
 9077SOL    HW128130   6.248   0.261   6.938
 9077SOL    HW228131   6.237   0.261   6.775
 9078SOL     OW28132   5.204   6.297   6.815
 9078SOL    HW128133   5.109   6.294   6.781
 9078SOL    HW228134   5.238   6.204   6.828
 9079SOL     OW28135   2.871   1.334   6.297
 9079SOL    HW128136   2.931   1.380   6.232
 9079SOL    HW228137   2.789   1.389   6.312
 9080SOL     OW28138   6.703   4.914   1.031
 9080SOL    HW128139   6.797   4.883   1.038
 9080SOL    HW228140   6.673   4.909   0.935
 9081SOL     OW28141   5.279   1.975   6.199
 9081SOL    HW128142   5.359   1.920   6.176
 9081SOL    HW228143   5.236   2.008   6.115
 9082SOL     OW28144   2.876   4.662   6.614
 9082SOL    HW128145   2.796   4.679   6.558
 9082SOL    HW228146   2.883   4.733   6.685
 9083SOL     OW28147   3.426   0.450   0.811
 9083SOL    HW128148   3.336   0.453   0.855
 9083SOL    HW228149   3.454   0.543   0.787
 9084SOL     OW28150   0.298   4.409   4.294
 9084SOL    HW128151   0.355   4.342   4.342
 9084SOL    HW228152   0.216   4.426   4.349
 9085SOL     OW28153   3.332   4.961   2.230
 9085SOL    HW128154   3.241   5.000   2.247
 9085SOL    HW228155   3.386   4.962   2.314
 9086SOL     OW28156   0.393   1.443   0.428
 9086SOL    HW128157   0.313   1.403   0.383
 9086SOL    HW228158   0.384   1.542   0.431
 9087SOL     OW28159   4.730   1.753   0.275
 9087SOL    HW128160   4.675   1.671   0.283
 9087SOL    HW228161   4.734   1.782   0.179
 9088SOL     OW28162   5.955   6.535   0.629
 9088SOL    HW128163   6.041   6.486   0.612
 9088SOL    HW228164   5.897   6.480   0.689
 9089SOL     OW28165   4.702   5.107   3.048
 9089SOL    HW128166   4.800   5.117   3.027
 9089SOL    HW228167   4.680   5.161   3.129
 9090SOL     OW28168   6.521   4.697   4.832
 9090SOL    HW128169   6.495   4.738   4.919
 9090SOL    HW228170   6.514   4.597   4.839
 9091SOL     OW28171   1.530   1.867   2.264
 9091SOL    HW128172   1.588   1.938   2.302
 9091SOL    HW228173   1.585   1.788   2.238
 9092SOL     OW28174   3.606   1.921   5.176
 9092SOL    HW128175   3.619   1.996   5.112
 9092SOL    HW228176   3.541   1.855   5.137
 9093SOL     OW28177   1.400   4.088   1.046
 9093SOL    HW128178   1.382   4.111   1.141
 9093SOL    HW228179   1.473   4.020   1.041
 9094SOL     OW28180   0.789   2.680   6.654
 9094SOL    HW128181   0.811   2.589   6.688
 9094SOL    HW228182   0.770   2.741   6.731
 9095SOL     OW28183   2.958   2.346   1.145
 9095SOL    HW128184   2.918   2.256   1.167
 9095SOL    HW228185   2.965   2.355   1.045
 9096SOL     OW28186   0.106   4.128   3.425
 9096SOL    HW128187   0.023   4.101   3.376
 9096SOL    HW228188   0.181   4.067   3.399
 9097SOL     OW28189   6.731   5.890   5.793
 9097SOL    HW128190   6.735   5.793   5.770
 9097SOL    HW228191   6.805   5.912   5.858
 9098SOL     OW28192   3.078   3.347   5.757
 9098SOL    HW128193   3.000   3.303   5.713
 9098SOL    HW228194   3.047   3.404   5.833
 9099SOL     OW28195   2.066   2.657   6.062
 9099SOL    HW128196   2.044   2.712   6.142
 9099SOL    HW228197   2.066   2.560   6.086
 9100SOL     OW28198   1.613   1.652   0.787
 9100SOL    HW128199   1.543   1.606   0.733
 9100SOL    HW228200   1.599   1.751   0.784
 9101SOL     OW28201   2.308   1.969   0.392
 9101SOL    HW128202   2.239   1.896   0.391
 9101SOL    HW228203   2.284   2.035   0.463
 9102SOL     OW28204   4.298   6.055   2.567
 9102SOL    HW128205   4.374   6.118   2.585
 9102SOL    HW228206   4.306   5.975   2.627
 9103SOL     OW28207   1.498   3.901   6.341
 9103SOL    HW128208   1.579   3.905   6.283
 9103SOL    HW228209   1.416   3.894   6.283
 9104SOL     OW28210   4.713   6.847   2.880
 9104SOL    HW128211   4.655   6.811   2.953
 9104SOL    HW228212   4.741   6.940   2.904
 9105SOL     OW28213   3.368   2.210   6.165
 9105SOL    HW128214   3.290   2.270   6.186
 9105SOL    HW228215   3.453   2.263   6.168
 9106SOL     OW28216   6.767   5.553   1.387
 9106SOL    HW128217   6.681   5.516   1.420
 9106SOL    HW228218   6.843   5.500   1.426
 9107SOL     OW28219   4.870   6.769   6.764
 9107SOL    HW128220   4.797   6.727   6.819
 9107SOL    HW228221   4.848   6.760   6.667
 9108SOL     OW28222   3.777   5.797   0.548
 9108SOL    HW128223   3.715   5.840   0.614
 9108SOL    HW228224   3.742   5.812   0.455
 9109SOL     OW28225   3.472   1.580   4.413
 9109SOL    HW128226   3.530   1.503   4.441
 9109SOL    HW228227   3.381   1.568   4.452
 9110SOL     OW28228   0.596   3.867   3.391
 9110SOL    HW128229   0.642   3.837   3.474
 9110SOL    HW228230   0.522   3.802   3.369
 9111SOL     OW28231   3.720   4.526   1.617
 9111SOL    HW128232   3.704   4.574   1.703
 9111SOL    HW228233   3.652   4.554   1.550
 9112SOL     OW28234   0.956   6.372   2.582
 9112SOL    HW128235   0.931   6.283   2.543
 9112SOL    HW228236   0.981   6.435   2.508
 9113SOL     OW28237   2.049   6.943   1.088
 9113SOL    HW128238   1.974   6.912   1.146
 9113SOL    HW228239   2.102   6.864   1.057
 9114SOL     OW28240   3.256   3.700   2.118
 9114SOL    HW128241   3.299   3.623   2.071
 9114SOL    HW228242   3.304   3.785   2.094
 9115SOL     OW28243   1.387   4.733   4.101
 9115SOL    HW128244   1.346   4.752   4.012
 9115SOL    HW228245   1.424   4.641   4.102
 9116SOL     OW28246   3.412   2.819   7.013
 9116SOL    HW128247   3.440   2.724   6.995
 9116SOL    HW228248   3.410   2.870   6.928
 9117SOL     OW28249   1.306   2.569   0.512
 9117SOL    HW128250   1.326   2.472   0.500
 9117SOL    HW228251   1.349   2.621   0.439
 9118SOL     OW28252   0.490   6.716   1.642
 9118SOL    HW128253   0.501   6.644   1.573
 9118SOL    HW228254   0.521   6.681   1.731
 9119SOL     OW28255   6.074   0.285   0.545
 9119SOL    HW128256   6.079   0.194   0.504
 9119SOL    HW228257   6.165   0.326   0.548
 9120SOL     OW28258   6.160   6.810   6.378
 9120SOL    HW128259   6.073   6.767   6.354
 9120SOL    HW228260   6.179   6.794   6.475
 9121SOL     OW28261   1.104   0.540   5.949
 9121SOL    HW128262   1.071   0.559   6.042
 9121SOL    HW228263   1.108   0.626   5.898
 9122SOL     OW28264   6.719   3.765   1.187
 9122SOL    HW128265   6.637   3.733   1.236
 9122SOL    HW228266   6.777   3.686   1.166
 9123SOL     OW28267   1.281   0.122   5.530
 9123SOL    HW128268   1.311   0.050   5.468
 9123SOL    HW228269   1.359   0.179   5.556
 9124SOL     OW28270   0.144   4.126   5.121
 9124SOL    HW128271   0.133   4.133   5.220
 9124SOL    HW228272   0.218   4.062   5.101
 9125SOL     OW28273   4.809   5.927   1.632
 9125SOL    HW128274   4.840   5.995   1.566
 9125SOL    HW228275   4.889   5.880   1.670
 9126SOL     OW28276   5.108   1.011   3.423
 9126SOL    HW128277   5.179   0.942   3.409
 9126SOL    HW228278   5.147   1.089   3.472
 9127SOL     OW28279   5.770   4.939   5.670
 9127SOL    HW128280   5.766   4.963   5.573
 9127SOL    HW228281   5.690   4.977   5.717
 9128SOL     OW28282   4.843   3.039   5.016
 9128SOL    HW128283   4.928   3.002   5.054
 9128SOL    HW228284   4.765   2.993   5.058
 9129SOL     OW28285   3.511   0.972   0.732
 9129SOL    HW128286   3.527   0.905   0.805
 9129SOL    HW228287   3.481   0.925   0.649
 9130SOL     OW28288   6.005   5.380   1.548
 9130SOL    HW128289   5.965   5.347   1.463
 9130SOL    HW228290   5.971   5.472   1.567
 9131SOL     OW28291   0.760   4.690   3.817
 9131SOL    HW128292   0.742   4.788   3.825
 9131SOL    HW228293   0.763   4.649   3.908
 9132SOL     OW28294   1.074   2.811   4.242
 9132SOL    HW128295   1.111   2.735   4.188
 9132SOL    HW228296   0.985   2.785   4.279
 9133SOL     OW28297   2.056   5.103   0.776
 9133SOL    HW128298   2.103   5.123   0.691
 9133SOL    HW228299   1.969   5.153   0.779
 9134SOL     OW28300   3.245   5.188   6.356
 9134SOL    HW128301   3.215   5.128   6.430
 9134SOL    HW228302   3.165   5.231   6.313
 9135SOL     OW28303   1.075   0.133   2.669
 9135SOL    HW128304   1.143   0.203   2.690
 9135SOL    HW228305   0.983   0.173   2.675
 9136SOL     OW28306   3.677   5.431   6.008
 9136SOL    HW128307   3.767   5.447   5.968
 9136SOL    HW228308   3.678   5.460   6.104
 9137SOL     OW28309   3.093   0.014   2.668
 9137SOL    HW128310   3.166   7.018   2.604
 9137SOL    HW228311   3.092   0.112   2.684
 9138SOL     OW28312   3.809   4.636   1.217
 9138SOL    HW128313   3.892   4.690   1.202
 9138SOL    HW228314   3.800   4.568   1.144
 9139SOL     OW28315   4.425   0.802   5.360
 9139SOL    HW128316   4.521   0.817   5.382
 9139SOL    HW228317   4.388   0.730   5.419
 9140SOL     OW28318   6.619   2.124   4.225
 9140SOL    HW128319   6.611   2.065   4.145
 9140SOL    HW228320   6.528   2.139   4.264
 9141SOL     OW28321   5.306   1.530   5.081
 9141SOL    HW128322   5.374   1.458   5.067
 9141SOL    HW228323   5.267   1.522   5.173
 9142SOL     OW28324   1.463   2.883   6.768
 9142SOL    HW128325   1.547   2.935   6.752
 9142SOL    HW228326   1.386   2.931   6.727
 9143SOL     OW28327   6.586   3.974   1.047
 9143SOL    HW128328   6.609   3.880   1.074
 9143SOL    HW228329   6.609   3.988   0.951
 9144SOL     OW28330   1.359   5.922   4.055
 9144SOL    HW128331   1.324   6.006   4.013
 9144SOL    HW228332   1.454   5.908   4.027
 9145SOL     OW28333   1.552   2.963   0.032
 9145SOL    HW128334   1.623   3.034   0.031
 9145SOL    HW228335   1.508   2.959   6.970
 9146SOL     OW28336   0.402   1.419   2.049
 9146SOL    HW128337   0.395   1.388   1.954
 9146SOL    HW228338   0.497   1.446   2.068
 9147SOL     OW28339   4.080   5.290   6.344
 9147SOL    HW128340   4.088   5.375   6.293
 9147SOL    HW228341   3.984   5.274   6.367
 9148SOL     OW28342   3.573   5.102   3.003
 9148SOL    HW128343   3.641   5.034   2.974
 9148SOL    HW228344   3.574   5.109   3.103
 9149SOL     OW28345   6.398   3.612   4.717
 9149SOL    HW128346   6.315   3.623   4.662
 9149SOL    HW228347   6.434   3.702   4.742
 9150SOL     OW28348   3.606   1.166   3.065
 9150SOL    HW128349   3.670   1.089   3.070
 9150SOL    HW228350   3.513   1.132   3.078
 9151SOL     OW28351   6.171   3.693   1.937
 9151SOL    HW128352   6.178   3.791   1.955
 9151SOL    HW228353   6.149   3.645   2.021
 9152SOL     OW28354   1.946   4.565   2.569
 9152SOL    HW128355   1.908   4.639   2.513
 9152SOL    HW228356   2.035   4.539   2.533
 9153SOL     OW28357   2.371   2.517   0.652
 9153SOL    HW128358   2.465   2.521   0.688
 9153SOL    HW228359   2.334   2.609   0.646
 9154SOL     OW28360   0.948   4.870   0.823
 9154SOL    HW128361   1.019   4.811   0.860
 9154SOL    HW228362   0.935   4.949   0.883
 9155SOL     OW28363   1.794   5.096   6.863
 9155SOL    HW128364   1.792   5.195   6.857
 9155SOL    HW228365   1.879   5.066   6.906
 9156SOL     OW28366   4.795   2.662   1.677
 9156SOL    HW128367   4.744   2.602   1.739
 9156SOL    HW228368   4.812   2.750   1.723
 9157SOL     OW28369   5.456   3.811   5.510
 9157SOL    HW128370   5.358   3.794   5.496
 9157SOL    HW228371   5.468   3.887   5.573
 9158SOL     OW28372   0.864   4.400   3.411
 9158SOL    HW128373   0.862   4.335   3.334
 9158SOL    HW228374   0.958   4.413   3.441
 9159SOL     OW28375   0.240   6.002   1.897
 9159SOL    HW128376   0.278   5.913   1.922
 9159SOL    HW228377   0.183   6.036   1.972
 9160SOL     OW28378   0.965   6.059   0.357
 9160SOL    HW128379   0.967   6.157   0.341
 9160SOL    HW228380   0.968   6.011   0.269
 9161SOL     OW28381   4.974   2.748   1.962
 9161SOL    HW128382   5.006   2.657   1.937
 9161SOL    HW228383   4.936   2.794   1.881
 9162SOL     OW28384   5.737   3.016   3.486
 9162SOL    HW128385   5.721   2.937   3.545
 9162SOL    HW228386   5.754   3.097   3.542
 9163SOL     OW28387   3.936   0.821   5.048
 9163SOL    HW128388   3.845   0.792   5.079
 9163SOL    HW228389   3.988   0.853   5.127
 9164SOL     OW28390   2.754   0.368   1.196
 9164SOL    HW128391   2.733   0.274   1.171
 9164SOL    HW228392   2.768   0.422   1.113
 9165SOL     OW28393   5.629   5.692   1.494
 9165SOL    HW128394   5.707   5.637   1.464
 9165SOL    HW228395   5.625   5.692   1.594
 9166SOL     OW28396   3.700   5.073   1.048
 9166SOL    HW128397   3.763   5.002   1.018
 9166SOL    HW228398   3.749   5.140   1.103
 9167SOL     OW28399   1.066   3.721   4.483
 9167SOL    HW128400   1.043   3.624   4.485
 9167SOL    HW228401   1.029   3.766   4.565
 9168SOL     OW28402   4.125   1.131   6.923
 9168SOL    HW128403   4.217   1.144   6.884
 9168SOL    HW228404   4.103   1.208   6.983
 9169SOL     OW28405   0.887   0.216   4.034
 9169SOL    HW128406   0.926   0.158   3.962
 9169SOL    HW228407   0.886   0.166   4.120
 9170SOL     OW28408   6.419   4.988   0.676
 9170SOL    HW128409   6.404   4.981   0.774
 9170SOL    HW228410   6.461   5.076   0.654
 9171SOL     OW28411   4.231   5.807   4.560
 9171SOL    HW128412   4.292   5.879   4.593
 9171SOL    HW228413   4.268   5.718   4.585
 9172SOL     OW28414   1.857   2.172   4.017
 9172SOL    HW128415   1.809   2.229   3.951
 9172SOL    HW228416   1.883   2.227   4.096
 9173SOL     OW28417   6.370   5.322   4.903
 9173SOL    HW128418   6.341   5.277   4.818
 9173SOL    HW228419   6.408   5.253   4.965
 9174SOL     OW28420   0.247   5.445   6.313
 9174SOL    HW128421   0.200   5.496   6.385
 9174SOL    HW228422   0.223   5.348   6.319
 9175SOL     OW28423   1.884   6.544   6.332
 9175SOL    HW128424   1.845   6.493   6.256
 9175SOL    HW228425   1.925   6.629   6.298
 9176SOL     OW28426   1.112   2.827   5.871
 9176SOL    HW128427   1.030   2.867   5.912
 9176SOL    HW228428   1.144   2.750   5.926
 9177SOL     OW28429   1.741   4.500   2.761
 9177SOL    HW128430   1.733   4.545   2.849
 9177SOL    HW228431   1.818   4.538   2.710
 9178SOL     OW28432   1.545   3.856   6.978
 9178SOL    HW128433   1.495   3.780   6.935
 9178SOL    HW228434   1.585   3.825   0.037
 9179SOL     OW28435   2.990   4.367   5.364
 9179SOL    HW128436   2.908   4.363   5.421
 9179SOL    HW228437   2.975   4.429   5.288
 9180SOL     OW28438   4.948   1.412   2.052
 9180SOL    HW128439   4.966   1.329   1.998
 9180SOL    HW228440   4.986   1.401   2.144
 9181SOL     OW28441   3.838   1.000   2.112
 9181SOL    HW128442   3.758   0.992   2.052
 9181SOL    HW228443   3.917   0.960   2.067
 9182SOL     OW28444   2.379   6.983   1.610
 9182SOL    HW128445   2.416   6.891   1.614
 9182SOL    HW228446   2.338   6.999   1.520
 9183SOL     OW28447   5.358   4.924   5.264
 9183SOL    HW128448   5.400   4.840   5.297
 9183SOL    HW228449   5.271   4.903   5.220
 9184SOL     OW28450   5.728   0.001   0.106
 9184SOL    HW128451   5.647   7.006   0.053
 9184SOL    HW228452   5.808   6.982   0.067
 9185SOL     OW28453   5.169   1.279   4.903
 9185SOL    HW128454   5.149   1.374   4.876
 9185SOL    HW228455   5.256   1.251   4.863
 9186SOL     OW28456   5.260   1.158   5.867
 9186SOL    HW128457   5.346   1.171   5.916
 9186SOL    HW228458   5.252   1.227   5.794
 9187SOL     OW28459   1.679   6.225   2.508
 9187SOL    HW128460   1.698   6.126   2.508
 9187SOL    HW228461   1.581   6.239   2.498
 9188SOL     OW28462   3.145   5.611   0.395
 9188SOL    HW128463   3.102   5.698   0.421
 9188SOL    HW228464   3.218   5.589   0.460
 9189SOL     OW28465   5.304   4.540   2.145
 9189SOL    HW128466   5.333   4.628   2.107
 9189SOL    HW228467   5.208   4.523   2.120
 9190SOL     OW28468   1.619   5.907   0.329
 9190SOL    HW128469   1.589   5.829   0.383
 9190SOL    HW228470   1.610   5.991   0.383
 9191SOL     OW28471   6.492   0.323   6.550
 9191SOL    HW128472   6.443   0.237   6.561
 9191SOL    HW228473   6.564   0.330   6.619
 9192SOL     OW28474   1.370   3.512   4.794
 9192SOL    HW128475   1.334   3.456   4.719
 9192SOL    HW228476   1.470   3.502   4.798
 9193SOL     OW28477   4.171   4.064   0.648
 9193SOL    HW128478   4.222   4.141   0.608
 9193SOL    HW228479   4.078   4.064   0.612
 9194SOL     OW28480   3.371   0.462   4.492
 9194SOL    HW128481   3.412   0.480   4.403
 9194SOL    HW228482   3.389   0.368   4.519
 9195SOL     OW28483   1.923   1.536   3.907
 9195SOL    HW128484   1.937   1.624   3.953
 9195SOL    HW228485   1.867   1.550   3.825
 9196SOL     OW28486   5.517   1.047   5.521
 9196SOL    HW128487   5.422   1.018   5.506
 9196SOL    HW228488   5.523   1.099   5.606
 9197SOL     OW28489   2.927   3.673   0.393
 9197SOL    HW128490   2.949   3.738   0.466
 9197SOL    HW228491   2.827   3.665   0.384
 9198SOL     OW28492   1.539   4.450   5.077
 9198SOL    HW128493   1.594   4.367   5.065
 9198SOL    HW228494   1.492   4.471   4.992
 9199SOL     OW28495   6.216   5.236   4.667
 9199SOL    HW128496   6.149   5.247   4.594
 9199SOL    HW228497   6.217   5.141   4.698
 9200SOL     OW28498   3.421   6.215   1.200
 9200SOL    HW128499   3.477   6.265   1.133
 9200SOL    HW228500   3.435   6.117   1.188
 9201SOL     OW28501   2.359   5.010   1.092
 9201SOL    HW128502   2.418   4.945   1.043
 9201SOL    HW228503   2.263   4.984   1.079
 9202SOL     OW28504   2.593   1.297   4.076
 9202SOL    HW128505   2.613   1.384   4.029
 9202SOL    HW228506   2.497   1.273   4.061
 9203SOL     OW28507   6.381   6.392   1.149
 9203SOL    HW128508   6.353   6.402   1.245
 9203SOL    HW228509   6.445   6.466   1.126
 9204SOL     OW28510   5.676   0.340   5.087
 9204SOL    HW128511   5.690   0.264   5.150
 9204SOL    HW228512   5.612   0.405   5.128
 9205SOL     OW28513   0.044   5.321   2.804
 9205SOL    HW128514   0.088   5.255   2.866
 9205SOL    HW228515   6.981   5.287   2.778
 9206SOL     OW28516   4.191   0.425   6.976
 9206SOL    HW128517   4.137   0.482   0.010
 9206SOL    HW228518   4.138   0.405   6.894
 9207SOL     OW28519   4.935   5.401   6.466
 9207SOL    HW128520   4.982   5.414   6.554
 9207SOL    HW228521   4.839   5.427   6.476
 9208SOL     OW28522   1.262   3.697   2.310
 9208SOL    HW128523   1.231   3.676   2.217
 9208SOL    HW228524   1.248   3.795   2.329
 9209SOL     OW28525   2.263   6.416   6.505
 9209SOL    HW128526   2.327   6.488   6.476
 9209SOL    HW228527   2.178   6.458   6.538
 9210SOL     OW28528   6.159   0.326   3.781
 9210SOL    HW128529   6.213   0.405   3.752
 9210SOL    HW228530   6.080   0.358   3.834
 9211SOL     OW28531   1.042   1.507   3.129
 9211SOL    HW128532   1.030   1.437   3.059
 9211SOL    HW228533   0.971   1.577   3.119
 9212SOL     OW28534   4.834   4.671   4.740
 9212SOL    HW128535   4.735   4.686   4.745
 9212SOL    HW228536   4.882   4.748   4.781
 9213SOL     OW28537   6.052   3.843   1.082
 9213SOL    HW128538   5.999   3.765   1.052
 9213SOL    HW228539   6.070   3.835   1.181
 9214SOL     OW28540   6.848   5.296   0.950
 9214SOL    HW128541   6.947   5.304   0.949
 9214SOL    HW228542   6.808   5.384   0.976
 9215SOL     OW28543   0.878   1.223   1.143
 9215SOL    HW128544   0.913   1.261   1.228
 9215SOL    HW228545   0.778   1.229   1.143
 9216SOL     OW28546   1.594   0.039   3.813
 9216SOL    HW128547   1.571   0.101   3.737
 9216SOL    HW228548   1.691   0.049   3.835
 9217SOL     OW28549   0.839   2.220   1.044
 9217SOL    HW128550   0.804   2.288   0.979
 9217SOL    HW228551   0.879   2.143   0.994
 9218SOL     OW28552   2.468   0.965   1.057
 9218SOL    HW128553   2.431   0.980   1.149
 9218SOL    HW228554   2.546   0.903   1.063
 9219SOL     OW28555   5.614   0.883   0.519
 9219SOL    HW128556   5.678   0.953   0.550
 9219SOL    HW228557   5.665   0.800   0.494
 9220SOL     OW28558   3.800   6.345   0.370
 9220SOL    HW128559   3.822   6.413   0.300
 9220SOL    HW228560   3.705   6.356   0.399
 9221SOL     OW28561   3.162   4.945   4.902
 9221SOL    HW128562   3.241   4.946   4.842
 9221SOL    HW228563   3.179   5.004   4.981
 9222SOL     OW28564   3.193   2.472   0.085
 9222SOL    HW128565   3.242   2.386   0.072
 9222SOL    HW228566   3.227   2.540   0.019
 9223SOL     OW28567   2.866   3.141   5.297
 9223SOL    HW128568   2.818   3.206   5.238
 9223SOL    HW228569   2.801   3.072   5.330
 9224SOL     OW28570   2.157   4.753   5.171
 9224SOL    HW128571   2.176   4.671   5.116
 9224SOL    HW228572   2.220   4.826   5.144
 9225SOL     OW28573   1.358   5.626   0.062
 9225SOL    HW128574   1.374   5.724   0.049
 9225SOL    HW228575   1.351   5.606   0.159
 9226SOL     OW28576   5.034   6.392   0.860
 9226SOL    HW128577   5.075   6.361   0.774
 9226SOL    HW228578   5.052   6.490   0.872
 9227SOL     OW28579   1.134   6.287   1.977
 9227SOL    HW128580   1.108   6.204   1.929
 9227SOL    HW228581   1.201   6.338   1.922
 9228SOL     OW28582   1.172   5.754   6.783
 9228SOL    HW128583   1.140   5.848   6.779
 9228SOL    HW228584   1.267   5.750   6.755
 9229SOL     OW28585   1.096   6.137   5.086
 9229SOL    HW128586   1.113   6.189   5.003
 9229SOL    HW228587   1.163   6.163   5.156
 9230SOL     OW28588   4.939   1.103   3.224
 9230SOL    HW128589   5.013   1.085   3.288
 9230SOL    HW228590   4.974   1.102   3.130
 9231SOL     OW28591   2.089   3.053   3.512
 9231SOL    HW128592   2.026   2.985   3.549
 9231SOL    HW228593   2.072   3.064   3.414
 9232SOL     OW28594   4.170   5.480   0.788
 9232SOL    HW128595   4.195   5.577   0.785
 9232SOL    HW228596   4.111   5.458   0.710
 9233SOL     OW28597   6.288   4.154   0.915
 9233SOL    HW128598   6.323   4.071   0.872
 9233SOL    HW228599   6.267   4.222   0.844
 9234SOL     OW28600   1.355   6.198   3.930
 9234SOL    HW128601   1.275   6.256   3.916
 9234SOL    HW228602   1.394   6.173   3.841
 9235SOL     OW28603   0.748   2.545   3.269
 9235SOL    HW128604   0.756   2.606   3.190
 9235SOL    HW228605   0.692   2.590   3.339
 9236SOL     OW28606   3.109   2.733   6.468
 9236SOL    HW128607   3.095   2.743   6.370
 9236SOL    HW228608   3.064   2.650   6.501
 9237SOL     OW28609   1.586   3.576   2.631
 9237SOL    HW128610   1.576   3.583   2.531
 9237SOL    HW228611   1.531   3.647   2.675
 9238SOL     OW28612   4.530   4.493   6.853
 9238SOL    HW128613   4.586   4.437   6.791
 9238SOL    HW228614   4.538   4.458   6.946
 9239SOL     OW28615   2.042   3.257   6.994
 9239SOL    HW128616   1.979   3.291   6.925
 9239SOL    HW228617   2.039   3.157   6.995
 9240SOL     OW28618   4.703   0.492   2.159
 9240SOL    HW128619   4.603   0.492   2.154
 9240SOL    HW228620   4.733   0.454   2.247
 9241SOL     OW28621   0.902   5.907   5.293
 9241SOL    HW128622   0.942   5.817   5.278
 9241SOL    HW228623   0.887   5.952   5.205
 9242SOL     OW28624   4.992   6.799   1.587
 9242SOL    HW128625   5.053   6.878   1.592
 9242SOL    HW228626   5.031   6.730   1.525
 9243SOL     OW28627   5.790   0.293   4.391
 9243SOL    HW128628   5.814   0.387   4.368
 9243SOL    HW228629   5.769   0.242   4.307
 9244SOL     OW28630   3.488   6.356   0.443
 9244SOL    HW128631   3.453   6.319   0.529
 9244SOL    HW228632   3.475   6.455   0.441
 9245SOL     OW28633   0.286   6.514   2.327
 9245SOL    HW128634   0.329   6.543   2.242
 9245SOL    HW228635   0.193   6.552   2.332
 9246SOL     OW28636   6.584   5.597   3.386
 9246SOL    HW128637   6.643   5.531   3.432
 9246SOL    HW228638   6.637   5.676   3.357
 9247SOL     OW28639   0.917   0.750   3.058
 9247SOL    HW128640   0.854   0.821   3.090
 9247SOL    HW228641   1.000   0.792   3.022
 9248SOL     OW28642   4.596   1.392   6.284
 9248SOL    HW128643   4.548   1.477   6.259
 9248SOL    HW228644   4.686   1.391   6.241
 9249SOL     OW28645   3.932   6.648   4.079
 9249SOL    HW128646   3.921   6.551   4.101
 9249SOL    HW228647   3.842   6.688   4.059
 9250SOL     OW28648   4.985   3.361   3.168
 9250SOL    HW128649   4.982   3.460   3.182
 9250SOL    HW228650   5.014   3.341   3.074
 9251SOL     OW28651   4.337   2.162   2.495
 9251SOL    HW128652   4.239   2.149   2.508
 9251SOL    HW228653   4.377   2.080   2.453
 9252SOL     OW28654   1.607   6.909   4.875
 9252SOL    HW128655   1.627   6.990   4.820
 9252SOL    HW228656   1.690   6.855   4.887
 9253SOL     OW28657   1.129   6.921   5.819
 9253SOL    HW128658   1.158   7.016   5.825
 9253SOL    HW228659   1.199   6.867   5.773
 9254SOL     OW28660   4.494   2.394   0.721
 9254SOL    HW128661   4.528   2.321   0.780
 9254SOL    HW228662   4.556   2.472   0.726
 9255SOL     OW28663   0.121   4.848   0.561
 9255SOL    HW128664   0.099   4.916   0.630
 9255SOL    HW228665   0.060   4.770   0.571
 9256SOL     OW28666   3.890   5.158   2.832
 9256SOL    HW128667   3.968   5.123   2.781
 9256SOL    HW228668   3.822   5.086   2.843
 9257SOL     OW28669   0.539   3.857   0.807
 9257SOL    HW128670   0.610   3.882   0.873
 9257SOL    HW228671   0.476   3.934   0.795
 9258SOL     OW28672   3.158   2.904   5.282
 9258SOL    HW128673   3.136   2.937   5.374
 9258SOL    HW228674   3.194   2.811   5.288
 9259SOL     OW28675   1.967   2.789   0.720
 9259SOL    HW128676   2.043   2.725   0.713
 9259SOL    HW228677   1.982   2.865   0.656
 9260SOL     OW28678   6.485   4.160   0.381
 9260SOL    HW128679   6.572   4.203   0.403
 9260SOL    HW228680   6.475   4.076   0.434
 9261SOL     OW28681   1.955   6.864   5.559
 9261SOL    HW128682   1.861   6.830   5.563
 9261SOL    HW228683   1.955   6.960   5.531
 9262SOL     OW28684   6.363   6.759   7.009
 9262SOL    HW128685   6.293   6.699   6.970
 9262SOL    HW228686   6.453   6.728   6.979
 9263SOL     OW28687   5.741   3.859   2.452
 9263SOL    HW128688   5.651   3.902   2.446
 9263SOL    HW228689   5.798   3.908   2.517
 9264SOL     OW28690   5.342   2.227   0.450
 9264SOL    HW128691   5.348   2.322   0.421
 9264SOL    HW228692   5.368   2.167   0.374
 9265SOL     OW28693   1.803   1.238   5.674
 9265SOL    HW128694   1.803   1.316   5.737
 9265SOL    HW228695   1.715   1.192   5.678
 9266SOL     OW28696   3.102   6.727   3.385
 9266SOL    HW128697   3.111   6.695   3.479
 9266SOL    HW228698   3.071   6.652   3.327
 9267SOL     OW28699   2.995   4.825   6.068
 9267SOL    HW128700   2.987   4.796   6.164
 9267SOL    HW228701   3.002   4.924   6.064
 9268SOL     OW28702   1.024   1.227   3.049
 9268SOL    HW128703   0.967   1.188   2.977
 9268SOL    HW228704   1.061   1.153   3.106
 9269SOL     OW28705   4.402   1.408   5.149
 9269SOL    HW128706   4.444   1.457   5.225
 9269SOL    HW228707   4.303   1.400   5.164
 9270SOL     OW28708   1.756   0.810   5.228
 9270SOL    HW128709   1.749   0.907   5.251
 9270SOL    HW228710   1.822   0.798   5.154
 9271SOL     OW28711   0.220   5.739   5.731
 9271SOL    HW128712   0.129   5.714   5.763
 9271SOL    HW228713   0.290   5.693   5.786
 9272SOL     OW28714   2.242   5.416   6.774
 9272SOL    HW128715   2.166   5.366   6.734
 9272SOL    HW228716   2.327   5.392   6.728
 9273SOL     OW28717   3.247   5.147   5.878
 9273SOL    HW128718   3.324   5.192   5.923
 9273SOL    HW228719   3.179   5.120   5.946
 9274SOL     OW28720   4.796   1.465   1.672
 9274SOL    HW128721   4.832   1.516   1.750
 9274SOL    HW228722   4.707   1.425   1.697
 9275SOL     OW28723   6.867   0.349   6.230
 9275SOL    HW128724   6.848   0.281   6.301
 9275SOL    HW228725   6.782   0.376   6.186
 9276SOL     OW28726   4.999   0.539   3.748
 9276SOL    HW128727   4.927   0.608   3.753
 9276SOL    HW228728   5.038   0.537   3.656
 9277SOL     OW28729   5.172   2.238   6.838
 9277SOL    HW128730   5.171   2.216   6.740
 9277SOL    HW228731   5.082   2.272   6.866
 9278SOL     OW28732   1.205   2.099   1.061
 9278SOL    HW128733   1.138   2.025   1.068
 9278SOL    HW228734   1.205   2.135   0.968
 9279SOL     OW28735   2.675   0.240   0.900
 9279SOL    HW128736   2.704   0.171   0.966
 9279SOL    HW228737   2.615   0.198   0.832
 9280SOL     OW28738   1.780   0.739   2.044
 9280SOL    HW128739   1.715   0.672   2.009
 9280SOL    HW228740   1.732   0.823   2.067
 9281SOL     OW28741   1.622   2.293   0.381
 9281SOL    HW128742   1.710   2.341   0.376
 9281SOL    HW228743   1.614   2.230   0.304
 9282SOL     OW28744   4.027   0.540   5.954
 9282SOL    HW128745   4.110   0.562   5.902
 9282SOL    HW228746   3.985   0.625   5.985
 9283SOL     OW28747   5.769   2.695   3.534
 9283SOL    HW128748   5.813   2.748   3.606
 9283SOL    HW228749   5.800   2.727   3.445
 9284SOL     OW28750   3.839   3.872   2.452
 9284SOL    HW128751   3.793   3.941   2.395
 9284SOL    HW228752   3.916   3.834   2.401
 9285SOL     OW28753   6.680   2.651   7.015
 9285SOL    HW128754   6.688   2.662   6.916
 9285SOL    HW228755   6.604   2.707   0.021
 9286SOL     OW28756   5.692   5.423   4.611
 9286SOL    HW128757   5.790   5.410   4.599
 9286SOL    HW228758   5.644   5.338   4.588
 9287SOL     OW28759   3.625   6.926   2.727
 9287SOL    HW128760   3.710   6.933   2.780
 9287SOL    HW228761   3.642   6.957   2.633
 9288SOL     OW28762   4.434   1.689   6.982
 9288SOL    HW128763   4.435   1.786   6.958
 9288SOL    HW228764   4.346   1.665   7.022
 9289SOL     OW28765   5.592   3.513   3.781
 9289SOL    HW128766   5.587   3.433   3.841
 9289SOL    HW228767   5.505   3.563   3.786
 9290SOL     OW28768   4.030   2.223   4.334
 9290SOL    HW128769   3.958   2.193   4.272
 9290SOL    HW228770   4.115   2.176   4.311
 9291SOL     OW28771   0.713   3.263   5.029
 9291SOL    HW128772   0.621   3.300   5.034
 9291SOL    HW228773   0.710   3.173   4.987
 9292SOL     OW28774   1.298   4.179   6.710
 9292SOL    HW128775   1.209   4.217   6.731
 9292SOL    HW228776   1.362   4.253   6.688
 9293SOL     OW28777   5.428   3.351   6.032
 9293SOL    HW128778   5.462   3.275   6.086
 9293SOL    HW228779   5.435   3.328   5.935
 9294SOL     OW28780   5.356   5.647   0.081
 9294SOL    HW128781   5.435   5.708   0.091
 9294SOL    HW228782   5.285   5.674   0.146
 9295SOL     OW28783   4.832   2.945   3.207
 9295SOL    HW128784   4.780   2.881   3.152
 9295SOL    HW228785   4.910   2.980   3.154
 9296SOL     OW28786   6.183   0.335   4.728
 9296SOL    HW128787   6.115   0.272   4.691
 9296SOL    HW228788   6.144   0.382   4.807
 9297SOL     OW28789   0.310   6.922   1.705
 9297SOL    HW128790   0.234   6.889   1.761
 9297SOL    HW228791   0.375   6.848   1.689
 9298SOL     OW28792   0.158   6.715   4.291
 9298SOL    HW128793   0.130   6.780   4.221
 9298SOL    HW228794   0.180   6.763   4.375
 9299SOL     OW28795   2.013   2.290   4.646
 9299SOL    HW128796   1.986   2.243   4.562
 9299SOL    HW228797   2.033   2.386   4.625
 9300SOL     OW28798   5.794   4.819   4.037
 9300SOL    HW128799   5.764   4.848   3.946
 9300SOL    HW228800   5.857   4.887   4.075
 9301SOL     OW28801   6.401   4.967   1.469
 9301SOL    HW128802   6.409   5.003   1.376
 9301SOL    HW228803   6.369   4.872   1.465
 9302SOL     OW28804   1.108   2.007   2.994
 9302SOL    HW128805   1.103   1.909   3.013
 9302SOL    HW228806   1.024   2.036   2.948
 9303SOL     OW28807   4.535   3.983   0.223
 9303SOL    HW128808   4.599   3.991   0.300
 9303SOL    HW228809   4.547   4.061   0.162
 9304SOL     OW28810   5.150   3.663   0.818
 9304SOL    HW128811   5.182   3.645   0.911
 9304SOL    HW228812   5.054   3.635   0.810
 9305SOL     OW28813   4.645   3.963   1.740
 9305SOL    HW128814   4.716   3.998   1.801
 9305SOL    HW228815   4.568   4.027   1.738
 9306SOL     OW28816   0.525   6.466   2.769
 9306SOL    HW128817   0.539   6.522   2.687
 9306SOL    HW228818   0.542   6.521   2.850
 9307SOL     OW28819   2.148   0.835   6.497
 9307SOL    HW128820   2.210   0.894   6.446
 9307SOL    HW228821   2.107   0.768   6.435
 9308SOL     OW28822   0.391   1.734   0.487
 9308SOL    HW128823   0.328   1.717   0.562
 9308SOL    HW228824   0.341   1.732   0.400
 9309SOL     OW28825   4.078   2.887   0.116
 9309SOL    HW128826   3.997   2.929   0.075
 9309SOL    HW228827   4.080   2.909   0.214
 9310SOL     OW28828   4.397   5.811   1.359
 9310SOL    HW128829   4.494   5.802   1.335
 9310SOL    HW228830   4.347   5.853   1.283
 9311SOL     OW28831   0.401   2.977   1.154
 9311SOL    HW128832   0.340   3.024   1.219
 9311SOL    HW228833   0.415   2.883   1.183
 9312SOL     OW28834   1.858   3.493   4.975
 9312SOL    HW128835   1.769   3.517   4.935
 9312SOL    HW228836   1.931   3.538   4.923
 9313SOL     OW28837   6.881   0.675   3.354
 9313SOL    HW128838   6.853   0.579   3.346
 9313SOL    HW228839   6.963   0.689   3.298
 9314SOL     OW28840   0.015   4.007   0.670
 9314SOL    HW128841   6.997   4.035   0.585
 9314SOL    HW228842   7.013   4.068   0.744
 9315SOL     OW28843   0.746   6.138   6.235
 9315SOL    HW128844   0.754   6.179   6.325
 9315SOL    HW228845   0.675   6.067   6.237
 9316SOL     OW28846   2.976   4.846   4.718
 9316SOL    HW128847   3.026   4.861   4.804
 9316SOL    HW228848   2.889   4.802   4.738
 9317SOL     OW28849   4.041   4.201   5.876
 9317SOL    HW128850   4.055   4.130   5.807
 9317SOL    HW228851   3.956   4.183   5.925
 9318SOL     OW28852   0.342   6.859   5.838
 9318SOL    HW128853   0.363   6.881   5.933
 9318SOL    HW228854   0.266   6.916   5.807
 9319SOL     OW28855   6.794   4.122   4.091
 9319SOL    HW128856   6.698   4.127   4.062
 9319SOL    HW228857   6.844   4.060   4.031
 9320SOL     OW28858   3.759   3.340   5.508
 9320SOL    HW128859   3.740   3.269   5.439
 9320SOL    HW228860   3.673   3.381   5.537
 9321SOL     OW28861   5.495   0.444   4.183
 9321SOL    HW128862   5.460   0.396   4.264
 9321SOL    HW228863   5.469   0.393   4.101
 9322SOL     OW28864   0.765   5.935   1.262
 9322SOL    HW128865   0.730   5.937   1.168
 9322SOL    HW228866   0.858   5.900   1.262
 9323SOL     OW28867   0.820   1.225   5.751
 9323SOL    HW128868   0.811   1.289   5.675
 9323SOL    HW228869   0.908   1.240   5.797
 9324SOL     OW28870   1.200   5.368   6.921
 9324SOL    HW128871   1.293   5.345   6.894
 9324SOL    HW228872   1.198   5.462   6.957
 9325SOL     OW28873   0.090   3.361   6.706
 9325SOL    HW128874   0.184   3.347   6.738
 9325SOL    HW228875   0.026   3.346   6.781
 9326SOL     OW28876   2.381   6.013   1.749
 9326SOL    HW128877   2.451   5.947   1.776
 9326SOL    HW228878   2.419   6.106   1.752
 9327SOL     OW28879   2.254   1.704   4.433
 9327SOL    HW128880   2.214   1.672   4.347
 9327SOL    HW228881   2.181   1.738   4.493
 9328SOL     OW28882   2.344   1.806   1.932
 9328SOL    HW128883   2.398   1.723   1.917
 9328SOL    HW228884   2.358   1.839   2.025
 9329SOL     OW28885   0.857   3.992   1.412
 9329SOL    HW128886   0.853   3.967   1.508
 9329SOL    HW228887   0.807   3.924   1.358
 9330SOL     OW28888   5.532   5.859   6.715
 9330SOL    HW128889   5.486   5.796   6.779
 9330SOL    HW228890   5.631   5.856   6.730
 9331SOL     OW28891   1.194   0.638   0.154
 9331SOL    HW128892   1.157   0.563   0.210
 9331SOL    HW228893   1.292   0.646   0.169
 9332SOL     OW28894   3.703   3.847   4.914
 9332SOL    HW128895   3.631   3.890   4.969
 9332SOL    HW228896   3.750   3.916   4.859
 9333SOL     OW28897   5.243   6.445   1.100
 9333SOL    HW128898   5.194   6.358   1.096
 9333SOL    HW228899   5.272   6.472   1.008
 9334SOL     OW28900   1.955   6.518   5.133
 9334SOL    HW128901   2.004   6.448   5.080
 9334SOL    HW228902   1.916   6.476   5.215
 9335SOL     OW28903   0.145   1.755   2.664
 9335SOL    HW128904   0.118   1.708   2.580
 9335SOL    HW228905   0.190   1.842   2.641
 9336SOL     OW28906   3.287   0.376   5.339
 9336SOL    HW128907   3.334   0.422   5.414
 9336SOL    HW228908   3.345   0.303   5.302
 9337SOL     OW28909   5.322   6.751   3.359
 9337SOL    HW128910   5.382   6.772   3.282
 9337SOL    HW228911   5.377   6.739   3.442
 9338SOL     OW28912   1.651   6.513   2.888
 9338SOL    HW128913   1.699   6.599   2.900
 9338SOL    HW228914   1.713   6.445   2.850
 9339SOL     OW28915   3.981   5.461   1.014
 9339SOL    HW128916   4.060   5.448   0.953
 9339SOL    HW228917   3.983   5.392   1.086
 9340SOL     OW28918   6.940   3.002   6.626
 9340SOL    HW128919   0.008   3.029   6.610
 9340SOL    HW228920   6.881   3.049   6.561
 9341SOL     OW28921   1.099   3.940   5.772
 9341SOL    HW128922   1.007   3.948   5.810
 9341SOL    HW228923   1.104   3.990   5.686
 9342SOL     OW28924   1.323   0.162   0.476
 9342SOL    HW128925   1.270   0.090   0.431
 9342SOL    HW228926   1.370   0.216   0.407
 9343SOL     OW28927   6.202   6.472   3.079
 9343SOL    HW128928   6.276   6.477   3.012
 9343SOL    HW228929   6.172   6.565   3.102
 9344SOL     OW28930   5.354   6.184   0.828
 9344SOL    HW128931   5.329   6.279   0.844
 9344SOL    HW228932   5.289   6.124   0.876
 9345SOL     OW28933   0.850   2.316   0.588
 9345SOL    HW128934   0.900   2.246   0.536
 9345SOL    HW228935   0.881   2.407   0.559
 9346SOL     OW28936   6.280   0.630   1.142
 9346SOL    HW128937   6.181   0.620   1.137
 9346SOL    HW228938   6.319   0.557   1.198
 9347SOL     OW28939   1.615   6.194   3.069
 9347SOL    HW128940   1.675   6.134   3.122
 9347SOL    HW228941   1.596   6.152   2.981
 9348SOL     OW28942   3.046   5.026   0.498
 9348SOL    HW128943   3.053   5.047   0.400
 9348SOL    HW228944   3.102   4.947   0.520
 9349SOL     OW28945   1.151   6.288   3.147
 9349SOL    HW128946   1.182   6.379   3.119
 9349SOL    HW228947   1.083   6.254   3.083
 9350SOL     OW28948   0.441   3.242   5.352
 9350SOL    HW128949   0.423   3.215   5.257
 9350SOL    HW228950   0.446   3.160   5.409
 9351SOL     OW28951   3.137   6.530   0.027
 9351SOL    HW128952   3.071   6.584   7.002
 9351SOL    HW228953   3.088   6.472   0.092
 9352SOL     OW28954   2.686   4.684   6.148
 9352SOL    HW128955   2.780   4.705   6.120
 9352SOL    HW228956   2.631   4.665   6.066
 9353SOL     OW28957   6.767   6.752   0.999
 9353SOL    HW128958   6.717   6.838   0.998
 9353SOL    HW228959   6.803   6.733   0.907
 9354SOL     OW28960   1.190   1.063   5.488
 9354SOL    HW128961   1.176   1.055   5.587
 9354SOL    HW228962   1.102   1.060   5.442
 9355SOL     OW28963   1.001   1.397   5.434
 9355SOL    HW128964   0.995   1.389   5.334
 9355SOL    HW228965   1.049   1.481   5.457
 9356SOL     OW28966   3.983   0.261   3.062
 9356SOL    HW128967   3.999   0.347   3.015
 9356SOL    HW228968   4.031   0.261   3.150
 9357SOL     OW28969   2.142   2.373   0.707
 9357SOL    HW128970   2.222   2.416   0.666
 9357SOL    HW228971   2.142   2.388   0.806
 9358SOL     OW28972   0.901   1.590   0.431
 9358SOL    HW128973   0.949   1.557   0.349
 9358SOL    HW228974   0.882   1.514   0.492
 9359SOL     OW28975   0.255   0.876   5.642
 9359SOL    HW128976   0.344   0.832   5.653
 9359SOL    HW228977   0.260   0.970   5.675
 9360SOL     OW28978   6.580   6.348   6.096
 9360SOL    HW128979   6.658   6.322   6.039
 9360SOL    HW228980   6.560   6.274   6.160
 9361SOL     OW28981   2.421   5.709   4.392
 9361SOL    HW128982   2.350   5.646   4.359
 9361SOL    HW228983   2.494   5.715   4.324
 9362SOL     OW28984   1.728   0.616   2.649
 9362SOL    HW128985   1.823   0.641   2.630
 9362SOL    HW228986   1.702   0.538   2.592
 9363SOL     OW28987   1.112   2.615   2.274
 9363SOL    HW128988   1.022   2.595   2.313
 9363SOL    HW228989   1.105   2.619   2.175
 9364SOL     OW28990   0.817   2.179   6.768
 9364SOL    HW128991   0.883   2.139   6.705
 9364SOL    HW228992   0.749   2.110   6.794
 9365SOL     OW28993   2.982   0.998   5.278
 9365SOL    HW128994   3.061   1.023   5.334
 9365SOL    HW228995   2.957   1.075   5.219
 9366SOL     OW28996   3.341   6.045   2.216
 9366SOL    HW128997   3.267   6.106   2.243
 9366SOL    HW228998   3.373   5.994   2.296
 9367SOL     OW28999   6.968   6.961   1.633
 9367SOL    HW129000   6.954   6.999   1.541
 9367SOL    HW229001   0.035   6.977   1.661
 9368SOL     OW29002   2.145   0.876   3.314
 9368SOL    HW129003   2.186   0.790   3.283
 9368SOL    HW229004   2.149   0.943   3.240
 9369SOL     OW29005   3.320   5.118   0.662
 9369SOL    HW129006   3.358   5.055   0.729
 9369SOL    HW229007   3.372   5.111   0.577
 9370SOL     OW29008   4.768   2.617   5.457
 9370SOL    HW129009   4.771   2.534   5.401
 9370SOL    HW229010   4.745   2.695   5.400
 9371SOL     OW29011   3.779   5.062   0.430
 9371SOL    HW129012   3.786   4.975   0.478
 9371SOL    HW229013   3.867   5.111   0.437
 9372SOL     OW29014   5.627   6.769   0.589
 9372SOL    HW129015   5.628   6.719   0.502
 9372SOL    HW229016   5.547   6.829   0.592
 9373SOL     OW29017   0.024   1.437   1.545
 9373SOL    HW129018   0.080   1.516   1.569
 9373SOL    HW229019   7.017   1.395   1.629
 9374SOL     OW29020   6.874   5.607   6.077
 9374SOL    HW129021   6.827   5.525   6.046
 9374SOL    HW229022   6.807   5.679   6.097
 9375SOL     OW29023   1.584   1.561   0.015
 9375SOL    HW129024   1.637   1.578   6.959
 9375SOL    HW229025   1.486   1.567   7.022
 9376SOL     OW29026   3.264   3.976   0.771
 9376SOL    HW129027   3.169   3.997   0.794
 9376SOL    HW229028   3.298   4.043   0.705
 9377SOL     OW29029   0.773   0.917   3.234
 9377SOL    HW129030   0.697   0.965   3.189
 9377SOL    HW229031   0.817   0.978   3.299
 9378SOL     OW29032   4.422   1.147   5.488
 9378SOL    HW129033   4.426   1.049   5.470
 9378SOL    HW229034   4.358   1.190   5.425
 9379SOL     OW29035   3.702   0.160   4.470
 9379SOL    HW129036   3.753   0.242   4.444
 9379SOL    HW229037   3.733   0.126   4.559
 9380SOL     OW29038   5.173   6.389   1.481
 9380SOL    HW129039   5.100   6.325   1.503
 9380SOL    HW229040   5.208   6.429   1.566
 9381SOL     OW29041   4.397   1.555   4.695
 9381SOL    HW129042   4.387   1.589   4.788
 9381SOL    HW229043   4.361   1.462   4.690
 9382SOL     OW29044   2.560   5.932   5.924
 9382SOL    HW129045   2.497   5.976   5.988
 9382SOL    HW229046   2.508   5.876   5.860
 9383SOL     OW29047   5.720   4.080   1.084
 9383SOL    HW129048   5.721   3.981   1.070
 9383SOL    HW229049   5.655   4.103   1.156
 9384SOL     OW29050   4.674   0.903   0.550
 9384SOL    HW129051   4.769   0.881   0.526
 9384SOL    HW229052   4.614   0.880   0.473
 9385SOL     OW29053   4.369   2.432   4.454
 9385SOL    HW129054   4.278   2.464   4.428
 9385SOL    HW229055   4.374   2.333   4.440
 9386SOL     OW29056   5.285   0.670   0.920
 9386SOL    HW129057   5.232   0.587   0.909
 9386SOL    HW229058   5.344   0.684   0.841
 9387SOL     OW29059   3.263   2.338   6.785
 9387SOL    HW129060   3.317   2.272   6.839
 9387SOL    HW229061   3.304   2.347   6.694
 9388SOL     OW29062   2.286   6.491   5.414
 9388SOL    HW129063   2.332   6.580   5.414
 9388SOL    HW229064   2.348   6.421   5.449
 9389SOL     OW29065   2.183   3.772   1.891
 9389SOL    HW129066   2.187   3.697   1.957
 9389SOL    HW229067   2.168   3.858   1.940
 9390SOL     OW29068   5.926   5.076   4.079
 9390SOL    HW129069   6.004   5.134   4.101
 9390SOL    HW229070   5.861   5.078   4.155
 9391SOL     OW29071   0.411   4.908   4.526
 9391SOL    HW129072   0.333   4.959   4.488
 9391SOL    HW229073   0.417   4.818   4.482
 9392SOL     OW29074   3.475   5.191   2.775
 9392SOL    HW129075   3.505   5.160   2.685
 9392SOL    HW229076   3.539   5.156   2.845
 9393SOL     OW29077   2.312   5.014   0.423
 9393SOL    HW129078   2.238   5.071   0.457
 9393SOL    HW229079   2.306   4.923   0.464
 9394SOL     OW29080   5.036   0.025   6.989
 9394SOL    HW129081   5.006   0.028   6.893
 9394SOL    HW229082   5.003   6.969   0.004
 9395SOL     OW29083   0.400   0.571   1.574
 9395SOL    HW129084   0.476   0.634   1.558
 9395SOL    HW229085   0.344   0.606   1.649
 9396SOL     OW29086   0.765   0.640   6.550
 9396SOL    HW129087   0.753   0.586   6.466
 9396SOL    HW229088   0.859   0.676   6.553
 9397SOL     OW29089   3.775   1.661   5.918
 9397SOL    HW129090   3.754   1.728   5.989
 9397SOL    HW229091   3.732   1.574   5.940
 9398SOL     OW29092   0.231   3.012   6.879
 9398SOL    HW129093   0.202   3.039   6.787
 9398SOL    HW229094   0.287   3.085   6.919
 9399SOL     OW29095   1.426   2.665   4.424
 9399SOL    HW129096   1.468   2.654   4.514
 9399SOL    HW229097   1.450   2.754   4.386
 9400SOL     OW29098   5.552   1.229   0.535
 9400SOL    HW129099   5.474   1.252   0.593
 9400SOL    HW229100   5.520   1.205   0.444
 9401SOL     OW29101   6.633   1.984   3.684
 9401SOL    HW129102   6.612   1.908   3.746
 9401SOL    HW229103   6.560   1.992   3.616
 9402SOL     OW29104   3.646   5.356   5.467
 9402SOL    HW129105   3.622   5.260   5.475
 9402SOL    HW229106   3.671   5.392   5.557
 9403SOL     OW29107   5.766   2.650   0.942
 9403SOL    HW129108   5.859   2.616   0.951
 9403SOL    HW229109   5.767   2.737   0.892
 9404SOL     OW29110   2.194   1.978   0.843
 9404SOL    HW129111   2.157   1.898   0.795
 9404SOL    HW229112   2.284   2.001   0.806
 9405SOL     OW29113   5.506   5.645   5.056
 9405SOL    HW129114   5.470   5.707   5.126
 9405SOL    HW229115   5.476   5.676   4.966
 9406SOL     OW29116   1.168   0.726   0.837
 9406SOL    HW129117   1.083   0.760   0.796
 9406SOL    HW229118   1.155   0.631   0.864
 9407SOL     OW29119   1.620   4.576   4.753
 9407SOL    HW129120   1.675   4.493   4.745
 9407SOL    HW229121   1.678   4.656   4.737
 9408SOL     OW29122   5.780   5.288   3.914
 9408SOL    HW129123   5.789   5.199   3.957
 9408SOL    HW229124   5.854   5.348   3.945
 9409SOL     OW29125   5.725   5.080   1.933
 9409SOL    HW129126   5.781   5.079   1.850
 9409SOL    HW229127   5.714   5.174   1.965
 9410SOL     OW29128   4.858   0.503   0.619
 9410SOL    HW129129   4.892   0.479   0.528
 9410SOL    HW229130   4.824   0.422   0.665
 9411SOL     OW29131   3.716   3.616   5.379
 9411SOL    HW129132   3.655   3.537   5.369
 9411SOL    HW229133   3.725   3.639   5.476
 9412SOL     OW29134   4.098   6.828   1.526
 9412SOL    HW129135   4.187   6.830   1.479
 9412SOL    HW229136   4.055   6.739   1.510
 9413SOL     OW29137   3.775   4.921   2.934
 9413SOL    HW129138   3.817   4.875   2.856
 9413SOL    HW229139   3.837   4.917   3.013
 9414SOL     OW29140   2.242   0.951   1.717
 9414SOL    HW129141   2.267   0.966   1.621
 9414SOL    HW229142   2.173   0.879   1.723
 9415SOL     OW29143   4.567   0.545   0.784
 9415SOL    HW129144   4.558   0.641   0.758
 9415SOL    HW229145   4.582   0.538   0.883
 9416SOL     OW29146   6.792   5.249   6.071
 9416SOL    HW129147   6.886   5.224   6.049
 9416SOL    HW229148   6.780   5.251   6.171
 9417SOL     OW29149   4.255   6.367   3.162
 9417SOL    HW129150   4.317   6.440   3.133
 9417SOL    HW229151   4.240   6.304   3.086
 9418SOL     OW29152   2.735   2.018   5.098
 9418SOL    HW129153   2.796   2.070   5.038
 9418SOL    HW229154   2.652   1.993   5.047
 9419SOL     OW29155   2.983   2.225   5.969
 9419SOL    HW129156   2.957   2.272   6.054
 9419SOL    HW229157   3.069   2.263   5.934
 9420SOL     OW29158   4.477   3.238   5.674
 9420SOL    HW129159   4.572   3.226   5.646
 9420SOL    HW229160   4.432   3.149   5.678
 9421SOL     OW29161   3.646   6.973   0.038
 9421SOL    HW129162   3.547   6.986   0.052
 9421SOL    HW229163   3.677   6.896   0.093
 9422SOL     OW29164   1.773   6.383   6.131
 9422SOL    HW129165   1.696   6.320   6.121
 9422SOL    HW229166   1.843   6.363   6.063
 9423SOL     OW29167   5.260   4.763   1.209
 9423SOL    HW129168   5.214   4.675   1.200
 9423SOL    HW229169   5.294   4.793   1.120
 9424SOL     OW29170   5.748   6.618   4.019
 9424SOL    HW129171   5.841   6.645   3.993
 9424SOL    HW229172   5.730   6.646   4.113
 9425SOL     OW29173   0.403   5.672   1.194
 9425SOL    HW129174   0.408   5.613   1.114
 9425SOL    HW229175   0.493   5.676   1.238
 9426SOL     OW29176   5.027   0.931   6.160
 9426SOL    HW129177   5.118   0.891   6.164
 9426SOL    HW229178   5.015   0.977   6.072
 9427SOL     OW29179   3.073   5.635   2.049
 9427SOL    HW129180   3.110   5.687   1.972
 9427SOL    HW229181   3.122   5.661   2.132
 9428SOL     OW29182   6.544   6.444   4.463
 9428SOL    HW129183   6.604   6.523   4.475
 9428SOL    HW229184   6.577   6.368   4.518
 9429SOL     OW29185   3.069   2.022   4.210
 9429SOL    HW129186   3.036   2.068   4.293
 9429SOL    HW229187   2.993   2.008   4.147
 9430SOL     OW29188   1.450   0.460   3.923
 9430SOL    HW129189   1.528   0.417   3.878
 9430SOL    HW229190   1.406   0.523   3.859
 9431SOL     OW29191   1.317   4.945   5.285
 9431SOL    HW129192   1.271   5.031   5.306
 9431SOL    HW229193   1.393   4.962   5.222
 9432SOL     OW29194   6.654   2.241   2.946
 9432SOL    HW129195   6.700   2.319   2.905
 9432SOL    HW229196   6.585   2.272   3.011
 9433SOL     OW29197   4.689   5.743   1.333
 9433SOL    HW129198   4.708   5.822   1.391
 9433SOL    HW229199   4.743   5.664   1.364
 9434SOL     OW29200   5.174   6.228   4.801
 9434SOL    HW129201   5.197   6.319   4.769
 9434SOL    HW229202   5.253   6.167   4.787
 9435SOL     OW29203   6.924   3.903   6.986
 9435SOL    HW129204   6.862   3.965   0.007
 9435SOL    HW229205   6.896   3.809   7.002
 9436SOL     OW29206   2.635   2.002   2.596
 9436SOL    HW129207   2.714   1.942   2.580
 9436SOL    HW229208   2.664   2.082   2.649
 9437SOL     OW29209   4.538   1.360   3.479
 9437SOL    HW129210   4.526   1.298   3.401
 9437SOL    HW229211   4.589   1.313   3.551
 9438SOL     OW29212   4.460   0.558   2.554
 9438SOL    HW129213   4.461   0.474   2.609
 9438SOL    HW229214   4.450   0.534   2.457
 9439SOL     OW29215   1.728   5.178   0.739
 9439SOL    HW129216   1.631   5.154   0.742
 9439SOL    HW229217   1.741   5.258   0.681
 9440SOL     OW29218   1.684   5.088   3.944
 9440SOL    HW129219   1.673   4.989   3.929
 9440SOL    HW229220   1.781   5.112   3.941
 9441SOL     OW29221   6.915   6.554   4.320
 9441SOL    HW129222   7.002   6.567   4.272
 9441SOL    HW229223   6.855   6.496   4.265
 9442SOL     OW29224   6.274   2.437   0.766
 9442SOL    HW129225   6.335   2.425   0.687
 9442SOL    HW229226   6.322   2.487   0.838
 9443SOL     OW29227   0.984   4.976   1.301
 9443SOL    HW129228   0.983   5.000   1.204
 9443SOL    HW229229   0.998   5.058   1.356
 9444SOL     OW29230   2.017   6.069   5.961
 9444SOL    HW129231   1.999   5.971   5.971
 9444SOL    HW229232   1.970   6.119   6.034
 9445SOL     OW29233   1.198   1.157   4.424
 9445SOL    HW129234   1.205   1.158   4.524
 9445SOL    HW229235   1.102   1.144   4.398
 9446SOL     OW29236   4.833   5.973   3.139
 9446SOL    HW129237   4.794   6.040   3.077
 9446SOL    HW229238   4.765   5.901   3.157
 9447SOL     OW29239   6.083   5.183   2.417
 9447SOL    HW129240   5.994   5.159   2.378
 9447SOL    HW229241   6.154   5.128   2.373
 9448SOL     OW29242   4.977   3.100   0.332
 9448SOL    HW129243   5.018   3.186   0.362
 9448SOL    HW229244   4.931   3.113   0.245
 9449SOL     OW29245   4.139   0.389   2.644
 9449SOL    HW129246   4.053   0.338   2.642
 9449SOL    HW229247   4.131   0.471   2.589
 9450SOL     OW29248   0.758   0.406   2.064
 9450SOL    HW129249   0.828   0.335   2.075
 9450SOL    HW229250   0.709   0.391   1.979
 9451SOL     OW29251   4.190   5.031   0.262
 9451SOL    HW129252   4.119   5.082   0.311
 9451SOL    HW229253   4.159   5.011   0.169
 9452SOL     OW29254   6.202   2.818   5.356
 9452SOL    HW129255   6.106   2.846   5.350
 9452SOL    HW229256   6.241   2.850   5.442
 9453SOL     OW29257   6.031   4.661   2.698
 9453SOL    HW129258   6.075   4.593   2.757
 9453SOL    HW229259   6.093   4.738   2.683
 9454SOL     OW29260   5.377   5.251   1.351
 9454SOL    HW129261   5.397   5.335   1.401
 9454SOL    HW229262   5.338   5.275   1.261
 9455SOL     OW29263   4.754   0.778   1.537
 9455SOL    HW129264   4.705   0.695   1.512
 9455SOL    HW229265   4.726   0.852   1.477
 9456SOL     OW29266   6.722   2.545   1.544
 9456SOL    HW129267   6.698   2.496   1.461
 9456SOL    HW229268   6.816   2.520   1.570
 9457SOL     OW29269   6.763   6.432   4.132
 9457SOL    HW129270   6.670   6.462   4.108
 9457SOL    HW229271   6.778   6.340   4.096
 9458SOL     OW29272   0.072   4.334   6.958
 9458SOL    HW129273   0.059   4.418   6.907
 9458SOL    HW229274   0.124   4.268   6.903
 9459SOL     OW29275   6.518   4.407   4.854
 9459SOL    HW129276   6.511   4.319   4.806
 9459SOL    HW229277   6.468   4.402   4.940
 9460SOL     OW29278   2.184   3.038   2.896
 9460SOL    HW129279   2.188   3.071   2.991
 9460SOL    HW229280   2.265   2.984   2.876
 9461SOL     OW29281   1.142   1.430   1.013
 9461SOL    HW129282   1.044   1.441   1.028
 9461SOL    HW229283   1.174   1.503   0.952
 9462SOL     OW29284   0.064   1.213   4.825
 9462SOL    HW129285   0.109   1.125   4.837
 9462SOL    HW229286   0.024   1.218   4.733
 9463SOL     OW29287   0.930   5.081   1.034
 9463SOL    HW129288   1.024   5.115   1.027
 9463SOL    HW229289   0.868   5.147   0.993
 9464SOL     OW29290   1.459   1.188   2.127
 9464SOL    HW129291   1.438   1.258   2.196
 9464SOL    HW229292   1.374   1.155   2.086
 9465SOL     OW29293   1.696   5.568   6.886
 9465SOL    HW129294   1.728   5.628   6.958
 9465SOL    HW229295   1.740   5.592   6.799
 9466SOL     OW29296   3.626   4.161   5.518
 9466SOL    HW129297   3.559   4.235   5.506
 9466SOL    HW229298   3.683   4.156   5.436
 9467SOL     OW29299   1.510   3.644   1.648
 9467SOL    HW129300   1.444   3.570   1.634
 9467SOL    HW229301   1.591   3.627   1.593
 9468SOL     OW29302   0.018   2.304   0.865
 9468SOL    HW129303   7.003   2.347   0.785
 9468SOL    HW229304   0.059   2.374   0.924
 9469SOL     OW29305   5.926   6.978   1.900
 9469SOL    HW129306   5.849   7.024   1.943
 9469SOL    HW229307   5.957   6.903   1.959
 9470SOL     OW29308   3.146   3.406   1.310
 9470SOL    HW129309   3.242   3.383   1.298
 9470SOL    HW229310   3.137   3.495   1.354
 9471SOL     OW29311   0.313   3.402   4.824
 9471SOL    HW129312   0.350   3.451   4.745
 9471SOL    HW229313   0.251   3.331   4.793
 9472SOL     OW29314   2.346   4.102   6.086
 9472SOL    HW129315   2.427   4.144   6.045
 9472SOL    HW229316   2.359   4.004   6.093
 9473SOL     OW29317   2.859   3.452   2.150
 9473SOL    HW129318   2.919   3.514   2.101
 9473SOL    HW229319   2.770   3.447   2.104
 9474SOL     OW29320   5.548   4.358   0.609
 9474SOL    HW129321   5.575   4.352   0.705
 9474SOL    HW229322   5.620   4.318   0.551
 9475SOL     OW29323   6.210   3.452   6.813
 9475SOL    HW129324   6.266   3.476   6.734
 9475SOL    HW229325   6.117   3.487   6.800
 9476SOL     OW29326   4.169   3.313   1.106
 9476SOL    HW129327   4.185   3.244   1.035
 9476SOL    HW229328   4.102   3.278   1.172
 9477SOL     OW29329   0.652   5.754   1.418
 9477SOL    HW129330   0.710   5.714   1.489
 9477SOL    HW229331   0.703   5.826   1.370
 9478SOL     OW29332   0.205   3.659   5.264
 9478SOL    HW129333   0.194   3.623   5.172
 9478SOL    HW229334   0.180   3.756   5.266
 9479SOL     OW29335   4.277   0.394   1.949
 9479SOL    HW129336   4.372   0.406   1.920
 9479SOL    HW229337   4.262   0.299   1.974
 9480SOL     OW29338   5.302   1.242   1.190
 9480SOL    HW129339   5.377   1.254   1.125
 9480SOL    HW229340   5.215   1.263   1.145
 9481SOL     OW29341   4.810   6.915   3.427
 9481SOL    HW129342   4.903   6.886   3.408
 9481SOL    HW229343   4.788   6.897   3.522
 9482SOL     OW29344   5.662   3.775   6.536
 9482SOL    HW129345   5.641   3.817   6.447
 9482SOL    HW229346   5.637   3.839   6.609
 9483SOL     OW29347   5.921   4.979   0.459
 9483SOL    HW129348   5.920   5.018   0.551
 9483SOL    HW229349   5.853   5.025   0.402
 9484SOL     OW29350   1.044   5.435   3.837
 9484SOL    HW129351   1.004   5.364   3.896
 9484SOL    HW229352   1.143   5.422   3.831
 9485SOL     OW29353   6.439   1.776   5.849
 9485SOL    HW129354   6.431   1.688   5.896
 9485SOL    HW229355   6.374   1.779   5.773
 9486SOL     OW29356   6.113   5.313   6.394
 9486SOL    HW129357   6.177   5.385   6.367
 9486SOL    HW229358   6.141   5.226   6.353
 9487SOL     OW29359   3.109   3.934   3.606
 9487SOL    HW129360   3.117   3.979   3.695
 9487SOL    HW229361   3.179   3.863   3.597
 9488SOL     OW29362   0.601   1.674   2.505
 9488SOL    HW129363   0.700   1.657   2.504
 9488SOL    HW229364   0.567   1.668   2.598
 9489SOL     OW29365   0.376   4.487   0.022
 9489SOL    HW129366   0.413   4.410   0.074
 9489SOL    HW229367   0.327   4.452   6.970
 9490SOL     OW29368   5.522   3.692   5.216
 9490SOL    HW129369   5.500   3.764   5.150
 9490SOL    HW229370   5.616   3.702   5.248
 9491SOL     OW29371   5.167   0.373   1.818
 9491SOL    HW129372   5.067   0.374   1.822
 9491SOL    HW229373   5.204   0.418   1.899
 9492SOL     OW29374   4.729   2.841   4.173
 9492SOL    HW129375   4.684   2.783   4.105
 9492SOL    HW229376   4.689   2.823   4.263
 9493SOL     OW29377   2.740   6.898   3.950
 9493SOL    HW129378   2.809   6.826   3.961
 9493SOL    HW229379   2.774   6.968   3.886
 9494SOL     OW29380   5.117   2.537   2.657
 9494SOL    HW129381   5.043   2.587   2.612
 9494SOL    HW229382   5.178   2.499   2.588
 9495SOL     OW29383   6.488   2.375   0.564
 9495SOL    HW129384   6.485   2.336   0.472
 9495SOL    HW229385   6.545   2.457   0.564
 9496SOL     OW29386   6.407   3.424   0.641
 9496SOL    HW129387   6.319   3.469   0.654
 9496SOL    HW229388   6.476   3.472   0.696
 9497SOL     OW29389   6.172   4.848   4.991
 9497SOL    HW129390   6.248   4.888   5.042
 9497SOL    HW229391   6.095   4.831   5.053
 9498SOL     OW29392   1.289   5.960   5.767
 9498SOL    HW129393   1.210   6.021   5.763
 9498SOL    HW229394   1.359   5.991   5.702
 9499SOL     OW29395   5.426   6.016   3.391
 9499SOL    HW129396   5.386   5.974   3.310
 9499SOL    HW229397   5.487   6.090   3.364
 9500SOL     OW29398   2.082   1.737   0.690
 9500SOL    HW129399   2.132   1.694   0.615
 9500SOL    HW229400   1.999   1.780   0.655
 9501SOL     OW29401   1.637   2.995   4.753
 9501SOL    HW129402   1.595   2.936   4.821
 9501SOL    HW229403   1.736   2.997   4.766
 9502SOL     OW29404   5.630   4.751   3.599
 9502SOL    HW129405   5.674   4.661   3.606
 9502SOL    HW229406   5.548   4.752   3.655
 9503SOL     OW29407   7.008   0.486   0.532
 9503SOL    HW129408   6.964   0.469   0.443
 9503SOL    HW229409   6.941   0.473   0.605
 9504SOL     OW29410   5.802   4.682   2.830
 9504SOL    HW129411   5.808   4.766   2.884
 9504SOL    HW229412   5.883   4.674   2.772
 9505SOL     OW29413   4.659   2.666   6.878
 9505SOL    HW129414   4.646   2.566   6.877
 9505SOL    HW229415   4.607   2.705   6.954
 9506SOL     OW29416   3.989   0.450   1.781
 9506SOL    HW129417   4.040   0.536   1.790
 9506SOL    HW229418   4.048   0.373   1.805
 9507SOL     OW29419   6.781   6.222   1.071
 9507SOL    HW129420   6.800   6.127   1.096
 9507SOL    HW229421   6.781   6.279   1.154
 9508SOL     OW29422   4.711   2.085   2.234
 9508SOL    HW129423   4.741   2.022   2.163
 9508SOL    HW229424   4.676   2.033   2.312
 9509SOL     OW29425   5.317   1.528   3.947
 9509SOL    HW129426   5.412   1.527   3.978
 9509SOL    HW229427   5.273   1.612   3.977
 9510SOL     OW29428   1.816   3.182   2.591
 9510SOL    HW129429   1.913   3.168   2.570
 9510SOL    HW229430   1.775   3.238   2.519
 9511SOL     OW29431   0.665   1.229   0.853
 9511SOL    HW129432   0.724   1.157   0.815
 9511SOL    HW229433   0.610   1.268   0.779
 9512SOL     OW29434   6.052   2.533   1.655
 9512SOL    HW129435   6.066   2.632   1.659
 9512SOL    HW229436   6.091   2.491   1.737
 9513SOL     OW29437   5.186   3.534   4.175
 9513SOL    HW129438   5.217   3.614   4.226
 9513SOL    HW229439   5.086   3.534   4.171
 9514SOL     OW29440   3.902   3.190   0.962
 9514SOL    HW129441   3.903   3.090   0.957
 9514SOL    HW229442   3.917   3.219   1.057
 9515SOL     OW29443   6.361   6.532   2.879
 9515SOL    HW129444   6.460   6.518   2.874
 9515SOL    HW229445   6.316   6.481   2.806
 9516SOL     OW29446   1.367   2.477   0.092
 9516SOL    HW129447   1.294   2.541   0.117
 9516SOL    HW229448   1.454   2.525   0.089
 9517SOL     OW29449   0.280   6.207   2.579
 9517SOL    HW129450   0.357   6.269   2.562
 9517SOL    HW229451   0.262   6.202   2.677
 9518SOL     OW29452   6.139   0.173   0.813
 9518SOL    HW129453   6.064   0.120   0.773
 9518SOL    HW229454   6.142   0.264   0.771
 9519SOL     OW29455   1.617   2.779   5.774
 9519SOL    HW129456   1.667   2.838   5.838
 9519SOL    HW229457   1.522   2.809   5.769
 9520SOL     OW29458   3.631   6.526   1.743
 9520SOL    HW129459   3.593   6.520   1.835
 9520SOL    HW229460   3.731   6.528   1.747
 9521SOL     OW29461   5.648   5.291   3.000
 9521SOL    HW129462   5.625   5.389   3.000
 9521SOL    HW229463   5.680   5.265   3.091
 9522SOL     OW29464   3.551   4.766   5.317
 9522SOL    HW129465   3.454   4.744   5.303
 9522SOL    HW229466   3.567   4.785   5.413
 9523SOL     OW29467   1.789   6.947   4.341
 9523SOL    HW129468   1.732   6.885   4.287
 9523SOL    HW229469   1.885   6.935   4.315
 9524SOL     OW29470   6.081   3.196   0.334
 9524SOL    HW129471   6.075   3.111   0.387
 9524SOL    HW229472   5.990   3.219   0.297
 9525SOL     OW29473   4.411   0.676   4.013
 9525SOL    HW129474   4.338   0.681   3.944
 9525SOL    HW229475   4.379   0.626   4.093
 9526SOL     OW29476   4.789   5.687   0.796
 9526SOL    HW129477   4.781   5.592   0.826
 9526SOL    HW229478   4.735   5.700   0.712
 9527SOL     OW29479   0.074   1.021   0.270
 9527SOL    HW129480   0.105   0.928   0.251
 9527SOL    HW229481   0.122   1.085   0.210
 9528SOL     OW29482   5.352   1.300   2.203
 9528SOL    HW129483   5.360   1.251   2.116
 9528SOL    HW229484   5.428   1.275   2.263
 9529SOL     OW29485   1.382   2.599   5.635
 9529SOL    HW129486   1.344   2.534   5.701
 9529SOL    HW229487   1.313   2.669   5.614
 9530SOL     OW29488   2.527   1.385   3.571
 9530SOL    HW129489   2.465   1.432   3.508
 9530SOL    HW229490   2.570   1.451   3.632
 9531SOL     OW29491   2.473   6.230   4.015
 9531SOL    HW129492   2.459   6.200   3.920
 9531SOL    HW229493   2.514   6.321   4.016
 9532SOL     OW29494   3.406   1.091   1.716
 9532SOL    HW129495   3.485   1.146   1.745
 9532SOL    HW229496   3.365   1.132   1.635
 9533SOL     OW29497   0.202   1.594   3.731
 9533SOL    HW129498   0.282   1.560   3.781
 9533SOL    HW229499   0.226   1.607   3.635
 9534SOL     OW29500   4.832   1.504   4.129
 9534SOL    HW129501   4.910   1.566   4.139
 9534SOL    HW229502   4.749   1.557   4.113
 9535SOL     OW29503   3.124   1.739   4.778
 9535SOL    HW129504   3.098   1.780   4.690
 9535SOL    HW229505   3.073   1.784   4.851
 9536SOL     OW29506   2.203   5.921   6.419
 9536SOL    HW129507   2.200   5.937   6.320
 9536SOL    HW229508   2.156   5.835   6.440
 9537SOL     OW29509   2.057   0.124   0.116
 9537SOL    HW129510   2.099   0.049   0.065
 9537SOL    HW229511   1.984   0.088   0.174
 9538SOL     OW29512   5.514   4.021   3.061
 9538SOL    HW129513   5.479   3.995   3.150
 9538SOL    HW229514   5.607   3.988   3.050
 9539SOL     OW29515   1.446   2.584   0.760
 9539SOL    HW129516   1.381   2.554   0.690
 9539SOL    HW229517   1.448   2.684   0.762
 9540SOL     OW29518   6.085   3.361   5.592
 9540SOL    HW129519   6.011   3.380   5.528
 9540SOL    HW229520   6.135   3.280   5.561
 9541SOL     OW29521   6.141   2.703   2.876
 9541SOL    HW129522   6.087   2.648   2.812
 9541SOL    HW229523   6.080   2.763   2.928
 9542SOL     OW29524   4.850   3.749   4.393
 9542SOL    HW129525   4.866   3.671   4.333
 9542SOL    HW229526   4.933   3.805   4.396
 9543SOL     OW29527   3.911   2.659   6.856
 9543SOL    HW129528   3.843   2.722   6.821
 9543SOL    HW229529   3.906   2.573   6.805
 9544SOL     OW29530   5.005   6.814   1.213
 9544SOL    HW129531   5.070   6.746   1.248
 9544SOL    HW229532   4.925   6.767   1.175
 9545SOL     OW29533   1.084   0.526   4.118
 9545SOL    HW129534   1.130   0.439   4.099
 9545SOL    HW229535   0.987   0.510   4.131
 9546SOL     OW29536   3.132   4.330   1.711
 9546SOL    HW129537   3.207   4.388   1.679
 9546SOL    HW229538   3.068   4.386   1.764
 9547SOL     OW29539   5.339   0.470   2.315
 9547SOL    HW129540   5.417   0.529   2.337
 9547SOL    HW229541   5.371   0.377   2.298
 9548SOL     OW29542   6.218   6.771   1.969
 9548SOL    HW129543   6.165   6.709   1.911
 9548SOL    HW229544   6.224   6.860   1.925
 9549SOL     OW29545   2.357   6.300   0.035
 9549SOL    HW129546   2.379   6.378   0.094
 9549SOL    HW229547   2.264   6.270   0.054
 9550SOL     OW29548   1.285   0.976   0.881
 9550SOL    HW129549   1.254   1.038   0.954
 9550SOL    HW229550   1.247   0.885   0.897
 9551SOL     OW29551   1.117   5.611   4.623
 9551SOL    HW129552   1.059   5.692   4.630
 9551SOL    HW229553   1.112   5.559   4.709
 9552SOL     OW29554   6.409   5.616   3.153
 9552SOL    HW129555   6.462   5.585   3.232
 9552SOL    HW229556   6.407   5.545   3.083
 9553SOL     OW29557   4.761   5.009   6.662
 9553SOL    HW129558   4.748   5.063   6.578
 9553SOL    HW229559   4.762   5.070   6.741
 9554SOL     OW29560   1.479   2.966   1.694
 9554SOL    HW129561   1.549   3.014   1.747
 9554SOL    HW229562   1.404   3.029   1.673
 9555SOL     OW29563   0.942   2.270   6.515
 9555SOL    HW129564   0.915   2.345   6.576
 9555SOL    HW229565   0.875   2.260   6.442
 9556SOL     OW29566   5.577   1.700   1.617
 9556SOL    HW129567   5.524   1.729   1.538
 9556SOL    HW229568   5.577   1.773   1.686
 9557SOL     OW29569   4.945   1.908   0.966
 9557SOL    HW129570   4.993   1.992   0.992
 9557SOL    HW229571   4.957   1.839   1.037
 9558SOL     OW29572   6.701   3.781   1.594
 9558SOL    HW129573   6.774   3.816   1.535
 9558SOL    HW229574   6.742   3.733   1.672
 9559SOL     OW29575   0.258   4.627   3.269
 9559SOL    HW129576   0.184   4.588   3.323
 9559SOL    HW229577   0.286   4.563   3.198
 9560SOL     OW29578   3.640   2.567   5.988
 9560SOL    HW129579   3.611   2.662   5.974
 9560SOL    HW229580   3.709   2.543   5.920
 9561SOL     OW29581   3.355   5.179   6.654
 9561SOL    HW129582   3.268   5.228   6.657
 9561SOL    HW229583   3.342   5.092   6.607
 9562SOL     OW29584   6.006   5.718   4.155
 9562SOL    HW129585   6.049   5.758   4.073
 9562SOL    HW229586   5.917   5.761   4.171
 9563SOL     OW29587   0.710   1.399   5.532
 9563SOL    HW129588   0.793   1.447   5.503
 9563SOL    HW229589   0.630   1.440   5.488
 9564SOL     OW29590   6.727   0.116   5.798
 9564SOL    HW129591   6.678   0.118   5.886
 9564SOL    HW229592   6.663   0.137   5.724
 9565SOL     OW29593   3.036   5.517   5.259
 9565SOL    HW129594   2.962   5.567   5.303
 9565SOL    HW229595   3.042   5.425   5.298
 9566SOL     OW29596   2.348   6.001   5.282
 9566SOL    HW129597   2.266   5.989   5.338
 9566SOL    HW229598   2.356   6.097   5.255
 9567SOL     OW29599   5.350   5.910   3.153
 9567SOL    HW129600   5.378   5.922   3.058
 9567SOL    HW229601   5.251   5.928   3.161
 9568SOL     OW29602   6.589   3.485   4.571
 9568SOL    HW129603   6.652   3.460   4.644
 9568SOL    HW229604   6.517   3.544   4.608
 9569SOL     OW29605   5.158   0.414   0.756
 9569SOL    HW129606   5.185   0.354   0.832
 9569SOL    HW229607   5.064   0.392   0.729
 9570SOL     OW29608   0.490   3.844   6.543
 9570SOL    HW129609   0.526   3.825   6.452
 9570SOL    HW229610   0.548   3.910   6.590
 9571SOL     OW29611   3.605   1.897   0.780
 9571SOL    HW129612   3.546   1.832   0.828
 9571SOL    HW229613   3.701   1.870   0.791
 9572SOL     OW29614   0.848   3.602   1.146
 9572SOL    HW129615   0.939   3.593   1.185
 9572SOL    HW229616   0.852   3.589   1.047
 9573SOL     OW29617   4.324   2.117   1.680
 9573SOL    HW129618   4.283   2.033   1.716
 9573SOL    HW229619   4.254   2.188   1.672
 9574SOL     OW29620   1.780   1.508   2.916
 9574SOL    HW129621   1.731   1.422   2.899
 9574SOL    HW229622   1.713   1.581   2.929
 9575SOL     OW29623   2.987   1.624   2.656
 9575SOL    HW129624   2.946   1.715   2.663
 9575SOL    HW229625   3.061   1.616   2.723
 9576SOL     OW29626   4.672   2.707   5.682
 9576SOL    HW129627   4.576   2.680   5.688
 9576SOL    HW229628   4.716   2.660   5.606
 9577SOL     OW29629   0.664   6.060   3.740
 9577SOL    HW129630   0.655   6.082   3.642
 9577SOL    HW229631   0.575   6.034   3.777
 9578SOL     OW29632   6.395   4.134   1.853
 9578SOL    HW129633   6.335   4.215   1.858
 9578SOL    HW229634   6.412   4.111   1.758
 9579SOL     OW29635   1.474   4.853   2.577
 9579SOL    HW129636   1.556   4.802   2.604
 9579SOL    HW229637   1.489   4.895   2.487
 9580SOL     OW29638   3.877   3.713   5.169
 9580SOL    HW129639   3.786   3.738   5.134
 9580SOL    HW229640   3.868   3.679   5.262
 9581SOL     OW29641   0.474   6.973   6.712
 9581SOL    HW129642   0.518   6.914   6.780
 9581SOL    HW229643   0.485   0.042   6.738
 9582SOL     OW29644   4.140   5.084   2.691
 9582SOL    HW129645   4.195   5.087   2.774
 9582SOL    HW229646   4.174   5.011   2.632
 9583SOL     OW29647   1.387   5.183   2.723
 9583SOL    HW129648   1.454   5.151   2.790
 9583SOL    HW229649   1.300   5.135   2.737
 9584SOL     OW29650   5.206   4.897   6.945
 9584SOL    HW129651   5.304   4.907   6.960
 9584SOL    HW229652   5.172   4.821   7.000
 9585SOL     OW29653   5.824   1.754   2.074
 9585SOL    HW129654   5.746   1.810   2.101
 9585SOL    HW229655   5.792   1.665   2.041
 9586SOL     OW29656   3.920   5.102   2.448
 9586SOL    HW129657   4.007   5.124   2.492
 9586SOL    HW229658   3.886   5.182   2.399
 9587SOL     OW29659   4.121   6.443   2.050
 9587SOL    HW129660   4.038   6.394   2.022
 9587SOL    HW229661   4.165   6.482   1.969
 9588SOL     OW29662   6.076   1.426   3.636
 9588SOL    HW129663   6.151   1.484   3.667
 9588SOL    HW229664   6.100   1.386   3.547
 9589SOL     OW29665   4.282   1.977   4.985
 9589SOL    HW129666   4.199   2.031   5.003
 9589SOL    HW229667   4.283   1.948   4.890
 9590SOL     OW29668   7.016   5.178   5.694
 9590SOL    HW129669   6.986   5.157   5.787
 9590SOL    HW229670   0.088   5.168   5.687
 9591SOL     OW29671   0.151   4.214   2.269
 9591SOL    HW129672   0.065   4.172   2.239
 9591SOL    HW229673   0.144   4.313   2.259
 9592SOL     OW29674   3.644   5.568   0.835
 9592SOL    HW129675   3.569   5.532   0.891
 9592SOL    HW229676   3.716   5.499   0.828
 9593SOL     OW29677   2.065   2.794   3.391
 9593SOL    HW129678   2.085   2.868   3.327
 9593SOL    HW229679   1.968   2.770   3.388
 9594SOL     OW29680   5.918   0.461   0.398
 9594SOL    HW129681   5.971   0.389   0.443
 9594SOL    HW229682   5.871   0.422   0.318
 9595SOL     OW29683   1.988   4.293   5.354
 9595SOL    HW129684   2.025   4.366   5.296
 9595SOL    HW229685   2.039   4.209   5.338
 9596SOL     OW29686   5.478   4.404   2.287
 9596SOL    HW129687   5.397   4.445   2.243
 9596SOL    HW229688   5.543   4.477   2.309
 9597SOL     OW29689   1.526   4.069   2.017
 9597SOL    HW129690   1.511   4.123   2.100
 9597SOL    HW229691   1.553   3.976   2.042
 9598SOL     OW29692   0.858   6.334   4.818
 9598SOL    HW129693   0.810   6.281   4.887
 9598SOL    HW229694   0.810   6.420   4.802
 9599SOL     OW29695   4.039   2.201   5.592
 9599SOL    HW129696   3.942   2.219   5.608
 9599SOL    HW229697   4.056   2.191   5.494
 9600SOL     OW29698   1.534   5.333   6.899
 9600SOL    HW129699   1.528   5.296   6.807
 9600SOL    HW229700   1.582   5.420   6.897
 9601SOL     OW29701   1.189   0.484   5.356
 9601SOL    HW129702   1.193   0.402   5.300
 9601SOL    HW229703   1.150   0.462   5.445
 9602SOL     OW29704   0.932   5.646   6.009
 9602SOL    HW129705   0.918   5.743   6.029
 9602SOL    HW229706   0.906   5.627   5.914
 9603SOL     OW29707   1.157   5.137   2.049
 9603SOL    HW129708   1.207   5.082   1.982
 9603SOL    HW229709   1.213   5.146   2.132
 9604SOL     OW29710   6.179   0.286   5.733
 9604SOL    HW129711   6.126   0.368   5.711
 9604SOL    HW229712   6.130   0.232   5.801
 9605SOL     OW29713   3.060   5.189   0.268
 9605SOL    HW129714   3.077   5.245   0.188
 9605SOL    HW229715   3.045   5.247   0.348
 9606SOL     OW29716   6.846   1.606   4.509
 9606SOL    HW129717   6.756   1.650   4.506
 9606SOL    HW229718   6.909   1.664   4.562
 9607SOL     OW29719   6.511   3.757   3.748
 9607SOL    HW129720   6.415   3.771   3.772
 9607SOL    HW229721   6.565   3.740   3.830
 9608SOL     OW29722   6.184   0.803   1.461
 9608SOL    HW129723   6.250   0.731   1.480
 9608SOL    HW229724   6.228   0.876   1.409
 9609SOL     OW29725   0.696   1.945   3.629
 9609SOL    HW129726   0.698   1.910   3.535
 9609SOL    HW229727   0.616   1.907   3.677
 9610SOL     OW29728   5.416   1.290   6.270
 9610SOL    HW129729   5.502   1.289   6.321
 9610SOL    HW229730   5.413   1.210   6.210
 9611SOL     OW29731   5.137   5.281   1.850
 9611SOL    HW129732   5.212   5.282   1.916
 9611SOL    HW229733   5.053   5.312   1.894
 9612SOL     OW29734   4.672   4.207   3.441
 9612SOL    HW129735   4.675   4.248   3.532
 9612SOL    HW229736   4.701   4.111   3.447
 9613SOL     OW29737   3.972   1.192   4.551
 9613SOL    HW129738   4.000   1.175   4.646
 9613SOL    HW229739   3.983   1.289   4.530
 9614SOL     OW29740   3.533   2.971   6.788
 9614SOL    HW129741   3.507   3.034   6.715
 9614SOL    HW229742   3.552   3.023   6.872
 9615SOL     OW29743   6.298   6.737   3.565
 9615SOL    HW129744   6.265   6.734   3.659
 9615SOL    HW229745   6.374   6.673   3.554
 9616SOL     OW29746   0.111   2.157   6.977
 9616SOL    HW129747   0.020   2.129   7.006
 9616SOL    HW229748   0.170   2.168   0.030
 9617SOL     OW29749   1.508   3.591   3.804
 9617SOL    HW129750   1.597   3.621   3.838
 9617SOL    HW229751   1.445   3.580   3.881
 9618SOL     OW29752   5.142   4.356   1.435
 9618SOL    HW129753   5.228   4.335   1.390
 9618SOL    HW229754   5.145   4.450   1.471
 9619SOL     OW29755   1.533   1.519   0.556
 9619SOL    HW129756   1.591   1.459   0.501
 9619SOL    HW229757   1.477   1.575   0.496
 9620SOL     OW29758   3.140   1.127   6.578
 9620SOL    HW129759   3.071   1.200   6.574
 9620SOL    HW229760   3.170   1.114   6.672
 9621SOL     OW29761   7.002   0.399   0.255
 9621SOL    HW129762   0.067   0.399   0.217
 9621SOL    HW229763   6.977   0.305   0.281
 9622SOL     OW29764   6.601   0.062   4.643
 9622SOL    HW129765   6.558   7.020   4.586
 9622SOL    HW229766   6.548   0.147   4.640
 9623SOL     OW29767   2.327   5.621   6.092
 9623SOL    HW129768   2.305   5.600   5.997
 9623SOL    HW229769   2.387   5.550   6.129
 9624SOL     OW29770   4.315   5.505   6.742
 9624SOL    HW129771   4.383   5.468   6.806
 9624SOL    HW229772   4.303   5.441   6.666
 9625SOL     OW29773   5.255   3.667   5.854
 9625SOL    HW129774   5.340   3.643   5.902
 9625SOL    HW229775   5.185   3.599   5.874
 9626SOL     OW29776   2.839   2.362   0.433
 9626SOL    HW129777   2.862   2.333   0.340
 9626SOL    HW229778   2.740   2.373   0.441
 9627SOL     OW29779   0.179   5.260   0.473
 9627SOL    HW129780   0.102   5.197   0.462
 9627SOL    HW229781   0.260   5.224   0.427
 9628SOL     OW29782   5.893   1.889   5.595
 9628SOL    HW129783   5.832   1.810   5.585
 9628SOL    HW229784   5.839   1.970   5.619
 9629SOL     OW29785   0.480   5.924   3.883
 9629SOL    HW129786   0.553   5.856   3.870
 9629SOL    HW229787   0.402   5.880   3.927
 9630SOL     OW29788   6.156   0.485   5.235
 9630SOL    HW129789   6.140   0.393   5.269
 9630SOL    HW229790   6.220   0.532   5.296
 9631SOL     OW29791   4.373   5.728   0.295
 9631SOL    HW129792   4.400   5.648   0.348
 9631SOL    HW229793   4.304   5.780   0.346
 9632SOL     OW29794   2.200   5.457   3.439
 9632SOL    HW129795   2.114   5.448   3.388
 9632SOL    HW229796   2.276   5.461   3.375
 9633SOL     OW29797   2.377   3.060   5.547
 9633SOL    HW129798   2.346   3.108   5.465
 9633SOL    HW229799   2.411   2.969   5.522
 9634SOL     OW29800   5.498   4.897   2.833
 9634SOL    HW129801   5.541   4.860   2.915
 9634SOL    HW229802   5.429   4.964   2.858
 9635SOL     OW29803   0.453   5.278   3.941
 9635SOL    HW129804   0.430   5.279   4.039
 9635SOL    HW229805   0.373   5.301   3.887
 9636SOL     OW29806   4.860   3.628   3.543
 9636SOL    HW129807   4.875   3.532   3.565
 9636SOL    HW229808   4.853   3.681   3.628
 9637SOL     OW29809   3.185   2.580   5.954
 9637SOL    HW129810   3.120   2.626   5.895
 9637SOL    HW229811   3.235   2.647   6.008
 9638SOL     OW29812   1.204   4.229   6.090
 9638SOL    HW129813   1.135   4.163   6.059
 9638SOL    HW229814   1.160   4.315   6.113
 9639SOL     OW29815   5.481   3.302   0.844
 9639SOL    HW129816   5.442   3.389   0.875
 9639SOL    HW229817   5.529   3.316   0.757
 9640SOL     OW29818   2.467   5.773   3.606
 9640SOL    HW129819   2.543   5.719   3.643
 9640SOL    HW229820   2.456   5.752   3.509
 9641SOL     OW29821   0.740   2.503   4.615
 9641SOL    HW129822   0.767   2.458   4.700
 9641SOL    HW229823   0.680   2.442   4.563
 9642SOL     OW29824   0.940   3.070   4.617
 9642SOL    HW129825   0.901   2.983   4.649
 9642SOL    HW229826   1.031   3.054   4.578
 9643SOL     OW29827   6.632   5.821   4.948
 9643SOL    HW129828   6.673   5.797   5.036
 9643SOL    HW229829   6.620   5.738   4.893
 9644SOL     OW29830   0.818   4.972   3.881
 9644SOL    HW129831   0.850   5.030   3.807
 9644SOL    HW229832   0.751   5.022   3.936
 9645SOL     OW29833   0.376   4.733   0.907
 9645SOL    HW129834   0.385   4.818   0.855
 9645SOL    HW229835   0.298   4.680   0.871
 9646SOL     OW29836   2.184   4.823   0.763
 9646SOL    HW129837   2.228   4.807   0.851
 9646SOL    HW229838   2.119   4.899   0.771
 9647SOL     OW29839   4.833   0.440   2.662
 9647SOL    HW129840   4.886   0.381   2.723
 9647SOL    HW229841   4.788   0.511   2.715
 9648SOL     OW29842   3.961   1.682   1.185
 9648SOL    HW129843   3.970   1.613   1.113
 9648SOL    HW229844   4.036   1.672   1.250
 9649SOL     OW29845   0.215   5.535   0.409
 9649SOL    HW129846   0.310   5.562   0.394
 9649SOL    HW229847   0.211   5.438   0.434
 9650SOL     OW29848   6.991   5.499   5.681
 9650SOL    HW129849   6.980   5.403   5.657
 9650SOL    HW229850   0.037   5.539   5.625
 9651SOL     OW29851   4.252   1.414   0.927
 9651SOL    HW129852   4.265   1.319   0.958
 9651SOL    HW229853   4.311   1.474   0.980
 9652SOL     OW29854   0.644   3.924   6.869
 9652SOL    HW129855   0.613   3.973   6.788
 9652SOL    HW229856   0.573   3.927   6.940
 9653SOL     OW29857   5.838   3.661   5.098
 9653SOL    HW129858   5.802   3.627   5.184
 9653SOL    HW229859   5.855   3.759   5.105
 9654SOL     OW29860   3.516   3.472   4.546
 9654SOL    HW129861   3.584   3.448   4.615
 9654SOL    HW229862   3.479   3.563   4.566
 9655SOL     OW29863   4.296   1.088   0.217
 9655SOL    HW129864   4.284   1.042   0.129
 9655SOL    HW229865   4.214   1.074   0.273
 9656SOL     OW29866   5.265   4.718   4.833
 9656SOL    HW129867   5.335   4.787   4.816
 9656SOL    HW229868   5.187   4.733   4.772
 9657SOL     OW29869   4.917   4.652   2.364
 9657SOL    HW129870   4.820   4.633   2.347
 9657SOL    HW229871   4.963   4.567   2.390
 9658SOL     OW29872   4.831   1.262   2.972
 9658SOL    HW129873   4.900   1.191   2.964
 9658SOL    HW229874   4.841   1.308   3.061
 9659SOL     OW29875   4.581   3.042   0.215
 9659SOL    HW129876   4.620   2.951   0.228
 9659SOL    HW229877   4.486   3.034   0.185
 9660SOL     OW29878   2.146   0.270   1.558
 9660SOL    HW129879   2.115   0.228   1.643
 9660SOL    HW229880   2.072   0.325   1.518
 9661SOL     OW29881   3.802   3.422   2.545
 9661SOL    HW129882   3.877   3.387   2.489
 9661SOL    HW229883   3.822   3.516   2.572
 9662SOL     OW29884   4.041   0.625   4.863
 9662SOL    HW129885   4.010   0.707   4.909
 9662SOL    HW229886   3.964   0.582   4.814
 9663SOL     OW29887   1.345   6.147   2.107
 9663SOL    HW129888   1.277   6.204   2.063
 9663SOL    HW229889   1.306   6.104   2.188
 9664SOL     OW29890   1.553   4.506   2.383
 9664SOL    HW129891   1.464   4.532   2.420
 9664SOL    HW229892   1.620   4.578   2.402
 9665SOL     OW29893   6.205   3.491   0.299
 9665SOL    HW129894   6.154   3.407   0.283
 9665SOL    HW229895   6.238   3.528   0.213
 9666SOL     OW29896   5.138   4.492   1.116
 9666SOL    HW129897   5.042   4.475   1.139
 9666SOL    HW229898   5.192   4.411   1.138
 9667SOL     OW29899   5.545   5.835   0.143
 9667SOL    HW129900   5.638   5.851   0.112
 9667SOL    HW229901   5.529   5.887   0.227
 9668SOL     OW29902   2.058   0.475   0.185
 9668SOL    HW129903   2.003   0.522   0.117
 9668SOL    HW229904   2.115   0.406   0.141
 9669SOL     OW29905   3.233   7.010   0.681
 9669SOL    HW129906   3.265   0.077   0.688
 9669SOL    HW229907   3.294   6.958   0.622
 9670SOL     OW29908   0.715   6.890   2.790
 9670SOL    HW129909   0.658   6.848   2.862
 9670SOL    HW229910   0.797   6.835   2.777
 9671SOL     OW29911   1.531   5.360   6.608
 9671SOL    HW129912   1.450   5.418   6.595
 9671SOL    HW229913   1.529   5.286   6.541
 9672SOL     OW29914   0.644   4.224   4.343
 9672SOL    HW129915   0.554   4.224   4.387
 9672SOL    HW229916   0.635   4.198   4.247
 9673SOL     OW29917   2.020   3.055   5.432
 9673SOL    HW129918   1.992   2.969   5.475
 9673SOL    HW229919   2.061   3.036   5.343
 9674SOL     OW29920   2.007   0.537   3.383
 9674SOL    HW129921   1.963   0.448   3.370
 9674SOL    HW229922   1.939   0.609   3.377
 9675SOL     OW29923   6.971   4.183   6.055
 9675SOL    HW129924   7.013   4.159   5.968
 9675SOL    HW229925   7.020   4.137   6.130
 9676SOL     OW29926   0.540   2.913   6.139
 9676SOL    HW129927   0.629   2.951   6.116
 9676SOL    HW229928   0.551   2.833   6.198
 9677SOL     OW29929   0.766   4.935   3.515
 9677SOL    HW129930   0.807   4.954   3.425
 9677SOL    HW229931   0.773   4.837   3.534
 9678SOL     OW29932   4.575   2.759   6.430
 9678SOL    HW129933   4.670   2.774   6.459
 9678SOL    HW229934   4.553   2.662   6.440
 9679SOL     OW29935   2.117   0.931   4.307
 9679SOL    HW129936   2.022   0.902   4.304
 9679SOL    HW229937   2.171   0.867   4.361
 9680SOL     OW29938   4.375   6.344   2.814
 9680SOL    HW129939   4.345   6.289   2.892
 9680SOL    HW229940   4.452   6.300   2.770
 9681SOL     OW29941   0.576   2.415   1.005
 9681SOL    HW129942   0.506   2.485   0.999
 9681SOL    HW229943   0.600   2.384   0.914
 9682SOL     OW29944   3.778   6.368   4.958
 9682SOL    HW129945   3.683   6.381   4.929
 9682SOL    HW229946   3.801   6.436   5.027
 9683SOL     OW29947   3.112   5.558   3.878
 9683SOL    HW129948   3.147   5.646   3.847
 9683SOL    HW229949   3.082   5.505   3.799
 9684SOL     OW29950   1.065   2.489   6.217
 9684SOL    HW129951   1.160   2.498   6.248
 9684SOL    HW229952   1.005   2.536   6.282
 9685SOL     OW29953   3.800   4.906   1.809
 9685SOL    HW129954   3.890   4.864   1.820
 9685SOL    HW229955   3.731   4.850   1.854
 9686SOL     OW29956   1.319   1.640   6.031
 9686SOL    HW129957   1.345   1.574   6.102
 9686SOL    HW229958   1.354   1.610   5.943
 9687SOL     OW29959   5.673   0.506   3.805
 9687SOL    HW129960   5.599   0.447   3.836
 9687SOL    HW229961   5.691   0.490   3.708
 9688SOL     OW29962   1.046   5.194   2.662
 9688SOL    HW129963   1.007   5.111   2.703
 9688SOL    HW229964   1.082   5.172   2.572
 9689SOL     OW29965   1.697   5.971   0.950
 9689SOL    HW129966   1.668   5.885   0.993
 9689SOL    HW229967   1.658   6.048   1.000
 9690SOL     OW29968   6.521   4.770   3.953
 9690SOL    HW129969   6.494   4.676   3.975
 9690SOL    HW229970   6.441   4.830   3.955
 9691SOL     OW29971   3.893   4.016   2.676
 9691SOL    HW129972   3.871   3.961   2.595
 9691SOL    HW229973   3.834   4.098   2.677
 9692SOL     OW29974   6.891   5.590   0.210
 9692SOL    HW129975   6.831   5.514   0.185
 9692SOL    HW229976   6.887   5.661   0.139
 9693SOL     OW29977   4.228   3.948   7.011
 9693SOL    HW129978   4.189   4.038   0.001
 9693SOL    HW229979   4.284   3.921   0.062
 9694SOL     OW29980   2.300   5.733   1.096
 9694SOL    HW129981   2.250   5.656   1.056
 9694SOL    HW229982   2.377   5.699   1.149
 9695SOL     OW29983   1.065   2.905   3.545
 9695SOL    HW129984   1.037   2.810   3.557
 9695SOL    HW229985   1.161   2.909   3.518
 9696SOL     OW29986   4.582   4.409   3.257
 9696SOL    HW129987   4.602   4.345   3.331
 9696SOL    HW229988   4.588   4.360   3.169
 9697SOL     OW29989   7.003   6.898   3.250
 9697SOL    HW129990   7.019   6.990   3.214
 9697SOL    HW229991   6.957   6.843   3.180
 9698SOL     OW29992   0.423   2.411   1.231
 9698SOL    HW129993   0.495   2.422   1.299
 9698SOL    HW229994   0.463   2.376   1.146
 9699SOL     OW29995   1.672   0.063   2.559
 9699SOL    HW129996   1.763   0.022   2.552
 9699SOL    HW229997   1.606   7.020   2.587
 9700SOL     OW29998   6.316   0.580   6.153
 9700SOL    HW129999   6.402   0.624   6.127
 9700SOL    HW230000   6.256   0.577   6.074
 9701SOL     OW30001   5.899   3.753   6.657
 9701SOL    HW130002   5.925   3.660   6.682
 9701SOL    HW230003   5.810   3.751   6.612
 9702SOL     OW30004   2.997   3.636   2.042
 9702SOL    HW130005   2.954   3.694   1.973
 9702SOL    HW230006   3.083   3.678   2.071
 9703SOL     OW30007   6.129   5.030   3.375
 9703SOL    HW130008   6.099   5.069   3.288
 9703SOL    HW230009   6.126   5.102   3.445
 9704SOL     OW30010   0.582   5.286   2.137
 9704SOL    HW130011   0.595   5.193   2.103
 9704SOL    HW230012   0.522   5.336   2.076
 9705SOL     OW30013   0.172   4.019   5.420
 9705SOL    HW130014   0.138   4.017   5.513
 9705SOL    HW230015   0.107   3.975   5.359
 9706SOL     OW30016   7.026   0.000   2.515
 9706SOL    HW130017   0.031   0.085   2.473
 9706SOL    HW230018   0.021   0.001   2.613
 9707SOL     OW30019   1.543   4.585   1.492
 9707SOL    HW130020   1.465   4.524   1.508
 9707SOL    HW230021   1.610   4.538   1.436
 9708SOL     OW30022   3.158   0.289   1.508
 9708SOL    HW130023   3.081   0.277   1.571
 9708SOL    HW230024   3.156   0.382   1.471
 9709SOL     OW30025   3.387   1.833   2.089
 9709SOL    HW130026   3.343   1.773   2.156
 9709SOL    HW230027   3.473   1.868   2.127
 9710SOL     OW30028   4.936   4.704   4.361
 9710SOL    HW130029   4.885   4.768   4.419
 9710SOL    HW230030   5.018   4.674   4.410
 9711SOL     OW30031   3.362   0.091   6.389
 9711SOL    HW130032   3.314   0.016   6.433
 9711SOL    HW230033   3.408   0.058   6.306
 9712SOL     OW30034   5.256   6.530   5.528
 9712SOL    HW130035   5.194   6.469   5.479
 9712SOL    HW230036   5.249   6.622   5.489
 9713SOL     OW30037   0.493   1.097   2.843
 9713SOL    HW130038   0.463   1.186   2.809
 9713SOL    HW230039   0.541   1.048   2.771
 9714SOL     OW30040   2.376   2.521   3.635
 9714SOL    HW130041   2.462   2.539   3.585
 9714SOL    HW230042   2.353   2.424   3.628
 9715SOL     OW30043   0.750   1.793   6.317
 9715SOL    HW130044   0.707   1.707   6.288
 9715SOL    HW230045   0.690   1.870   6.294
 9716SOL     OW30046   1.411   6.056   1.702
 9716SOL    HW130047   1.357   5.976   1.677
 9716SOL    HW230048   1.505   6.044   1.670
 9717SOL     OW30049   4.295   1.999   6.169
 9717SOL    HW130050   4.316   2.009   6.072
 9717SOL    HW230051   4.225   1.929   6.181
 9718SOL     OW30052   2.622   2.693   6.742
 9718SOL    HW130053   2.609   2.772   6.802
 9718SOL    HW230054   2.587   2.611   6.787
 9719SOL     OW30055   4.878   0.289   6.722
 9719SOL    HW130056   4.780   0.300   6.705
 9719SOL    HW230057   4.895   0.201   6.765
 9720SOL     OW30058   1.597   2.023   1.870
 9720SOL    HW130059   1.582   1.926   1.847
 9720SOL    HW230060   1.678   2.032   1.927
 9721SOL     OW30061   0.107   1.405   0.907
 9721SOL    HW130062   0.084   1.334   0.842
 9721SOL    HW230063   0.031   1.417   0.972
 9722SOL     OW30064   3.485   2.842   5.915
 9722SOL    HW130065   3.533   2.929   5.926
 9722SOL    HW230066   3.500   2.809   5.821
 9723SOL     OW30067   5.425   1.556   4.324
 9723SOL    HW130068   5.338   1.542   4.371
 9723SOL    HW230069   5.500   1.551   4.389
 9724SOL     OW30070   1.501   5.167   1.574
 9724SOL    HW130071   1.472   5.085   1.524
 9724SOL    HW230072   1.601   5.172   1.574
 9725SOL     OW30073   5.733   5.517   4.939
 9725SOL    HW130074   5.693   5.468   4.862
 9725SOL    HW230075   5.667   5.584   4.974
 9726SOL     OW30076   6.662   0.115   2.878
 9726SOL    HW130077   6.673   0.196   2.934
 9726SOL    HW230078   6.712   0.039   2.918
 9727SOL     OW30079   6.470   3.101   0.720
 9727SOL    HW130080   6.504   3.025   0.775
 9727SOL    HW230081   6.427   3.168   0.780
 9728SOL     OW30082   5.106   2.628   4.903
 9728SOL    HW130083   5.094   2.702   4.836
 9728SOL    HW230084   5.079   2.660   4.994
 9729SOL     OW30085   7.013   3.311   3.118
 9729SOL    HW130086   0.016   3.231   3.067
 9729SOL    HW230087   6.919   3.297   3.149
 9730SOL     OW30088   0.353   6.744   3.407
 9730SOL    HW130089   0.446   6.730   3.440
 9730SOL    HW230090   0.315   6.827   3.449
 9731SOL     OW30091   6.533   0.793   1.503
 9731SOL    HW130092   6.572   0.882   1.482
 9731SOL    HW230093   6.581   0.722   1.451
 9732SOL     OW30094   6.864   2.645   2.570
 9732SOL    HW130095   6.878   2.744   2.571
 9732SOL    HW230096   6.808   2.620   2.491
 9733SOL     OW30097   4.757   6.448   0.813
 9733SOL    HW130098   4.760   6.435   0.713
 9733SOL    HW230099   4.830   6.394   0.855
 9734SOL     OW30100   4.150   3.571   0.879
 9734SOL    HW130101   4.185   3.482   0.850
 9734SOL    HW230102   4.053   3.563   0.902
 9735SOL     OW30103   0.730   2.593   0.225
 9735SOL    HW130104   0.728   2.616   0.322
 9735SOL    HW230105   0.649   2.630   0.180
 9736SOL     OW30106   6.255   2.812   5.645
 9736SOL    HW130107   6.330   2.878   5.639
 9736SOL    HW230108   6.184   2.848   5.706
 9737SOL     OW30109   5.239   3.588   5.574
 9737SOL    HW130110   5.264   3.612   5.668
 9737SOL    HW230111   5.143   3.558   5.572
 9738SOL     OW30112   2.711   6.023   1.516
 9738SOL    HW130113   2.787   6.003   1.578
 9738SOL    HW230114   2.650   6.089   1.559
 9739SOL     OW30115   5.446   6.022   1.666
 9739SOL    HW130116   5.495   6.058   1.745
 9739SOL    HW230117   5.471   6.074   1.585
 9740SOL     OW30118   6.751   0.161   1.203
 9740SOL    HW130119   6.760   0.260   1.188
 9740SOL    HW230120   6.800   0.112   1.132
 9741SOL     OW30121   2.117   2.226   2.854
 9741SOL    HW130122   2.184   2.229   2.780
 9741SOL    HW230123   2.156   2.270   2.935
 9742SOL     OW30124   5.332   6.619   6.727
 9742SOL    HW130125   5.274   6.569   6.792
 9742SOL    HW230126   5.317   6.717   6.737
 9743SOL     OW30127   5.942   3.861   4.379
 9743SOL    HW130128   5.957   3.908   4.465
 9743SOL    HW230129   6.008   3.786   4.370
 9744SOL     OW30130   1.675   2.931   2.093
 9744SOL    HW130131   1.596   2.879   2.125
 9744SOL    HW230132   1.757   2.903   2.143
 9745SOL     OW30133   1.038   0.226   5.570
 9745SOL    HW130134   1.135   0.203   5.565
 9745SOL    HW230135   1.028   0.326   5.577
 9746SOL     OW30136   3.925   5.450   5.919
 9746SOL    HW130137   4.021   5.424   5.907
 9746SOL    HW230138   3.878   5.444   5.832
 9747SOL     OW30139   4.727   1.632   3.133
 9747SOL    HW130140   4.720   1.607   3.036
 9747SOL    HW230141   4.698   1.727   3.144
 9748SOL     OW30142   0.196   1.654   1.563
 9748SOL    HW130143   0.208   1.626   1.468
 9748SOL    HW230144   0.214   1.752   1.571
 9749SOL     OW30145   6.481   6.696   1.614
 9749SOL    HW130146   6.532   6.783   1.618
 9749SOL    HW230147   6.470   6.668   1.519
 9750SOL     OW30148   5.176   3.163   4.694
 9750SOL    HW130149   5.191   3.207   4.606
 9750SOL    HW230150   5.082   3.129   4.699
 9751SOL     OW30151   2.937   4.969   0.816
 9751SOL    HW130152   3.036   4.965   0.799
 9751SOL    HW230153   2.897   5.040   0.759
 9752SOL     OW30154   4.272   4.567   1.067
 9752SOL    HW130155   4.355   4.621   1.055
 9752SOL    HW230156   4.205   4.620   1.118
 9753SOL     OW30157   5.770   6.281   3.072
 9753SOL    HW130158   5.780   6.189   3.107
 9753SOL    HW230159   5.798   6.347   3.142
 9754SOL     OW30160   3.345   0.946   2.179
 9754SOL    HW130161   3.323   1.007   2.255
 9754SOL    HW230162   3.288   0.864   2.183
 9755SOL     OW30163   3.899   4.101   1.217
 9755SOL    HW130164   3.839   4.115   1.296
 9755SOL    HW230165   3.893   4.005   1.188
 9756SOL     OW30166   5.075   0.490   6.645
 9756SOL    HW130167   5.050   0.547   6.567
 9756SOL    HW230168   5.021   0.406   6.645
 9757SOL     OW30169   5.012   4.025   3.573
 9757SOL    HW130170   5.061   4.093   3.519
 9757SOL    HW230171   5.068   3.996   3.650
 9758SOL     OW30172   2.768   0.261   0.432
 9758SOL    HW130173   2.772   0.333   0.364
 9758SOL    HW230174   2.684   0.269   0.485
 9759SOL     OW30175   6.101   0.767   0.203
 9759SOL    HW130176   6.151   0.850   0.178
 9759SOL    HW230177   6.083   0.713   0.121
 9760SOL     OW30178   4.937   0.541   5.709
 9760SOL    HW130179   4.877   0.621   5.699
 9760SOL    HW230180   4.920   0.497   5.797
 9761SOL     OW30181   0.668   2.009   1.541
 9761SOL    HW130182   0.632   1.918   1.562
 9761SOL    HW230183   0.656   2.027   1.444
 9762SOL     OW30184   4.066   1.699   5.334
 9762SOL    HW130185   3.974   1.733   5.314
 9762SOL    HW230186   4.071   1.671   5.430
 9763SOL     OW30187   6.473   2.100   0.244
 9763SOL    HW130188   6.442   2.191   0.271
 9763SOL    HW230189   6.395   2.046   0.213
 9764SOL     OW30190   6.652   2.600   3.377
 9764SOL    HW130191   6.580   2.618   3.310
 9764SOL    HW230192   6.641   2.660   3.456
 9765SOL     OW30193   6.930   1.903   1.077
 9765SOL    HW130194   6.905   1.999   1.080
 9765SOL    HW230195   6.853   1.847   1.109
 9766SOL     OW30196   0.666   3.097   2.687
 9766SOL    HW130197   0.707   3.167   2.745
 9766SOL    HW230198   0.583   3.133   2.645
 9767SOL     OW30199   3.737   0.943   4.683
 9767SOL    HW130200   3.724   1.042   4.685
 9767SOL    HW230201   3.791   0.918   4.603
 9768SOL     OW30202   4.089   3.619   6.943
 9768SOL    HW130203   4.098   3.616   6.844
 9768SOL    HW230204   4.175   3.590   6.986
 9769SOL     OW30205   2.930   0.771   6.105
 9769SOL    HW130206   2.902   0.710   6.030
 9769SOL    HW230207   2.917   0.724   6.192
 9770SOL     OW30208   2.212   3.163   4.603
 9770SOL    HW130209   2.224   3.084   4.663
 9770SOL    HW230210   2.242   3.245   4.651
 9771SOL     OW30211   3.493   0.257   1.262
 9771SOL    HW130212   3.541   0.323   1.204
 9771SOL    HW230213   3.558   0.214   1.325
 9772SOL     OW30214   0.234   0.300   1.680
 9772SOL    HW130215   0.313   0.352   1.714
 9772SOL    HW230216   0.266   0.229   1.617
 9773SOL     OW30217   4.198   6.178   2.995
 9773SOL    HW130218   4.132   6.192   2.921
 9773SOL    HW230219   4.226   6.082   2.997
 9774SOL     OW30220   1.507   5.253   5.287
 9774SOL    HW130221   1.437   5.252   5.358
 9774SOL    HW230222   1.507   5.166   5.238
 9775SOL     OW30223   1.393   1.451   3.546
 9775SOL    HW130224   1.333   1.398   3.486
 9775SOL    HW230225   1.340   1.492   3.619
 9776SOL     OW30226   0.854   5.763   1.637
 9776SOL    HW130227   0.949   5.736   1.624
 9776SOL    HW230228   0.815   5.715   1.715
 9777SOL     OW30229   5.361   2.812   5.185
 9777SOL    HW130230   5.342   2.790   5.281
 9777SOL    HW230231   5.389   2.907   5.178
 9778SOL     OW30232   1.660   2.917   3.266
 9778SOL    HW130233   1.599   2.966   3.327
 9778SOL    HW230234   1.739   2.974   3.244
 9779SOL     OW30235   1.876   1.146   2.843
 9779SOL    HW130236   1.792   1.199   2.857
 9779SOL    HW230237   1.854   1.049   2.835
 9780SOL     OW30238   1.504   2.002   1.285
 9780SOL    HW130239   1.537   2.081   1.233
 9780SOL    HW230240   1.517   2.020   1.383
 9781SOL     OW30241   0.601   0.885   2.044
 9781SOL    HW130242   0.510   0.903   2.007
 9781SOL    HW230243   0.597   0.806   2.105
 9782SOL     OW30244   0.354   2.423   6.719
 9782SOL    HW130245   0.271   2.457   6.764
 9782SOL    HW230246   0.335   2.333   6.680
 9783SOL     OW30247   5.477   1.634   1.976
 9783SOL    HW130248   5.522   1.566   1.917
 9783SOL    HW230249   5.390   1.598   2.009
 9784SOL     OW30250   2.087   1.329   0.146
 9784SOL    HW130251   2.178   1.355   0.114
 9784SOL    HW230252   2.076   1.357   0.241
 9785SOL     OW30253   1.989   3.725   4.651
 9785SOL    HW130254   2.030   3.813   4.626
 9785SOL    HW230255   1.907   3.742   4.707
 9786SOL     OW30256   2.612   4.247   0.770
 9786SOL    HW130257   2.631   4.335   0.727
 9786SOL    HW230258   2.582   4.261   0.864
 9787SOL     OW30259   2.739   3.455   0.947
 9787SOL    HW130260   2.784   3.543   0.931
 9787SOL    HW230261   2.743   3.400   0.864
 9788SOL     OW30262   2.909   0.135   4.004
 9788SOL    HW130263   2.859   0.063   4.053
 9788SOL    HW230264   2.849   0.178   3.937
 9789SOL     OW30265   4.217   1.709   0.443
 9789SOL    HW130266   4.158   1.651   0.386
 9789SOL    HW230267   4.167   1.791   0.471
 9790SOL     OW30268   4.538   5.580   5.540
 9790SOL    HW130269   4.628   5.623   5.530
 9790SOL    HW230270   4.472   5.648   5.571
 9791SOL     OW30271   0.133   0.837   0.851
 9791SOL    HW130272   0.206   0.822   0.784
 9791SOL    HW230273   0.151   0.922   0.901
 9792SOL     OW30274   2.600   3.782   6.939
 9792SOL    HW130275   2.565   3.743   7.023
 9792SOL    HW230276   2.532   3.773   6.866
 9793SOL     OW30277   5.320   0.765   1.733
 9793SOL    HW130278   5.323   0.865   1.731
 9793SOL    HW230279   5.405   0.730   1.773
 9794SOL     OW30280   4.175   5.752   5.893
 9794SOL    HW130281   4.199   5.770   5.798
 9794SOL    HW230282   4.078   5.770   5.907
 9795SOL     OW30283   1.886   3.806   3.230
 9795SOL    HW130284   1.977   3.792   3.191
 9795SOL    HW230285   1.890   3.877   3.301
 9796SOL     OW30286   3.741   3.427   5.032
 9796SOL    HW130287   3.707   3.513   5.072
 9796SOL    HW230288   3.841   3.426   5.036
 9797SOL     OW30289   3.661   5.235   0.230
 9797SOL    HW130290   3.708   5.186   0.304
 9797SOL    HW230291   3.593   5.297   0.270
 9798SOL     OW30292   0.937   4.227   5.705
 9798SOL    HW130293   1.034   4.218   5.725
 9798SOL    HW230294   0.890   4.268   5.784
 9799SOL     OW30295   3.075   0.441   6.336
 9799SOL    HW130296   3.017   0.383   6.392
 9799SOL    HW230297   3.027   0.525   6.312
 9800SOL     OW30298   0.498   4.689   4.410
 9800SOL    HW130299   0.597   4.677   4.417
 9800SOL    HW230300   0.465   4.638   4.331
 9801SOL     OW30301   4.052   6.403   1.022
 9801SOL    HW130302   3.961   6.441   1.041
 9801SOL    HW230303   4.089   6.445   0.939
 9802SOL     OW30304   4.051   2.508   0.466
 9802SOL    HW130305   4.098   2.481   0.383
 9802SOL    HW230306   4.117   2.546   0.531
 9803SOL     OW30307   2.283   3.489   0.247
 9803SOL    HW130308   2.324   3.398   0.246
 9803SOL    HW230309   2.265   3.516   0.342
 9804SOL     OW30310   0.746   3.625   2.981
 9804SOL    HW130311   0.839   3.628   3.019
 9804SOL    HW230312   0.693   3.554   3.027
 9805SOL     OW30313   6.739   4.494   5.093
 9805SOL    HW130314   6.784   4.416   5.050
 9805SOL    HW230315   6.640   4.485   5.085
 9806SOL     OW30316   3.405   1.108   0.399
 9806SOL    HW130317   3.330   1.080   0.460
 9806SOL    HW230318   3.423   1.206   0.410
 9807SOL     OW30319   3.861   3.074   4.798
 9807SOL    HW130320   3.887   3.158   4.845
 9807SOL    HW230321   3.926   3.054   4.725
 9808SOL     OW30322   2.708   6.806   2.611
 9808SOL    HW130323   2.666   6.715   2.606
 9808SOL    HW230324   2.766   6.821   2.531
 9809SOL     OW30325   0.088   3.798   1.257
 9809SOL    HW130326   0.096   3.826   1.161
 9809SOL    HW230327   0.003   3.833   1.295
 9810SOL     OW30328   3.922   2.924   1.058
 9810SOL    HW130329   4.021   2.916   1.066
 9810SOL    HW230330   3.881   2.925   1.149
 9811SOL     OW30331   5.409   3.893   3.860
 9811SOL    HW130332   5.386   3.797   3.844
 9811SOL    HW230333   5.482   3.920   3.797
 9812SOL     OW30334   3.206   5.653   6.320
 9812SOL    HW130335   3.144   5.615   6.251
 9812SOL    HW230336   3.253   5.733   6.282
 9813SOL     OW30337   4.667   0.594   1.866
 9813SOL    HW130338   4.602   0.560   1.797
 9813SOL    HW230339   4.626   0.588   1.957
 9814SOL     OW30340   6.559   1.468   6.600
 9814SOL    HW130341   6.537   1.482   6.503
 9814SOL    HW230342   6.644   1.518   6.622
 9815SOL     OW30343   5.352   3.095   4.905
 9815SOL    HW130344   5.293   3.092   4.825
 9815SOL    HW230345   5.412   3.174   4.899
 9816SOL     OW30346   4.050   0.594   0.099
 9816SOL    HW130347   4.064   0.647   0.183
 9816SOL    HW230348   3.967   0.627   0.052
 9817SOL     OW30349   6.117   0.263   1.321
 9817SOL    HW130350   6.206   0.262   1.366
 9817SOL    HW230351   6.128   0.230   1.227
 9818SOL     OW30352   4.082   2.149   5.044
 9818SOL    HW130353   4.006   2.155   4.978
 9818SOL    HW230354   4.123   2.239   5.056
 9819SOL     OW30355   2.708   6.939   2.173
 9819SOL    HW130356   2.749   6.932   2.082
 9819SOL    HW230357   2.609   6.947   2.165
 9820SOL     OW30358   4.171   2.731   6.938
 9820SOL    HW130359   4.097   2.668   6.912
 9820SOL    HW230360   4.143   2.783   7.019
 9821SOL     OW30361   0.804   6.243   6.904
 9821SOL    HW130362   0.838   6.170   6.844
 9821SOL    HW230363   0.882   6.292   6.944
 9822SOL     OW30364   6.846   2.287   2.105
 9822SOL    HW130365   6.872   2.258   2.197
 9822SOL    HW230366   6.755   2.250   2.083
 9823SOL     OW30367   2.506   6.329   2.816
 9823SOL    HW130368   2.483   6.365   2.907
 9823SOL    HW230369   2.601   6.350   2.795
 9824SOL     OW30370   2.108   4.059   5.510
 9824SOL    HW130371   2.185   4.066   5.573
 9824SOL    HW230372   2.050   4.140   5.518
 9825SOL     OW30373   4.471   4.456   5.395
 9825SOL    HW130374   4.387   4.432   5.443
 9825SOL    HW230375   4.528   4.374   5.386
 9826SOL     OW30376   5.946   0.278   5.096
 9826SOL    HW130377   5.848   0.301   5.097
 9826SOL    HW230378   5.994   0.341   5.036
 9827SOL     OW30379   1.039   5.893   4.902
 9827SOL    HW130380   1.004   5.965   4.962
 9827SOL    HW230381   1.136   5.878   4.920
 9828SOL     OW30382   2.382   1.227   0.399
 9828SOL    HW130383   2.437   1.223   0.482
 9828SOL    HW230384   2.324   1.146   0.393
 9829SOL     OW30385   3.340   4.787   1.427
 9829SOL    HW130386   3.244   4.810   1.442
 9829SOL    HW230387   3.392   4.803   1.511
 9830SOL     OW30388   6.220   0.900   1.076
 9830SOL    HW130389   6.125   0.916   1.103
 9830SOL    HW230390   6.246   0.806   1.101
 9831SOL     OW30391   0.160   5.787   1.192
 9831SOL    HW130392   0.253   5.765   1.220
 9831SOL    HW230393   0.115   5.841   1.263
 9832SOL     OW30394   2.951   3.846   1.802
 9832SOL    HW130395   3.025   3.906   1.834
 9832SOL    HW230396   2.878   3.901   1.762
 9833SOL     OW30397   5.078   4.369   0.137
 9833SOL    HW130398   5.022   4.295   0.100
 9833SOL    HW230399   5.148   4.396   0.071
 9834SOL     OW30400   2.149   3.180   3.740
 9834SOL    HW130401   2.092   3.259   3.764
 9834SOL    HW230402   2.113   3.137   3.657
 9835SOL     OW30403   5.169   2.769   4.637
 9835SOL    HW130404   5.216   2.702   4.580
 9835SOL    HW230405   5.166   2.857   4.589
 9836SOL     OW30406   5.051   4.922   1.275
 9836SOL    HW130407   5.090   4.830   1.277
 9836SOL    HW230408   5.120   4.987   1.245
 9837SOL     OW30409   1.749   5.190   5.083
 9837SOL    HW130410   1.823   5.132   5.048
 9837SOL    HW230411   1.730   5.262   5.017
 9838SOL     OW30412   6.863   6.630   4.849
 9838SOL    HW130413   6.767   6.624   4.876
 9838SOL    HW230414   6.881   6.720   4.810
 9839SOL     OW30415   5.947   3.253   3.202
 9839SOL    HW130416   5.992   3.167   3.225
 9839SOL    HW230417   5.996   3.329   3.244
 9840SOL     OW30418   6.122   0.047   0.413
 9840SOL    HW130419   6.112   0.093   0.324
 9840SOL    HW230420   6.091   6.980   0.404
 9841SOL     OW30421   1.329   3.041   4.001
 9841SOL    HW130422   1.306   2.960   3.946
 9841SOL    HW230423   1.427   3.060   3.992
 9842SOL     OW30424   2.954   3.724   3.734
 9842SOL    HW130425   2.979   3.794   3.666
 9842SOL    HW230426   2.953   3.634   3.690
 9843SOL     OW30427   5.838   4.431   3.333
 9843SOL    HW130428   5.743   4.451   3.356
 9843SOL    HW230429   5.842   4.382   3.246
 9844SOL     OW30430   3.902   0.286   1.293
 9844SOL    HW130431   3.930   0.352   1.363
 9844SOL    HW230432   3.916   0.326   1.203
 9845SOL     OW30433   1.325   1.750   4.271
 9845SOL    HW130434   1.386   1.685   4.226
 9845SOL    HW230435   1.231   1.719   4.262
 9846SOL     OW30436   3.078   3.566   4.179
 9846SOL    HW130437   3.110   3.647   4.230
 9846SOL    HW230438   3.088   3.485   4.237
 9847SOL     OW30439   2.685   4.722   4.052
 9847SOL    HW130440   2.635   4.735   3.966
 9847SOL    HW230441   2.693   4.625   4.072
 9848SOL     OW30442   0.224   4.472   0.527
 9848SOL    HW130443   0.294   4.400   0.534
 9848SOL    HW230444   0.263   4.552   0.483
 9849SOL     OW30445   0.093   5.642   5.075
 9849SOL    HW130446   0.038   5.676   5.152
 9849SOL    HW230447   0.175   5.698   5.065
 9850SOL     OW30448   5.600   0.127   3.787
 9850SOL    HW130449   5.505   0.103   3.810
 9850SOL    HW230450   5.635   0.061   3.720
 9851SOL     OW30451   5.369   2.649   4.946
 9851SOL    HW130452   5.385   2.721   5.015
 9851SOL    HW230453   5.271   2.644   4.925
 9852SOL     OW30454   5.319   2.052   4.089
 9852SOL    HW130455   5.349   2.115   4.161
 9852SOL    HW230456   5.299   2.105   4.006
 9853SOL     OW30457   0.106   5.414   1.156
 9853SOL    HW130458   0.140   5.491   1.102
 9853SOL    HW230459   0.075   5.447   1.245
 9854SOL     OW30460   3.159   0.184   4.521
 9854SOL    HW130461   3.256   0.195   4.542
 9854SOL    HW230462   3.142   0.210   4.426
 9855SOL     OW30463   2.275   4.185   1.335
 9855SOL    HW130464   2.308   4.091   1.326
 9855SOL    HW230465   2.350   4.248   1.316
 9856SOL     OW30466   3.525   3.259   1.466
 9856SOL    HW130467   3.546   3.230   1.373
 9856SOL    HW230468   3.430   3.238   1.487
 9857SOL     OW30469   5.843   5.246   3.193
 9857SOL    HW130470   5.806   5.167   3.243
 9857SOL    HW230471   5.821   5.330   3.243
 9858SOL     OW30472   3.550   0.903   1.527
 9858SOL    HW130473   3.486   0.911   1.604
 9858SOL    HW230474   3.570   0.807   1.510
 9859SOL     OW30475   0.372   6.570   1.166
 9859SOL    HW130476   0.470   6.553   1.157
 9859SOL    HW230477   0.347   6.573   1.263
 9860SOL     OW30478   0.848   1.115   2.819
 9860SOL    HW130479   0.911   1.055   2.770
 9860SOL    HW230480   0.788   1.161   2.755
 9861SOL     OW30481   1.965   6.303   3.892
 9861SOL    HW130482   2.042   6.250   3.928
 9861SOL    HW230483   1.918   6.349   3.968
 9862SOL     OW30484   0.271   1.688   0.255
 9862SOL    HW130485   0.208   1.612   0.237
 9862SOL    HW230486   0.302   1.726   0.168
 9863SOL     OW30487   5.025   0.584   7.006
 9863SOL    HW130488   5.018   0.647   6.929
 9863SOL    HW230489   5.047   0.635   0.062
 9864SOL     OW30490   4.043   5.423   4.117
 9864SOL    HW130491   4.064   5.484   4.041
 9864SOL    HW230492   4.082   5.333   4.099
 9865SOL     OW30493   2.084   3.549   3.439
 9865SOL    HW130494   2.034   3.530   3.524
 9865SOL    HW230495   2.026   3.526   3.361
 9866SOL     OW30496   2.692   4.729   3.236
 9866SOL    HW130497   2.670   4.768   3.326
 9866SOL    HW230498   2.791   4.731   3.222
 9867SOL     OW30499   3.681   6.510   5.770
 9867SOL    HW130500   3.599   6.546   5.814
 9867SOL    HW230501   3.731   6.453   5.835
 9868SOL     OW30502   1.540   5.337   6.180
 9868SOL    HW130503   1.444   5.345   6.204
 9868SOL    HW230504   1.590   5.418   6.211
 9869SOL     OW30505   0.796   5.238   3.116
 9869SOL    HW130506   0.735   5.252   3.194
 9869SOL    HW230507   0.821   5.326   3.077
 9870SOL     OW30508   4.153   5.834   1.887
 9870SOL    HW130509   4.166   5.751   1.940
 9870SOL    HW230510   4.227   5.844   1.821
 9871SOL     OW30511   2.323   2.779   6.030
 9871SOL    HW130512   2.397   2.778   5.963
 9871SOL    HW230513   2.243   2.734   5.992
 9872SOL     OW30514   1.356   3.595   2.920
 9872SOL    HW130515   1.422   3.641   2.861
 9872SOL    HW230516   1.381   3.499   2.930
 9873SOL     OW30517   1.949   2.242   1.759
 9873SOL    HW130518   1.979   2.318   1.816
 9873SOL    HW230519   1.918   2.277   1.670
 9874SOL     OW30520   1.337   3.767   4.486
 9874SOL    HW130521   1.241   3.739   4.492
 9874SOL    HW230522   1.360   3.791   4.392
 9875SOL     OW30523   1.309   1.295   2.966
 9875SOL    HW130524   1.342   1.228   2.899
 9875SOL    HW230525   1.214   1.275   2.990
 9876SOL     OW30526   6.525   6.019   2.017
 9876SOL    HW130527   6.573   6.035   2.104
 9876SOL    HW230528   6.484   5.928   2.018
 9877SOL     OW30529   4.177   6.983   0.836
 9877SOL    HW130530   4.101   7.008   0.897
 9877SOL    HW230531   4.263   7.014   0.875
 9878SOL     OW30532   6.707   1.813   4.886
 9878SOL    HW130533   6.690   1.717   4.864
 9878SOL    HW230534   6.803   1.825   4.913
 9879SOL     OW30535   5.117   5.319   5.588
 9879SOL    HW130536   5.129   5.305   5.490
 9879SOL    HW230537   5.206   5.324   5.632
 9880SOL     OW30538   1.200   2.526   3.740
 9880SOL    HW130539   1.195   2.483   3.830
 9880SOL    HW230540   1.211   2.454   3.671
 9881SOL     OW30541   0.047   1.653   5.655
 9881SOL    HW130542   0.018   1.565   5.691
 9881SOL    HW230543   7.008   1.685   5.586
 9882SOL     OW30544   1.516   2.414   3.475
 9882SOL    HW130545   1.475   2.323   3.476
 9882SOL    HW230546   1.605   2.411   3.430
 9883SOL     OW30547   3.216   1.342   2.345
 9883SOL    HW130548   3.238   1.373   2.253
 9883SOL    HW230549   3.232   1.244   2.353
 9884SOL     OW30550   3.229   0.701   3.742
 9884SOL    HW130551   3.194   0.795   3.741
 9884SOL    HW230552   3.196   0.655   3.825
 9885SOL     OW30553   6.764   3.461   4.789
 9885SOL    HW130554   6.787   3.558   4.794
 9885SOL    HW230555   6.844   3.409   4.760
 9886SOL     OW30556   0.058   2.687   2.006
 9886SOL    HW130557   0.148   2.648   1.989
 9886SOL    HW230558   0.013   2.708   1.919
 9887SOL     OW30559   4.151   6.086   5.634
 9887SOL    HW130560   4.190   5.993   5.632
 9887SOL    HW230561   4.212   6.146   5.685
 9888SOL     OW30562   6.918   5.267   5.428
 9888SOL    HW130563   6.945   5.221   5.344
 9888SOL    HW230564   6.970   5.229   5.505
 9889SOL     OW30565   0.549   5.735   0.881
 9889SOL    HW130566   0.523   5.689   0.966
 9889SOL    HW230567   0.491   5.816   0.868
 9890SOL     OW30568   0.823   3.021   0.971
 9890SOL    HW130569   0.744   3.025   1.032
 9890SOL    HW230570   0.822   3.099   0.909
 9891SOL     OW30571   4.878   1.592   2.665
 9891SOL    HW130572   4.948   1.626   2.729
 9891SOL    HW230573   4.922   1.533   2.597
 9892SOL     OW30574   1.177   0.026   6.594
 9892SOL    HW130575   1.161   6.957   6.613
 9892SOL    HW230576   1.097   0.080   6.621
 9893SOL     OW30577   1.838   1.755   0.280
 9893SOL    HW130578   1.898   1.715   0.211
 9893SOL    HW230579   1.742   1.740   0.253
 9894SOL     OW30580   2.409   1.258   1.607
 9894SOL    HW130581   2.502   1.281   1.578
 9894SOL    HW230582   2.398   1.283   1.704
 9895SOL     OW30583   4.144   2.816   5.590
 9895SOL    HW130584   4.125   2.720   5.611
 9895SOL    HW230585   4.086   2.845   5.513
 9896SOL     OW30586   6.758   6.711   5.905
 9896SOL    HW130587   6.792   6.686   5.995
 9896SOL    HW230588   6.833   6.750   5.851
 9897SOL     OW30589   5.984   5.122   5.030
 9897SOL    HW130590   5.973   5.221   5.042
 9897SOL    HW230591   6.077   5.096   5.058
 9898SOL     OW30592   2.425   6.990   6.824
 9898SOL    HW130593   2.411   6.906   6.876
 9898SOL    HW230594   2.519   7.023   6.838
 9899SOL     OW30595   0.348   4.711   0.509
 9899SOL    HW130596   0.266   4.766   0.518
 9899SOL    HW230597   0.429   4.769   0.518
 9900SOL     OW30598   2.192   5.084   3.272
 9900SOL    HW130599   2.275   5.124   3.233
 9900SOL    HW230600   2.189   5.100   3.370
 9901SOL     OW30601   2.133   3.155   4.895
 9901SOL    HW130602   2.204   3.097   4.933
 9901SOL    HW230603   2.076   3.191   4.969
 9902SOL     OW30604   3.156   4.565   1.080
 9902SOL    HW130605   3.074   4.617   1.099
 9902SOL    HW230606   3.184   4.515   1.162
 9903SOL     OW30607   5.507   1.415   4.904
 9903SOL    HW130608   5.521   1.332   4.958
 9903SOL    HW230609   5.587   1.430   4.846
 9904SOL     OW30610   6.033   1.410   0.285
 9904SOL    HW130611   5.970   1.353   0.338
 9904SOL    HW230612   5.984   1.490   0.251
 9905SOL     OW30613   5.291   0.019   0.225
 9905SOL    HW130614   5.334   6.956   0.218
 9905SOL    HW230615   5.355   0.089   0.194
 9906SOL     OW30616   2.827   3.508   5.562
 9906SOL    HW130617   2.745   3.465   5.522
 9906SOL    HW230618   2.832   3.486   5.659
 9907SOL     OW30619   1.827   5.969   2.357
 9907SOL    HW130620   1.774   5.908   2.298
 9907SOL    HW230621   1.897   5.916   2.405
 9908SOL     OW30622   5.162   3.424   1.784
 9908SOL    HW130623   5.236   3.491   1.772
 9908SOL    HW230624   5.092   3.462   1.844
 9909SOL     OW30625   1.926   0.460   4.502
 9909SOL    HW130626   1.973   0.545   4.527
 9909SOL    HW230627   1.828   0.471   4.517
 9910SOL     OW30628   0.595   4.621   4.120
 9910SOL    HW130629   0.523   4.600   4.054
 9910SOL    HW230630   0.673   4.560   4.103
 9911SOL     OW30631   2.544   6.607   2.590
 9911SOL    HW130632   2.507   6.555   2.667
 9911SOL    HW230633   2.485   6.594   2.510
 9912SOL     OW30634   5.362   0.731   5.625
 9912SOL    HW130635   5.453   0.769   5.644
 9912SOL    HW230636   5.342   0.659   5.691
 9913SOL     OW30637   5.171   3.165   0.830
 9913SOL    HW130638   5.207   3.096   0.768
 9913SOL    HW230639   5.153   3.123   0.919
 9914SOL     OW30640   0.686   3.548   4.324
 9914SOL    HW130641   0.637   3.478   4.272
 9914SOL    HW230642   0.725   3.507   4.406
 9915SOL     OW30643   4.323   1.343   3.714
 9915SOL    HW130644   4.399   1.313   3.655
 9915SOL    HW230645   4.278   1.422   3.673
 9916SOL     OW30646   1.500   3.365   1.426
 9916SOL    HW130647   1.560   3.285   1.431
 9916SOL    HW230648   1.542   3.435   1.369
 9917SOL     OW30649   6.251   4.687   6.001
 9917SOL    HW130650   6.157   4.687   5.966
 9917SOL    HW230651   6.295   4.773   5.975
 9918SOL     OW30652   4.730   2.816   2.386
 9918SOL    HW130653   4.742   2.807   2.287
 9918SOL    HW230654   4.672   2.895   2.405
 9919SOL     OW30655   5.056   5.958   0.050
 9919SOL    HW130656   5.049   5.876   0.107
 9919SOL    HW230657   5.079   5.932   6.984
 9920SOL     OW30658   4.686   0.781   2.251
 9920SOL    HW130659   4.697   0.683   2.235
 9920SOL    HW230660   4.682   0.829   2.163
 9921SOL     OW30661   4.233   4.692   5.869
 9921SOL    HW130662   4.322   4.650   5.887
 9921SOL    HW230663   4.234   4.734   5.779
 9922SOL     OW30664   6.801   6.372   1.291
 9922SOL    HW130665   6.886   6.380   1.343
 9922SOL    HW230666   6.735   6.439   1.326
 9923SOL     OW30667   6.283   3.745   0.342
 9923SOL    HW130668   6.247   3.656   0.313
 9923SOL    HW230669   6.213   3.815   0.328
 9924SOL     OW30670   1.954   4.762   4.629
 9924SOL    HW130671   2.035   4.752   4.571
 9924SOL    HW230672   1.982   4.794   4.720
 9925SOL     OW30673   4.703   2.778   4.432
 9925SOL    HW130674   4.701   2.844   4.506
 9925SOL    HW230675   4.784   2.719   4.442
 9926SOL     OW30676   3.066   5.265   1.816
 9926SOL    HW130677   3.156   5.222   1.820
 9926SOL    HW230678   3.016   5.232   1.735
 9927SOL     OW30679   5.290   0.626   4.113
 9927SOL    HW130680   5.371   0.581   4.151
 9927SOL    HW230681   5.273   0.711   4.163
 9928SOL     OW30682   5.054   4.210   2.278
 9928SOL    HW130683   5.057   4.126   2.224
 9928SOL    HW230684   5.058   4.289   2.216
 9929SOL     OW30685   0.797   3.815   3.604
 9929SOL    HW130686   0.873   3.757   3.574
 9929SOL    HW230687   0.824   3.866   3.686
 9930SOL     OW30688   5.531   1.055   2.738
 9930SOL    HW130689   5.468   1.058   2.660
 9930SOL    HW230690   5.511   0.976   2.795
 9931SOL     OW30691   1.260   5.617   5.060
 9931SOL    HW130692   1.329   5.552   5.028
 9931SOL    HW230693   1.280   5.707   5.023
 9932SOL     OW30694   0.412   5.901   4.258
 9932SOL    HW130695   0.494   5.843   4.253
 9932SOL    HW230696   0.425   5.982   4.201
 9933SOL     OW30697   6.647   6.766   2.975
 9933SOL    HW130698   6.556   6.774   2.936
 9933SOL    HW230699   6.674   6.670   2.979
 9934SOL     OW30700   0.297   2.967   4.918
 9934SOL    HW130701   0.383   2.964   4.968
 9934SOL    HW230702   0.294   2.892   4.851
 9935SOL     OW30703   1.702   6.846   6.150
 9935SOL    HW130704   1.718   6.882   6.242
 9935SOL    HW230705   1.607   6.864   6.124
 9936SOL     OW30706   2.056   3.895   3.591
 9936SOL    HW130707   2.084   3.850   3.506
 9936SOL    HW230708   2.135   3.938   3.634
 9937SOL     OW30709   6.868   3.455   5.870
 9937SOL    HW130710   6.855   3.453   5.969
 9937SOL    HW230711   6.800   3.515   5.829
 9938SOL     OW30712   6.511   5.828   2.449
 9938SOL    HW130713   6.566   5.750   2.421
 9938SOL    HW230714   6.567   5.911   2.443
 9939SOL     OW30715   3.434   2.885   3.766
 9939SOL    HW130716   3.487   2.854   3.687
 9939SOL    HW230717   3.362   2.948   3.735
 9940SOL     OW30718   0.276   1.387   1.365
 9940SOL    HW130719   0.208   1.450   1.328
 9940SOL    HW230720   0.230   1.319   1.423
 9941SOL     OW30721   3.588   5.703   5.516
 9941SOL    HW130722   3.671   5.729   5.467
 9941SOL    HW230723   3.536   5.637   5.462
 9942SOL     OW30724   2.741   5.978   3.806
 9942SOL    HW130725   2.697   6.068   3.808
 9942SOL    HW230726   2.785   5.965   3.717
 9943SOL     OW30727   0.418   6.297   4.599
 9943SOL    HW130728   0.421   6.338   4.690
 9943SOL    HW230729   0.423   6.370   4.530
 9944SOL     OW30730   1.782   4.460   5.827
 9944SOL    HW130731   1.825   4.401   5.759
 9944SOL    HW230732   1.744   4.541   5.782
 9945SOL     OW30733   0.217   5.915   6.798
 9945SOL    HW130734   0.149   5.956   6.738
 9945SOL    HW230735   0.307   5.921   6.755
 9946SOL     OW30736   5.301   0.722   3.434
 9946SOL    HW130737   5.312   0.727   3.335
 9946SOL    HW230738   5.391   0.728   3.478
 9947SOL     OW30739   6.061   4.563   3.390
 9947SOL    HW130740   6.140   4.502   3.387
 9947SOL    HW230741   5.977   4.509   3.384
 9948SOL     OW30742   5.140   4.231   3.446
 9948SOL    HW130743   5.195   4.239   3.363
 9948SOL    HW230744   5.133   4.321   3.490
 9949SOL     OW30745   5.461   4.991   1.946
 9949SOL    HW130746   5.560   5.006   1.944
 9949SOL    HW230747   5.442   4.893   1.954
 9950SOL     OW30748   3.588   6.879   0.318
 9950SOL    HW130749   3.593   6.779   0.318
 9950SOL    HW230750   3.677   6.917   0.340
 9951SOL     OW30751   5.699   3.146   2.557
 9951SOL    HW130752   5.774   3.171   2.495
 9951SOL    HW230753   5.706   3.200   2.641
 9952SOL     OW30754   0.936   4.924   6.200
 9952SOL    HW130755   0.856   4.895   6.253
 9952SOL    HW230756   0.906   4.981   6.124
 9953SOL     OW30757   5.709   3.696   3.626
 9953SOL    HW130758   5.669   3.638   3.696
 9953SOL    HW230759   5.734   3.640   3.547
 9954SOL     OW30760   5.412   0.788   4.715
 9954SOL    HW130761   5.342   0.745   4.657
 9954SOL    HW230762   5.396   0.763   4.810
 9955SOL     OW30763   0.731   4.803   4.962
 9955SOL    HW130764   0.799   4.773   4.895
 9955SOL    HW230765   0.642   4.765   4.938
 9956SOL     OW30766   1.053   5.786   0.071
 9956SOL    HW130767   1.118   5.745   0.006
 9956SOL    HW230768   1.061   5.886   0.067
 9957SOL     OW30769   6.248   5.866   2.408
 9957SOL    HW130770   6.183   5.813   2.462
 9957SOL    HW230771   6.341   5.837   2.429
 9958SOL     OW30772   2.500   4.637   1.134
 9958SOL    HW130773   2.442   4.708   1.095
 9958SOL    HW230774   2.588   4.677   1.160
 9959SOL     OW30775   3.909   4.241   0.914
 9959SOL    HW130776   3.834   4.251   0.848
 9959SOL    HW230777   3.945   4.331   0.937
 9960SOL     OW30778   6.990   1.071   1.709
 9960SOL    HW130779   6.998   1.047   1.806
 9960SOL    HW230780   6.990   0.988   1.654
 9961SOL     OW30781   1.704   4.313   4.726
 9961SOL    HW130782   1.747   4.300   4.636
 9961SOL    HW230783   1.759   4.267   4.796
 9962SOL     OW30784   6.198   6.467   4.536
 9962SOL    HW130785   6.107   6.508   4.532
 9962SOL    HW230786   6.223   6.433   4.445
 9963SOL     OW30787   3.689   2.492   0.140
 9963SOL    HW130788   3.666   2.478   0.237
 9963SOL    HW230789   3.701   2.590   0.123
 9964SOL     OW30790   5.515   6.308   4.425
 9964SOL    HW130791   5.444   6.243   4.397
 9964SOL    HW230792   5.582   6.318   4.352
 9965SOL     OW30793   4.547   0.167   1.665
 9965SOL    HW130794   4.554   0.080   1.714
 9965SOL    HW230795   4.480   0.225   1.710
 9966SOL     OW30796   6.335   1.522   2.302
 9966SOL    HW130797   6.274   1.443   2.306
 9966SOL    HW230798   6.406   1.505   2.233
 9967SOL     OW30799   1.181   5.541   0.573
 9967SOL    HW130800   1.129   5.464   0.535
 9967SOL    HW230801   1.154   5.626   0.529
 9968SOL     OW30802   3.487   2.897   3.025
 9968SOL    HW130803   3.456   2.833   2.955
 9968SOL    HW230804   3.430   2.980   3.021
 9969SOL     OW30805   1.672   2.987   1.191
 9969SOL    HW130806   1.652   3.043   1.271
 9969SOL    HW230807   1.596   2.925   1.174
 9970SOL     OW30808   6.820   4.199   2.961
 9970SOL    HW130809   6.892   4.220   2.894
 9970SOL    HW230810   6.858   4.142   3.033
 9971SOL     OW30811   3.332   6.674   6.604
 9971SOL    HW130812   3.322   6.677   6.704
 9971SOL    HW230813   3.429   6.684   6.581
 9972SOL     OW30814   0.232   4.719   1.634
 9972SOL    HW130815   0.161   4.782   1.666
 9972SOL    HW230816   0.189   4.638   1.593
 9973SOL     OW30817   5.035   6.620   3.569
 9973SOL    HW130818   5.023   6.561   3.488
 9973SOL    HW230819   5.116   6.677   3.557
 9974SOL     OW30820   3.058   0.974   4.280
 9974SOL    HW130821   3.122   0.999   4.207
 9974SOL    HW230822   3.012   0.889   4.255
 9975SOL     OW30823   6.386   3.407   1.830
 9975SOL    HW130824   6.334   3.459   1.897
 9975SOL    HW230825   6.483   3.432   1.836
 9976SOL     OW30826   3.375   6.660   4.697
 9976SOL    HW130827   3.384   6.735   4.631
 9976SOL    HW230828   3.317   6.588   4.658
 9977SOL     OW30829   7.019   5.032   3.989
 9977SOL    HW130830   7.012   5.125   3.953
 9977SOL    HW230831   6.962   5.023   4.071
 9978SOL     OW30832   0.479   3.001   4.102
 9978SOL    HW130833   0.422   3.027   4.024
 9978SOL    HW230834   0.529   2.917   4.080
 9979SOL     OW30835   0.856   3.177   5.267
 9979SOL    HW130836   0.892   3.238   5.337
 9979SOL    HW230837   0.843   3.227   5.182
 9980SOL     OW30838   2.981   0.084   5.886
 9980SOL    HW130839   2.982   0.167   5.830
 9980SOL    HW230840   2.929   0.012   5.839
 9981SOL     OW30841   3.348   1.466   3.036
 9981SOL    HW130842   3.300   1.545   3.074
 9981SOL    HW230843   3.293   1.383   3.049
 9982SOL     OW30844   5.919   0.264   2.708
 9982SOL    HW130845   5.927   0.356   2.669
 9982SOL    HW230846   5.953   0.265   2.801
 9983SOL     OW30847   6.591   0.679   0.576
 9983SOL    HW130848   6.581   0.654   0.480
 9983SOL    HW230849   6.546   0.610   0.633
 9984SOL     OW30850   2.945   0.781   7.000
 9984SOL    HW130851   3.006   0.815   6.929
 9984SOL    HW230852   2.924   0.685   6.983
 9985SOL     OW30853   1.125   1.726   0.909
 9985SOL    HW130854   1.073   1.788   0.967
 9985SOL    HW230855   1.218   1.718   0.945
 9986SOL     OW30856   5.742   4.352   4.951
 9986SOL    HW130857   5.674   4.408   4.905
 9986SOL    HW230858   5.722   4.256   4.936
 9987SOL     OW30859   0.291   4.394   4.830
 9987SOL    HW130860   0.335   4.310   4.860
 9987SOL    HW230861   0.260   4.446   4.910
 9988SOL     OW30862   5.975   1.377   4.190
 9988SOL    HW130863   5.888   1.392   4.237
 9988SOL    HW230864   5.976   1.288   4.146
 9989SOL     OW30865   1.538   2.553   5.217
 9989SOL    HW130866   1.585   2.525   5.301
 9989SOL    HW230867   1.536   2.475   5.153
 9990SOL     OW30868   1.245   4.704   1.186
 9990SOL    HW130869   1.291   4.784   1.224
 9990SOL    HW230870   1.279   4.687   1.093
 9991SOL     OW30871   3.676   1.962   4.003
 9991SOL    HW130872   3.717   2.035   3.950
 9991SOL    HW230873   3.612   1.910   3.946
 9992SOL     OW30874   6.934   4.770   6.522
 9992SOL    HW130875   6.865   4.828   6.565
 9992SOL    HW230876   6.944   4.797   6.426
 9993SOL     OW30877   1.095   1.334   1.751
 9993SOL    HW130878   1.128   1.294   1.666
 9993SOL    HW230879   1.170   1.383   1.795
 9994SOL     OW30880   5.810   4.185   3.191
 9994SOL    HW130881   5.722   4.222   3.163
 9994SOL    HW230882   5.808   4.086   3.186
 9995SOL     OW30883   5.495   2.066   4.547
 9995SOL    HW130884   5.532   2.059   4.640
 9995SOL    HW230885   5.396   2.082   4.552
 9996SOL     OW30886   2.991   2.995   1.542
 9996SOL    HW130887   2.988   3.023   1.638
 9996SOL    HW230888   2.992   2.895   1.537
 9997SOL     OW30889   3.107   0.844   4.751
 9997SOL    HW130890   3.094   0.765   4.691
 9997SOL    HW230891   3.076   0.927   4.705
 9998SOL     OW30892   6.429   5.760   5.502
 9998SOL    HW130893   6.445   5.825   5.576
 9998SOL    HW230894   6.502   5.692   5.500
 9999SOL     OW30895   0.188   0.761   5.400
 9999SOL    HW130896   0.223   0.809   5.481
 9999SOL    HW230897   0.200   0.663   5.411
10000SOL     OW30898   6.658   4.893   0.728
10000SOL    HW130899   6.568   4.904   0.686
10000SOL    HW230900   6.686   4.797   0.724
10001SOL     OW30901   3.839   0.909   3.862
10001SOL    HW130902   3.772   0.960   3.916
10001SOL    HW230903   3.863   0.962   3.781
10002SOL     OW30904   0.988   2.013   2.120
10002SOL    HW130905   0.993   1.963   2.034
10002SOL    HW230906   1.045   2.095   2.115
10003SOL     OW30907   5.561   3.588   1.196
10003SOL    HW130908   5.622   3.591   1.275
10003SOL    HW230909   5.489   3.520   1.212
10004SOL     OW30910   6.078   3.584   4.303
10004SOL    HW130911   6.089   3.517   4.377
10004SOL    HW230912   6.152   3.651   4.307
10005SOL     OW30913   4.806   0.049   3.008
10005SOL    HW130914   4.810   0.147   2.989
10005SOL    HW230915   4.817   0.034   3.106
10006SOL     OW30916   5.231   3.012   4.067
10006SOL    HW130917   5.150   2.957   4.084
10006SOL    HW230918   5.309   2.952   4.046
10007SOL     OW30919   4.933   6.026   4.147
10007SOL    HW130920   4.921   5.992   4.240
10007SOL    HW230921   4.856   5.996   4.090
10008SOL     OW30922   2.612   6.479   4.066
10008SOL    HW130923   2.657   6.527   4.142
10008SOL    HW230924   2.665   6.492   3.982
10009SOL     OW30925   2.367   4.217   1.716
10009SOL    HW130926   2.360   4.269   1.801
10009SOL    HW230927   2.448   4.247   1.665
10010SOL     OW30928   5.802   0.894   4.974
10010SOL    HW130929   5.719   0.873   4.923
10010SOL    HW230930   5.778   0.924   5.066
10011SOL     OW30931   6.215   6.711   3.208
10011SOL    HW130932   6.292   6.729   3.270
10011SOL    HW230933   6.229   6.761   3.123
10012SOL     OW30934   4.631   1.899   5.160
10012SOL    HW130935   4.629   1.859   5.068
10012SOL    HW230936   4.552   1.960   5.171
10013SOL     OW30937   1.943   0.691   0.982
10013SOL    HW130938   1.903   0.663   1.070
10013SOL    HW230939   2.034   0.728   0.997
10014SOL     OW30940   1.290   5.070   5.862
10014SOL    HW130941   1.267   5.164   5.835
10014SOL    HW230942   1.382   5.048   5.828
10015SOL     OW30943   2.447   6.576   6.196
10015SOL    HW130944   2.456   6.571   6.295
10015SOL    HW230945   2.522   6.526   6.153
10016SOL     OW30946   2.950   1.256   5.438
10016SOL    HW130947   2.946   1.339   5.493
10016SOL    HW230948   3.044   1.221   5.437
10017SOL     OW30949   6.256   2.169   2.766
10017SOL    HW130950   6.165   2.155   2.726
10017SOL    HW230951   6.247   2.187   2.864
10018SOL     OW30952   4.514   7.000   5.423
10018SOL    HW130953   4.463   6.943   5.486
10018SOL    HW230954   4.469   6.999   5.333
10019SOL     OW30955   0.342   0.574   3.637
10019SOL    HW130956   0.432   0.607   3.610
10019SOL    HW230957   0.317   0.495   3.581
10020SOL     OW30958   0.926   3.741   0.551
10020SOL    HW130959   0.839   3.782   0.581
10020SOL    HW230960   0.977   3.808   0.498
10021SOL     OW30961   4.954   2.850   0.652
10021SOL    HW130962   5.024   2.908   0.611
10021SOL    HW230963   4.869   2.858   0.600
10022SOL     OW30964   2.296   1.405   5.801
10022SOL    HW130965   2.378   1.438   5.848
10022SOL    HW230966   2.309   1.308   5.777
10023SOL     OW30967   0.861   3.197   0.560
10023SOL    HW130968   0.769   3.206   0.523
10023SOL    HW230969   0.914   3.279   0.539
10024SOL     OW30970   0.564   3.713   2.583
10024SOL    HW130971   0.484   3.767   2.553
10024SOL    HW230972   0.619   3.688   2.503
10025SOL     OW30973   1.186   1.461   0.591
10025SOL    HW130974   1.109   1.408   0.554
10025SOL    HW230975   1.244   1.493   0.516
10026SOL     OW30976   6.186   0.493   4.054
10026SOL    HW130977   6.126   0.556   4.006
10026SOL    HW230978   6.219   0.536   4.139
10027SOL     OW30979   6.985   3.064   5.667
10027SOL    HW130980   0.009   3.066   5.581
10027SOL    HW230981   6.928   2.982   5.670
10028SOL     OW30982   1.390   1.392   0.737
10028SOL    HW130983   1.463   1.444   0.692
10028SOL    HW230984   1.301   1.423   0.703
10029SOL     OW30985   3.893   1.276   4.904
10029SOL    HW130986   3.824   1.218   4.946
10029SOL    HW230987   3.849   1.341   4.842
10030SOL     OW30988   0.729   1.002   1.617
10030SOL    HW130989   0.814   0.961   1.651
10030SOL    HW230990   0.706   1.082   1.672
10031SOL     OW30991   6.973   5.267   3.173
10031SOL    HW130992   7.019   5.353   3.150
10031SOL    HW230993   7.008   5.232   3.259
10032SOL     OW30994   3.906   2.280   5.232
10032SOL    HW130995   3.975   2.338   5.274
10032SOL    HW230996   3.941   2.242   5.146
10033SOL     OW30997   6.144   3.004   4.357
10033SOL    HW130998   6.242   3.023   4.345
10033SOL    HW230999   6.114   3.041   4.445
10034SOL     OW31000   4.150   6.701   5.603
10034SOL    HW131001   4.099   6.629   5.649
10034SOL    HW231002   4.170   6.673   5.509
10035SOL     OW31003   0.269   5.803   3.993
10035SOL    HW131004   0.290   5.788   4.089
10035SOL    HW231005   0.193   5.744   3.966
10036SOL     OW31006   6.503   6.916   0.188
10036SOL    HW131007   6.583   6.870   0.150
10036SOL    HW231008   6.422   6.859   0.174
10037SOL     OW31009   0.102   0.515   1.490
10037SOL    HW131010   0.169   0.585   1.468
10037SOL    HW231011   0.138   0.456   1.562
10038SOL     OW31012   5.381   6.784   1.725
10038SOL    HW131013   5.461   6.832   1.760
10038SOL    HW231014   5.326   6.847   1.670
10039SOL     OW31015   3.408   0.812   3.230
10039SOL    HW131016   3.345   0.830   3.153
10039SOL    HW231017   3.360   0.828   3.316
10040SOL     OW31018   0.206   2.007   0.689
10040SOL    HW131019   0.207   1.908   0.680
10040SOL    HW231020   0.112   2.040   0.692
10041SOL     OW31021   0.382   6.830   0.146
10041SOL    HW131022   0.436   6.880   0.213
10041SOL    HW231023   0.437   6.814   0.063
10042SOL     OW31024   6.350   1.532   3.722
10042SOL    HW131025   6.336   1.628   3.747
10042SOL    HW231026   6.379   1.526   3.627
10043SOL     OW31027   2.360   3.209   5.346
10043SOL    HW131028   2.268   3.247   5.337
10043SOL    HW231029   2.397   3.190   5.255
10044SOL     OW31030   3.976   0.533   6.240
10044SOL    HW131031   3.926   0.619   6.230
10044SOL    HW231032   3.980   0.486   6.152
10045SOL     OW31033   2.412   6.759   1.180
10045SOL    HW131034   2.475   6.813   1.235
10045SOL    HW231035   2.325   6.749   1.228
10046SOL     OW31036   0.785   6.493   0.380
10046SOL    HW131037   0.730   6.480   0.298
10046SOL    HW231038   0.733   6.462   0.460
10047SOL     OW31039   1.640   3.920   1.073
10047SOL    HW131040   1.712   3.940   1.007
10047SOL    HW231041   1.680   3.880   1.155
10048SOL     OW31042   6.452   2.892   0.911
10048SOL    HW131043   6.510   2.812   0.925
10048SOL    HW231044   6.363   2.863   0.876
10049SOL     OW31045   6.762   2.214   4.576
10049SOL    HW131046   6.771   2.114   4.570
10049SOL    HW231047   6.665   2.238   4.567
10050SOL     OW31048   0.543   2.042   5.779
10050SOL    HW131049   0.615   2.061   5.846
10050SOL    HW231050   0.525   2.125   5.725
10051SOL     OW31051   1.184   0.475   2.117
10051SOL    HW131052   1.180   0.381   2.151
10051SOL    HW231053   1.223   0.475   2.025
10052SOL     OW31054   0.417   0.221   4.446
10052SOL    HW131055   0.324   0.231   4.410
10052SOL    HW231056   0.483   0.247   4.375
10053SOL     OW31057   5.887   6.034   2.063
10053SOL    HW131058   5.961   6.089   2.101
10053SOL    HW231059   5.887   6.042   1.963
10054SOL     OW31060   4.894   4.557   3.261
10054SOL    HW131061   4.830   4.588   3.190
10054SOL    HW231062   4.910   4.459   3.250
10055SOL     OW31063   2.087   1.827   6.763
10055SOL    HW131064   2.028   1.793   6.836
10055SOL    HW231065   2.049   1.913   6.727
10056SOL     OW31066   5.386   3.539   4.857
10056SOL    HW131067   5.440   3.560   4.776
10056SOL    HW231068   5.442   3.488   4.923
10057SOL     OW31069   6.152   4.641   4.775
10057SOL    HW131070   6.167   4.711   4.845
10057SOL    HW231071   6.190   4.673   4.688
10058SOL     OW31072   5.430   4.007   4.101
10058SOL    HW131073   5.525   4.032   4.122
10058SOL    HW231074   5.424   3.980   4.004
10059SOL     OW31075   5.149   6.172   5.702
10059SOL    HW131076   5.159   6.110   5.624
10059SOL    HW231077   5.236   6.178   5.750
10060SOL     OW31078   2.989   1.158   1.501
10060SOL    HW131079   2.952   1.167   1.594
10060SOL    HW231080   2.920   1.187   1.435
10061SOL     OW31081   3.483   0.032   3.122
10061SOL    HW131082   3.441   0.008   3.209
10061SOL    HW231083   3.566   0.086   3.138
10062SOL     OW31084   6.069   6.441   3.922
10062SOL    HW131085   6.074   6.368   3.854
10062SOL    HW231086   6.033   6.404   4.008
10063SOL     OW31087   4.474   2.427   2.650
10063SOL    HW131088   4.473   2.497   2.579
10063SOL    HW231089   4.449   2.339   2.611
10064SOL     OW31090   1.498   6.317   2.759
10064SOL    HW131091   1.511   6.385   2.832
10064SOL    HW231092   1.529   6.228   2.791
10065SOL     OW31093   6.402   2.008   1.344
10065SOL    HW131094   6.337   2.082   1.325
10065SOL    HW231095   6.376   1.927   1.292
10066SOL     OW31096   5.649   4.194   3.650
10066SOL    HW131097   5.648   4.209   3.749
10066SOL    HW231098   5.726   4.243   3.610
10067SOL     OW31099   5.623   3.208   5.242
10067SOL    HW131100   5.531   3.174   5.224
10067SOL    HW231101   5.626   3.249   5.333
10068SOL     OW31102   2.259   4.395   2.819
10068SOL    HW131103   2.355   4.422   2.830
10068SOL    HW231104   2.202   4.477   2.815
10069SOL     OW31105   3.313   5.245   1.118
10069SOL    HW131106   3.360   5.158   1.135
10069SOL    HW231107   3.235   5.230   1.058
10070SOL     OW31108   5.504   0.597   6.489
10070SOL    HW131109   5.429   0.585   6.554
10070SOL    HW231110   5.585   0.549   6.522
10071SOL     OW31111   5.086   1.584   4.251
10071SOL    HW131112   5.077   1.613   4.346
10071SOL    HW231113   5.166   1.628   4.210
10072SOL     OW31114   5.973   3.072   1.416
10072SOL    HW131115   6.053   3.132   1.424
10072SOL    HW231116   5.945   3.042   1.507
10073SOL     OW31117   5.508   5.110   5.093
10073SOL    HW131118   5.450   5.044   5.141
10073SOL    HW231119   5.468   5.201   5.101
10074SOL     OW31120   2.152   4.649   1.614
10074SOL    HW131121   2.216   4.666   1.690
10074SOL    HW231122   2.108   4.561   1.626
10075SOL     OW31123   0.721   3.826   1.256
10075SOL    HW131124   0.771   3.744   1.225
10075SOL    HW231125   0.702   3.884   1.178
10076SOL     OW31126   6.001   4.607   4.006
10076SOL    HW131127   6.083   4.651   3.970
10076SOL    HW231128   5.937   4.677   4.038
10077SOL     OW31129   4.656   4.289   6.699
10077SOL    HW131130   4.663   4.354   6.624
10077SOL    HW231131   4.595   4.214   6.672
10078SOL     OW31132   5.964   6.157   3.964
10078SOL    HW131133   5.884   6.171   3.907
10078SOL    HW231134   5.993   6.061   3.958
10079SOL     OW31135   6.045   5.390   3.772
10079SOL    HW131136   6.011   5.392   3.866
10079SOL    HW231137   6.037   5.481   3.732
10080SOL     OW31138   4.883   3.069   4.199
10080SOL    HW131139   4.809   3.002   4.201
10080SOL    HW231140   4.909   3.089   4.104
10081SOL     OW31141   1.598   5.356   0.568
10081SOL    HW131142   1.619   5.324   0.476
10081SOL    HW231143   1.616   5.454   0.575
10082SOL     OW31144   6.862   4.014   1.814
10082SOL    HW131145   6.790   3.948   1.835
10082SOL    HW231146   6.936   4.005   1.882
10083SOL     OW31147   3.258   5.153   2.955
10083SOL    HW131148   3.319   5.161   2.876
10083SOL    HW231149   3.261   5.060   2.990
10084SOL     OW31150   2.018   4.104   4.372
10084SOL    HW131151   1.944   4.043   4.401
10084SOL    HW231152   2.095   4.095   4.435
10085SOL     OW31153   2.993   6.424   1.617
10085SOL    HW131154   2.999   6.338   1.667
10085SOL    HW231155   3.081   6.472   1.623
10086SOL     OW31156   2.911   0.794   2.786
10086SOL    HW131157   2.922   0.857   2.710
10086SOL    HW231158   2.967   0.824   2.863
10087SOL     OW31159   2.046   5.744   0.040
10087SOL    HW131160   1.949   5.767   0.049
10087SOL    HW231161   2.066   5.726   6.971
10088SOL     OW31162   5.308   1.894   0.883
10088SOL    HW131163   5.230   1.946   0.919
10088SOL    HW231164   5.288   1.797   0.889
10089SOL     OW31165   3.270   0.250   3.740
10089SOL    HW131166   3.326   0.286   3.814
10089SOL    HW231167   3.174   0.249   3.769
10090SOL     OW31168   3.153   6.083   3.561
10090SOL    HW131169   3.155   6.182   3.550
10090SOL    HW231170   3.164   6.039   3.472
10091SOL     OW31171   4.498   6.531   3.152
10091SOL    HW131172   4.480   6.519   3.250
10091SOL    HW231173   4.451   6.613   3.120
10092SOL     OW31174   6.190   0.739   1.959
10092SOL    HW131175   6.144   0.690   1.886
10092SOL    HW231176   6.286   0.711   1.963
10093SOL     OW31177   4.423   4.236   6.472
10093SOL    HW131178   4.408   4.330   6.442
10093SOL    HW231179   4.421   4.175   6.393
10094SOL     OW31180   4.326   3.384   0.282
10094SOL    HW131181   4.326   3.414   0.186
10094SOL    HW231182   4.249   3.426   0.330
10095SOL     OW31183   4.359   2.755   5.307
10095SOL    HW131184   4.298   2.705   5.246
10095SOL    HW231185   4.402   2.692   5.372
10096SOL     OW31186   6.262   4.722   1.536
10096SOL    HW131187   6.186   4.774   1.575
10096SOL    HW231188   6.246   4.624   1.550
10097SOL     OW31189   0.744   0.436   0.818
10097SOL    HW131190   0.800   0.426   0.900
10097SOL    HW231191   0.798   0.408   0.738
10098SOL     OW31192   3.888   4.869   0.974
10098SOL    HW131193   3.801   4.823   0.956
10098SOL    HW231194   3.963   4.807   0.949
10099SOL     OW31195   6.756   6.292   3.018
10099SOL    HW131196   6.739   6.337   3.106
10099SOL    HW231197   6.849   6.257   3.016
10100SOL     OW31198   5.744   5.889   4.181
10100SOL    HW131199   5.698   5.971   4.145
10100SOL    HW231200   5.804   5.916   4.257
10101SOL     OW31201   0.095   2.527   6.159
10101SOL    HW131202   0.114   2.478   6.074
10101SOL    HW231203   0.148   2.613   6.161
10102SOL     OW31204   7.022   5.079   4.540
10102SOL    HW131205   0.024   5.007   4.603
10102SOL    HW231206   0.016   5.169   4.580
10103SOL     OW31207   0.863   0.390   6.766
10103SOL    HW131208   0.902   0.369   6.856
10103SOL    HW231209   0.785   0.330   6.749
10104SOL     OW31210   2.846   1.801   4.466
10104SOL    HW131211   2.937   1.826   4.501
10104SOL    HW231212   2.790   1.884   4.458
10105SOL     OW31213   3.330   1.229   4.474
10105SOL    HW131214   3.369   1.268   4.557
10105SOL    HW231215   3.291   1.139   4.493
10106SOL     OW31216   6.984   3.001   1.673
10106SOL    HW131217   7.010   3.074   1.736
10106SOL    HW231218   7.000   3.031   1.578
10107SOL     OW31219   4.624   5.718   5.217
10107SOL    HW131220   4.535   5.672   5.225
10107SOL    HW231221   4.653   5.749   5.308
10108SOL     OW31222   3.219   2.178   4.474
10108SOL    HW131223   3.255   2.192   4.566
10108SOL    HW231224   3.283   2.123   4.421
10109SOL     OW31225   1.123   2.783   0.438
10109SOL    HW131226   1.219   2.756   0.442
10109SOL    HW231227   1.109   2.865   0.494
10110SOL     OW31228   6.215   6.369   1.757
10110SOL    HW131229   6.267   6.344   1.839
10110SOL    HW231230   6.197   6.468   1.758
10111SOL     OW31231   6.912   2.400   0.647
10111SOL    HW131232   6.858   2.333   0.597
10111SOL    HW231233   6.985   2.435   0.588
10112SOL     OW31234   0.434   3.241   2.909
10112SOL    HW131235   0.426   3.158   2.853
10112SOL    HW231236   0.525   3.245   2.950
10113SOL     OW31237   0.088   6.370   6.171
10113SOL    HW131238   0.133   6.322   6.096
10113SOL    HW231239   0.128   6.462   6.181
10114SOL     OW31240   5.610   3.826   1.711
10114SOL    HW131241   5.525   3.860   1.752
10114SOL    HW231242   5.635   3.739   1.754
10115SOL     OW31243   2.466   1.366   6.592
10115SOL    HW131244   2.433   1.432   6.525
10115SOL    HW231245   2.468   1.275   6.550
10116SOL     OW31246   1.436   0.136   6.200
10116SOL    HW131247   1.438   0.070   6.125
10116SOL    HW231248   1.361   0.115   6.262
10117SOL     OW31249   0.748   4.426   0.850
10117SOL    HW131250   0.683   4.478   0.795
10117SOL    HW231251   0.779   4.482   0.927
10118SOL     OW31252   4.366   5.806   3.347
10118SOL    HW131253   4.276   5.851   3.344
10118SOL    HW231254   4.376   5.745   3.269
10119SOL     OW31255   5.902   5.642   6.925
10119SOL    HW131256   5.900   5.703   6.845
10119SOL    HW231257   5.862   5.689   7.004
10120SOL     OW31258   2.473   2.100   2.368
10120SOL    HW131259   2.379   2.133   2.376
10120SOL    HW231260   2.513   2.092   2.460
10121SOL     OW31261   6.859   6.367   1.788
10121SOL    HW131262   6.806   6.287   1.813
10121SOL    HW231263   6.797   6.443   1.767
10122SOL     OW31264   1.859   0.067   3.760
10122SOL    HW131265   1.924   7.020   3.776
10122SOL    HW231266   1.826   0.062   3.666
10123SOL     OW31267   6.217   6.062   6.575
10123SOL    HW131268   6.270   6.002   6.515
10123SOL    HW231269   6.161   6.124   6.520
10124SOL     OW31270   0.453   4.804   3.474
10124SOL    HW131271   0.406   4.842   3.553
10124SOL    HW231272   0.531   4.749   3.504
10125SOL     OW31273   2.358   2.787   4.004
10125SOL    HW131274   2.456   2.791   3.983
10125SOL    HW231275   2.309   2.853   3.948
10126SOL     OW31276   6.965   5.986   4.213
10126SOL    HW131277   6.958   5.935   4.299
10126SOL    HW231278   0.025   6.035   4.212
10127SOL     OW31279   2.282   0.630   5.496
10127SOL    HW131280   2.380   0.634   5.518
10127SOL    HW231281   2.229   0.675   5.567
10128SOL     OW31282   3.008   0.147   0.521
10128SOL    HW131283   3.000   0.050   0.544
10128SOL    HW231284   2.922   0.179   0.482
10129SOL     OW31285   6.910   2.659   5.727
10129SOL    HW131286   6.875   2.582   5.781
10129SOL    HW231287   6.860   2.742   5.750
10130SOL     OW31288   0.460   2.396   3.354
10130SOL    HW131289   0.391   2.428   3.289
10130SOL    HW231290   0.550   2.396   3.309
10131SOL     OW31291   2.688   0.579   5.085
10131SOL    HW131292   2.773   0.553   5.130
10131SOL    HW231293   2.708   0.638   5.006
10132SOL     OW31294   5.698   0.955   1.536
10132SOL    HW131295   5.669   1.001   1.452
10132SOL    HW231296   5.707   0.857   1.519
10133SOL     OW31297   4.758   5.037   0.826
10133SOL    HW131298   4.683   5.103   0.822
10133SOL    HW231299   4.828   5.069   0.889
10134SOL     OW31300   6.027   1.189   2.837
10134SOL    HW131301   5.973   1.126   2.781
10134SOL    HW231302   6.003   1.283   2.813
10135SOL     OW31303   5.682   6.480   3.295
10135SOL    HW131304   5.629   6.522   3.222
10135SOL    HW231305   5.733   6.550   3.345
10136SOL     OW31306   5.105   0.069   3.107
10136SOL    HW131307   5.182   0.107   3.056
10136SOL    HW231308   5.050   0.143   3.145
10137SOL     OW31309   6.045   6.349   2.305
10137SOL    HW131310   6.000   6.395   2.229
10137SOL    HW231311   5.979   6.332   2.378
10138SOL     OW31312   0.377   1.306   1.789
10138SOL    HW131313   0.385   1.350   1.700
10138SOL    HW231314   0.292   1.253   1.793
10139SOL     OW31315   4.305   2.161   0.306
10139SOL    HW131316   4.259   2.079   0.274
10139SOL    HW231317   4.317   2.156   0.405
10140SOL     OW31318   6.005   6.547   3.322
10140SOL    HW131319   5.937   6.602   3.370
10140SOL    HW231320   6.086   6.603   3.304
10141SOL     OW31321   0.643   1.909   5.407
10141SOL    HW131322   0.704   1.845   5.359
10141SOL    HW231323   0.609   1.866   5.491
10142SOL     OW31324   4.229   5.411   1.327
10142SOL    HW131325   4.286   5.440   1.250
10142SOL    HW231326   4.194   5.319   1.309
10143SOL     OW31327   0.985   3.040   6.387
10143SOL    HW131328   1.000   2.954   6.339
10143SOL    HW231329   0.957   3.022   6.481
10144SOL     OW31330   4.525   0.128   2.518
10144SOL    HW131331   4.618   0.163   2.529
10144SOL    HW231332   4.466   0.170   2.587
10145SOL     OW31333   6.117   0.980   4.901
10145SOL    HW131334   6.036   1.039   4.895
10145SOL    HW231335   6.192   1.032   4.942
10146SOL     OW31336   2.135   0.822   5.659
10146SOL    HW131337   2.193   0.861   5.732
10146SOL    HW231338   2.077   0.893   5.621
10147SOL     OW31339   4.046   4.816   6.586
10147SOL    HW131340   4.024   4.899   6.637
10147SOL    HW231341   4.119   4.835   6.521
10148SOL     OW31342   6.561   5.639   6.325
10148SOL    HW131343   6.492   5.571   6.299
10148SOL    HW231344   6.606   5.611   6.410
10149SOL     OW31345   3.367   3.270   4.668
10149SOL    HW131346   3.306   3.324   4.726
10149SOL    HW231347   3.419   3.331   4.608
10150SOL     OW31348   6.521   4.119   7.001
10150SOL    HW131349   6.479   4.154   0.057
10150SOL    HW231350   6.477   4.033   6.975
10151SOL     OW31351   0.526   0.188   6.788
10151SOL    HW131352   0.542   0.195   6.689
10151SOL    HW231353   0.482   0.271   6.821
10152SOL     OW31354   3.211   6.784   4.062
10152SOL    HW131355   3.292   6.819   4.108
10152SOL    HW231356   3.197   6.833   3.976
10153SOL     OW31357   3.386   4.413   0.220
10153SOL    HW131358   3.418   4.439   0.129
10153SOL    HW231359   3.307   4.352   0.211
10154SOL     OW31360   4.248   4.823   6.378
10154SOL    HW131361   4.242   4.914   6.338
10154SOL    HW231362   4.245   4.754   6.306
10155SOL     OW31363   4.765   2.882   4.755
10155SOL    HW131364   4.736   2.790   4.782
10155SOL    HW231365   4.809   2.927   4.833
10156SOL     OW31366   3.159   2.075   6.613
10156SOL    HW131367   3.217   2.068   6.693
10156SOL    HW231368   3.108   1.990   6.601
10157SOL     OW31369   0.182   5.557   2.863
10157SOL    HW131370   0.127   5.475   2.844
10157SOL    HW231371   0.152   5.632   2.803
10158SOL     OW31372   0.624   5.484   6.021
10158SOL    HW131373   0.525   5.472   6.032
10158SOL    HW231374   0.645   5.495   5.923
10159SOL     OW31375   4.087   2.782   1.762
10159SOL    HW131376   4.064   2.874   1.795
10159SOL    HW231377   4.187   2.775   1.752
10160SOL     OW31378   6.822   4.374   2.710
10160SOL    HW131379   6.828   4.473   2.711
10160SOL    HW231380   6.914   4.335   2.723
10161SOL     OW31381   6.303   2.925   0.058
10161SOL    HW131382   6.228   2.879   0.011
10161SOL    HW231383   6.306   3.021   0.029
10162SOL     OW31384   1.930   1.868   2.734
10162SOL    HW131385   1.857   1.805   2.708
10162SOL    HW231386   2.002   1.865   2.665
10163SOL     OW31387   4.294   5.553   4.607
10163SOL    HW131388   4.322   5.484   4.540
10163SOL    HW231389   4.248   5.508   4.684
10164SOL     OW31390   0.350   1.360   4.052
10164SOL    HW131391   0.414   1.300   4.099
10164SOL    HW231392   0.308   1.422   4.119
10165SOL     OW31393   1.591   2.733   4.058
10165SOL    HW131394   1.521   2.717   3.989
10165SOL    HW231395   1.671   2.675   4.039
10166SOL     OW31396   3.701   6.275   4.006
10166SOL    HW131397   3.794   6.311   4.007
10166SOL    HW231398   3.636   6.349   4.024
10167SOL     OW31399   3.805   2.276   6.963
10167SOL    HW131400   3.870   2.222   7.017
10167SOL    HW231401   3.792   2.365   7.006
10168SOL     OW31402   0.315   0.823   6.092
10168SOL    HW131403   0.289   0.754   6.024
10168SOL    HW231404   0.347   0.777   6.175
10169SOL     OW31405   4.919   4.890   2.522
10169SOL    HW131406   4.937   4.806   2.470
10169SOL    HW231407   4.997   4.910   2.580
10170SOL     OW31408   4.643   0.361   0.034
10170SOL    HW131409   4.654   0.460   0.048
10170SOL    HW231410   4.629   0.316   0.122
10171SOL     OW31411   0.879   4.958   3.260
10171SOL    HW131412   0.832   5.010   3.189
10171SOL    HW231413   0.975   4.985   3.263
10172SOL     OW31414   0.870   0.267   3.528
10172SOL    HW131415   0.850   0.329   3.603
10172SOL    HW231416   0.822   0.180   3.543
10173SOL     OW31417   4.671   2.687   3.951
10173SOL    HW131418   4.595   2.643   3.902
10173SOL    HW231419   4.734   2.727   3.884
10174SOL     OW31420   3.904   5.721   0.972
10174SOL    HW131421   3.926   5.716   0.875
10174SOL    HW231422   3.909   5.629   1.012
10175SOL     OW31423   6.681   6.936   4.966
10175SOL    HW131424   6.758   6.921   4.903
10175SOL    HW231425   6.716   6.962   5.056
10176SOL     OW31426   6.972   1.446   4.912
10176SOL    HW131427   7.010   1.368   4.862
10176SOL    HW231428   0.019   1.499   4.952
10177SOL     OW31429   2.748   0.923   4.611
10177SOL    HW131430   2.790   0.835   4.586
10177SOL    HW231431   2.811   0.997   4.588
10178SOL     OW31432   5.618   1.174   1.297
10178SOL    HW131433   5.636   1.166   1.199
10178SOL    HW231434   5.588   1.268   1.317
10179SOL     OW31435   6.480   5.716   0.643
10179SOL    HW131436   6.398   5.772   0.638
10179SOL    HW231437   6.456   5.624   0.673
10180SOL     OW31438   2.051   0.535   6.096
10180SOL    HW131439   2.010   0.447   6.120
10180SOL    HW231440   2.110   0.523   6.015
10181SOL     OW31441   0.020   4.248   2.791
10181SOL    HW131442   0.059   4.191   2.864
10181SOL    HW231443   0.077   4.240   2.710
10182SOL     OW31444   3.067   6.883   6.710
10182SOL    HW131445   2.991   6.837   6.663
10182SOL    HW231446   3.138   6.906   6.644
10183SOL     OW31447   3.661   6.305   6.204
10183SOL    HW131448   3.703   6.256   6.280
10183SOL    HW231449   3.618   6.389   6.238
10184SOL     OW31450   5.011   2.824   4.020
10184SOL    HW131451   5.051   2.804   3.930
10184SOL    HW231452   4.920   2.864   4.007
10185SOL     OW31453   2.730   4.592   1.648
10185SOL    HW131454   2.773   4.593   1.738
10185SOL    HW231455   2.727   4.498   1.614
10186SOL     OW31456   3.304   3.312   2.325
10186SOL    HW131457   3.368   3.339   2.397
10186SOL    HW231458   3.225   3.373   2.327
10187SOL     OW31459   1.544   3.276   4.789
10187SOL    HW131460   1.482   3.279   4.867
10187SOL    HW231461   1.579   3.183   4.778
10188SOL     OW31462   2.562   6.266   0.235
10188SOL    HW131463   2.633   6.307   0.177
10188SOL    HW231464   2.481   6.247   0.180
10189SOL     OW31465   1.802   0.868   5.784
10189SOL    HW131466   1.880   0.860   5.722
10189SOL    HW231467   1.833   0.900   5.873
10190SOL     OW31468   2.958   4.253   1.204
10190SOL    HW131469   2.984   4.342   1.239
10190SOL    HW231470   3.028   4.220   1.140
10191SOL     OW31471   6.851   0.177   6.435
10191SOL    HW131472   6.773   0.116   6.417
10191SOL    HW231473   6.932   0.122   6.454
10192SOL     OW31474   3.095   1.176   3.415
10192SOL    HW131475   3.034   1.096   3.411
10192SOL    HW231476   3.057   1.243   3.478
10193SOL     OW31477   3.516   2.866   4.282
10193SOL    HW131478   3.524   2.875   4.183
10193SOL    HW231479   3.423   2.889   4.311
10194SOL     OW31480   3.349   5.739   3.432
10194SOL    HW131481   3.327   5.676   3.357
10194SOL    HW231482   3.266   5.790   3.458
10195SOL     OW31483   5.261   6.358   1.823
10195SOL    HW131484   5.286   6.395   1.912
10195SOL    HW231485   5.185   6.412   1.785
10196SOL     OW31486   5.101   4.238   4.769
10196SOL    HW131487   5.088   4.204   4.676
10196SOL    HW231488   5.080   4.336   4.772
10197SOL     OW31489   5.768   2.147   2.297
10197SOL    HW131490   5.755   2.246   2.300
10197SOL    HW231491   5.774   2.118   2.201
10198SOL     OW31492   3.440   1.585   2.266
10198SOL    HW131493   3.392   1.562   2.350
10198SOL    HW231494   3.385   1.559   2.187
10199SOL     OW31495   1.792   1.853   6.837
10199SOL    HW131496   1.772   1.755   6.844
10199SOL    HW231497   1.706   1.903   6.821
10200SOL     OW31498   3.920   6.480   3.499
10200SOL    HW131499   3.934   6.490   3.401
10200SOL    HW231500   3.937   6.386   3.527
10201SOL     OW31501   0.294   4.620   2.458
10201SOL    HW131502   0.358   4.681   2.505
10201SOL    HW231503   0.222   4.592   2.521
10202SOL     OW31504   1.939   2.809   3.858
10202SOL    HW131505   1.948   2.710   3.871
10202SOL    HW231506   2.029   2.851   3.859
10203SOL     OW31507   6.324   2.235   0.969
10203SOL    HW131508   6.265   2.154   0.974
10203SOL    HW231509   6.276   2.307   0.920
10204SOL     OW31510   0.799   5.998   4.345
10204SOL    HW131511   0.756   5.910   4.365
10204SOL    HW231512   0.882   5.984   4.292
10205SOL     OW31513   3.256   6.965   1.445
10205SOL    HW131514   3.306   7.019   1.514
10205SOL    HW231515   3.293   6.986   1.354
10206SOL     OW31516   6.148   5.634   6.672
10206SOL    HW131517   6.118   5.539   6.676
10206SOL    HW231518   6.135   5.678   6.761
10207SOL     OW31519   2.624   1.414   1.428
10207SOL    HW131520   2.634   1.453   1.520
10207SOL    HW231521   2.594   1.485   1.364
10208SOL     OW31522   1.115   2.511   5.934
10208SOL    HW131523   1.210   2.480   5.929
10208SOL    HW231524   1.086   2.515   6.029
10209SOL     OW31525   3.916   6.645   0.740
10209SOL    HW131526   3.857   6.570   0.711
10209SOL    HW231527   4.008   6.611   0.757
10210SOL     OW31528   4.321   6.038   6.783
10210SOL    HW131529   4.281   6.044   6.874
10210SOL    HW231530   4.420   6.050   6.788
10211SOL     OW31531   3.936   5.328   5.052
10211SOL    HW131532   3.913   5.407   4.994
10211SOL    HW231533   3.857   5.305   5.109
10212SOL     OW31534   6.773   5.625   5.763
10212SOL    HW131535   6.866   5.588   5.763
10212SOL    HW231536   6.719   5.579   5.834
10213SOL     OW31537   3.225   0.492   4.913
10213SOL    HW131538   3.234   0.394   4.930
10213SOL    HW231539   3.299   0.523   4.853
10214SOL     OW31540   6.796   0.056   0.167
10214SOL    HW131541   6.824   6.992   0.138
10214SOL    HW231542   6.726   0.091   0.105
10215SOL     OW31543   5.224   2.295   0.136
10215SOL    HW131544   5.267   2.237   0.206
10215SOL    HW231545   5.247   2.261   0.045
10216SOL     OW31546   4.969   0.240   2.801
10216SOL    HW131547   4.967   0.148   2.839
10216SOL    HW231548   5.013   0.302   2.866
10217SOL     OW31549   2.751   1.698   6.802
10217SOL    HW131550   2.693   1.727   6.878
10217SOL    HW231551   2.798   1.613   6.828
10218SOL     OW31552   4.004   0.885   5.850
10218SOL    HW131553   3.940   0.950   5.808
10218SOL    HW231554   3.994   0.796   5.806
10219SOL     OW31555   6.771   5.299   0.681
10219SOL    HW131556   6.824   5.373   0.640
10219SOL    HW231557   6.799   5.286   0.776
10220SOL     OW31558   4.355   2.089   6.454
10220SOL    HW131559   4.331   2.027   6.380
10220SOL    HW231560   4.344   2.043   6.542
10221SOL     OW31561   2.077   0.255   4.434
10221SOL    HW131562   2.015   0.331   4.416
10221SOL    HW231563   2.034   0.169   4.408
10222SOL     OW31564   2.616   5.225   5.460
10222SOL    HW131565   2.519   5.203   5.456
10222SOL    HW231566   2.633   5.309   5.410
10223SOL     OW31567   2.595   5.632   5.605
10223SOL    HW131568   2.542   5.555   5.570
10223SOL    HW231569   2.538   5.688   5.664
10224SOL     OW31570   4.147   5.784   5.380
10224SOL    HW131571   4.145   5.691   5.342
10224SOL    HW231572   4.090   5.844   5.324
10225SOL     OW31573   5.266   0.604   5.388
10225SOL    HW131574   5.316   0.658   5.456
10225SOL    HW231575   5.206   0.539   5.434
10226SOL     OW31576   6.640   2.309   6.461
10226SOL    HW131577   6.704   2.385   6.456
10226SOL    HW231578   6.678   2.231   6.410
10227SOL     OW31579   4.537   4.983   5.114
10227SOL    HW131580   4.513   5.053   5.182
10227SOL    HW231581   4.460   4.969   5.052
10228SOL     OW31582   0.807   2.606   1.030
10228SOL    HW131583   0.877   2.636   1.095
10228SOL    HW231584   0.733   2.560   1.078
10229SOL     OW31585   2.358   0.589   1.517
10229SOL    HW131586   2.424   0.636   1.575
10229SOL    HW231587   2.387   0.495   1.503
10230SOL     OW31588   5.623   0.463   3.462
10230SOL    HW131589   5.607   0.396   3.390
10230SOL    HW231590   5.708   0.513   3.443
10231SOL     OW31591   5.652   0.310   4.804
10231SOL    HW131592   5.640   0.318   4.903
10231SOL    HW231593   5.584   0.246   4.768
10232SOL     OW31594   3.718   2.061   2.643
10232SOL    HW131595   3.737   2.101   2.733
10232SOL    HW231596   3.803   2.030   2.602
10233SOL     OW31597   4.970   6.609   4.844
10233SOL    HW131598   5.057   6.608   4.893
10233SOL    HW231599   4.921   6.524   4.860
10234SOL     OW31600   3.402   4.257   1.028
10234SOL    HW131601   3.313   4.235   1.067
10234SOL    HW231602   3.469   4.265   1.102
10235SOL     OW31603   5.150   6.437   0.148
10235SOL    HW131604   5.072   6.451   0.088
10235SOL    HW231605   5.169   6.339   0.155
10236SOL     OW31606   1.476   5.051   0.987
10236SOL    HW131607   1.469   5.117   1.061
10236SOL    HW231608   1.566   5.009   0.987
10237SOL     OW31609   5.794   1.517   1.965
10237SOL    HW131610   5.731   1.440   1.972
10237SOL    HW231611   5.826   1.526   1.871
10238SOL     OW31612   5.263   4.632   6.346
10238SOL    HW131613   5.271   4.591   6.255
10238SOL    HW231614   5.354   4.662   6.376
10239SOL     OW31615   5.558   4.280   3.164
10239SOL    HW131616   5.470   4.244   3.197
10239SOL    HW231617   5.555   4.380   3.165
10240SOL     OW31618   5.520   3.507   1.964
10240SOL    HW131619   5.478   3.571   2.029
10240SOL    HW231620   5.590   3.554   1.911
10241SOL     OW31621   0.855   2.069   2.911
10241SOL    HW131622   0.802   2.014   2.975
10241SOL    HW231623   0.803   2.151   2.886
10242SOL     OW31624   1.343   5.567   6.539
10242SOL    HW131625   1.249   5.569   6.505
10242SOL    HW231626   1.371   5.659   6.565
10243SOL     OW31627   6.782   6.016   3.539
10243SOL    HW131628   6.810   6.030   3.444
10243SOL    HW231629   6.738   5.927   3.548
10244SOL     OW31630   2.347   6.139   0.700
10244SOL    HW131631   2.351   6.220   0.642
10244SOL    HW231632   2.326   6.166   0.794
10245SOL     OW31633   3.851   3.452   0.880
10245SOL    HW131634   3.783   3.428   0.810
10245SOL    HW231635   3.869   3.373   0.937
10246SOL     OW31636   3.438   3.396   5.045
10246SOL    HW131637   3.480   3.391   4.955
10246SOL    HW231638   3.364   3.463   5.044
10247SOL     OW31639   1.302   5.540   6.253
10247SOL    HW131640   1.353   5.556   6.337
10247SOL    HW231641   1.212   5.504   6.275
10248SOL     OW31642   5.861   0.193   3.855
10248SOL    HW131643   5.911   0.251   3.790
10248SOL    HW231644   5.767   0.180   3.823
10249SOL     OW31645   4.726   1.557   5.877
10249SOL    HW131646   4.749   1.461   5.895
10249SOL    HW231647   4.808   1.613   5.883
10250SOL     OW31648   4.435   5.082   0.944
10250SOL    HW131649   4.408   5.150   0.876
10250SOL    HW231650   4.491   5.125   1.014
10251SOL     OW31651   4.303   4.304   1.068
10251SOL    HW131652   4.306   4.403   1.058
10251SOL    HW231653   4.392   4.271   1.098
10252SOL     OW31654   6.987   3.553   0.969
10252SOL    HW131655   6.953   3.579   1.060
10252SOL    HW231656   6.988   3.453   0.962
10253SOL     OW31657   5.283   3.740   7.009
10253SOL    HW131658   5.363   3.734   0.041
10253SOL    HW231659   5.237   3.828   7.023
10254SOL     OW31660   3.720   2.076   5.859
10254SOL    HW131661   3.775   2.039   5.783
10254SOL    HW231662   3.623   2.066   5.836
10255SOL     OW31663   2.691   4.673   4.440
10255SOL    HW131664   2.750   4.592   4.435
10255SOL    HW231665   2.748   4.755   4.433
10256SOL     OW31666   6.067   4.671   6.992
10256SOL    HW131667   6.115   4.587   6.968
10256SOL    HW231668   6.105   4.747   6.940
10257SOL     OW31669   1.445   4.222   4.687
10257SOL    HW131670   1.539   4.254   4.702
10257SOL    HW231671   1.444   4.122   4.681
10258SOL     OW31672   3.565   0.996   2.051
10258SOL    HW131673   3.559   1.095   2.038
10258SOL    HW231674   3.486   0.964   2.102
10259SOL     OW31675   6.001   3.495   3.336
10259SOL    HW131676   5.967   3.588   3.355
10259SOL    HW231677   6.032   3.454   3.421
10260SOL     OW31678   7.020   6.255   2.997
10260SOL    HW131679   0.072   6.194   2.993
10260SOL    HW231680   0.014   6.340   2.949
10261SOL     OW31681   1.989   0.280   2.607
10261SOL    HW131682   2.031   0.360   2.563
10261SOL    HW231683   1.931   0.232   2.541
10262SOL     OW31684   6.241   6.787   2.951
10262SOL    HW131685   6.243   6.860   2.883
10262SOL    HW231686   6.275   6.702   2.910
10263SOL     OW31687   6.798   3.725   4.853
10263SOL    HW131688   6.866   3.799   4.854
10263SOL    HW231689   6.710   3.761   4.885
10264SOL     OW31690   0.657   0.059   1.288
10264SOL    HW131691   0.667   0.148   1.243
10264SOL    HW231692   0.573   0.015   1.256
10265SOL     OW31693   5.457   2.593   4.533
10265SOL    HW131694   5.557   2.588   4.535
10265SOL    HW231695   5.420   2.530   4.602
10266SOL     OW31696   2.823   3.840   0.132
10266SOL    HW131697   2.791   3.817   0.041
10266SOL    HW231698   2.914   3.801   0.147
10267SOL     OW31699   0.007   0.431   6.008
10267SOL    HW131700   6.984   0.401   6.090
10267SOL    HW231701   6.973   0.429   5.929
10268SOL     OW31702   6.927   4.661   0.587
10268SOL    HW131703   6.870   4.629   0.663
10268SOL    HW231704   6.869   4.700   0.516
10269SOL     OW31705   3.701   1.401   5.988
10269SOL    HW131706   3.635   1.374   5.917
10269SOL    HW231707   3.672   1.365   6.076
10270SOL     OW31708   4.073   6.130   4.345
10270SOL    HW131709   3.976   6.156   4.344
10270SOL    HW231710   4.100   6.096   4.256
10271SOL     OW31711   1.052   4.461   0.702
10271SOL    HW131712   0.963   4.506   0.692
10271SOL    HW231713   1.042   4.383   0.764
10272SOL     OW31714   1.514   3.061   3.429
10272SOL    HW131715   1.459   3.142   3.410
10272SOL    HW231716   1.568   3.076   3.511
10273SOL     OW31717   4.872   0.456   4.498
10273SOL    HW131718   4.891   0.551   4.521
10273SOL    HW231719   4.778   0.433   4.524
10274SOL     OW31720   1.672   4.361   6.897
10274SOL    HW131721   1.637   4.267   6.904
10274SOL    HW231722   1.648   4.398   6.807
10275SOL     OW31723   6.682   6.137   1.787
10275SOL    HW131724   6.644   6.109   1.876
10275SOL    HW231725   6.634   6.089   1.714
10276SOL     OW31726   3.072   6.362   0.256
10276SOL    HW131727   3.011   6.284   0.238
10276SOL    HW231728   3.106   6.356   0.350
10277SOL     OW31729   5.868   6.282   2.489
10277SOL    HW131730   5.781   6.307   2.447
10277SOL    HW231731   5.873   6.183   2.498
10278SOL     OW31732   6.271   1.267   5.177
10278SOL    HW131733   6.304   1.355   5.143
10278SOL    HW231734   6.258   1.204   5.101
10279SOL     OW31735   3.751   6.620   3.693
10279SOL    HW131736   3.783   6.545   3.635
10279SOL    HW231737   3.784   6.707   3.656
10280SOL     OW31738   3.032   2.498   6.824
10280SOL    HW131739   2.992   2.528   6.737
10280SOL    HW231740   3.119   2.453   6.806
10281SOL     OW31741   3.787   1.464   4.691
10281SOL    HW131742   3.836   1.458   4.604
10281SOL    HW231743   3.778   1.559   4.718
10282SOL     OW31744   1.189   3.255   3.879
10282SOL    HW131745   1.163   3.224   3.787
10282SOL    HW231746   1.244   3.185   3.924
10283SOL     OW31747   2.110   6.073   6.671
10283SOL    HW131748   2.149   5.993   6.625
10283SOL    HW231749   2.158   6.088   6.757
10284SOL     OW31750   5.435   2.262   0.718
10284SOL    HW131751   5.419   2.318   0.799
10284SOL    HW231752   5.358   2.272   0.655
10285SOL     OW31753   5.039   1.548   0.237
10285SOL    HW131754   5.132   1.539   0.203
10285SOL    HW231755   4.984   1.470   0.206
10286SOL     OW31756   2.465   6.651   3.228
10286SOL    HW131757   2.390   6.710   3.259
10286SOL    HW231758   2.459   6.563   3.275
10287SOL     OW31759   2.231   4.784   2.485
10287SOL    HW131760   2.286   4.803   2.566
10287SOL    HW231761   2.245   4.689   2.456
10288SOL     OW31762   4.661   6.895   4.303
10288SOL    HW131763   4.676   6.947   4.219
10288SOL    HW231764   4.563   6.886   4.319
10289SOL     OW31765   2.585   1.554   2.527
10289SOL    HW131766   2.519   1.628   2.512
10289SOL    HW231767   2.650   1.551   2.451
10290SOL     OW31768   3.624   4.085   2.876
10290SOL    HW131769   3.550   4.027   2.909
10290SOL    HW231770   3.625   4.084   2.776
10291SOL     OW31771   3.872   0.369   3.355
10291SOL    HW131772   3.831   0.361   3.446
10291SOL    HW231773   3.834   0.449   3.308
10292SOL     OW31774   0.286   3.507   4.389
10292SOL    HW131775   0.332   3.529   4.475
10292SOL    HW231776   0.352   3.469   4.324
10293SOL     OW31777   1.781   5.470   3.590
10293SOL    HW131778   1.775   5.570   3.597
10293SOL    HW231779   1.731   5.428   3.665
10294SOL     OW31780   5.948   1.482   2.888
10294SOL    HW131781   5.968   1.520   2.978
10294SOL    HW231782   5.851   1.492   2.868
10295SOL     OW31783   1.439   4.045   3.219
10295SOL    HW131784   1.531   4.075   3.246
10295SOL    HW231785   1.445   3.983   3.141
10296SOL     OW31786   0.180   3.540   1.406
10296SOL    HW131787   0.201   3.470   1.338
10296SOL    HW231788   0.214   3.628   1.375
10297SOL     OW31789   3.636   4.202   6.230
10297SOL    HW131790   3.720   4.190   6.178
10297SOL    HW231791   3.557   4.181   6.171
10298SOL     OW31792   5.787   3.430   2.879
10298SOL    HW131793   5.718   3.393   2.816
10298SOL    HW231794   5.872   3.444   2.829
10299SOL     OW31795   3.986   5.425   3.158
10299SOL    HW131796   4.025   5.505   3.204
10299SOL    HW231797   4.058   5.377   3.109
10300SOL     OW31798   0.306   5.957   2.479
10300SOL    HW131799   0.252   5.936   2.397
10300SOL    HW231800   0.298   6.055   2.499
10301SOL     OW31801   4.379   0.702   1.872
10301SOL    HW131802   4.427   0.651   1.801
10301SOL    HW231803   4.395   0.658   1.961
10302SOL     OW31804   6.869   4.459   3.243
10302SOL    HW131805   6.800   4.496   3.181
10302SOL    HW231806   6.833   4.456   3.336
10303SOL     OW31807   4.571   3.060   0.771
10303SOL    HW131808   4.620   3.091   0.690
10303SOL    HW231809   4.509   2.986   0.746
10304SOL     OW31810   6.111   6.369   4.936
10304SOL    HW131811   6.173   6.448   4.939
10304SOL    HW231812   6.163   6.287   4.959
10305SOL     OW31813   0.767   5.285   0.858
10305SOL    HW131814   0.830   5.361   0.839
10305SOL    HW231815   0.723   5.300   0.946
10306SOL     OW31816   4.533   3.505   6.686
10306SOL    HW131817   4.443   3.460   6.693
10306SOL    HW231818   4.550   3.528   6.590
10307SOL     OW31819   2.458   1.944   6.109
10307SOL    HW131820   2.407   1.866   6.145
10307SOL    HW231821   2.539   1.960   6.166
10308SOL     OW31822   3.186   4.926   4.025
10308SOL    HW131823   3.087   4.929   4.038
10308SOL    HW231824   3.231   4.966   4.105
10309SOL     OW31825   6.839   6.717   3.952
10309SOL    HW131826   6.763   6.707   3.888
10309SOL    HW231827   6.838   6.641   4.017
10310SOL     OW31828   4.089   3.613   4.514
10310SOL    HW131829   4.086   3.513   4.521
10310SOL    HW231830   4.074   3.640   4.419
10311SOL     OW31831   1.421   1.172   0.300
10311SOL    HW131832   1.441   1.201   0.206
10311SOL    HW231833   1.322   1.163   0.310
10312SOL     OW31834   2.918   4.210   0.561
10312SOL    HW131835   2.916   4.308   0.546
10312SOL    HW231836   2.825   4.173   0.552
10313SOL     OW31837   6.166   5.783   3.150
10313SOL    HW131838   6.257   5.742   3.146
10313SOL    HW231839   6.097   5.714   3.129
10314SOL     OW31840   0.164   5.543   4.766
10314SOL    HW131841   0.095   5.598   4.813
10314SOL    HW231842   0.234   5.515   4.830
10315SOL     OW31843   4.798   4.994   5.048
10315SOL    HW131844   4.811   4.920   5.114
10315SOL    HW231845   4.701   4.999   5.023
10316SOL     OW31846   0.105   2.591   3.309
10316SOL    HW131847   0.161   2.524   3.262
10316SOL    HW231848   0.099   2.567   3.406
10317SOL     OW31849   6.310   4.053   6.161
10317SOL    HW131850   6.365   4.136   6.153
10317SOL    HW231851   6.369   3.977   6.187
10318SOL     OW31852   5.020   4.613   2.034
10318SOL    HW131853   5.009   4.676   1.958
10318SOL    HW231854   4.941   4.620   2.096
10319SOL     OW31855   6.052   6.388   3.567
10319SOL    HW131856   5.970   6.389   3.625
10319SOL    HW231857   6.030   6.425   3.477
10320SOL     OW31858   2.794   6.641   1.784
10320SOL    HW131859   2.714   6.586   1.807
10320SOL    HW231860   2.863   6.584   1.739
10321SOL     OW31861   4.965   6.024   5.867
10321SOL    HW131862   5.028   5.958   5.909
10321SOL    HW231863   5.016   6.084   5.805
10322SOL     OW31864   0.062   1.929   6.182
10322SOL    HW131865   0.040   2.026   6.192
10322SOL    HW231866   0.038   1.899   6.089
10323SOL     OW31867   6.572   2.108   5.676
10323SOL    HW131868   6.612   2.056   5.752
10323SOL    HW231869   6.630   2.186   5.655
10324SOL     OW31870   2.772   3.725   5.303
10324SOL    HW131871   2.824   3.771   5.230
10324SOL    HW231872   2.687   3.774   5.320
10325SOL     OW31873   0.791   2.462   3.528
10325SOL    HW131874   0.815   2.488   3.434
10325SOL    HW231875   0.802   2.363   3.539
10326SOL     OW31876   5.086   0.863   0.889
10326SOL    HW131877   5.000   0.814   0.872
10326SOL    HW231878   5.163   0.800   0.878
10327SOL     OW31879   6.534   2.515   3.804
10327SOL    HW131880   6.444   2.519   3.846
10327SOL    HW231881   6.600   2.481   3.871
10328SOL     OW31882   0.326   3.256   1.613
10328SOL    HW131883   0.381   3.249   1.696
10328SOL    HW231884   0.384   3.288   1.537
10329SOL     OW31885   2.230   5.988   2.679
10329SOL    HW131886   2.225   6.071   2.624
10329SOL    HW231887   2.188   6.004   2.768
10330SOL     OW31888   4.208   3.199   0.485
10330SOL    HW131889   4.136   3.223   0.550
10330SOL    HW231890   4.246   3.283   0.445
10331SOL     OW31891   4.595   1.952   3.628
10331SOL    HW131892   4.595   1.873   3.567
10331SOL    HW231893   4.619   2.034   3.576
10332SOL     OW31894   2.360   3.092   6.514
10332SOL    HW131895   2.293   3.025   6.544
10332SOL    HW231896   2.451   3.066   6.548
10333SOL     OW31897   0.414   4.159   5.605
10333SOL    HW131898   0.467   4.242   5.623
10333SOL    HW231899   0.450   4.114   5.523
10334SOL     OW31900   0.172   4.961   5.581
10334SOL    HW131901   0.205   5.054   5.566
10334SOL    HW231902   0.249   4.897   5.574
10335SOL     OW31903   2.649   5.130   2.770
10335SOL    HW131904   2.557   5.103   2.800
10335SOL    HW231905   2.641   5.201   2.700
10336SOL     OW31906   3.918   0.234   2.627
10336SOL    HW131907   3.858   0.261   2.702
10336SOL    HW231908   3.939   0.137   2.634
10337SOL     OW31909   1.999   2.898   6.525
10337SOL    HW131910   2.033   2.857   6.440
10337SOL    HW231911   2.046   2.857   6.603
10338SOL     OW31912   2.208   4.114   3.391
10338SOL    HW131913   2.223   4.016   3.383
10338SOL    HW231914   2.248   4.160   3.311
10339SOL     OW31915   3.728   6.841   6.839
10339SOL    HW131916   3.727   6.885   6.749
10339SOL    HW231917   3.683   6.901   6.905
10340SOL     OW31918   1.940   6.064   0.992
10340SOL    HW131919   1.848   6.026   0.998
10340SOL    HW231920   2.000   5.998   0.946
10341SOL     OW31921   0.307   2.514   1.955
10341SOL    HW131922   0.386   2.522   2.016
10341SOL    HW231923   0.271   2.421   1.959
10342SOL     OW31924   3.531   4.889   4.045
10342SOL    HW131925   3.531   4.897   4.144
10342SOL    HW231926   3.443   4.853   4.014
10343SOL     OW31927   2.704   2.417   5.035
10343SOL    HW131928   2.643   2.353   4.988
10343SOL    HW231929   2.648   2.487   5.080
10344SOL     OW31930   4.837   4.828   1.111
10344SOL    HW131931   4.909   4.860   1.173
10344SOL    HW231932   4.865   4.844   1.016
10345SOL     OW31933   2.488   1.944   6.477
10345SOL    HW131934   2.445   1.889   6.406
10345SOL    HW231935   2.440   2.031   6.487
10346SOL     OW31936   6.601   5.136   6.494
10346SOL    HW131937   6.552   5.135   6.407
10346SOL    HW231938   6.646   5.225   6.506
10347SOL     OW31939   3.511   6.424   2.639
10347SOL    HW131940   3.554   6.511   2.662
10347SOL    HW231941   3.560   6.383   2.562
10348SOL     OW31942   0.342   2.498   4.054
10348SOL    HW131943   0.385   2.421   4.102
10348SOL    HW231944   0.294   2.463   3.974
10349SOL     OW31945   6.412   1.025   0.063
10349SOL    HW131946   6.395   1.021   6.992
10349SOL    HW231947   6.345   1.086   0.106
10350SOL     OW31948   1.951   5.207   4.218
10350SOL    HW131949   1.867   5.262   4.221
10350SOL    HW231950   2.011   5.243   4.147
10351SOL     OW31951   3.938   5.659   5.624
10351SOL    HW131952   4.027   5.697   5.649
10351SOL    HW231953   3.893   5.719   5.558
10352SOL     OW31954   6.875   2.014   1.939
10352SOL    HW131955   6.899   2.104   1.975
10352SOL    HW231956   6.776   2.007   1.930
10353SOL     OW31957   5.570   3.118   3.263
10353SOL    HW131958   5.612   3.058   3.330
10353SOL    HW231959   5.641   3.167   3.213
10354SOL     OW31960   6.658   2.405   1.882
10354SOL    HW131961   6.726   2.471   1.848
10354SOL    HW231962   6.695   2.313   1.873
10355SOL     OW31963   0.095   1.469   0.611
10355SOL    HW131964   0.053   1.475   0.521
10355SOL    HW231965   0.108   1.373   0.636
10356SOL     OW31966   6.145   3.171   5.913
10356SOL    HW131967   6.177   3.119   5.992
10356SOL    HW231968   6.082   3.243   5.944
10357SOL     OW31969   0.789   6.530   6.702
10357SOL    HW131970   0.715   6.471   6.735
10357SOL    HW231971   0.851   6.477   6.645
10358SOL     OW31972   0.873   3.771   3.957
10358SOL    HW131973   0.925   3.854   3.934
10358SOL    HW231974   0.860   3.767   4.056
10359SOL     OW31975   0.311   2.731   1.777
10359SOL    HW131976   0.333   2.658   1.840
10359SOL    HW231977   0.316   2.819   1.824
10360SOL     OW31978   5.534   4.984   1.307
10360SOL    HW131979   5.522   4.924   1.386
10360SOL    HW231980   5.498   5.075   1.328
10361SOL     OW31981   5.615   2.165   4.149
10361SOL    HW131982   5.534   2.219   4.169
10361SOL    HW231983   5.655   2.131   4.234
10362SOL     OW31984   6.859   5.763   2.198
10362SOL    HW131985   6.826   5.706   2.123
10362SOL    HW231986   6.784   5.781   2.262
10363SOL     OW31987   4.842   5.132   6.892
10363SOL    HW131988   4.786   5.179   6.961
10363SOL    HW231989   4.938   5.139   6.917
10364SOL     OW31990   6.663   5.182   1.643
10364SOL    HW131991   6.755   5.161   1.676
10364SOL    HW231992   6.607   5.100   1.647
10365SOL     OW31993   6.389   5.848   6.456
10365SOL    HW131994   6.423   5.871   6.365
10365SOL    HW231995   6.372   5.750   6.462
10366SOL     OW31996   2.237   0.654   3.192
10366SOL    HW131997   2.246   0.661   3.092
10366SOL    HW231998   2.320   0.616   3.231
10367SOL     OW31999   3.929   6.198   2.743
10367SOL    HW132000   3.843   6.151   2.762
10367SOL    HW232001   3.918   6.296   2.758
10368SOL     OW32002   1.583   6.246   2.019
10368SOL    HW132003   1.630   6.253   2.107
10368SOL    HW232004   1.484   6.242   2.033
10369SOL     OW32005   3.209   1.561   5.076
10369SOL    HW132006   3.116   1.537   5.103
10369SOL    HW232007   3.223   1.660   5.086
10370SOL     OW32008   2.378   1.845   6.989
10370SOL    HW132009   2.358   1.824   0.057
10370SOL    HW232010   2.300   1.893   6.948
10371SOL     OW32011   3.394   5.742   2.462
10371SOL    HW132012   3.345   5.726   2.547
10371SOL    HW232013   3.410   5.841   2.451
10372SOL     OW32014   1.121   6.103   1.108
10372SOL    HW132015   1.111   6.202   1.093
10372SOL    HW232016   1.204   6.071   1.063
10373SOL     OW32017   6.844   0.774   5.094
10373SOL    HW132018   6.847   0.866   5.056
10373SOL    HW232019   6.752   0.737   5.086
10374SOL     OW32020   2.052   5.452   1.950
10374SOL    HW132021   1.978   5.502   1.994
10374SOL    HW232022   2.039   5.354   1.964
10375SOL     OW32023   2.022   5.036   6.537
10375SOL    HW132024   2.050   5.108   6.600
10375SOL    HW232025   2.065   4.949   6.564
10376SOL     OW32026   1.697   6.034   3.672
10376SOL    HW132027   1.700   5.936   3.653
10376SOL    HW232028   1.688   6.049   3.770
10377SOL     OW32029   3.008   1.294   3.814
10377SOL    HW132030   3.010   1.200   3.848
10377SOL    HW232031   3.086   1.310   3.754
10378SOL     OW32032   0.055   6.236   5.312
10378SOL    HW132033   7.018   6.175   5.265
10378SOL    HW232034   0.110   6.286   5.245
10379SOL     OW32035   0.581   5.145   3.624
10379SOL    HW132036   0.616   5.230   3.665
10379SOL    HW232037   0.654   5.101   3.571
10380SOL     OW32038   2.984   1.635   3.382
10380SOL    HW132039   3.060   1.569   3.392
10380SOL    HW232040   3.020   1.728   3.387
10381SOL     OW32041   2.236   6.805   4.556
10381SOL    HW132042   2.323   6.854   4.558
10381SOL    HW232043   2.242   6.727   4.494
10382SOL     OW32044   3.473   5.457   3.025
10382SOL    HW132045   3.561   5.420   3.055
10382SOL    HW232046   3.420   5.385   2.981
10383SOL     OW32047   0.600   6.907   0.341
10383SOL    HW132048   0.687   6.857   0.346
10383SOL    HW232049   0.580   6.948   0.430
10384SOL     OW32050   5.155   5.076   0.996
10384SOL    HW132051   5.140   5.091   0.899
10384SOL    HW232052   5.224   5.006   1.009
10385SOL     OW32053   3.643   4.282   6.777
10385SOL    HW132054   3.685   4.336   6.849
10385SOL    HW232055   3.713   4.253   6.712
10386SOL     OW32056   6.920   0.029   1.374
10386SOL    HW132057   6.840   0.087   1.358
10386SOL    HW232058   7.003   0.086   1.370
10387SOL     OW32059   5.276   1.182   1.951
10387SOL    HW132060   5.181   1.165   1.978
10387SOL    HW232061   5.278   1.251   1.879
10388SOL     OW32062   0.764   6.627   4.954
10388SOL    HW132063   0.728   6.718   4.936
10388SOL    HW232064   0.773   6.614   5.053
10389SOL     OW32065   0.436   3.866   1.088
10389SOL    HW132066   0.520   3.909   1.055
10389SOL    HW232067   0.433   3.771   1.057
10390SOL     OW32068   1.150   2.224   2.157
10390SOL    HW132069   1.225   2.214   2.091
10390SOL    HW232070   1.188   2.249   2.247
10391SOL     OW32071   6.051   0.845   3.480
10391SOL    HW132072   6.141   0.830   3.438
10391SOL    HW232073   6.047   0.937   3.519
10392SOL     OW32074   5.421   3.408   4.122
10392SOL    HW132075   5.337   3.450   4.157
10392SOL    HW232076   5.490   3.406   4.195
10393SOL     OW32077   1.538   2.471   1.278
10393SOL    HW132078   1.478   2.528   1.334
10393SOL    HW232079   1.556   2.516   1.191
10394SOL     OW32080   2.760   5.623   4.018
10394SOL    HW132081   2.783   5.526   4.009
10394SOL    HW232082   2.816   5.664   4.090
10395SOL     OW32083   0.812   1.014   1.333
10395SOL    HW132084   0.909   0.994   1.347
10395SOL    HW232085   0.764   1.010   1.421
10396SOL     OW32086   3.403   2.163   5.133
10396SOL    HW132087   3.408   2.161   5.233
10396SOL    HW232088   3.322   2.215   5.105
10397SOL     OW32089   4.819   1.249   4.034
10397SOL    HW132090   4.827   1.341   4.071
10397SOL    HW232091   4.904   1.199   4.049
10398SOL     OW32092   4.671   2.737   3.070
10398SOL    HW132093   4.668   2.724   2.970
10398SOL    HW232094   4.613   2.668   3.114
10399SOL     OW32095   0.701   2.227   1.744
10399SOL    HW132096   0.730   2.158   1.678
10399SOL    HW232097   0.643   2.184   1.813
10400SOL     OW32098   1.443   6.986   7.020
10400SOL    HW132099   1.448   6.964   0.090
10400SOL    HW232100   1.497   6.920   6.968
10401SOL     OW32101   6.457   1.135   5.368
10401SOL    HW132102   6.469   1.196   5.447
10401SOL    HW232103   6.410   1.184   5.295
10402SOL     OW32104   6.619   4.056   6.318
10402SOL    HW132105   6.708   4.098   6.337
10402SOL    HW232106   6.561   4.121   6.269
10403SOL     OW32107   3.609   0.176   1.651
10403SOL    HW132108   3.511   0.161   1.640
10403SOL    HW232109   3.657   0.145   1.569
10404SOL     OW32110   0.634   5.426   5.759
10404SOL    HW132111   0.662   5.336   5.724
10404SOL    HW232112   0.598   5.481   5.684
10405SOL     OW32113   0.073   1.135   0.002
10405SOL    HW132114   0.103   1.041   7.018
10405SOL    HW232115   7.001   1.141   7.015
10406SOL     OW32116   2.045   4.928   1.700
10406SOL    HW132117   2.127   4.975   1.733
10406SOL    HW232118   2.060   4.897   1.607
10407SOL     OW32119   2.115   6.296   1.061
10407SOL    HW132120   2.077   6.206   1.038
10407SOL    HW232121   2.082   6.324   1.151
10408SOL     OW32122   4.841   0.645   6.212
10408SOL    HW132123   4.756   0.679   6.252
10408SOL    HW232124   4.868   0.704   6.136
10409SOL     OW32125   6.415   3.978   0.747
10409SOL    HW132126   6.435   3.882   0.727
10409SOL    HW232127   6.498   4.023   0.780
10410SOL     OW32128   3.962   0.321   0.712
10410SOL    HW132129   3.929   0.278   0.796
10410SOL    HW232130   4.014   0.254   0.659
10411SOL     OW32131   1.719   4.558   3.801
10411SOL    HW132132   1.742   4.646   3.842
10411SOL    HW232133   1.628   4.531   3.832
10412SOL     OW32134   4.666   1.002   2.071
10412SOL    HW132135   4.617   1.075   2.023
10412SOL    HW232136   4.710   0.942   2.004
10413SOL     OW32137   6.420   3.786   2.620
10413SOL    HW132138   6.420   3.886   2.614
10413SOL    HW232139   6.514   3.752   2.616
10414SOL     OW32140   4.859   3.857   3.409
10414SOL    HW132141   4.912   3.920   3.465
10414SOL    HW232142   4.857   3.767   3.453
10415SOL     OW32143   0.336   1.128   6.529
10415SOL    HW132144   0.340   1.115   6.628
10415SOL    HW232145   0.284   1.053   6.488
10416SOL     OW32146   4.961   2.262   2.754
10416SOL    HW132147   4.948   2.346   2.701
10416SOL    HW232148   4.872   2.218   2.768
10417SOL     OW32149   1.905   4.165   2.282
10417SOL    HW132150   1.997   4.161   2.243
10417SOL    HW232151   1.908   4.208   2.372
10418SOL     OW32152   1.850   5.645   6.246
10418SOL    HW132153   1.879   5.722   6.303
10418SOL    HW232154   1.766   5.607   6.283
10419SOL     OW32155   1.007   1.080   5.999
10419SOL    HW132156   0.909   1.065   6.011
10419SOL    HW232157   1.022   1.164   5.948
10420SOL     OW32158   0.590   3.073   1.961
10420SOL    HW132159   0.606   3.039   2.054
10420SOL    HW232160   0.649   3.022   1.897
10421SOL     OW32161   0.554   2.109   2.699
10421SOL    HW132162   0.623   2.078   2.765
10421SOL    HW232163   0.517   2.197   2.728
10422SOL     OW32164   5.626   1.927   0.011
10422SOL    HW132165   5.702   1.918   6.974
10422SOL    HW232166   5.565   2.000   7.007
10423SOL     OW32167   4.139   5.517   2.864
10423SOL    HW132168   4.112   5.429   2.903
10423SOL    HW232169   4.068   5.548   2.800
10424SOL     OW32170   4.856   1.388   6.196
10424SOL    HW132171   4.832   1.370   6.101
10424SOL    HW232172   4.930   1.327   6.224
10425SOL     OW32173   1.583   6.792   2.009
10425SOL    HW132174   1.638   6.717   2.046
10425SOL    HW232175   1.561   6.856   2.082
10426SOL     OW32176   6.381   4.338   6.561
10426SOL    HW132177   6.403   4.309   6.654
10426SOL    HW232178   6.284   4.324   6.543
10427SOL     OW32179   4.939   0.851   0.470
10427SOL    HW132180   4.961   0.930   0.414
10427SOL    HW232181   4.984   0.770   0.433
10428SOL     OW32182   4.163   2.207   3.747
10428SOL    HW132183   4.231   2.134   3.749
10428SOL    HW232184   4.173   2.260   3.663
10429SOL     OW32185   6.082   5.453   2.366
10429SOL    HW132186   6.079   5.361   2.404
10429SOL    HW232187   6.107   5.518   2.437
10430SOL     OW32188   3.303   6.120   2.944
10430SOL    HW132189   3.298   6.217   2.920
10430SOL    HW232190   3.352   6.110   3.031
10431SOL     OW32191   3.132   1.600   5.734
10431SOL    HW132192   3.108   1.697   5.740
10431SOL    HW232193   3.196   1.577   5.808
10432SOL     OW32194   4.388   0.562   4.461
10432SOL    HW132195   4.344   0.558   4.372
10432SOL    HW232196   4.321   0.588   4.530
10433SOL     OW32197   1.642   6.080   1.202
10433SOL    HW132198   1.736   6.057   1.227
10433SOL    HW232199   1.592   6.108   1.284
10434SOL     OW32200   3.709   2.404   5.360
10434SOL    HW132201   3.760   2.347   5.295
10434SOL    HW232202   3.611   2.389   5.347
10435SOL     OW32203   6.075   4.971   6.727
10435SOL    HW132204   6.052   4.968   6.630
10435SOL    HW232205   5.991   4.971   6.781
10436SOL     OW32206   6.917   2.132   2.906
10436SOL    HW132207   6.934   2.043   2.865
10436SOL    HW232208   6.819   2.141   2.926
10437SOL     OW32209   1.401   2.885   0.725
10437SOL    HW132210   1.316   2.932   0.701
10437SOL    HW232211   1.479   2.939   0.695
10438SOL     OW32212   2.588   0.126   5.870
10438SOL    HW132213   2.498   0.145   5.830
10438SOL    HW232214   2.659   0.142   5.801
10439SOL     OW32215   3.438   0.525   5.813
10439SOL    HW132216   3.372   0.573   5.870
10439SOL    HW232217   3.531   0.550   5.841
10440SOL     OW32218   1.081   5.681   0.326
10440SOL    HW132219   1.054   5.723   0.239
10440SOL    HW232220   1.151   5.612   0.310
10441SOL     OW32221   4.433   6.565   0.769
10441SOL    HW132222   4.427   6.469   0.796
10441SOL    HW232223   4.498   6.575   0.694
10442SOL     OW32224   3.277   6.377   6.437
10442SOL    HW132225   3.197   6.438   6.433
10442SOL    HW232226   3.293   6.349   6.531
10443SOL     OW32227   0.645   3.025   4.364
10443SOL    HW132228   0.618   3.061   4.453
10443SOL    HW232229   0.599   3.076   4.291
10444SOL     OW32230   3.807   4.582   5.349
10444SOL    HW132231   3.712   4.605   5.327
10444SOL    HW232232   3.839   4.638   5.425
10445SOL     OW32233   6.500   6.419   1.639
10445SOL    HW132234   6.495   6.519   1.636
10445SOL    HW232235   6.410   6.381   1.656
10446SOL     OW32236   1.456   6.971   5.837
10446SOL    HW132237   1.544   6.997   5.797
10446SOL    HW232238   1.389   0.017   5.821
10447SOL     OW32239   5.615   2.706   6.517
10447SOL    HW132240   5.577   2.675   6.604
10447SOL    HW232241   5.587   2.643   6.444
10448SOL     OW32242   3.913   3.020   2.094
10448SOL    HW132243   3.893   3.099   2.152
10448SOL    HW232244   3.962   2.951   2.147
10449SOL     OW32245   1.039   5.035   5.125
10449SOL    HW132246   1.095   5.092   5.185
10449SOL    HW232247   0.943   5.040   5.153
10450SOL     OW32248   0.441   3.135   0.372
10450SOL    HW132249   0.397   3.207   0.317
10450SOL    HW232250   0.513   3.175   0.428
10451SOL     OW32251   1.553   4.275   2.563
10451SOL    HW132252   1.546   4.356   2.505
10451SOL    HW232253   1.629   4.286   2.628
10452SOL     OW32254   2.377   2.981   6.203
10452SOL    HW132255   2.341   2.964   6.295
10452SOL    HW232256   2.347   2.907   6.142
10453SOL     OW32257   5.195   0.510   2.056
10453SOL    HW132258   5.110   0.458   2.062
10453SOL    HW232259   5.227   0.533   2.148
10454SOL     OW32260   4.111   5.234   2.994
10454SOL    HW132261   4.035   5.196   2.941
10454SOL    HW232262   4.150   5.163   3.052
10455SOL     OW32263   1.367   4.628   3.529
10455SOL    HW132264   1.276   4.642   3.491
10455SOL    HW232265   1.392   4.706   3.586
10456SOL     OW32266   3.538   6.372   1.025
10456SOL    HW132267   3.465   6.440   1.012
10456SOL    HW232268   3.545   6.315   0.943
10457SOL     OW32269   3.740   2.958   3.727
10457SOL    HW132270   3.808   2.886   3.717
10457SOL    HW232271   3.653   2.919   3.756
10458SOL     OW32272   6.552   6.095   2.569
10458SOL    HW132273   6.520   6.189   2.566
10458SOL    HW232274   6.532   6.055   2.659
10459SOL     OW32275   0.089   5.691   2.252
10459SOL    HW132276   0.078   5.609   2.308
10459SOL    HW232277   7.026   5.727   2.227
10460SOL     OW32278   1.459   4.375   1.258
10460SOL    HW132279   1.402   4.411   1.332
10460SOL    HW232280   1.554   4.405   1.271
10461SOL     OW32281   3.765   0.344   6.270
10461SOL    HW132282   3.783   0.266   6.209
10461SOL    HW232283   3.848   0.400   6.276
10462SOL     OW32284   5.684   6.796   1.033
10462SOL    HW132285   5.752   6.868   1.020
10462SOL    HW232286   5.634   6.812   1.117
10463SOL     OW32287   4.318   3.101   0.165
10463SOL    HW132288   4.305   3.163   0.243
10463SOL    HW232289   4.233   3.052   0.146
10464SOL     OW32290   5.427   6.546   1.551
10464SOL    HW132291   5.422   6.587   1.460
10464SOL    HW232292   5.409   6.616   1.620
10465SOL     OW32293   0.412   4.794   6.014
10465SOL    HW132294   0.449   4.837   5.932
10465SOL    HW232295   0.326   4.838   6.039
10466SOL     OW32296   4.640   5.253   5.617
10466SOL    HW132297   4.543   5.250   5.591
10466SOL    HW232298   4.672   5.347   5.613
10467SOL     OW32299   4.084   1.674   4.538
10467SOL    HW132300   4.064   1.768   4.509
10467SOL    HW232301   4.182   1.663   4.550
10468SOL     OW32302   2.553   5.254   3.439
10468SOL    HW132303   2.558   5.154   3.442
10468SOL    HW232304   2.527   5.288   3.530
10469SOL     OW32305   0.645   5.214   6.066
10469SOL    HW132306   0.650   5.312   6.050
10469SOL    HW232307   0.605   5.169   5.986
10470SOL     OW32308   2.297   2.193   4.081
10470SOL    HW132309   2.387   2.237   4.086
10470SOL    HW232310   2.273   2.179   3.985
10471SOL     OW32311   4.832   3.635   6.839
10471SOL    HW132312   4.792   3.726   6.848
10471SOL    HW232313   4.763   3.566   6.863
10472SOL     OW32314   4.344   1.776   3.298
10472SOL    HW132315   4.315   1.758   3.204
10472SOL    HW232316   4.370   1.691   3.343
10473SOL     OW32317   4.664   4.498   0.971
10473SOL    HW132318   4.626   4.521   0.881
10473SOL    HW232319   4.624   4.558   1.040
10474SOL     OW32320   5.132   1.318   4.162
10474SOL    HW132321   5.126   1.399   4.220
10474SOL    HW232322   5.108   1.343   4.068
10475SOL     OW32323   4.099   6.171   0.875
10475SOL    HW132324   4.103   6.219   0.787
10475SOL    HW232325   4.096   6.238   0.949
10476SOL     OW32326   0.633   4.950   6.965
10476SOL    HW132327   0.560   4.927   6.901
10476SOL    HW232328   0.645   5.049   6.968
10477SOL     OW32329   5.187   4.538   4.380
10477SOL    HW132330   5.230   4.470   4.440
10477SOL    HW232331   5.115   4.494   4.326
10478SOL     OW32332   0.653   0.099   2.698
10478SOL    HW132333   0.553   0.093   2.695
10478SOL    HW232334   0.691   0.011   2.726
10479SOL     OW32335   1.091   3.577   2.963
10479SOL    HW132336   1.061   3.646   3.029
10479SOL    HW232337   1.191   3.572   2.963
10480SOL     OW32338   4.983   1.171   6.279
10480SOL    HW132339   5.008   1.089   6.228
10480SOL    HW232340   4.910   1.149   6.344
10481SOL     OW32341   3.614   1.643   3.202
10481SOL    HW132342   3.628   1.586   3.284
10481SOL    HW232343   3.669   1.608   3.127
10482SOL     OW32344   0.707   6.519   5.869
10482SOL    HW132345   0.639   6.532   5.797
10482SOL    HW232346   0.758   6.603   5.882
10483SOL     OW32347   0.964   5.975   0.624
10483SOL    HW132348   0.980   6.013   0.533
10483SOL    HW232349   0.865   5.971   0.642
10484SOL     OW32350   6.490   1.481   2.069
10484SOL    HW132351   6.455   1.391   2.043
10484SOL    HW232352   6.573   1.502   2.018
10485SOL     OW32353   3.437   3.721   5.281
10485SOL    HW132354   3.530   3.706   5.314
10485SOL    HW232355   3.438   3.788   5.207
10486SOL     OW32356   6.308   4.694   6.269
10486SOL    HW132357   6.303   4.691   6.169
10486SOL    HW232358   6.378   4.630   6.301
10487SOL     OW32359   5.206   3.957   2.559
10487SOL    HW132360   5.237   3.938   2.466
10487SOL    HW232361   5.255   4.036   2.595
10488SOL     OW32362   1.137   2.092   5.423
10488SOL    HW132363   1.048   2.064   5.387
10488SOL    HW232364   1.128   2.120   5.518
10489SOL     OW32365   5.879   4.997   2.636
10489SOL    HW132366   5.954   4.953   2.588
10489SOL    HW232367   5.794   4.948   2.617
10490SOL     OW32368   5.481   6.225   6.409
10490SOL    HW132369   5.516   6.313   6.377
10490SOL    HW232370   5.384   6.233   6.429
10491SOL     OW32371   1.994   1.574   5.482
10491SOL    HW132372   1.926   1.640   5.448
10491SOL    HW232373   1.968   1.482   5.454
10492SOL     OW32374   3.273   0.198   6.997
10492SOL    HW132375   3.268   0.251   0.054
10492SOL    HW232376   3.246   0.256   6.920
10493SOL     OW32377   4.565   0.104   0.248
10493SOL    HW132378   4.631   0.034   0.221
10493SOL    HW232379   4.564   0.114   0.347
10494SOL     OW32380   6.609   5.787   3.615
10494SOL    HW132381   6.617   5.838   3.700
10494SOL    HW232382   6.527   5.815   3.566
10495SOL     OW32383   6.170   6.329   0.404
10495SOL    HW132384   6.171   6.287   0.495
10495SOL    HW232385   6.195   6.261   0.336
10496SOL     OW32386   1.771   3.956   6.225
10496SOL    HW132387   1.801   3.959   6.320
10496SOL    HW232388   1.837   3.906   6.170
10497SOL     OW32389   4.136   0.203   0.138
10497SOL    HW132390   4.153   0.258   0.056
10497SOL    HW232391   4.213   0.140   0.152
10498SOL     OW32392   3.443   4.132   0.409
10498SOL    HW132393   3.385   4.081   0.345
10498SOL    HW232394   3.385   4.184   0.472
10499SOL     OW32395   4.288   4.758   3.927
10499SOL    HW132396   4.361   4.691   3.914
10499SOL    HW232397   4.293   4.795   4.019
10500SOL     OW32398   2.153   2.677   4.813
10500SOL    HW132399   2.187   2.771   4.806
10500SOL    HW232400   2.225   2.613   4.788
10501SOL     OW32401   4.105   4.847   2.906
10501SOL    HW132402   4.152   4.901   2.976
10501SOL    HW232403   4.170   4.826   2.832
10502SOL     OW32404   3.523   3.190   3.402
10502SOL    HW132405   3.569   3.272   3.434
10502SOL    HW232406   3.561   3.162   3.314
10503SOL     OW32407   7.008   5.900   1.040
10503SOL    HW132408   0.038   5.828   1.080
10503SOL    HW232409   6.949   5.939   1.111
10504SOL     OW32410   1.875   2.870   5.230
10504SOL    HW132411   1.824   2.892   5.313
10504SOL    HW232412   1.897   2.772   5.230
10505SOL     OW32413   4.552   6.757   0.937
10505SOL    HW132414   4.524   6.839   0.888
10505SOL    HW232415   4.504   6.677   0.899
10506SOL     OW32416   0.702   5.459   6.300
10506SOL    HW132417   0.680   5.448   6.203
10506SOL    HW232418   0.801   5.458   6.312
10507SOL     OW32419   2.395   6.361   5.659
10507SOL    HW132420   2.300   6.387   5.677
10507SOL    HW232421   2.436   6.326   5.744
10508SOL     OW32422   1.870   6.656   1.561
10508SOL    HW132423   1.958   6.689   1.527
10508SOL    HW232424   1.865   6.668   1.660
10509SOL     OW32425   4.728   3.520   1.746
10509SOL    HW132426   4.724   3.431   1.700
10509SOL    HW232427   4.673   3.587   1.695
10510SOL     OW32428   5.001   6.465   1.853
10510SOL    HW132429   5.002   6.550   1.906
10510SOL    HW232430   4.930   6.471   1.782
10511SOL     OW32431   3.818   1.906   1.051
10511SOL    HW132432   3.833   1.816   1.092
10511SOL    HW232433   3.896   1.965   1.070
10512SOL     OW32434   4.244   0.187   4.590
10512SOL    HW132435   4.199   0.274   4.609
10512SOL    HW232436   4.175   0.119   4.565
10513SOL     OW32437   4.423   3.924   1.039
10513SOL    HW132438   4.328   3.956   1.033
10513SOL    HW232439   4.457   3.937   1.132
10514SOL     OW32440   1.155   4.845   1.492
10514SOL    HW132441   1.103   4.847   1.577
10514SOL    HW232442   1.097   4.874   1.416
10515SOL     OW32443   2.192   3.169   4.321
10515SOL    HW132444   2.093   3.163   4.304
10515SOL    HW232445   2.207   3.197   4.416
10516SOL     OW32446   5.036   1.776   1.182
10516SOL    HW132447   4.955   1.757   1.237
10516SOL    HW232448   5.093   1.694   1.176
10517SOL     OW32449   6.048   1.378   1.789
10517SOL    HW132450   6.052   1.303   1.855
10517SOL    HW232451   6.060   1.465   1.836
10518SOL     OW32452   6.716   5.813   3.225
10518SOL    HW132453   6.693   5.809   3.128
10518SOL    HW232454   6.747   5.905   3.249
10519SOL     OW32455   1.644   6.848   0.732
10519SOL    HW132456   1.636   6.806   0.641
10519SOL    HW232457   1.701   6.929   0.726
10520SOL     OW32458   3.441   2.503   5.779
10520SOL    HW132459   3.467   2.590   5.738
10520SOL    HW232460   3.401   2.519   5.869
10521SOL     OW32461   5.632   1.675   1.175
10521SOL    HW132462   5.712   1.671   1.235
10521SOL    HW232463   5.644   1.749   1.109
10522SOL     OW32464   4.959   1.433   2.468
10522SOL    HW132465   4.861   1.414   2.457
10522SOL    HW232466   5.010   1.393   2.392
10523SOL     OW32467   0.031   3.963   1.622
10523SOL    HW132468   7.017   3.946   1.533
10523SOL    HW232469   6.987   3.987   1.688
10524SOL     OW32470   6.363   6.655   4.670
10524SOL    HW132471   6.315   6.739   4.644
10524SOL    HW232472   6.322   6.577   4.622
10525SOL     OW32473   5.047   2.244   4.473
10525SOL    HW132474   5.095   2.297   4.403
10525SOL    HW232475   4.995   2.305   4.532
10526SOL     OW32476   1.555   6.608   6.254
10526SOL    HW132477   1.460   6.612   6.223
10526SOL    HW232478   1.613   6.660   6.192
10527SOL     OW32479   1.059   6.537   5.243
10527SOL    HW132480   1.155   6.536   5.271
10527SOL    HW232481   1.020   6.446   5.255
10528SOL     OW32482   2.713   5.872   5.073
10528SOL    HW132483   2.746   5.787   5.031
10528SOL    HW232484   2.613   5.873   5.071
10529SOL     OW32485   0.107   5.589   6.519
10529SOL    HW132486   0.064   5.677   6.539
10529SOL    HW232487   0.055   5.516   6.563
10530SOL     OW32488   5.702   0.495   1.592
10530SOL    HW132489   5.725   0.429   1.520
10530SOL    HW232490   5.651   0.449   1.665
10531SOL     OW32491   3.305   0.861   6.922
10531SOL    HW132492   3.315   0.957   6.894
10531SOL    HW232493   3.358   0.845   7.005
10532SOL     OW32494   3.880   5.823   5.899
10532SOL    HW132495   3.865   5.918   5.928
10532SOL    HW232496   3.793   5.783   5.872
10533SOL     OW32497   4.349   6.562   4.105
10533SOL    HW132498   4.278   6.504   4.144
10533SOL    HW232499   4.427   6.506   4.075
10534SOL     OW32500   0.455   6.023   4.677
10534SOL    HW132501   0.463   6.120   4.656
10534SOL    HW232502   0.363   6.003   4.711
10535SOL     OW32503   3.685   1.374   2.273
10535SOL    HW132504   3.590   1.365   2.241
10535SOL    HW232505   3.687   1.382   2.372
10536SOL     OW32506   5.771   3.187   4.412
10536SOL    HW132507   5.697   3.161   4.474
10536SOL    HW232508   5.735   3.248   4.341
10537SOL     OW32509   2.572   1.254   2.197
10537SOL    HW132510   2.661   1.267   2.153
10537SOL    HW232511   2.509   1.325   2.166
10538SOL     OW32512   6.434   2.894   3.819
10538SOL    HW132513   6.420   2.955   3.741
10538SOL    HW232514   6.531   2.890   3.841
10539SOL     OW32515   6.583   0.353   1.427
10539SOL    HW132516   6.592   0.321   1.521
10539SOL    HW232517   6.654   0.311   1.370
10540SOL     OW32518   1.939   2.758   5.813
10540SOL    HW132519   1.854   2.731   5.858
10540SOL    HW232520   2.014   2.755   5.879
10541SOL     OW32521   3.804   2.741   0.081
10541SOL    HW132522   3.798   2.833   0.041
10541SOL    HW232523   3.868   2.686   0.027
10542SOL     OW32524   2.953   5.717   3.012
10542SOL    HW132525   3.028   5.780   3.028
10542SOL    HW232526   2.975   5.628   3.053
10543SOL     OW32527   0.617   2.743   3.411
10543SOL    HW132528   0.688   2.809   3.433
10543SOL    HW232529   0.541   2.754   3.475
10544SOL     OW32530   2.863   2.187   2.273
10544SOL    HW132531   2.779   2.136   2.256
10544SOL    HW232532   2.896   2.228   2.188
10545SOL     OW32533   1.040   3.211   1.477
10545SOL    HW132534   1.007   3.240   1.567
10545SOL    HW232535   1.122   3.154   1.489
10546SOL     OW32536   1.984   0.335   4.749
10546SOL    HW132537   1.937   0.251   4.776
10546SOL    HW232538   1.956   0.359   4.656
10547SOL     OW32539   2.587   5.886   6.266
10547SOL    HW132540   2.642   5.809   6.233
10547SOL    HW232541   2.490   5.861   6.264
10548SOL     OW32542   1.397   5.035   3.403
10548SOL    HW132543   1.423   5.125   3.438
10548SOL    HW232544   1.442   5.020   3.315
10549SOL     OW32545   6.312   1.993   2.414
10549SOL    HW132546   6.295   2.065   2.346
10549SOL    HW232547   6.281   1.905   2.378
10550SOL     OW32548   0.191   4.450   2.970
10550SOL    HW132549   0.112   4.499   2.933
10550SOL    HW232550   0.240   4.405   2.895
10551SOL     OW32551   4.900   1.119   4.636
10551SOL    HW132552   4.870   1.104   4.541
10551SOL    HW232553   4.972   1.054   4.659
10552SOL     OW32554   2.259   0.023   4.198
10552SOL    HW132555   2.308   0.004   4.113
10552SOL    HW232556   2.304   0.098   4.247
10553SOL     OW32557   5.711   5.487   1.725
10553SOL    HW132558   5.783   5.553   1.705
10553SOL    HW232559   5.702   5.423   1.648
10554SOL     OW32560   5.322   5.602   1.744
10554SOL    HW132561   5.302   5.542   1.821
10554SOL    HW232562   5.404   5.656   1.765
10555SOL     OW32563   3.187   3.124   2.763
10555SOL    HW132564   3.140   3.145   2.849
10555SOL    HW232565   3.142   3.173   2.688
10556SOL     OW32566   1.825   1.881   2.397
10556SOL    HW132567   1.916   1.841   2.400
10556SOL    HW232568   1.832   1.979   2.375
10557SOL     OW32569   1.144   5.002   3.244
10557SOL    HW132570   1.219   4.975   3.304
10557SOL    HW232571   1.176   5.011   3.150
10558SOL     OW32572   5.308   5.649   4.710
10558SOL    HW132573   5.358   5.563   4.719
10558SOL    HW232574   5.345   5.717   4.774
10559SOL     OW32575   3.802   6.227   1.642
10559SOL    HW132576   3.705   6.253   1.644
10559SOL    HW232577   3.811   6.130   1.665
10560SOL     OW32578   5.693   6.790   4.267
10560SOL    HW132579   5.662   6.834   4.183
10560SOL    HW232580   5.618   6.784   4.332
10561SOL     OW32581   1.215   5.515   5.512
10561SOL    HW132582   1.116   5.515   5.498
10561SOL    HW232583   1.241   5.593   5.570
10562SOL     OW32584   2.672   1.013   3.017
10562SOL    HW132585   2.586   1.056   3.042
10562SOL    HW232586   2.745   1.049   3.075
10563SOL     OW32587   1.779   5.403   2.407
10563SOL    HW132588   1.709   5.372   2.471
10563SOL    HW232589   1.866   5.414   2.455
10564SOL     OW32590   4.808   6.404   3.900
10564SOL    HW132591   4.904   6.395   3.928
10564SOL    HW232592   4.758   6.453   3.971
10565SOL     OW32593   0.455   1.163   4.762
10565SOL    HW132594   0.388   1.110   4.814
10565SOL    HW232595   0.447   1.140   4.665
10566SOL     OW32596   3.523   1.354   1.539
10566SOL    HW132597   3.607   1.386   1.495
10566SOL    HW232598   3.476   1.290   1.479
10567SOL     OW32599   3.288   1.421   5.898
10567SOL    HW132600   3.285   1.335   5.951
10567SOL    HW232601   3.337   1.490   5.951
10568SOL     OW32602   5.872   0.983   0.594
10568SOL    HW132603   5.929   0.955   0.671
10568SOL    HW232604   5.891   0.924   0.515
10569SOL     OW32605   4.149   0.681   1.095
10569SOL    HW132606   4.167   0.591   1.133
10569SOL    HW232607   4.234   0.733   1.090
10570SOL     OW32608   1.480   3.906   2.981
10570SOL    HW132609   1.469   3.886   2.883
10570SOL    HW232610   1.572   3.882   3.010
10571SOL     OW32611   1.282   4.305   4.885
10571SOL    HW132612   1.255   4.256   4.968
10571SOL    HW232613   1.335   4.244   4.826
10572SOL     OW32614   0.042   5.244   0.760
10572SOL    HW132615   0.030   5.208   0.667
10572SOL    HW232616   7.023   5.184   0.825
10573SOL     OW32617   5.716   2.146   2.900
10573SOL    HW132618   5.632   2.125   2.950
10573SOL    HW232619   5.704   2.122   2.804
10574SOL     OW32620   5.449   3.300   3.035
10574SOL    HW132621   5.383   3.233   3.067
10574SOL    HW232622   5.539   3.280   3.072
10575SOL     OW32623   4.907   6.642   2.988
10575SOL    HW132624   4.867   6.551   2.984
10575SOL    HW232625   4.878   6.695   2.908
10576SOL     OW32626   1.128   3.183   4.995
10576SOL    HW132627   1.070   3.214   4.920
10576SOL    HW232628   1.136   3.255   5.064
10577SOL     OW32629   4.219   5.302   6.577
10577SOL    HW132630   4.290   5.231   6.588
10577SOL    HW232631   4.173   5.290   6.489
10578SOL     OW32632   1.149   2.617   1.971
10578SOL    HW132633   1.232   2.655   1.931
10578SOL    HW232634   1.080   2.606   1.900
10579SOL     OW32635   0.206   3.258   0.619
10579SOL    HW132636   0.160   3.277   0.532
10579SOL    HW232637   0.158   3.306   0.693
10580SOL     OW32638   4.580   6.288   6.305
10580SOL    HW132639   4.608   6.347   6.381
10580SOL    HW232640   4.482   6.269   6.311
10581SOL     OW32641   3.222   0.319   2.970
10581SOL    HW132642   3.311   0.278   2.989
10581SOL    HW232643   3.202   0.387   3.040
10582SOL     OW32644   0.443   3.672   0.192
10582SOL    HW132645   0.423   3.626   0.279
10582SOL    HW232646   0.371   3.653   0.126
10583SOL     OW32647   3.940   2.279   5.949
10583SOL    HW132648   3.879   2.277   6.028
10583SOL    HW232649   3.937   2.191   5.901
10584SOL     OW32650   6.728   0.254   3.957
10584SOL    HW132651   6.637   0.287   3.980
10584SOL    HW232652   6.754   0.181   4.020
10585SOL     OW32653   2.331   0.811   4.137
10585SOL    HW132654   2.256   0.873   4.160
10585SOL    HW232655   2.295   0.718   4.126
10586SOL     OW32656   4.389   3.353   6.382
10586SOL    HW132657   4.445   3.307   6.451
10586SOL    HW232658   4.300   3.308   6.376
10587SOL     OW32659   1.744   5.097   6.346
10587SOL    HW132660   1.715   5.139   6.260
10587SOL    HW232661   1.735   4.998   6.340
10588SOL     OW32662   1.708   4.745   4.517
10588SOL    HW132663   1.802   4.766   4.544
10588SOL    HW232664   1.652   4.828   4.523
10589SOL     OW32665   6.303   0.839   3.390
10589SOL    HW132666   6.352   0.752   3.390
10589SOL    HW232667   6.315   0.885   3.302
10590SOL     OW32668   6.181   6.482   2.646
10590SOL    HW132669   6.196   6.387   2.675
10590SOL    HW232670   6.206   6.491   2.549
10591SOL     OW32671   6.527   4.414   2.402
10591SOL    HW132672   6.533   4.328   2.351
10591SOL    HW232673   6.529   4.394   2.500
10592SOL     OW32674   6.084   3.650   5.598
10592SOL    HW132675   6.170   3.683   5.559
10592SOL    HW232676   6.080   3.551   5.591
10593SOL     OW32677   3.310   5.514   3.236
10593SOL    HW132678   3.343   5.503   3.142
10593SOL    HW232679   3.210   5.512   3.236
10594SOL     OW32680   3.940   6.102   3.273
10594SOL    HW132681   3.883   6.137   3.198
10594SOL    HW232682   3.884   6.051   3.337
10595SOL     OW32683   5.914   5.950   1.566
10595SOL    HW132684   5.898   5.999   1.652
10595SOL    HW232685   6.008   5.967   1.536
10596SOL     OW32686   6.152   2.792   1.223
10596SOL    HW132687   6.216   2.782   1.299
10596SOL    HW232688   6.129   2.889   1.212
10597SOL     OW32689   1.298   6.495   5.005
10597SOL    HW132690   1.211   6.460   4.972
10597SOL    HW232691   1.339   6.554   4.935
10598SOL     OW32692   3.066   1.365   0.598
10598SOL    HW132693   3.097   1.459   0.611
10598SOL    HW232694   3.092   1.311   0.678
10599SOL     OW32695   0.834   1.617   1.196
10599SOL    HW132696   0.817   1.551   1.123
10599SOL    HW232697   0.750   1.665   1.218
10600SOL     OW32698   4.289   1.357   1.884
10600SOL    HW132699   4.240   1.287   1.833
10600SOL    HW232700   4.230   1.393   1.957
10601SOL     OW32701   1.713   2.147   5.254
10601SOL    HW132702   1.734   2.188   5.165
10601SOL    HW232703   1.617   2.164   5.276
10602SOL     OW32704   6.505   6.201   0.623
10602SOL    HW132705   6.533   6.282   0.572
10602SOL    HW232706   6.530   6.212   0.720
10603SOL     OW32707   5.508   0.003   3.137
10603SOL    HW132708   5.550   7.012   3.226
10603SOL    HW232709   5.461   6.948   3.105
10604SOL     OW32710   5.641   2.349   4.625
10604SOL    HW132711   5.557   2.349   4.679
10604SOL    HW232712   5.632   2.289   4.547
10605SOL     OW32713   4.505   1.420   1.657
10605SOL    HW132714   4.475   1.400   1.750
10605SOL    HW232715   4.479   1.513   1.632
10606SOL     OW32716   5.708   1.811   0.931
10606SOL    HW132717   5.650   1.887   0.958
10606SOL    HW232718   5.705   1.800   0.832
10607SOL     OW32719   1.820   4.791   1.253
10607SOL    HW132720   1.873   4.868   1.289
10607SOL    HW232721   1.843   4.708   1.304
10608SOL     OW32722   5.750   3.593   2.447
10608SOL    HW132723   5.766   3.692   2.447
10608SOL    HW232724   5.687   3.570   2.521
10609SOL     OW32725   5.806   5.895   6.806
10609SOL    HW132726   5.898   5.927   6.785
10609SOL    HW232727   5.748   5.974   6.827
10610SOL     OW32728   0.022   2.492   3.587
10610SOL    HW132729   7.016   2.559   3.654
10610SOL    HW232730   7.016   2.401   3.611
10611SOL     OW32731   4.084   5.644   6.742
10611SOL    HW132732   4.167   5.590   6.731
10611SOL    HW232733   4.011   5.604   6.687
10612SOL     OW32734   6.009   2.548   4.366
10612SOL    HW132735   5.937   2.479   4.378
10612SOL    HW232736   5.998   2.591   4.276
10613SOL     OW32737   4.442   5.249   6.146
10613SOL    HW132738   4.385   5.173   6.176
10613SOL    HW232739   4.487   5.226   6.060
10614SOL     OW32740   4.489   1.724   0.545
10614SOL    HW132741   4.552   1.673   0.486
10614SOL    HW232742   4.396   1.712   0.512
10615SOL     OW32743   4.129   3.418   5.712
10615SOL    HW132744   4.041   3.374   5.729
10615SOL    HW232745   4.201   3.371   5.764
10616SOL     OW32746   1.897   4.931   0.238
10616SOL    HW132747   1.835   4.857   0.262
10616SOL    HW232748   1.966   4.896   0.173
10617SOL     OW32749   2.175   3.574   0.504
10617SOL    HW132750   2.116   3.654   0.501
10617SOL    HW232751   2.238   3.582   0.582
10618SOL     OW32752   6.989   5.080   5.226
10618SOL    HW132753   6.913   5.017   5.213
10618SOL    HW232754   0.025   5.075   5.148
10619SOL     OW32755   1.541   1.736   1.206
10619SOL    HW132756   1.547   1.834   1.224
10619SOL    HW232757   1.629   1.693   1.225
10620SOL     OW32758   4.153   1.307   5.917
10620SOL    HW132759   4.226   1.356   5.963
10620SOL    HW232760   4.078   1.370   5.896
10621SOL     OW32761   0.772   5.714   4.635
10621SOL    HW132762   0.858   5.764   4.634
10621SOL    HW232763   0.703   5.764   4.582
10622SOL     OW32764   3.803   2.201   6.241
10622SOL    HW132765   3.814   2.118   6.188
10622SOL    HW232766   3.834   2.186   6.335
10623SOL     OW32767   5.534   4.861   4.539
10623SOL    HW132768   5.631   4.859   4.563
10623SOL    HW232769   5.493   4.772   4.562
10624SOL     OW32770   0.297   1.305   5.479
10624SOL    HW132771   0.215   1.316   5.422
10624SOL    HW232772   0.364   1.375   5.455
10625SOL     OW32773   6.601   5.487   6.830
10625SOL    HW132774   6.532   5.436   6.881
10625SOL    HW232775   6.692   5.466   6.866
10626SOL     OW32776   5.007   3.629   1.597
10626SOL    HW132777   5.011   3.696   1.523
10626SOL    HW232778   5.099   3.597   1.617
10627SOL     OW32779   4.820   5.523   5.277
10627SOL    HW132780   4.741   5.584   5.265
10627SOL    HW232781   4.788   5.429   5.288
10628SOL     OW32782   2.386   6.512   2.113
10628SOL    HW132783   2.410   6.590   2.056
10628SOL    HW232784   2.458   6.443   2.108
10629SOL     OW32785   4.532   5.660   4.241
10629SOL    HW132786   4.531   5.717   4.158
10629SOL    HW232787   4.455   5.597   4.238
10630SOL     OW32788   4.318   0.738   1.431
10630SOL    HW132789   4.290   0.827   1.468
10630SOL    HW232790   4.417   0.727   1.443
10631SOL     OW32791   3.577   6.180   2.140
10631SOL    HW132792   3.661   6.128   2.155
10631SOL    HW232793   3.500   6.130   2.180
10632SOL     OW32794   6.016   0.732   4.983
10632SOL    HW132795   6.073   0.794   4.930
10632SOL    HW232796   5.921   0.762   4.979
10633SOL     OW32797   2.529   3.668   0.394
10633SOL    HW132798   2.575   3.737   0.337
10633SOL    HW232799   2.525   3.581   0.344
10634SOL     OW32800   0.921   4.314   1.126
10634SOL    HW132801   0.865   4.397   1.126
10634SOL    HW232802   0.952   4.294   1.032
10635SOL     OW32803   3.055   5.203   0.708
10635SOL    HW132804   3.021   5.169   0.621
10635SOL    HW232805   3.153   5.184   0.715
10636SOL     OW32806   0.437   2.870   0.580
10636SOL    HW132807   0.533   2.896   0.594
10636SOL    HW232808   0.406   2.905   0.491
10637SOL     OW32809   1.705   6.787   5.576
10637SOL    HW132810   1.649   6.725   5.631
10637SOL    HW232811   1.677   6.881   5.592
10638SOL     OW32812   5.335   4.187   6.958
10638SOL    HW132813   5.347   4.211   6.862
10638SOL    HW232814   5.325   4.271   7.012
10639SOL     OW32815   0.344   5.558   6.668
10639SOL    HW132816   0.248   5.569   6.641
10639SOL    HW232817   0.402   5.549   6.587
10640SOL     OW32818   4.413   5.519   5.281
10640SOL    HW132819   4.467   5.496   5.361
10640SOL    HW232820   4.317   5.495   5.296
10641SOL     OW32821   1.117   1.001   3.155
10641SOL    HW132822   1.142   0.977   3.062
10641SOL    HW232823   1.166   0.942   3.219
10642SOL     OW32824   6.437   2.485   6.369
10642SOL    HW132825   6.441   2.564   6.308
10642SOL    HW232826   6.530   2.457   6.392
10643SOL     OW32827   3.687   5.531   5.227
10643SOL    HW132828   3.669   5.471   5.305
10643SOL    HW232829   3.621   5.513   5.155
10644SOL     OW32830   2.451   4.395   3.761
10644SOL    HW132831   2.479   4.431   3.850
10644SOL    HW232832   2.521   4.416   3.693
10645SOL     OW32833   1.819   3.102   3.104
10645SOL    HW132834   1.801   3.149   3.190
10645SOL    HW232835   1.765   3.145   3.031
10646SOL     OW32836   5.106   1.773   3.775
10646SOL    HW132837   5.016   1.731   3.772
10646SOL    HW232838   5.175   1.709   3.740
10647SOL     OW32839   4.918   6.126   4.699
10647SOL    HW132840   4.866   6.189   4.758
10647SOL    HW232841   5.015   6.146   4.708
10648SOL     OW32842   4.681   3.030   5.779
10648SOL    HW132843   4.770   3.052   5.819
10648SOL    HW232844   4.657   2.936   5.803
10649SOL     OW32845   6.336   3.765   3.368
10649SOL    HW132846   6.253   3.789   3.319
10649SOL    HW232847   6.358   3.836   3.435
10650SOL     OW32848   0.157   0.687   2.097
10650SOL    HW132849   0.218   0.616   2.061
10650SOL    HW232850   0.067   0.677   2.055
10651SOL     OW32851   2.808   5.647   4.926
10651SOL    HW132852   2.885   5.632   4.864
10651SOL    HW232853   2.737   5.579   4.908
10652SOL     OW32854   4.028   0.352   6.783
10652SOL    HW132855   4.011   0.378   6.688
10652SOL    HW232856   3.975   0.271   6.806
10653SOL     OW32857   6.014   5.946   4.880
10653SOL    HW132858   5.978   5.915   4.968
10653SOL    HW232859   6.088   5.885   4.851
10654SOL     OW32860   6.579   2.166   3.850
10654SOL    HW132861   6.602   2.102   3.776
10654SOL    HW232862   6.492   2.139   3.891
10655SOL     OW32863   6.284   4.717   0.906
10655SOL    HW132864   6.248   4.689   0.995
10655SOL    HW232865   6.218   4.692   0.834
10656SOL     OW32866   5.585   0.611   5.823
10656SOL    HW132867   5.645   0.565   5.887
10656SOL    HW232868   5.522   0.545   5.782
10657SOL     OW32869   5.090   0.408   5.475
10657SOL    HW132870   5.029   0.464   5.530
10657SOL    HW232871   5.055   0.314   5.471
10658SOL     OW32872   1.300   1.151   4.994
10658SOL    HW132873   1.337   1.231   5.042
10658SOL    HW232874   1.350   1.070   5.023
10659SOL     OW32875   0.486   5.806   6.766
10659SOL    HW132876   0.448   5.717   6.739
10659SOL    HW232877   0.584   5.796   6.781
10660SOL     OW32878   6.658   3.142   5.837
10660SOL    HW132879   6.586   3.210   5.846
10660SOL    HW232880   6.741   3.186   5.802
10661SOL     OW32881   3.676   5.996   6.197
10661SOL    HW132882   3.691   6.040   6.108
10661SOL    HW232883   3.656   6.065   6.266
10662SOL     OW32884   3.293   1.645   1.309
10662SOL    HW132885   3.358   1.651   1.385
10662SOL    HW232886   3.294   1.730   1.257
10663SOL     OW32887   6.765   3.516   4.003
10663SOL    HW132888   6.855   3.560   4.005
10663SOL    HW232889   6.694   3.584   3.988
10664SOL     OW32890   0.455   6.360   3.963
10664SOL    HW132891   0.546   6.357   4.005
10664SOL    HW232892   0.391   6.403   4.026
10665SOL     OW32893   4.522   3.544   0.975
10665SOL    HW132894   4.466   3.594   0.910
10665SOL    HW232895   4.541   3.452   0.940
10666SOL     OW32896   5.362   3.913   1.804
10666SOL    HW132897   5.355   3.984   1.875
10666SOL    HW232898   5.302   3.936   1.728
10667SOL     OW32899   5.476   2.951   4.455
10667SOL    HW132900   5.563   2.910   4.485
10667SOL    HW232901   5.426   2.884   4.400
10668SOL     OW32902   2.792   3.501   5.956
10668SOL    HW132903   2.864   3.561   5.992
10668SOL    HW232904   2.703   3.543   5.972
10669SOL     OW32905   7.004   2.323   1.789
10669SOL    HW132906   6.992   2.390   1.716
10669SOL    HW232907   6.946   2.244   1.771
10670SOL     OW32908   4.880   4.619   4.076
10670SOL    HW132909   4.797   4.593   4.028
10670SOL    HW232910   4.865   4.614   4.174
10671SOL     OW32911   1.611   3.071   4.036
10671SOL    HW132912   1.695   3.019   4.021
10671SOL    HW232913   1.626   3.141   4.104
10672SOL     OW32914   6.254   5.103   1.628
10672SOL    HW132915   6.312   5.057   1.561
10672SOL    HW232916   6.211   5.035   1.687
10673SOL     OW32917   3.371   0.768   1.702
10673SOL    HW132918   3.377   0.686   1.759
10673SOL    HW232919   3.303   0.830   1.741
10674SOL     OW32920   3.860   3.391   3.900
10674SOL    HW132921   3.918   3.458   3.854
10674SOL    HW232922   3.799   3.349   3.833
10675SOL     OW32923   3.830   6.282   5.364
10675SOL    HW132924   3.916   6.287   5.413
10675SOL    HW232925   3.759   6.332   5.415
10676SOL     OW32926   1.388   1.516   4.892
10676SOL    HW132927   1.289   1.504   4.882
10676SOL    HW232928   1.418   1.591   4.833
10677SOL     OW32929   0.165   1.338   6.466
10677SOL    HW132930   0.227   1.260   6.481
10677SOL    HW232931   0.201   1.418   6.514
10678SOL     OW32932   3.476   4.891   2.854
10678SOL    HW132933   3.524   4.961   2.906
10678SOL    HW232934   3.540   4.844   2.794
10679SOL     OW32935   5.566   3.914   6.744
10679SOL    HW132936   5.584   4.001   6.698
10679SOL    HW232937   5.479   3.877   6.712
10680SOL     OW32938   3.826   1.758   4.951
10680SOL    HW132939   3.740   1.807   4.967
10680SOL    HW232940   3.833   1.736   4.853
10681SOL     OW32941   2.295   3.317   5.819
10681SOL    HW132942   2.258   3.226   5.836
10681SOL    HW232943   2.241   3.385   5.869
10682SOL     OW32944   5.315   3.169   6.347
10682SOL    HW132945   5.306   3.101   6.275
10682SOL    HW232946   5.232   3.171   6.402
10683SOL     OW32947   1.870   6.338   3.347
10683SOL    HW132948   1.815   6.261   3.380
10683SOL    HW232949   1.967   6.318   3.361
10684SOL     OW32950   5.104   3.615   1.180
10684SOL    HW132951   5.012   3.635   1.216
10684SOL    HW232952   5.106   3.522   1.145
10685SOL     OW32953   0.166   0.700   2.419
10685SOL    HW132954   0.221   0.737   2.345
10685SOL    HW232955   0.178   0.756   2.501
10686SOL     OW32956   2.399   2.394   6.765
10686SOL    HW132957   2.404   2.308   6.714
10686SOL    HW232958   2.330   2.387   6.836
10687SOL     OW32959   0.761   3.288   3.469
10687SOL    HW132960   0.729   3.379   3.494
10687SOL    HW232961   0.702   3.219   3.513
10688SOL     OW32962   5.037   1.414   3.391
10688SOL    HW132963   4.963   1.381   3.331
10688SOL    HW232964   5.020   1.384   3.484
10689SOL     OW32965   1.404   1.003   2.712
10689SOL    HW132966   1.421   0.946   2.631
10689SOL    HW232967   1.412   1.099   2.688
10690SOL     OW32968   1.287   6.063   4.786
10690SOL    HW132969   1.384   6.081   4.795
10690SOL    HW232970   1.235   6.146   4.806
10691SOL     OW32971   4.061   6.835   1.221
10691SOL    HW132972   3.975   6.788   1.237
10691SOL    HW232973   4.105   6.857   1.308
10692SOL     OW32974   2.883   2.254   4.031
10692SOL    HW132975   2.838   2.262   3.942
10692SOL    HW232976   2.982   2.264   4.019
10693SOL     OW32977   1.247   4.026   0.042
10693SOL    HW132978   1.335   4.064   0.014
10693SOL    HW232979   1.260   3.933   0.077
10694SOL     OW32980   4.625   2.316   5.769
10694SOL    HW132981   4.618   2.316   5.869
10694SOL    HW232982   4.560   2.250   5.731
10695SOL     OW32983   4.619   4.704   1.443
10695SOL    HW132984   4.641   4.800   1.460
10695SOL    HW232985   4.534   4.681   1.490
10696SOL     OW32986   6.785   5.234   4.483
10696SOL    HW132987   6.802   5.146   4.528
10696SOL    HW232988   6.861   5.255   4.422
10697SOL     OW32989   2.568   5.063   4.816
10697SOL    HW132990   2.576   5.129   4.890
10697SOL    HW232991   2.473   5.032   4.809
10698SOL     OW32992   4.261   4.534   6.902
10698SOL    HW132993   4.247   4.490   6.991
10698SOL    HW232994   4.351   4.509   6.866
10699SOL     OW32995   4.745   3.681   1.314
10699SOL    HW132996   4.773   3.593   1.353
10699SOL    HW232997   4.762   3.680   1.215
10700SOL     OW32998   4.882   0.256   1.219
10700SOL    HW132999   4.908   0.351   1.241
10700SOL    HW233000   4.806   0.229   1.277
10701SOL     OW33001   3.433   0.013   6.107
10701SOL    HW133002   3.380   0.098   6.097
10701SOL    HW233003   3.476   7.018   6.019
10702SOL     OW33004   5.849   2.784   2.245
10702SOL    HW133005   5.803   2.841   2.176
10702SOL    HW233006   5.883   2.700   2.201
10703SOL     OW33007   0.734   2.107   5.199
10703SOL    HW133008   0.824   2.063   5.202
10703SOL    HW233009   0.666   2.047   5.241
10704SOL     OW33010   5.362   0.084   2.203
10704SOL    HW133011   5.341   7.018   2.175
10704SOL    HW233012   5.397   0.083   2.297
10705SOL     OW33013   5.105   3.365   1.104
10705SOL    HW133014   5.025   3.344   1.048
10705SOL    HW233015   5.155   3.280   1.123
10706SOL     OW33016   2.839   1.186   1.771
10706SOL    HW133017   2.741   1.204   1.770
10706SOL    HW233018   2.857   1.103   1.824
10707SOL     OW33019   3.546   6.861   3.622
10707SOL    HW133020   3.638   6.892   3.597
10707SOL    HW233021   3.482   6.937   3.614
10708SOL     OW33022   3.907   1.289   1.246
10708SOL    HW133023   3.996   1.334   1.250
10708SOL    HW233024   3.840   1.343   1.297
10709SOL     OW33025   5.737   4.439   2.922
10709SOL    HW133026   5.681   4.460   3.002
10709SOL    HW233027   5.771   4.524   2.882
10710SOL     OW33028   4.303   1.697   3.041
10710SOL    HW133029   4.214   1.651   3.046
10710SOL    HW233030   4.361   1.651   2.974
10711SOL     OW33031   2.573   6.658   2.954
10711SOL    HW133032   2.532   6.669   3.044
10711SOL    HW233033   2.510   6.693   2.884
10712SOL     OW33034   5.452   1.347   3.764
10712SOL    HW133035   5.402   1.371   3.848
10712SOL    HW233036   5.416   1.261   3.727
10713SOL     OW33037   1.048   4.496   1.305
10713SOL    HW133038   1.023   4.410   1.262
10713SOL    HW233039   1.122   4.539   1.254
10714SOL     OW33040   3.090   4.075   4.970
10714SOL    HW133041   3.024   4.131   4.919
10714SOL    HW233042   3.084   4.097   5.067
10715SOL     OW33043   6.880   0.174   1.717
10715SOL    HW133044   6.919   0.085   1.693
10715SOL    HW233045   6.899   0.239   1.644
10716SOL     OW33046   4.710   0.601   2.845
10716SOL    HW133047   4.750   0.640   2.928
10716SOL    HW233048   4.635   0.659   2.814
10717SOL     OW33049   3.452   3.161   0.286
10717SOL    HW133050   3.530   3.112   0.247
10717SOL    HW233051   3.385   3.095   0.320
10718SOL     OW33052   1.410   4.868   6.422
10718SOL    HW133053   1.450   4.954   6.453
10718SOL    HW233054   1.311   4.870   6.437
10719SOL     OW33055   0.162   4.580   5.534
10719SOL    HW133056   0.082   4.636   5.512
10719SOL    HW233057   0.132   4.492   5.569
10720SOL     OW33058   6.472   5.406   2.946
10720SOL    HW133059   6.558   5.375   2.986
10720SOL    HW233060   6.443   5.341   2.876
10721SOL     OW33061   4.840   2.692   6.530
10721SOL    HW133062   4.890   2.705   6.615
10721SOL    HW233063   4.849   2.598   6.499
10722SOL     OW33064   0.354   4.086   5.882
10722SOL    HW133065   0.368   4.115   5.788
10722SOL    HW233066   0.418   4.013   5.905
10723SOL     OW33067   5.883   6.118   1.792
10723SOL    HW133068   5.815   6.168   1.737
10723SOL    HW233069   5.975   6.141   1.761
10724SOL     OW33070   0.355   6.285   6.059
10724SOL    HW133071   0.360   6.189   6.029
10724SOL    HW233072   0.411   6.297   6.141
10725SOL     OW33073   2.484   0.277   6.273
10725SOL    HW133074   2.456   0.205   6.336
10725SOL    HW233075   2.416   0.285   6.200
10726SOL     OW33076   3.698   0.688   4.153
10726SOL    HW133077   3.697   0.787   4.136
10726SOL    HW233078   3.729   0.641   4.070
10727SOL     OW33079   2.181   6.577   7.004
10727SOL    HW133080   2.230   6.651   6.959
10727SOL    HW233081   2.157   6.507   6.936
10728SOL     OW33082   5.309   6.482   2.069
10728SOL    HW133083   5.261   6.507   2.153
10728SOL    HW233084   5.362   6.560   2.037
10729SOL     OW33085   6.508   1.580   0.197
10729SOL    HW133086   6.554   1.599   0.284
10729SOL    HW233087   6.432   1.518   0.213
10730SOL     OW33088   5.012   0.349   3.063
10730SOL    HW133089   5.098   0.373   3.108
10730SOL    HW233090   4.936   0.391   3.112
10731SOL     OW33091   3.002   6.547   0.633
10731SOL    HW133092   3.079   6.491   0.604
10731SOL    HW233093   2.956   6.585   0.552
10732SOL     OW33094   0.477   3.343   6.032
10732SOL    HW133095   0.464   3.246   6.010
10732SOL    HW233096   0.459   3.398   5.951
10733SOL     OW33097   6.590   0.167   0.010
10733SOL    HW133098   6.573   0.256   6.995
10733SOL    HW233099   6.510   0.140   0.064
10734SOL     OW33100   5.685   2.760   1.851
10734SOL    HW133101   5.686   2.756   1.752
10734SOL    HW233102   5.669   2.669   1.888
10735SOL     OW33103   6.995   5.430   2.355
10735SOL    HW133104   6.956   5.410   2.265
10735SOL    HW233105   6.950   5.373   2.424
10736SOL     OW33106   2.270   1.477   5.254
10736SOL    HW133107   2.184   1.507   5.294
10736SOL    HW233108   2.339   1.548   5.268
10737SOL     OW33109   0.418   1.591   5.725
10737SOL    HW133110   0.414   1.548   5.635
10737SOL    HW233111   0.325   1.614   5.755
10738SOL     OW33112   4.019   6.953   4.318
10738SOL    HW133113   4.081   7.016   4.271
10738SOL    HW233114   3.929   6.955   4.275
10739SOL     OW33115   1.160   1.148   1.975
10739SOL    HW133116   1.131   1.074   2.036
10739SOL    HW233117   1.084   1.173   1.914
10740SOL     OW33118   4.295   6.187   3.934
10740SOL    HW133119   4.227   6.114   3.945
10740SOL    HW233120   4.381   6.159   3.975
10741SOL     OW33121   2.078   1.017   2.611
10741SOL    HW133122   2.016   0.957   2.662
10741SOL    HW233123   2.145   1.057   2.674
10742SOL     OW33124   6.198   5.611   0.111
10742SOL    HW133125   6.199   5.669   0.029
10742SOL    HW233126   6.169   5.519   0.087
10743SOL     OW33127   3.438   0.986   5.028
10743SOL    HW133128   3.448   0.954   4.933
10743SOL    HW233129   3.520   0.961   5.080
10744SOL     OW33130   5.533   0.988   0.281
10744SOL    HW133131   5.541   0.978   0.381
10744SOL    HW233132   5.622   1.017   0.244
10745SOL     OW33133   6.397   5.983   6.194
10745SOL    HW133134   6.469   6.046   6.224
10745SOL    HW233135   6.431   5.927   6.118
10746SOL     OW33136   1.680   4.010   5.571
10746SOL    HW133137   1.688   3.970   5.479
10746SOL    HW233138   1.763   3.990   5.623
10747SOL     OW33139   2.816   2.432   5.368
10747SOL    HW133140   2.786   2.457   5.276
10747SOL    HW233141   2.916   2.419   5.368
10748SOL     OW33142   5.431   1.574   2.720
10748SOL    HW133143   5.454   1.611   2.630
10748SOL    HW233144   5.351   1.514   2.712
10749SOL     OW33145   3.769   0.712   0.195
10749SOL    HW133146   3.801   0.664   0.277
10749SOL    HW233147   3.754   0.808   0.217
10750SOL     OW33148   4.793   5.902   6.766
10750SOL    HW133149   4.746   5.991   6.771
10750SOL    HW233150   4.859   5.903   6.691
10751SOL     OW33151   2.640   5.879   2.854
10751SOL    HW133152   2.613   5.783   2.862
10751SOL    HW233153   2.614   5.912   2.763
10752SOL     OW33154   4.823   5.655   4.305
10752SOL    HW133155   4.733   5.672   4.264
10752SOL    HW233156   4.817   5.665   4.404
10753SOL     OW33157   5.665   3.910   4.536
10753SOL    HW133158   5.752   3.957   4.541
10753SOL    HW233159   5.596   3.970   4.494
10754SOL     OW33160   0.950   6.736   2.474
10754SOL    HW133161   0.995   6.663   2.424
10754SOL    HW233162   0.899   6.794   2.410
10755SOL     OW33163   6.149   6.112   1.671
10755SOL    HW133164   6.199   6.080   1.591
10755SOL    HW233165   6.190   6.197   1.704
10756SOL     OW33166   6.877   6.909   4.749
10756SOL    HW133167   6.975   6.912   4.769
10756SOL    HW233168   6.849   6.993   4.703
10757SOL     OW33169   2.622   2.716   1.719
10757SOL    HW133170   2.650   2.624   1.749
10757SOL    HW233171   2.523   2.723   1.722
10758SOL     OW33172   6.695   5.369   4.136
10758SOL    HW133173   6.621   5.340   4.197
10758SOL    HW233174   6.781   5.330   4.168
10759SOL     OW33175   6.786   0.638   6.490
10759SOL    HW133176   6.883   0.638   6.467
10759SOL    HW233177   6.743   0.721   6.455
10760SOL     OW33178   5.717   2.083   4.378
10760SOL    HW133179   5.772   1.999   4.383
10760SOL    HW233180   5.635   2.072   4.434
10761SOL     OW33181   3.751   5.468   5.690
10761SOL    HW133182   3.689   5.495   5.764
10761SOL    HW233183   3.816   5.542   5.672
10762SOL     OW33184   3.337   0.853   6.356
10762SOL    HW133185   3.274   0.791   6.403
10762SOL    HW233186   3.347   0.936   6.410
10763SOL     OW33187   4.741   5.141   4.097
10763SOL    HW133188   4.663   5.171   4.152
10763SOL    HW233189   4.750   5.041   4.104
10764SOL     OW33190   5.394   0.334   4.457
10764SOL    HW133191   5.310   0.345   4.509
10764SOL    HW233192   5.471   0.370   4.510
10765SOL     OW33193   0.172   3.968   0.072
10765SOL    HW133194   0.078   3.934   0.074
10765SOL    HW233195   0.173   4.064   0.102
10766SOL     OW33196   2.957   3.829   2.315
10766SOL    HW133197   3.000   3.739   2.316
10766SOL    HW233198   2.893   3.834   2.238
10767SOL     OW33199   4.341   2.048   2.112
10767SOL    HW133200   4.427   2.074   2.069
10767SOL    HW233201   4.273   2.119   2.096
10768SOL     OW33202   6.031   4.602   6.323
10768SOL    HW133203   6.126   4.627   6.304
10768SOL    HW233204   6.002   4.529   6.261
10769SOL     OW33205   2.052   3.488   4.293
10769SOL    HW133206   1.952   3.495   4.291
10769SOL    HW233207   2.091   3.567   4.247
10770SOL     OW33208   4.526   5.862   4.055
10770SOL    HW133209   4.530   5.959   4.077
10770SOL    HW233210   4.570   5.846   3.967
10771SOL     OW33211   2.803   2.333   3.801
10771SOL    HW133212   2.888   2.328   3.749
10771SOL    HW233213   2.728   2.295   3.747
10772SOL     OW33214   5.088   6.191   3.625
10772SOL    HW133215   5.080   6.243   3.540
10772SOL    HW233216   5.150   6.239   3.687
10773SOL     OW33217   6.163   5.386   2.813
10773SOL    HW133218   6.243   5.328   2.798
10773SOL    HW233219   6.085   5.350   2.763
10774SOL     OW33220   0.233   6.957   3.518
10774SOL    HW133221   0.252   0.026   3.496
10774SOL    HW233222   0.137   6.947   3.543
10775SOL     OW33223   0.112   2.484   1.046
10775SOL    HW133224   0.097   2.440   1.134
10775SOL    HW233225   0.093   2.582   1.054
10776SOL     OW33226   2.180   0.518   5.263
10776SOL    HW133227   2.230   0.572   5.331
10776SOL    HW233228   2.215   0.538   5.171
10777SOL     OW33229   3.521   5.677   1.689
10777SOL    HW133230   3.613   5.651   1.661
10777SOL    HW233231   3.470   5.708   1.608
10778SOL     OW33232   5.536   5.752   1.753
10778SOL    HW133233   5.595   5.767   1.832
10778SOL    HW233234   5.501   5.839   1.719
10779SOL     OW33235   4.997   3.097   3.607
10779SOL    HW133236   5.082   3.148   3.616
10779SOL    HW233237   4.952   3.122   3.521
10780SOL     OW33238   6.775   0.277   2.215
10780SOL    HW133239   6.760   0.362   2.265
10780SOL    HW233240   6.688   0.233   2.195
10781SOL     OW33241   3.063   0.539   4.216
10781SOL    HW133242   3.126   0.527   4.139
10781SOL    HW233243   2.969   0.543   4.182
10782SOL     OW33244   0.051   5.912   3.280
10782SOL    HW133245   7.010   5.984   3.268
10782SOL    HW233246   0.121   5.920   3.209
10783SOL     OW33247   6.471   2.850   2.664
10783SOL    HW133248   6.471   2.905   2.747
10783SOL    HW233249   6.381   2.853   2.621
10784SOL     OW33250   1.822   1.828   5.075
10784SOL    HW133251   1.893   1.892   5.106
10784SOL    HW233252   1.758   1.810   5.150
10785SOL     OW33253   1.862   3.465   6.157
10785SOL    HW133254   1.785   3.463   6.094
10785SOL    HW233255   1.869   3.556   6.199
10786SOL     OW33256   6.890   4.867   4.665
10786SOL    HW133257   6.966   4.821   4.710
10786SOL    HW233258   6.894   4.849   4.566
10787SOL     OW33259   1.598   2.049   5.848
10787SOL    HW133260   1.684   2.099   5.839
10787SOL    HW233261   1.521   2.113   5.840
10788SOL     OW33262   5.652   3.958   6.324
10788SOL    HW133263   5.690   3.892   6.259
10788SOL    HW233264   5.590   4.020   6.277
10789SOL     OW33265   4.613   0.783   6.290
10789SOL    HW133266   4.554   0.794   6.370
10789SOL    HW233267   4.558   0.781   6.207
10790SOL     OW33268   5.434   0.126   2.456
10790SOL    HW133269   5.374   0.048   2.472
10790SOL    HW233270   5.516   0.116   2.512
10791SOL     OW33271   0.683   5.728   2.882
10791SOL    HW133272   0.689   5.648   2.822
10791SOL    HW233273   0.647   5.805   2.830
10792SOL     OW33274   4.494   4.900   6.504
10792SOL    HW133275   4.399   4.878   6.482
10792SOL    HW233276   4.524   4.845   6.582
10793SOL     OW33277   5.315   4.330   4.512
10793SOL    HW133278   5.309   4.267   4.590
10793SOL    HW233279   5.344   4.280   4.431
10794SOL     OW33280   3.358   3.236   4.341
10794SOL    HW133281   3.446   3.282   4.335
10794SOL    HW233282   3.366   3.155   4.399
10795SOL     OW33283   6.938   4.630   2.709
10795SOL    HW133284   6.906   4.716   2.749
10795SOL    HW233285   6.944   4.639   2.610
10796SOL     OW33286   1.001   6.662   5.561
10796SOL    HW133287   1.075   6.698   5.504
10796SOL    HW233288   0.923   6.724   5.559
10797SOL     OW33289   3.435   2.706   0.249
10797SOL    HW133290   3.405   2.770   0.178
10797SOL    HW233291   3.404   2.613   0.225
10798SOL     OW33292   5.737   1.312   0.752
10798SOL    HW133293   5.832   1.300   0.723
10798SOL    HW233294   5.677   1.293   0.674
10799SOL     OW33295   5.158   1.547   1.208
10799SOL    HW133296   5.152   1.548   1.308
10799SOL    HW233297   5.163   1.452   1.176
10800SOL     OW33298   6.155   6.827   1.537
10800SOL    HW133299   6.191   6.891   1.605
10800SOL    HW233300   6.232   6.779   1.493
10801SOL     OW33301   2.333   0.673   1.234
10801SOL    HW133302   2.328   0.623   1.321
10801SOL    HW233303   2.427   0.701   1.217
10802SOL     OW33304   5.062   1.400   3.884
10802SOL    HW133305   4.990   1.465   3.857
10802SOL    HW233306   5.150   1.448   3.888
10803SOL     OW33307   2.297   4.988   4.832
10803SOL    HW133308   2.316   4.903   4.784
10803SOL    HW233309   2.244   5.050   4.774
10804SOL     OW33310   5.996   3.248   4.175
10804SOL    HW133311   6.088   3.215   4.194
10804SOL    HW233312   5.934   3.170   4.166
10805SOL     OW33313   6.893   6.643   6.535
10805SOL    HW133314   6.882   6.683   6.444
10805SOL    HW233315   6.963   6.693   6.586
10806SOL     OW33316   2.028   5.186   1.334
10806SOL    HW133317   2.087   5.212   1.411
10806SOL    HW233318   2.012   5.266   1.276
10807SOL     OW33319   3.212   5.132   5.116
10807SOL    HW133320   3.271   5.212   5.110
10807SOL    HW233321   3.158   5.137   5.200
10808SOL     OW33322   2.043   2.941   0.339
10808SOL    HW133323   1.975   2.874   0.308
10808SOL    HW233324   2.054   3.012   0.269
10809SOL     OW33325   1.588   1.050   4.797
10809SOL    HW133326   1.597   1.141   4.756
10809SOL    HW233327   1.576   1.058   4.896
10810SOL     OW33328   0.013   0.184   3.265
10810SOL    HW133329   7.014   0.211   3.172
10810SOL    HW233330   6.971   0.217   3.329
10811SOL     OW33331   4.779   5.647   5.002
10811SOL    HW133332   4.714   5.674   5.072
10811SOL    HW233333   4.801   5.726   4.945
10812SOL     OW33334   0.454   2.676   1.072
10812SOL    HW133335   0.425   2.634   0.985
10812SOL    HW233336   0.543   2.719   1.059
10813SOL     OW33337   1.340   3.518   6.571
10813SOL    HW133338   1.422   3.571   6.550
10813SOL    HW233339   1.363   3.422   6.580
10814SOL     OW33340   3.152   1.865   2.494
10814SOL    HW133341   3.193   1.826   2.576
10814SOL    HW233342   3.207   1.941   2.462
10815SOL     OW33343   5.494   1.361   4.567
10815SOL    HW133344   5.558   1.394   4.636
10815SOL    HW233345   5.407   1.410   4.575
10816SOL     OW33346   2.928   2.577   5.799
10816SOL    HW133347   2.897   2.502   5.856
10816SOL    HW233348   2.862   2.652   5.803
10817SOL     OW33349   1.988   6.332   4.938
10817SOL    HW133350   2.006   6.235   4.952
10817SOL    HW233351   1.905   6.343   4.884
10818SOL     OW33352   4.938   4.137   0.796
10818SOL    HW133353   4.891   4.067   0.743
10818SOL    HW233354   4.875   4.212   0.815
10819SOL     OW33355   6.631   5.598   5.520
10819SOL    HW133356   6.684   5.604   5.605
10819SOL    HW233357   6.688   5.558   5.448
10820SOL     OW33358   1.412   4.921   6.103
10820SOL    HW133359   1.378   4.946   6.012
10820SOL    HW233360   1.445   4.827   6.101
10821SOL     OW33361   4.291   5.549   4.186
10821SOL    HW133362   4.318   5.584   4.096
10821SOL    HW233363   4.205   5.499   4.178
10822SOL     OW33364   5.327   0.118   2.944
10822SOL    HW133365   5.389   0.073   3.008
10822SOL    HW233366   5.322   0.064   2.860
10823SOL     OW33367   5.676   6.649   2.654
10823SOL    HW133368   5.632   6.595   2.726
10823SOL    HW233369   5.671   6.746   2.677
10824SOL     OW33370   1.994   1.932   3.983
10824SOL    HW133371   1.967   2.024   4.010
10824SOL    HW233372   2.073   1.903   4.037
10825SOL     OW33373   6.814   1.201   6.997
10825SOL    HW133374   6.754   1.252   0.031
10825SOL    HW233375   6.797   1.229   6.903
10826SOL     OW33376   6.621   3.692   2.878
10826SOL    HW133377   6.532   3.648   2.865
10826SOL    HW233378   6.647   3.739   2.793
10827SOL     OW33379   0.572   2.959   3.117
10827SOL    HW133380   0.549   3.047   3.159
10827SOL    HW233381   0.671   2.947   3.119
10828SOL     OW33382   6.906   4.233   5.026
10828SOL    HW133383   7.002   4.208   5.040
10828SOL    HW233384   6.892   4.259   4.930
10829SOL     OW33385   3.961   2.973   5.395
10829SOL    HW133386   3.879   3.017   5.430
10829SOL    HW233387   3.949   2.873   5.396
10830SOL     OW33388   5.058   2.045   3.797
10830SOL    HW133389   5.065   1.949   3.770
10830SOL    HW233390   5.144   2.075   3.838
10831SOL     OW33391   4.236   0.076   3.161
10831SOL    HW133392   4.215   0.162   3.208
10831SOL    HW233393   4.300   0.094   3.086
10832SOL     OW33394   0.061   4.064   6.304
10832SOL    HW133395   7.006   4.121   6.300
10832SOL    HW233396   0.087   4.050   6.400
10833SOL     OW33397   0.927   0.970   6.354
10833SOL    HW133398   1.000   0.966   6.285
10833SOL    HW233399   0.907   1.066   6.375
10834SOL     OW33400   6.896   6.136   2.328
10834SOL    HW133401   6.995   6.146   2.335
10834SOL    HW233402   6.866   6.064   2.390
10835SOL     OW33403   0.114   2.625   5.456
10835SOL    HW133404   0.101   2.641   5.554
10835SOL    HW233405   0.026   2.623   5.411
10836SOL     OW33406   6.494   2.229   3.378
10836SOL    HW133407   6.489   2.258   3.282
10836SOL    HW233408   6.549   2.293   3.430
10837SOL     OW33409   0.590   3.095   3.578
10837SOL    HW133410   0.678   3.048   3.568
10837SOL    HW233411   0.522   3.031   3.615
10838SOL     OW33412   0.040   6.769   2.463
10838SOL    HW133413   0.021   6.722   2.549
10838SOL    HW233414   0.044   6.867   2.479
10839SOL     OW33415   4.366   2.194   6.732
10839SOL    HW133416   4.408   2.217   6.644
10839SOL    HW233417   4.321   2.105   6.724
10840SOL     OW33418   3.029   0.528   2.051
10840SOL    HW133419   2.944   0.580   2.063
10840SOL    HW233420   3.104   0.576   2.096
10841SOL     OW33421   2.582   5.794   4.134
10841SOL    HW133422   2.580   5.881   4.084
10841SOL    HW233423   2.642   5.730   4.085
10842SOL     OW33424   6.766   4.685   1.938
10842SOL    HW133425   6.690   4.723   1.884
10842SOL    HW233426   6.851   4.732   1.915
10843SOL     OW33427   2.488   1.429   1.047
10843SOL    HW133428   2.430   1.398   1.122
10843SOL    HW233429   2.435   1.426   0.962
10844SOL     OW33430   1.777   5.479   4.274
10844SOL    HW133431   1.802   5.535   4.194
10844SOL    HW233432   1.678   5.468   4.277
10845SOL     OW33433   3.913   0.655   4.339
10845SOL    HW133434   3.838   0.692   4.285
10845SOL    HW233435   3.996   0.708   4.324
10846SOL     OW33436   5.537   6.838   6.150
10846SOL    HW133437   5.475   6.814   6.075
10846SOL    HW233438   5.506   6.923   6.193
10847SOL     OW33439   3.386   0.131   6.702
10847SOL    HW133440   3.402   0.140   6.604
10847SOL    HW233441   3.463   0.086   6.745
10848SOL     OW33442   1.672   2.616   2.367
10848SOL    HW133443   1.608   2.689   2.392
10848SOL    HW233444   1.736   2.601   2.443
10849SOL     OW33445   0.988   6.821   3.433
10849SOL    HW133446   0.940   6.734   3.429
10849SOL    HW233447   1.014   6.841   3.528
10850SOL     OW33448   4.868   4.205   7.021
10850SOL    HW133449   4.881   4.277   6.953
10850SOL    HW233450   4.895   4.117   6.981
10851SOL     OW33451   1.337   4.406   0.959
10851SOL    HW133452   1.341   4.391   1.057
10851SOL    HW233453   1.426   4.439   0.926
10852SOL     OW33454   2.758   0.622   1.480
10852SOL    HW133455   2.832   0.558   1.458
10852SOL    HW233456   2.789   0.716   1.464
10853SOL     OW33457   3.187   0.672   6.500
10853SOL    HW133458   3.094   0.682   6.464
10853SOL    HW233459   3.207   0.575   6.513
10854SOL     OW33460   2.944   6.505   5.898
10854SOL    HW133461   2.874   6.442   5.864
10854SOL    HW233462   2.978   6.472   5.986
10855SOL     OW33463   4.424   0.751   6.516
10855SOL    HW133464   4.336   0.787   6.485
10855SOL    HW233465   4.411   0.699   6.600
10856SOL     OW33466   0.451   0.504   0.725
10856SOL    HW133467   0.421   0.490   0.820
10856SOL    HW233468   0.518   0.578   0.723
10857SOL     OW33469   5.856   1.377   1.224
10857SOL    HW133470   5.828   1.447   1.159
10857SOL    HW233471   5.886   1.421   1.309
10858SOL     OW33472   2.147   6.380   2.057
10858SOL    HW133473   2.233   6.405   2.103
10858SOL    HW233474   2.072   6.435   2.094
10859SOL     OW33475   2.033   4.618   3.691
10859SOL    HW133476   1.996   4.538   3.738
10859SOL    HW233477   2.039   4.599   3.593
10860SOL     OW33478   0.913   3.377   2.966
10860SOL    HW133479   0.909   3.345   3.060
10860SOL    HW233480   0.975   3.455   2.959
10861SOL     OW33481   4.425   3.340   5.420
10861SOL    HW133482   4.451   3.262   5.364
10861SOL    HW233483   4.403   3.309   5.512
10862SOL     OW33484   1.170   0.475   5.633
10862SOL    HW133485   1.096   0.511   5.690
10862SOL    HW233486   1.244   0.442   5.691
10863SOL     OW33487   1.614   6.784   4.185
10863SOL    HW133488   1.598   6.823   4.094
10863SOL    HW233489   1.697   6.728   4.183
10864SOL     OW33490   3.156   0.069   4.110
10864SOL    HW133491   3.065   0.084   4.072
10864SOL    HW233492   3.222   0.063   4.036
10865SOL     OW33493   6.702   0.589   5.852
10865SOL    HW133494   6.746   0.678   5.861
10865SOL    HW233495   6.604   0.598   5.874
10866SOL     OW33496   6.690   4.964   6.990
10866SOL    HW133497   6.716   4.882   0.013
10866SOL    HW233498   6.748   4.972   6.909
10867SOL     OW33499   3.001   1.428   0.121
10867SOL    HW133500   3.011   1.342   0.171
10867SOL    HW233501   3.007   1.505   0.184
10868SOL     OW33502   2.016   2.538   3.855
10868SOL    HW133503   1.996   2.482   3.774
10868SOL    HW233504   2.114   2.531   3.875
10869NA      NA33505   6.798   2.444   5.286
10870NA      NA33506   4.481   4.552   5.190
10871NA      NA33507   2.041   3.412   1.896
10872NA      NA33508   4.922   3.517   4.767
10873NA      NA33509   4.311   2.383   5.261
10874NA      NA33510   3.738   4.954   2.074
10875NA      NA33511   6.640   6.312   4.874
10876NA      NA33512   3.617   3.243   5.105
10877NA      NA33513   4.705   6.128   6.188
10878NA      NA33514   2.786   6.738   4.773
10879NA      NA33515   0.379   4.837   3.246
10880NA      NA33516   2.001   0.665   2.036
10881NA      NA33517   4.125   4.188   1.174
10882NA      NA33518   3.796   3.410   3.270
   7.02722   7.02722   7.02722
