Generated by trjconv : CNT in water t= 134.00000
33518
    1C        C    1   2.840   2.769   4.748
    1C        C    2   2.897   2.717   4.867
    1C        C    3   2.840   2.768   4.984
    1C        C    4   2.851   2.772   4.261
    1C        C    5   2.902   2.725   4.384
    1C        C    6   2.843   2.770   4.504
    1C        C    7   3.011   2.642   4.626
    1C        C    8   2.894   2.722   4.626
    1C        C    9   3.074   2.599   4.745
    1C        C   10   3.009   2.631   4.866
    1C        C   11   3.182   2.492   4.975
    1C        C   12   3.060   2.561   4.976
    1C        C   13   2.846   2.766   3.774
    1C        C   14   2.897   2.717   3.896
    1C        C   15   2.844   2.771   4.016
    1C        C   16   3.016   2.644   4.141
    1C        C   17   2.899   2.723   4.137
    1C        C   18   3.081   2.611   4.262
    1C        C   19   3.017   2.643   4.384
    1C        C   20   3.210   2.559   4.502
    1C        C   21   3.078   2.610   4.507
    1C        C   22   3.277   2.535   4.624
    1C        C   23   3.208   2.551   4.746
    1C        C   24   3.413   2.484   4.865
    1C        C   25   3.272   2.505   4.864
    1C        C   26   3.490   2.486   4.983
    1C        C   27   2.846   2.761   3.282
    1C        C   28   2.899   2.717   3.405
    1C        C   29   2.851   2.768   3.528
    1C        C   30   3.013   2.635   3.650
    1C        C   31   2.899   2.718   3.652
    1C        C   32   3.074   2.602   3.773
    1C        C   33   3.014   2.639   3.896
    1C        C   34   3.211   2.561   4.013
    1C        C   35   3.078   2.609   4.019
    1C        C   36   3.276   2.538   4.136
    1C        C   37   3.212   2.559   4.260
    1C        C   38   3.419   2.509   4.380
    1C        C   39   3.281   2.541   4.382
    1C        C   40   3.487   2.505   4.504
    1C        C   41   3.415   2.503   4.626
    1C        C   42   3.630   2.482   4.744
    1C        C   43   3.488   2.480   4.744
    1C        C   44   3.705   2.483   4.863
    1C        C   45   3.629   2.478   4.980
    1C        C   46   2.835   2.748   2.794
    1C        C   47   2.892   2.703   2.916
    1C        C   48   2.845   2.760   3.036
    1C        C   49   3.022   2.647   3.160
    1C        C   50   2.902   2.721   3.159
    1C        C   51   3.078   2.602   3.282
    1C        C   52   3.016   2.638   3.404
    1C        C   53   3.206   2.549   3.527
    1C        C   54   3.076   2.604   3.527
    1C        C   55   3.276   2.526   3.648
    1C        C   56   3.206   2.550   3.768
    1C        C   57   3.415   2.513   3.894
    1C        C   58   3.275   2.535   3.890
    1C        C   59   3.488   2.507   4.015
    1C        C   60   3.415   2.511   4.136
    1C        C   61   3.627   2.501   4.259
    1C        C   62   3.486   2.495   4.257
    1C        C   63   3.698   2.510   4.381
    1C        C   64   3.628   2.502   4.503
    1C        C   65   3.836   2.545   4.622
    1C        C   66   3.701   2.502   4.623
    1C        C   67   3.906   2.566   4.743
    1C        C   68   3.840   2.525   4.861
    1C        C   69   4.052   2.583   4.981
    1C        C   70   3.923   2.527   4.973
    1C        C   71   2.827   2.739   2.307
    1C        C   72   2.885   2.696   2.429
    1C        C   73   2.831   2.744   2.550
    1C        C   74   3.003   2.621   2.671
    1C        C   75   2.885   2.699   2.672
    1C        C   76   3.071   2.592   2.791
    1C        C   77   3.011   2.628   2.915
    1C        C   78   3.208   2.551   3.037
    1C        C   79   3.078   2.605   3.037
    1C        C   80   3.277   2.532   3.159
    1C        C   81   3.206   2.542   3.281
    1C        C   82   3.413   2.507   3.402
    1C        C   83   3.273   2.528   3.404
    1C        C   84   3.482   2.501   3.525
    1C        C   85   3.415   2.502   3.649
    1C        C   86   3.626   2.509   3.769
    1C        C   87   3.485   2.502   3.772
    1C        C   88   3.697   2.516   3.891
    1C        C   89   3.629   2.510   4.015
    1C        C   90   3.834   2.553   4.136
    1C        C   91   3.699   2.513   4.138
    1C        C   92   3.903   2.573   4.258
    1C        C   93   3.835   2.545   4.378
    1C        C   94   4.031   2.627   4.499
    1C        C   95   3.904   2.565   4.500
    1C        C   96   4.095   2.666   4.618
    1C        C   97   4.032   2.631   4.740
    1C        C   98   4.186   2.766   4.862
    1C        C   99   4.096   2.654   4.865
    1C        C  100   4.208   2.842   4.977
    1C        C  101   2.822   2.728   2.070
    1C        C  102   2.990   2.591   2.189
    1C        C  103   2.876   2.678   2.189
    1C        C  104   3.062   2.571   2.310
    1C        C  105   3.003   2.618   2.429
    1C        C  106   3.201   2.538   2.550
    1C        C  107   3.069   2.588   2.550
    1C        C  108   3.271   2.527   2.672
    1C        C  109   3.202   2.541   2.795
    1C        C  110   3.412   2.499   2.913
    1C        C  111   3.272   2.517   2.916
    1C        C  112   3.485   2.500   3.034
    1C        C  113   3.417   2.512   3.157
    1C        C  114   3.626   2.500   3.280
    1C        C  115   3.485   2.501   3.280
    1C        C  116   3.695   2.512   3.403
    1C        C  117   3.623   2.509   3.525
    1C        C  118   3.833   2.546   3.645
    1C        C  119   3.695   2.518   3.646
    1C        C  120   3.901   2.568   3.768
    1C        C  121   3.835   2.543   3.890
    1C        C  122   4.024   2.638   4.012
    1C        C  123   3.899   2.573   4.012
    1C        C  124   4.088   2.673   4.134
    1C        C  125   4.030   2.635   4.257
    1C        C  126   4.201   2.760   4.377
    1C        C  127   4.091   2.672   4.379
    1C        C  128   4.251   2.814   4.498
    1C        C  129   4.196   2.764   4.618
    1C        C  130   4.326   2.932   4.740
    1C        C  131   4.240   2.818   4.741
    1C        C  132   4.358   2.997   4.861
    1C        C  133   4.288   2.956   4.974
    1C        C  134   3.174   2.470   2.079
    1C        C  135   3.039   2.508   2.083
    1C        C  136   3.259   2.486   2.189
    1C        C  137   3.193   2.514   2.310
    1C        C  138   3.407   2.484   2.426
    1C        C  139   3.267   2.504   2.430
    1C        C  140   3.480   2.490   2.547
    1C        C  141   3.410   2.500   2.669
    1C        C  142   3.623   2.503   2.790
    1C        C  143   3.482   2.496   2.790
    1C        C  144   3.694   2.511   2.912
    1C        C  145   3.626   2.497   3.035
    1C        C  146   3.834   2.537   3.153
    1C        C  147   3.697   2.505   3.158
    1C        C  148   3.898   2.566   3.276
    1C        C  149   3.832   2.547   3.400
    1C        C  150   4.027   2.628   3.523
    1C        C  151   3.899   2.570   3.522
    1C        C  152   4.089   2.664   3.645
    1C        C  153   4.025   2.636   3.767
    1C        C  154   4.200   2.756   3.888
    1C        C  155   4.083   2.677   3.889
    1C        C  156   4.252   2.803   4.011
    1C        C  157   4.201   2.758   4.134
    1C        C  158   4.341   2.919   4.253
    1C        C  159   4.254   2.807   4.255
    1C        C  160   4.383   2.978   4.374
    1C        C  161   4.339   2.925   4.497
    1C        C  162   4.443   3.110   4.616
    1C        C  163   4.371   2.989   4.619
    1C        C  164   4.472   3.179   4.736
    1C        C  165   4.434   3.117   4.857
    1C        C  166   4.509   3.317   4.971
    1C        C  167   4.480   3.181   4.972
    1C        C  168   3.477   2.445   2.073
    1C        C  169   3.399   2.462   2.189
    1C        C  170   3.620   2.466   2.306
    1C        C  171   3.478   2.467   2.305
    1C        C  172   3.693   2.490   2.424
    1C        C  173   3.621   2.499   2.546
    1C        C  174   3.831   2.536   2.667
    1C        C  175   3.693   2.505   2.668
    1C        C  176   3.900   2.558   2.788
    1C        C  177   3.832   2.540   2.911
    1C        C  178   4.031   2.619   3.032
    1C        C  179   3.902   2.562   3.032
    1C        C  180   4.090   2.658   3.155
    1C        C  181   4.025   2.628   3.276
    1C        C  182   4.199   2.747   3.399
    1C        C  183   4.087   2.661   3.399
    1C        C  184   4.248   2.800   3.521
    1C        C  185   4.201   2.750   3.644
    1C        C  186   4.341   2.910   3.767
    1C        C  187   4.256   2.797   3.765
    1C        C  188   4.377   2.973   3.888
    1C        C  189   4.338   2.916   4.010
    1C        C  190   4.442   3.104   4.128
    1C        C  191   4.381   2.976   4.131
    1C        C  192   4.467   3.171   4.249
    1C        C  193   4.444   3.105   4.372
    1C        C  194   4.501   3.313   4.490
    1C        C  195   4.468   3.175   4.493
    1C        C  196   4.515   3.385   4.610
    1C        C  197   4.509   3.316   4.733
    1C        C  198   4.551   3.531   4.847
    1C        C  199   4.532   3.389   4.853
    1C        C  200   4.578   3.617   4.958
    1C        C  201   3.614   2.419   2.071
    1C        C  202   3.825   2.516   2.182
    1C        C  203   3.691   2.465   2.183
    1C        C  204   3.898   2.543   2.301
    1C        C  205   3.830   2.522   2.423
    1C        C  206   4.022   2.620   2.543
    1C        C  207   3.897   2.555   2.543
    1C        C  208   4.086   2.656   2.664
    1C        C  209   4.025   2.623   2.787
    1C        C  210   4.200   2.743   2.909
    1C        C  211   4.088   2.657   2.909
    1C        C  212   4.251   2.792   3.031
    1C        C  213   4.205   2.741   3.155
    1C        C  214   4.338   2.905   3.274
    1C        C  215   4.254   2.792   3.277
    1C        C  216   4.374   2.967   3.396
    1C        C  217   4.334   2.913   3.521
    1C        C  218   4.435   3.097   3.640
    1C        C  219   4.374   2.970   3.643
    1C        C  220   4.459   3.167   3.761
    1C        C  221   4.439   3.100   3.885
    1C        C  222   4.499   3.306   4.004
    1C        C  223   4.468   3.168   4.005
    1C        C  224   4.513   3.379   4.125
    1C        C  225   4.503   3.308   4.247
    1C        C  226   4.513   3.523   4.367
    1C        C  227   4.509   3.382   4.367
    1C        C  228   4.511   3.598   4.486
    1C        C  229   4.522   3.526   4.607
    1C        C  230   4.495   3.741   4.726
    1C        C  231   4.530   3.603   4.726
    1C        C  232   4.489   3.818   4.843
    1C        C  233   4.535   3.751   4.957
    1C        C  234   4.018   2.611   2.059
    1C        C  235   3.896   2.544   2.065
    1C        C  236   4.084   2.647   2.178
    1C        C  237   4.025   2.606   2.299
    1C        C  238   4.201   2.731   2.420
    1C        C  239   4.087   2.646   2.420
    1C        C  240   4.252   2.782   2.541
    1C        C  241   4.201   2.738   2.665
    1C        C  242   4.336   2.903   2.786
    1C        C  243   4.253   2.789   2.786
    1C        C  244   4.379   2.961   2.907
    1C        C  245   4.340   2.901   3.029
    1C        C  246   4.437   3.089   3.148
    1C        C  247   4.378   2.961   3.151
    1C        C  248   4.457   3.156   3.271
    1C        C  249   4.434   3.095   3.396
    1C        C  250   4.492   3.299   3.512
    1C        C  251   4.462   3.161   3.517
    1C        C  252   4.502   3.370   3.634
    1C        C  253   4.493   3.303   3.759
    1C        C  254   4.516   3.514   3.877
    1C        C  255   4.511   3.373   3.880
    1C        C  256   4.512   3.586   3.999
    1C        C  257   4.522   3.519   4.123
    1C        C  258   4.488   3.732   4.242
    1C        C  259   4.511   3.592   4.244
    1C        C  260   4.467   3.805   4.361
    1C        C  261   4.482   3.737   4.484
    1C        C  262   4.418   3.940   4.603
    1C        C  263   4.467   3.807   4.605
    1C        C  264   4.400   4.009   4.724
    1C        C  265   4.428   3.946   4.847
    1C        C  266   4.314   4.127   4.960
    1C        C  267   4.390   4.011   4.966
    1C        C  268   4.259   2.775   2.064
    1C        C  269   4.199   2.729   2.182
    1C        C  270   4.352   2.885   2.300
    1C        C  271   4.262   2.775   2.300
    1C        C  272   4.385   2.950   2.421
    1C        C  273   4.343   2.891   2.542
    1C        C  274   4.445   3.081   2.662
    1C        C  275   4.376   2.958   2.662
    1C        C  276   4.471   3.153   2.781
    1C        C  277   4.444   3.087   2.903
    1C        C  278   4.498   3.292   3.023
    1C        C  279   4.460   3.156   3.025
    1C        C  280   4.508   3.360   3.146
    1C        C  281   4.492   3.293   3.269
    1C        C  282   4.508   3.508   3.388
    1C        C  283   4.504   3.367   3.389
    1C        C  284   4.509   3.580   3.509
    1C        C  285   4.513   3.511   3.633
    1C        C  286   4.489   3.723   3.753
    1C        C  287   4.511   3.583   3.754
    1C        C  288   4.472   3.791   3.876
    1C        C  289   4.486   3.725   4.000
    1C        C  290   4.421   3.932   4.115
    1C        C  291   4.470   3.799   4.119
    1C        C  292   4.392   4.000   4.235
    1C        C  293   4.418   3.937   4.359
    1C        C  294   4.327   4.130   4.479
    1C        C  295   4.389   4.004   4.480
    1C        C  296   4.281   4.186   4.601
    1C        C  297   4.325   4.130   4.723
    1C        C  298   4.202   4.314   4.839
    1C        C  299   4.279   4.193   4.842
    1C        C  300   4.171   4.402   4.948
    1C        C  301   4.350   2.880   2.063
    1C        C  302   4.468   3.066   2.177
    1C        C  303   4.402   2.939   2.179
    1C        C  304   4.482   3.141   2.297
    1C        C  305   4.450   3.075   2.418
    1C        C  306   4.509   3.281   2.535
    1C        C  307   4.475   3.144   2.539
    1C        C  308   4.519   3.356   2.655
    1C        C  309   4.507   3.290   2.779
    1C        C  310   4.517   3.502   2.900
    1C        C  311   4.516   3.361   2.901
    1C        C  312   4.511   3.571   3.023
    1C        C  313   4.513   3.502   3.146
    1C        C  314   4.486   3.717   3.262
    1C        C  315   4.508   3.578   3.265
    1C        C  316   4.478   3.789   3.384
    1C        C  317   4.491   3.720   3.507
    1C        C  318   4.421   3.920   3.627
    1C        C  319   4.475   3.789   3.629
    1C        C  320   4.386   3.983   3.749
    1C        C  321   4.418   3.922   3.872
    1C        C  322   4.313   4.112   3.990
    1C        C  323   4.388   3.992   3.991
    1C        C  324   4.273   4.172   4.111
    1C        C  325   4.322   4.122   4.234
    1C        C  326   4.188   4.287   4.355
    1C        C  327   4.284   4.184   4.356
    1C        C  328   4.136   4.341   4.475
    1C        C  329   4.187   4.292   4.598
    1C        C  330   4.025   4.435   4.712
    1C        C  331   4.138   4.349   4.717
    1C        C  332   3.969   4.489   4.830
    1C        C  333   4.054   4.477   4.941
    1C        C  334   4.550   3.266   2.063
    1C        C  335   4.533   3.126   2.065
    1C        C  336   4.533   3.349   2.174
    1C        C  337   4.508   3.280   2.295
    1C        C  338   4.516   3.496   2.411
    1C        C  339   4.516   3.355   2.415
    1C        C  340   4.519   3.568   2.533
    1C        C  341   4.524   3.497   2.655
    1C        C  342   4.489   3.708   2.774
    1C        C  343   4.513   3.569   2.776
    1C        C  344   4.472   3.778   2.895
    1C        C  345   4.490   3.710   3.018
    1C        C  346   4.423   3.915   3.136
    1C        C  347   4.468   3.782   3.138
    1C        C  348   4.391   3.978   3.258
    1C        C  349   4.424   3.919   3.383
    1C        C  350   4.320   4.105   3.503
    1C        C  351   4.393   3.984   3.505
    1C        C  352   4.273   4.162   3.623
    1C        C  353   4.316   4.105   3.745
    1C        C  354   4.173   4.265   3.865
    1C        C  355   4.272   4.165   3.866
    1C        C  356   4.122   4.318   3.986
    1C        C  357   4.175   4.274   4.109
    1C        C  358   4.015   4.408   4.230
    1C        C  359   4.130   4.327   4.232
    1C        C  360   3.954   4.451   4.350
    1C        C  361   4.021   4.423   4.471
    1C        C  362   3.832   4.526   4.592
    1C        C  363   3.962   4.470   4.591
    1C        C  364   3.764   4.555   4.712
    1C        C  365   3.839   4.545   4.832
    1C        C  366   3.632   4.590   4.948
    1C        C  367   3.770   4.576   4.950
    1C        C  368   4.514   3.562   2.051
    1C        C  369   4.528   3.490   2.170
    1C        C  370   4.498   3.706   2.286
    1C        C  371   4.519   3.566   2.288
    1C        C  372   4.481   3.776   2.407
    1C        C  373   4.494   3.706   2.529
    1C        C  374   4.415   3.905   2.648
    1C        C  375   4.467   3.774   2.651
    1C        C  376   4.386   3.972   2.769
    1C        C  377   4.418   3.909   2.891
    1C        C  378   4.317   4.097   3.011
    1C        C  379   4.386   3.974   3.012
    1C        C  380   4.272   4.152   3.133
    1C        C  381   4.313   4.095   3.256
    1C        C  382   4.170   4.250   3.375
    1C        C  383   4.272   4.153   3.379
    1C        C  384   4.118   4.302   3.496
    1C        C  385   4.173   4.261   3.620
    1C        C  386   4.006   4.393   3.741
    1C        C  387   4.121   4.311   3.742
    1C        C  388   3.946   4.435   3.862
    1C        C  389   4.005   4.396   3.984
    1C        C  390   3.821   4.495   4.107
    1C        C  391   3.948   4.433   4.108
    1C        C  392   3.752   4.521   4.227
    1C        C  393   3.822   4.501   4.348
    1C        C  394   3.621   4.559   4.474
    1C        C  395   3.761   4.536   4.471
    1C        C  396   3.548   4.571   4.594
    1C        C  397   3.623   4.563   4.713
    1C        C  398   3.412   4.550   4.836
    1C        C  399   3.551   4.574   4.835
    1C        C  400   3.341   4.515   4.951
    1C        C  401   4.507   3.701   2.051
    1C        C  402   4.452   3.915   2.166
    1C        C  403   4.495   3.781   2.166
    1C        C  404   4.408   3.977   2.285
    1C        C  405   4.432   3.908   2.406
    1C        C  406   4.323   4.094   2.523
    1C        C  407   4.394   3.973   2.526
    1C        C  408   4.278   4.152   2.644
    1C        C  409   4.315   4.094   2.768
    1C        C  410   4.172   4.252   2.887
    1C        C  411   4.273   4.153   2.889
    1C        C  412   4.122   4.300   3.010
    1C        C  413   4.174   4.254   3.133
    1C        C  414   4.005   4.384   3.251
    1C        C  415   4.119   4.302   3.254
    1C        C  416   3.944   4.422   3.373
    1C        C  417   4.005   4.386   3.496
    1C        C  418   3.812   4.474   3.617
    1C        C  419   3.943   4.421   3.618
    1C        C  420   3.748   4.505   3.740
    1C        C  421   3.815   4.488   3.863
    1C        C  422   3.611   4.535   3.986
    1C        C  423   3.749   4.508   3.986
    1C        C  424   3.542   4.538   4.109
    1C        C  425   3.612   4.539   4.232
    1C        C  426   3.404   4.550   4.355
    1C        C  427   3.545   4.552   4.355
    1C        C  428   3.332   4.547   4.477
    1C        C  429   3.407   4.559   4.597
    1C        C  430   3.196   4.514   4.721
    1C        C  431   3.335   4.545   4.718
    1C        C  432   3.127   4.494   4.843
    1C        C  433   3.203   4.500   4.961
    1C        C  434   4.381   4.121   2.048
    1C        C  435   4.444   3.996   2.052
    1C        C  436   4.298   4.158   2.158
    1C        C  437   4.333   4.098   2.282
    1C        C  438   4.184   4.256   2.399
    1C        C  439   4.283   4.155   2.402
    1C        C  440   4.126   4.300   2.519
    1C        C  441   4.178   4.252   2.641
    1C        C  442   4.006   4.377   2.765
    1C        C  443   4.123   4.298   2.763
    1C        C  444   3.943   4.415   2.886
    1C        C  445   4.009   4.384   3.007
    1C        C  446   3.814   4.475   3.129
    1C        C  447   3.944   4.418   3.128
    1C        C  448   3.746   4.497   3.251
    1C        C  449   3.813   4.475   3.373
    1C        C  450   3.610   4.537   3.497
    1C        C  451   3.747   4.502   3.495
    1C        C  452   3.540   4.544   3.619
    1C        C  453   3.610   4.537   3.741
    1C        C  454   3.399   4.544   3.863
    1C        C  455   3.541   4.548   3.864
    1C        C  456   3.332   4.532   3.986
    1C        C  457   3.400   4.539   4.110
    1C        C  458   3.197   4.500   4.235
    1C        C  459   3.333   4.538   4.234
    1C        C  460   3.130   4.484   4.359
    1C        C  461   3.195   4.515   4.481
    1C        C  462   2.999   4.428   4.601
    1C        C  463   3.125   4.492   4.602
    1C        C  464   2.932   4.398   4.722
    1C        C  465   2.994   4.441   4.843
    1C        C  466   2.804   4.340   4.959
    1C        C  467   2.911   4.430   4.959
    1C        C  468   4.122   4.287   2.038
    1C        C  469   4.184   4.245   2.157
    1C        C  470   4.009   4.376   2.277
    1C        C  471   4.127   4.296   2.276
    1C        C  472   3.943   4.407   2.398
    1C        C  473   4.008   4.378   2.520
    1C        C  474   3.813   4.461   2.643
    1C        C  475   3.945   4.410   2.642
    1C        C  476   3.744   4.486   2.764
    1C        C  477   3.814   4.472   2.885
    1C        C  478   3.608   4.522   3.008
    1C        C  479   3.747   4.498   3.007
    1C        C  480   3.538   4.532   3.131
    1C        C  481   3.608   4.527   3.253
    1C        C  482   3.397   4.538   3.376
    1C        C  483   3.538   4.539   3.375
    1C        C  484   3.327   4.535   3.498
    1C        C  485   3.398   4.544   3.620
    1C        C  486   3.190   4.503   3.743
    1C        C  487   3.327   4.535   3.741
    1C        C  488   3.128   4.477   3.867
    1C        C  489   3.195   4.497   3.990
    1C        C  490   3.005   4.412   4.116
    1C        C  491   3.129   4.480   4.113
    1C        C  492   2.949   4.375   4.240
    1C        C  493   3.005   4.418   4.361
    1C        C  494   2.829   4.297   4.483
    1C        C  495   2.936   4.389   4.481
    1C        C  496   2.774   4.252   4.605
    1C        C  497   2.820   4.311   4.725
    1C        C  498   2.663   4.169   4.846
    1C        C  499   2.752   4.279   4.844
    1C        C  500   2.597   4.118   4.958
    1C        C  501   4.001   4.356   2.038
    1C        C  502   3.817   4.467   2.156
    1C        C  503   3.943   4.404   2.156
    1C        C  504   3.744   4.481   2.277
    1C        C  505   3.811   4.456   2.398
    1C        C  506   3.607   4.512   2.522
    1C        C  507   3.746   4.484   2.521
    1C        C  508   3.533   4.519   2.642
    1C        C  509   3.604   4.510   2.764
    1C        C  510   3.395   4.531   2.885
    1C        C  511   3.536   4.525   2.886
    1C        C  512   3.324   4.518   3.007
    1C        C  513   3.396   4.524   3.128
    1C        C  514   3.192   4.493   3.256
    1C        C  515   3.329   4.527   3.252
    1C        C  516   3.123   4.468   3.377
    1C        C  517   3.191   4.496   3.498
    1C        C  518   3.001   4.406   3.624
    1C        C  519   3.125   4.473   3.621
    1C        C  520   2.941   4.376   3.748
    1C        C  521   3.003   4.409   3.870
    1C        C  522   2.838   4.280   3.994
    1C        C  523   2.948   4.369   3.994
    1C        C  524   2.790   4.232   4.118
    1C        C  525   2.843   4.282   4.239
    1C        C  526   2.697   4.129   4.365
    1C        C  527   2.786   4.239   4.361
    1C        C  528   2.648   4.077   4.486
    1C        C  529   2.685   4.142   4.606
    1C        C  530   2.584   3.961   4.730
    1C        C  531   2.644   4.090   4.731
    1C        C  532   2.539   3.902   4.852
    1C        C  533   2.529   3.995   4.959
    1C        C  534   3.615   4.551   2.040
    1C        C  535   3.748   4.508   2.041
    1C        C  536   3.534   4.535   2.157
    1C        C  537   3.604   4.508   2.278
    1C        C  538   3.395   4.516   2.399
    1C        C  539   3.536   4.517   2.401
    1C        C  540   3.321   4.510   2.520
    1C        C  541   3.392   4.515   2.642
    1C        C  542   3.185   4.484   2.767
    1C        C  543   3.323   4.517   2.765
    1C        C  544   3.119   4.460   2.889
    1C        C  545   3.187   4.484   3.011
    1C        C  546   3.000   4.395   3.135
    1C        C  547   3.125   4.462   3.136
    1C        C  548   2.940   4.361   3.258
    1C        C  549   2.998   4.403   3.379
    1C        C  550   2.829   4.278   3.504
    1C        C  551   2.941   4.364   3.503
    1C        C  552   2.778   4.232   3.627
    1C        C  553   2.836   4.281   3.746
    1C        C  554   2.700   4.123   3.872
    1C        C  555   2.790   4.231   3.871
    1C        C  556   2.662   4.064   3.995
    1C        C  557   2.701   4.122   4.118
    1C        C  558   2.594   3.944   4.245
    1C        C  559   2.660   4.069   4.242
    1C        C  560   2.559   3.882   4.367
    1C        C  561   2.586   3.950   4.488
    1C        C  562   2.530   3.749   4.615
    1C        C  563   2.564   3.886   4.612
    1C        C  564   2.520   3.681   4.738
    1C        C  565   2.527   3.759   4.857
    1C        C  566   2.534   3.548   4.978
    1C        C  567   2.530   3.687   4.977
    1C        C  568   3.327   4.476   2.039
    1C        C  569   3.394   4.509   2.157
    1C        C  570   3.184   4.472   2.280
    1C        C  571   3.321   4.510   2.279
    1C        C  572   3.116   4.449   2.402
    1C        C  573   3.183   4.479   2.523
    1C        C  574   2.987   4.405   2.644
    1C        C  575   3.114   4.467   2.646
    1C        C  576   2.931   4.361   2.766
    1C        C  577   2.993   4.396   2.888
    1C        C  578   2.828   4.271   3.016
    1C        C  579   2.939   4.359   3.013
    1C        C  580   2.781   4.216   3.137
    1C        C  581   2.832   4.270   3.258
    1C        C  582   2.695   4.113   3.383
    1C        C  583   2.782   4.224   3.382
    1C        C  584   2.656   4.057   3.507
    1C        C  585   2.692   4.119   3.628
    1C        C  586   2.593   3.936   3.755
    1C        C  587   2.655   4.063   3.752
    1C        C  588   2.569   3.873   3.880
    1C        C  589   2.600   3.938   4.001
    1C        C  590   2.538   3.737   4.127
    1C        C  591   2.572   3.874   4.125
    1C        C  592   2.525   3.671   4.251
    1C        C  593   2.531   3.744   4.372
    1C        C  594   2.518   3.534   4.499
    1C        C  595   2.522   3.675   4.495
    1C        C  596   2.521   3.464   4.622
    1C        C  597   2.519   3.539   4.741
    1C        C  598   2.538   3.328   4.861
    1C        C  599   2.524   3.468   4.864
    1C        C  600   2.537   3.251   4.979
    1C        C  601   3.194   4.438   2.043
    1C        C  602   2.980   4.395   2.158
    1C        C  603   3.117   4.437   2.160
    1C        C  604   2.924   4.354   2.282
    1C        C  605   2.989   4.387   2.403
    1C        C  606   2.815   4.271   2.528
    1C        C  607   2.926   4.358   2.526
    1C        C  608   2.771   4.219   2.651
    1C        C  609   2.825   4.268   2.772
    1C        C  610   2.687   4.110   2.892
    1C        C  611   2.775   4.220   2.895
    1C        C  612   2.653   4.048   3.015
    1C        C  613   2.695   4.104   3.138
    1C        C  614   2.590   3.926   3.264
    1C        C  615   2.655   4.051   3.262
    1C        C  616   2.567   3.863   3.389
    1C        C  617   2.596   3.929   3.510
    1C        C  618   2.525   3.733   3.638
    1C        C  619   2.565   3.869   3.634
    1C        C  620   2.516   3.665   3.761
    1C        C  621   2.530   3.737   3.882
    1C        C  622   2.514   3.527   4.008
    1C        C  623   2.520   3.669   4.005
    1C        C  624   2.520   3.459   4.131
    1C        C  625   2.518   3.529   4.254
    1C        C  626   2.544   3.323   4.379
    1C        C  627   2.518   3.461   4.378
    1C        C  628   2.555   3.252   4.501
    1C        C  629   2.538   3.324   4.622
    1C        C  630   2.593   3.116   4.746
    1C        C  631   2.555   3.253   4.743
    1C        C  632   2.614   3.049   4.869
    1C        C  633   2.558   3.113   4.984
    1C        C  634   2.778   4.306   2.052
    1C        C  635   2.888   4.393   2.049
    1C        C  636   2.751   4.228   2.165
    1C        C  637   2.810   4.270   2.286
    1C        C  638   2.671   4.110   2.409
    1C        C  639   2.757   4.223   2.408
    1C        C  640   2.639   4.048   2.531
    1C        C  641   2.686   4.106   2.651
    1C        C  642   2.579   3.922   2.775
    1C        C  643   2.644   4.047   2.773
    1C        C  644   2.558   3.857   2.899
    1C        C  645   2.584   3.925   3.020
    1C        C  646   2.527   3.722   3.146
    1C        C  647   2.560   3.860   3.143
    1C        C  648   2.512   3.656   3.271
    1C        C  649   2.529   3.727   3.392
    1C        C  650   2.518   3.520   3.518
    1C        C  651   2.519   3.661   3.516
    1C        C  652   2.521   3.452   3.642
    1C        C  653   2.511   3.524   3.763
    1C        C  654   2.536   3.315   3.890
    1C        C  655   2.515   3.455   3.887
    1C        C  656   2.556   3.251   4.014
    1C        C  657   2.542   3.319   4.137
    1C        C  658   2.606   3.117   4.260
    1C        C  659   2.561   3.250   4.259
    1C        C  660   2.633   3.053   4.384
    1C        C  661   2.597   3.117   4.504
    1C        C  662   2.705   2.934   4.625
    1C        C  663   2.625   3.050   4.625
    1C        C  664   2.746   2.876   4.747
    1C        C  665   2.697   2.932   4.868
    1C        C  666   2.751   2.874   4.984
    1C        C  667   2.675   4.023   2.055
    1C        C  668   2.681   4.105   2.169
    1C        C  669   2.584   3.914   2.292
    1C        C  670   2.635   4.046   2.288
    1C        C  671   2.549   3.850   2.413
    1C        C  672   2.574   3.922   2.532
    1C        C  673   2.516   3.718   2.659
    1C        C  674   2.551   3.854   2.654
    1C        C  675   2.513   3.649   2.782
    1C        C  676   2.527   3.720   2.904
    1C        C  677   2.508   3.509   3.029
    1C        C  678   2.514   3.650   3.026
    1C        C  679   2.512   3.442   3.154
    1C        C  680   2.508   3.515   3.275
    1C        C  681   2.538   3.307   3.400
    1C        C  682   2.513   3.446   3.398
    1C        C  683   2.553   3.243   3.524
    1C        C  684   2.536   3.311   3.647
    1C        C  685   2.607   3.113   3.772
    1C        C  686   2.556   3.244   3.770
    1C        C  687   2.635   3.051   3.896
    1C        C  688   2.601   3.117   4.017
    1C        C  689   2.712   2.934   4.139
    1C        C  690   2.633   3.052   4.138
    1C        C  691   2.757   2.878   4.260
    1C        C  692   2.714   2.937   4.381
    1C        C  693   2.754   2.880   4.504
    1C        C  694   2.621   3.894   2.053
    1C        C  695   2.522   3.707   2.177
    1C        C  696   2.574   3.838   2.173
    1C        C  697   2.505   3.638   2.299
    1C        C  698   2.514   3.713   2.418
    1C        C  699   2.491   3.503   2.540
    1C        C  700   2.498   3.644   2.540
    1C        C  701   2.507   3.436   2.663
    1C        C  702   2.506   3.508   2.785
    1C        C  703   2.527   3.298   2.909
    1C        C  704   2.506   3.437   2.908
    1C        C  705   2.548   3.233   3.033
    1C        C  706   2.535   3.302   3.156
    1C        C  707   2.601   3.102   3.281
    1C        C  708   2.556   3.236   3.279
    1C        C  709   2.631   3.044   3.406
    1C        C  710   2.606   3.112   3.527
    1C        C  711   2.713   2.929   3.647
    1C        C  712   2.637   3.048   3.650
    1C        C  713   2.759   2.878   3.771
    1C        C  714   2.718   2.937   3.892
    1C        C  715   2.756   2.881   4.016
    1C        C  716   2.455   3.501   2.067
    1C        C  717   2.494   3.635   2.060
    1C        C  718   2.465   3.421   2.185
    1C        C  719   2.481   3.498   2.303
    1C        C  720   2.514   3.284   2.423
    1C        C  721   2.492   3.424   2.423
    1C        C  722   2.535   3.222   2.548
    1C        C  723   2.524   3.295   2.668
    1C        C  724   2.594   3.094   2.791
    1C        C  725   2.540   3.224   2.789
    1C        C  726   2.622   3.032   2.915
    1C        C  727   2.597   3.101   3.036
    1C        C  728   2.708   2.920   3.159
    1C        C  729   2.629   3.037   3.158
    1C        C  730   2.749   2.865   3.283
    1C        C  731   2.710   2.926   3.404
    1C        C  732   2.757   2.873   3.526
    1C        C  733   2.484   3.194   2.070
    1C        C  734   2.485   3.279   2.182
    1C        C  735   2.589   3.087   2.304
    1C        C  736   2.527   3.215   2.301
    1C        C  737   2.618   3.023   2.427
    1C        C  738   2.589   3.091   2.547
    1C        C  739   2.702   2.911   2.671
    1C        C  740   2.627   3.031   2.669
    1C        C  741   2.740   2.852   2.794
    1C        C  742   2.698   2.913   2.914
    1C        C  743   2.747   2.862   3.037
    1C        C  744   2.537   3.065   2.074
    1C        C  745   2.686   2.898   2.181
    1C        C  746   2.607   3.015   2.184
    1C        C  747   2.729   2.842   2.303
    1C        C  748   2.692   2.903   2.425
    1C        C  749   2.735   2.849   2.548
    1C        C  750   2.739   2.839   2.065
    1C        C  751   3.647   2.288   2.010
    1C        O  752   3.670   2.190   2.086
    1C        O  753   3.718   2.265   1.892
    1C        C  754   4.638   3.053   1.991
    1C        O  755   4.613   3.030   1.870
    1C        O  756   4.775   3.071   2.017
    1C        C  757   4.462   4.228   1.985
    1C        O  758   4.547   4.292   2.052
    1C        O  759   4.489   4.233   1.847
    1C        C  760   3.582   4.654   1.939
    1C        O  761   3.562   4.772   1.979
    1C        O  762   3.608   4.639   1.802
    1C        C  763   2.881   4.505   1.952
    1C        O  764   2.870   4.489   1.828
    1C        O  765   2.899   4.641   1.981
    1C        C  766   2.343   3.478   1.973
    1C        O  767   2.364   3.440   1.855
    1C        O  768   2.207   3.493   2.004
    1C        C  769   4.683   3.589   5.057
    1C        O  770   4.662   3.544   5.173
    1C        O  771   4.821   3.576   5.034
    1C        C  772   4.278   4.458   5.034
    1C        O  773   4.324   4.406   5.139
    1C        O  774   4.378   4.536   4.977
    1C        C  775   4.145   2.519   5.077
    1C        O  776   4.228   2.434   5.037
    1C        O  777   4.154   2.549   5.213
    1C        C  778   2.893   4.550   5.044
    1C        O  779   2.874   4.665   4.996
    1C        O  780   2.878   4.534   5.183
    1C        C  781   2.465   3.045   5.077
    1C        O  782   2.340   3.058   5.063
    1C        O  783   2.504   3.043   5.211
    1C        C  784   2.421   3.982   5.059
    1C        O  785   2.319   4.057   5.055
    1C        O  786   2.461   3.957   5.191
    1C        C  787   2.952   2.401   2.029
    1C        O  788   2.912   2.405   1.909
    1C        O  789   2.915   2.285   2.097
    1C        C  790   3.175   2.363   5.046
    1C        O  791   3.135   2.263   4.981
    1C        O  792   3.194   2.353   5.185
    1C        H  793   4.260   3.037   5.039
    1C        H  794   4.157   2.818   5.067
    1C        H  795   4.497   3.121   5.059
    1C        H  796   4.467   3.373   5.052
    1C        H  797   4.551   3.812   5.043
    1C        H  798   4.378   3.956   5.057
    1C        H  799   4.320   4.183   5.052
    1C        H  800   4.043   4.551   5.017
    1C        H  801   3.825   4.604   5.037
    1C        H  802   3.588   4.624   5.040
    1C        H  803   3.400   4.467   5.027
    1C        H  804   3.168   4.448   5.048
    1C        H  805   3.888   2.483   5.064
    1C        H  806   3.675   2.431   5.065
    1C        H  807   3.017   2.586   5.071
    1C        H  808   3.446   2.461   5.077
    1C        H  809   2.820   2.695   5.061
    1C        H  810   2.774   2.939   5.066
    1C        H  811   2.546   3.303   5.072
    1C        H  812   2.505   3.504   5.071
    1C        H  813   2.507   3.733   5.071
    1C        H  814   2.585   4.179   5.046
    1C        H  815   2.748   4.338   5.050
    1C        H  816   2.734   2.893   1.972
    1C        H  817   2.796   2.651   2.000
    1C        H  818   3.200   2.384   2.021
    1C        H  819   3.442   2.511   1.996
    1C        H  820   3.847   2.529   1.970
    1C        H  821   4.080   2.592   1.974
    1C        H  822   4.260   2.711   1.978
    1C        H  823   4.416   2.877   1.979
    1C        H  824   4.590   3.307   1.973
    1C        H  825   4.505   3.514   1.956
    1C        H  826   4.534   3.751   1.960
    1C        H  827   3.813   4.547   1.966
    1C        H  828   3.951   4.368   1.944
    1C        H  829   4.183   4.279   1.950
    1C        H  830   4.460   3.950   1.956
    1C        H  831   2.669   3.829   1.983
    1C        H  832   2.702   4.066   1.961
    1C        H  833   2.715   4.299   1.966
    1C        H  834   3.390   4.427   1.968
    1C        H  835   3.143   4.430   1.950
    1C        H  836   2.522   2.997   1.992
    1C        H  837   2.498   3.245   1.977
    1C        H  838   2.480   3.689   1.968
    2V3OU   H29  839   2.796   3.542   1.583
    2V3OU   C27  840   2.776   3.503   1.685
    2V3OU   H27  841   2.716   3.569   1.753
    2V3OU   H28  842   2.727   3.403   1.669
    2V3OU   O11  843   2.901   3.476   1.749
    2V3OU   C15  844   2.919   3.394   1.859
    2V3OU   C13  845   3.047   3.372   1.914
    2V3OU   C14  846   3.073   3.267   2.003
    2V3OU   C16  847   2.970   3.188   2.053
    2V3OU    H6  848   2.993   3.099   2.113
    2V3OU   C12  849   3.212   3.227   2.033
    2V3OU    O2  850   3.234   3.119   2.091
    2V3OU   C10  851   3.324   3.309   1.984
    2V3OU    C8  852   3.456   3.272   2.008
    2V3OU   O10  853   3.484   3.156   2.074
    2V3OU   H26  854   3.401   3.109   2.092
    2V3OU    C6  855   3.564   3.351   1.958
    2V3OU    C5  856   3.533   3.467   1.888
    2V3OU    C4  857   3.701   3.293   1.964
    2V3OU    H4  858   3.718   3.227   2.054
    2V3OU    H5  859   3.713   3.224   1.876
    2V3OU    C2  860   3.813   3.398   1.956
    2V3OU    O6  861   3.811   3.476   2.076
    2V3OU   H21  862   3.762   3.549   2.034
    2V3OU    C3  863   3.784   3.492   1.839
    2V3OU    H2  864   3.870   3.563   1.830
    2V3OU    H3  865   3.781   3.434   1.743
    2V3OU   C25  866   3.946   3.325   1.943
    2V3OU    O7  867   3.998   3.299   1.835
    2V3OU   C26  868   4.032   3.293   2.065
    2V3OU   H22  869   4.067   3.388   2.111
    2V3OU   H23  870   4.118   3.227   2.036
    2V3OU    O8  871   3.959   3.214   2.156
    2V3OU   H24  872   3.918   3.270   2.224
    2V3OU    C1  873   3.648   3.558   1.852
    2V3OU    H1  874   3.625   3.616   1.758
    2V3OU    O3  875   3.663   3.653   1.958
    2V3OU   C19  876   3.621   3.789   1.946
    2V3OU    H9  877   3.527   3.805   1.886
    2V3OU    O4  878   3.713   3.855   1.863
    2V3OU   C20  879   3.846   3.879   1.911
    2V3OU   H10  880   3.900   3.780   1.920
    2V3OU   C24  881   3.607   3.855   2.083
    2V3OU   H16  882   3.545   3.790   2.150
    2V3OU   H17  883   3.563   3.958   2.078
    2V3OU   C23  884   3.746   3.875   2.142
    2V3OU   H15  885   3.790   3.772   2.163
    2V3OU    N1  886   3.740   3.954   2.264
    2V3OU   H19  887   3.813   3.922   2.325
    2V3OU   H20  888   3.660   3.927   2.316
    2V3OU   C21  889   3.848   3.947   2.048
    2V3OU   H11  890   3.947   3.928   2.101
    2V3OU    O5  891   3.823   4.087   2.048
    2V3OU   H18  892   3.778   4.102   2.132
    2V3OU   C22  893   3.915   3.951   1.797
    2V3OU   H12  894   3.861   4.046   1.772
    2V3OU   H13  895   3.909   3.890   1.704
    2V3OU   H14  896   4.022   3.966   1.826
    2V3OU   C11  897   3.154   3.470   1.891
    2V3OU    O1  898   3.135   3.593   1.876
    2V3OU    C9  899   3.294   3.424   1.906
    2V3OU    C7  900   3.398   3.503   1.859
    2V3OU    O9  901   3.385   3.619   1.785
    2V3OU   H25  902   3.291   3.622   1.760
    2V3OU   C17  903   2.821   3.309   1.914
    2V3OU    H7  904   2.718   3.337   1.893
    2V3OU   C18  905   2.842   3.204   2.003
    2V3OU    H8  906   2.762   3.128   2.014
    3SOL     OW  907   2.377   3.810   0.795
    3SOL    HW1  908   2.282   3.782   0.810
    3SOL    HW2  909   2.438   3.747   0.843
    4SOL     OW  910   7.005   5.868   1.849
    4SOL    HW1  911   6.934   5.889   1.781
    4SOL    HW2  912   7.009   5.769   1.863
    5SOL     OW  913   3.890   1.470   2.065
    5SOL    HW1  914   3.880   1.482   1.966
    5SOL    HW2  915   3.895   1.560   2.109
    6SOL     OW  916   3.476   1.969   2.113
    6SOL    HW1  917   3.524   1.913   2.180
    6SOL    HW2  918   3.517   2.060   2.109
    7SOL     OW  919   6.290   2.809   1.659
    7SOL    HW1  920   6.194   2.826   1.679
    7SOL    HW2  921   6.315   2.717   1.688
    8SOL     OW  922   2.416   6.761   5.251
    8SOL    HW1  923   2.472   6.715   5.183
    8SOL    HW2  924   2.325   6.718   5.255
    9SOL     OW  925   1.386   5.550   5.753
    9SOL    HW1  926   1.431   5.508   5.831
    9SOL    HW2  927   1.366   5.481   5.684
   10SOL     OW  928   0.409   4.173   5.943
   10SOL    HW1  929   0.502   4.203   5.964
   10SOL    HW2  930   0.377   4.111   6.015
   11SOL     OW  931   2.940   0.348   0.553
   11SOL    HW1  932   2.975   0.278   0.616
   11SOL    HW2  933   2.879   0.305   0.486
   12SOL     OW  934   4.669   6.373   3.313
   12SOL    HW1  935   4.649   6.427   3.231
   12SOL    HW2  936   4.608   6.401   3.386
   13SOL     OW  937   3.448   6.152   4.282
   13SOL    HW1  938   3.348   6.153   4.285
   13SOL    HW2  939   3.478   6.154   4.187
   14SOL     OW  940   3.844   5.735   5.956
   14SOL    HW1  941   3.753   5.758   5.990
   14SOL    HW2  942   3.882   5.660   6.009
   15SOL     OW  943   1.504   6.053   0.262
   15SOL    HW1  944   1.449   6.091   0.188
   15SOL    HW2  945   1.451   5.985   0.312
   16SOL     OW  946   6.312   1.992   5.870
   16SOL    HW1  947   6.251   2.016   5.795
   16SOL    HW2  948   6.260   1.954   5.946
   17SOL     OW  949   5.358   5.960   4.737
   17SOL    HW1  950   5.307   5.932   4.656
   17SOL    HW2  951   5.366   6.060   4.739
   18SOL     OW  952   3.101   2.443   6.609
   18SOL    HW1  953   3.156   2.526   6.621
   18SOL    HW2  954   3.137   2.392   6.530
   19SOL     OW  955   0.520   6.634   3.373
   19SOL    HW1  956   0.497   6.540   3.349
   19SOL    HW2  957   0.545   6.638   3.470
   20SOL     OW  958   3.262   0.746   4.441
   20SOL    HW1  959   3.250   0.844   4.458
   20SOL    HW2  960   3.350   0.730   4.398
   21SOL     OW  961   2.873   1.848   2.499
   21SOL    HW1  962   2.893   1.751   2.514
   21SOL    HW2  963   2.836   1.861   2.407
   22SOL     OW  964   1.752   0.437   0.120
   22SOL    HW1  965   1.654   0.434   0.104
   22SOL    HW2  966   1.801   0.429   0.033
   23SOL     OW  967   4.188   6.834   3.372
   23SOL    HW1  968   4.255   6.839   3.445
   23SOL    HW2  969   4.209   6.756   3.312
   24SOL     OW  970   5.083   1.146   4.454
   24SOL    HW1  971   5.132   1.137   4.367
   24SOL    HW2  972   5.061   1.242   4.470
   25SOL     OW  973   3.068   5.744   6.171
   25SOL    HW1  974   3.162   5.725   6.142
   25SOL    HW2  975   3.062   5.731   6.270
   26SOL     OW  976   6.038   1.284   1.078
   26SOL    HW1  977   5.997   1.234   1.002
   26SOL    HW2  978   6.088   1.220   1.137
   27SOL     OW  979   0.084   0.762   2.250
   27SOL    HW1  980   0.101   0.736   2.345
   27SOL    HW2  981   7.008   0.775   2.236
   28SOL     OW  982   4.796   0.753   6.825
   28SOL    HW1  983   4.697   0.740   6.827
   28SOL    HW2  984   4.817   0.850   6.838
   29SOL     OW  985   4.851   2.637   1.991
   29SOL    HW1  986   4.942   2.633   1.951
   29SOL    HW2  987   4.849   2.584   2.076
   30SOL     OW  988   2.881   6.821   5.830
   30SOL    HW1  989   2.862   6.879   5.750
   30SOL    HW2  990   2.817   6.744   5.832
   31SOL     OW  991   0.652   1.283   5.547
   31SOL    HW1  992   0.632   1.381   5.558
   31SOL    HW2  993   0.744   1.264   5.581
   32SOL     OW  994   0.118   2.524   2.936
   32SOL    HW1  995   0.097   2.436   2.977
   32SOL    HW2  996   0.148   2.587   3.008
   33SOL     OW  997   1.943   2.806   6.125
   33SOL    HW1  998   1.975   2.714   6.102
   33SOL    HW2  999   1.852   2.820   6.086
   34SOL     OW 1000   1.552   0.420   4.805
   34SOL    HW1 1001   1.602   0.455   4.885
   34SOL    HW2 1002   1.582   0.469   4.723
   35SOL     OW 1003   4.428   2.708   6.371
   35SOL    HW1 1004   4.466   2.685   6.282
   35SOL    HW2 1005   4.337   2.669   6.380
   36SOL     OW 1006   0.824   0.634   6.183
   36SOL    HW1 1007   0.792   0.727   6.202
   36SOL    HW2 1008   0.815   0.614   6.086
   37SOL     OW 1009   2.511   6.935   0.944
   37SOL    HW1 1010   2.523   6.839   0.970
   37SOL    HW2 1011   2.556   6.994   1.012
   38SOL     OW 1012   0.412   5.996   3.013
   38SOL    HW1 1013   0.442   6.015   3.106
   38SOL    HW2 1014   0.412   6.080   2.959
   39SOL     OW 1015   6.362   3.877   6.298
   39SOL    HW1 1016   6.283   3.895   6.240
   39SOL    HW2 1017   6.400   3.787   6.275
   40SOL     OW 1018   6.437   2.566   2.380
   40SOL    HW1 1019   6.413   2.595   2.287
   40SOL    HW2 1020   6.379   2.614   2.445
   41SOL     OW 1021   1.559   6.486   4.336
   41SOL    HW1 1022   1.546   6.524   4.427
   41SOL    HW2 1023   1.474   6.445   4.304
   42SOL     OW 1024   2.937   6.829   6.310
   42SOL    HW1 1025   2.977   6.789   6.227
   42SOL    HW2 1026   2.981   6.918   6.328
   43SOL     OW 1027   5.678   5.801   6.005
   43SOL    HW1 1028   5.632   5.890   6.010
   43SOL    HW2 1029   5.609   5.729   6.006
   44SOL     OW 1030   6.755   2.724   6.278
   44SOL    HW1 1031   6.655   2.726   6.272
   44SOL    HW2 1032   6.783   2.644   6.331
   45SOL     OW 1033   3.606   0.371   3.053
   45SOL    HW1 1034   3.599   0.271   3.049
   45SOL    HW2 1035   3.658   0.397   3.134
   46SOL     OW 1036   0.835   3.890   4.276
   46SOL    HW1 1037   0.824   3.791   4.277
   46SOL    HW2 1038   0.909   3.915   4.215
   47SOL     OW 1039   5.832   3.277   3.639
   47SOL    HW1 1040   5.812   3.331   3.721
   47SOL    HW2 1041   5.922   3.234   3.648
   48SOL     OW 1042   0.878   2.469   4.874
   48SOL    HW1 1043   0.853   2.566   4.872
   48SOL    HW2 1044   0.805   2.417   4.917
   49SOL     OW 1045   4.694   4.050   1.781
   49SOL    HW1 1046   4.620   4.112   1.804
   49SOL    HW2 1047   4.769   4.062   1.846
   50SOL     OW 1048   6.687   2.734   4.796
   50SOL    HW1 1049   6.655   2.639   4.801
   50SOL    HW2 1050   6.727   2.760   4.884
   51SOL     OW 1051   2.850   5.527   2.739
   51SOL    HW1 1052   2.934   5.578   2.756
   51SOL    HW2 1053   2.779   5.556   2.803
   52SOL     OW 1054   4.172   1.658   3.680
   52SOL    HW1 1055   4.132   1.750   3.681
   52SOL    HW2 1056   4.136   1.605   3.757
   53SOL     OW 1057   4.207   0.649   3.669
   53SOL    HW1 1058   4.244   0.587   3.600
   53SOL    HW2 1059   4.227   0.613   3.760
   54SOL     OW 1060   2.979   5.174   6.517
   54SOL    HW1 1061   2.971   5.224   6.603
   54SOL    HW2 1062   2.969   5.237   6.440
   55SOL     OW 1063   3.848   1.357   6.173
   55SOL    HW1 1064   3.820   1.438   6.225
   55SOL    HW2 1065   3.776   1.288   6.176
   56SOL     OW 1066   1.796   0.662   1.738
   56SOL    HW1 1067   1.857   0.642   1.661
   56SOL    HW2 1068   1.798   0.585   1.802
   57SOL     OW 1069   5.096   0.464   0.740
   57SOL    HW1 1070   5.154   0.545   0.738
   57SOL    HW2 1071   5.152   0.382   0.724
   58SOL     OW 1072   0.492   5.639   6.376
   58SOL    HW1 1073   0.456   5.585   6.453
   58SOL    HW2 1074   0.544   5.717   6.412
   59SOL     OW 1075   1.750   0.983   6.128
   59SOL    HW1 1076   1.844   0.956   6.147
   59SOL    HW2 1077   1.690   0.904   6.140
   60SOL     OW 1078   5.088   0.771   5.975
   60SOL    HW1 1079   5.068   0.696   5.912
   60SOL    HW2 1080   5.092   0.857   5.924
   61SOL     OW 1081   4.981   1.133   4.031
   61SOL    HW1 1082   4.894   1.083   4.030
   61SOL    HW2 1083   4.992   1.181   3.944
   62SOL     OW 1084   0.795   1.287   3.688
   62SOL    HW1 1085   0.764   1.366   3.742
   62SOL    HW2 1086   0.715   1.241   3.649
   63SOL     OW 1087   6.469   1.687   3.827
   63SOL    HW1 1088   6.499   1.652   3.738
   63SOL    HW2 1089   6.426   1.612   3.879
   64SOL     OW 1090   6.687   3.732   6.496
   64SOL    HW1 1091   6.692   3.824   6.456
   64SOL    HW2 1092   6.777   3.706   6.531
   65SOL     OW 1093   6.209   4.095   5.438
   65SOL    HW1 1094   6.246   4.029   5.503
   65SOL    HW2 1095   6.239   4.187   5.464
   66SOL     OW 1096   3.410   0.801   6.692
   66SOL    HW1 1097   3.383   0.849   6.776
   66SOL    HW2 1098   3.337   0.739   6.664
   67SOL     OW 1099   5.678   5.873   5.408
   67SOL    HW1 1100   5.656   5.971   5.414
   67SOL    HW2 1101   5.777   5.862   5.403
   68SOL     OW 1102   6.411   1.057   6.619
   68SOL    HW1 1103   6.439   1.149   6.591
   68SOL    HW2 1104   6.474   0.990   6.581
   69SOL     OW 1105   1.397   4.287   6.263
   69SOL    HW1 1106   1.422   4.353   6.333
   69SOL    HW2 1107   1.470   4.279   6.196
   70SOL     OW 1108   6.456   5.780   3.103
   70SOL    HW1 1109   6.387   5.844   3.137
   70SOL    HW2 1110   6.544   5.802   3.145
   71SOL     OW 1111   3.146   2.065   3.012
   71SOL    HW1 1112   3.183   2.043   2.922
   71SOL    HW2 1113   3.048   2.083   3.005
   72SOL     OW 1114   2.633   6.311   4.549
   72SOL    HW1 1115   2.676   6.327   4.637
   72SOL    HW2 1116   2.627   6.397   4.499
   73SOL     OW 1117   3.285   2.162   0.127
   73SOL    HW1 1118   3.332   2.241   0.167
   73SOL    HW2 1119   3.278   2.089   0.195
   74SOL     OW 1120   5.252   6.657   0.345
   74SOL    HW1 1121   5.321   6.707   0.293
   74SOL    HW2 1122   5.194   6.606   0.282
   75SOL     OW 1123   3.453   5.376   5.577
   75SOL    HW1 1124   3.492   5.408   5.491
   75SOL    HW2 1125   3.522   5.382   5.649
   76SOL     OW 1126   1.726   2.729   1.239
   76SOL    HW1 1127   1.819   2.767   1.242
   76SOL    HW2 1128   1.671   2.768   1.312
   77SOL     OW 1129   4.894   5.380   4.447
   77SOL    HW1 1130   4.827   5.345   4.382
   77SOL    HW2 1131   4.931   5.304   4.500
   78SOL     OW 1132   6.856   6.451   6.104
   78SOL    HW1 1133   6.899   6.444   6.014
   78SOL    HW2 1134   6.762   6.419   6.099
   79SOL     OW 1135   2.705   6.886   0.346
   79SOL    HW1 1136   2.782   6.823   0.344
   79SOL    HW2 1137   2.634   6.854   0.283
   80SOL     OW 1138   5.906   0.775   4.402
   80SOL    HW1 1139   5.984   0.824   4.443
   80SOL    HW2 1140   5.921   0.767   4.304
   81SOL     OW 1141   2.129   0.309   2.864
   81SOL    HW1 1142   2.139   0.388   2.925
   81SOL    HW2 1143   2.052   0.324   2.803
   82SOL     OW 1144   6.837   5.267   0.141
   82SOL    HW1 1145   6.772   5.201   0.104
   82SOL    HW2 1146   6.801   5.308   0.224
   83SOL     OW 1147   6.626   0.095   0.763
   83SOL    HW1 1148   6.651   0.011   0.715
   83SOL    HW2 1149   6.597   0.164   0.697
   84SOL     OW 1150   5.053   3.591   2.953
   84SOL    HW1 1151   5.125   3.564   2.889
   84SOL    HW2 1152   4.980   3.522   2.952
   85SOL     OW 1153   0.565   1.795   5.252
   85SOL    HW1 1154   0.574   1.865   5.181
   85SOL    HW2 1155   0.648   1.793   5.307
   86SOL     OW 1156   0.803   0.760   5.784
   86SOL    HW1 1157   0.899   0.745   5.764
   86SOL    HW2 1158   0.767   0.682   5.836
   87SOL     OW 1159   4.745   2.892   0.543
   87SOL    HW1 1160   4.684   2.829   0.592
   87SOL    HW2 1161   4.710   2.909   0.452
   88SOL     OW 1162   4.690   1.967   0.139
   88SOL    HW1 1163   4.623   1.980   0.066
   88SOL    HW2 1164   4.689   2.047   0.199
   89SOL     OW 1165   1.899   2.961   6.726
   89SOL    HW1 1166   1.825   3.028   6.720
   89SOL    HW2 1167   1.978   2.994   6.675
   90SOL     OW 1168   4.701   0.318   3.859
   90SOL    HW1 1169   4.642   0.274   3.927
   90SOL    HW2 1170   4.645   0.370   3.795
   91SOL     OW 1171   4.535   4.469   4.160
   91SOL    HW1 1172   4.623   4.429   4.136
   91SOL    HW2 1173   4.543   4.519   4.246
   92SOL     OW 1174   2.982   5.103   0.398
   92SOL    HW1 1175   3.062   5.095   0.457
   92SOL    HW2 1176   2.952   5.012   0.371
   93SOL     OW 1177   2.358   4.301   5.974
   93SOL    HW1 1178   2.403   4.390   5.966
   93SOL    HW2 1179   2.264   4.309   5.941
   94SOL     OW 1180   2.617   5.688   6.651
   94SOL    HW1 1181   2.703   5.712   6.606
   94SOL    HW2 1182   2.546   5.677   6.582
   95SOL     OW 1183   0.717   2.130   3.445
   95SOL    HW1 1184   0.728   2.037   3.480
   95SOL    HW2 1185   0.620   2.154   3.443
   96SOL     OW 1186   2.721   0.306   6.164
   96SOL    HW1 1187   2.657   0.311   6.088
   96SOL    HW2 1188   2.814   0.300   6.129
   97SOL     OW 1189   6.932   4.120   5.393
   97SOL    HW1 1190   6.989   4.187   5.345
   97SOL    HW2 1191   6.973   4.029   5.384
   98SOL     OW 1192   6.451   3.536   6.927
   98SOL    HW1 1193   6.427   3.579   6.840
   98SOL    HW2 1194   6.537   3.486   6.916
   99SOL     OW 1195   4.547   3.598   1.397
   99SOL    HW1 1196   4.617   3.527   1.402
   99SOL    HW2 1197   4.560   3.664   1.471
  100SOL     OW 1198   0.494   6.926   5.967
  100SOL    HW1 1199   0.447   6.878   6.041
  100SOL    HW2 1200   0.439   6.920   5.883
  101SOL     OW 1201   0.902   5.683   2.177
  101SOL    HW1 1202   0.941   5.767   2.215
  101SOL    HW2 1203   0.903   5.688   2.077
  102SOL     OW 1204   4.925   1.026   2.390
  102SOL    HW1 1205   4.849   1.079   2.352
  102SOL    HW2 1206   4.970   0.976   2.316
  103SOL     OW 1207   4.258   1.612   1.916
  103SOL    HW1 1208   4.196   1.552   1.968
  103SOL    HW2 1209   4.233   1.610   1.819
  104SOL     OW 1210   0.122   5.554   2.559
  104SOL    HW1 1211   0.182   5.482   2.524
  104SOL    HW2 1212   0.094   5.613   2.484
  105SOL     OW 1213   6.494   1.727   6.768
  105SOL    HW1 1214   6.430   1.668   6.818
  105SOL    HW2 1215   6.576   1.743   6.823
  106SOL     OW 1216   3.174   0.048   6.168
  106SOL    HW1 1217   3.124   7.001   6.116
  106SOL    HW2 1218   3.155   0.037   6.265
  107SOL     OW 1219   1.868   2.313   1.576
  107SOL    HW1 1220   1.807   2.305   1.654
  107SOL    HW2 1221   1.952   2.261   1.594
  108SOL     OW 1222   5.022   4.557   6.862
  108SOL    HW1 1223   5.014   4.564   6.763
  108SOL    HW2 1224   4.934   4.580   6.904
  109SOL     OW 1225   0.477   0.295   1.287
  109SOL    HW1 1226   0.425   0.342   1.216
  109SOL    HW2 1227   0.565   0.342   1.300
  110SOL     OW 1228   4.158   6.316   5.400
  110SOL    HW1 1229   4.174   6.343   5.306
  110SOL    HW2 1230   4.064   6.339   5.426
  111SOL     OW 1231   3.753   0.628   4.161
  111SOL    HW1 1232   3.698   0.545   4.152
  111SOL    HW2 1233   3.766   0.648   4.257
  112SOL     OW 1234   6.127   5.971   6.286
  112SOL    HW1 1235   6.097   5.985   6.381
  112SOL    HW2 1236   6.063   5.909   6.240
  113SOL     OW 1237   6.653   4.991   3.333
  113SOL    HW1 1238   6.696   4.950   3.413
  113SOL    HW2 1239   6.677   4.939   3.251
  114SOL     OW 1240   0.920   7.005   0.530
  114SOL    HW1 1241   0.926   6.944   0.451
  114SOL    HW2 1242   0.923   6.950   0.614
  115SOL     OW 1243   4.525   1.104   4.194
  115SOL    HW1 1244   4.579   1.030   4.233
  115SOL    HW2 1245   4.553   1.191   4.235
  116SOL     OW 1246   5.891   5.715   2.465
  116SOL    HW1 1247   5.927   5.717   2.372
  116SOL    HW2 1248   5.956   5.760   2.527
  117SOL     OW 1249   0.696   1.420   6.528
  117SOL    HW1 1250   0.629   1.354   6.494
  117SOL    HW2 1251   0.666   1.512   6.505
  118SOL     OW 1252   0.385   1.735   2.337
  118SOL    HW1 1253   0.288   1.713   2.324
  118SOL    HW2 1254   0.432   1.731   2.250
  119SOL     OW 1255   0.855   2.540   6.636
  119SOL    HW1 1256   0.871   2.469   6.567
  119SOL    HW2 1257   0.920   2.530   6.710
  120SOL     OW 1258   0.046   6.648   0.807
  120SOL    HW1 1259   0.013   6.674   0.898
  120SOL    HW2 1260   0.093   6.726   0.765
  121SOL     OW 1261   2.715   3.476   0.374
  121SOL    HW1 1262   2.625   3.486   0.417
  121SOL    HW2 1263   2.737   3.559   0.324
  122SOL     OW 1264   1.454   4.388   5.780
  122SOL    HW1 1265   1.554   4.395   5.770
  122SOL    HW2 1266   1.425   4.296   5.756
  123SOL     OW 1267   0.318   2.072   1.635
  123SOL    HW1 1268   0.248   2.002   1.622
  123SOL    HW2 1269   0.407   2.036   1.610
  124SOL     OW 1270   5.361   3.407   0.321
  124SOL    HW1 1271   5.359   3.503   0.350
  124SOL    HW2 1272   5.371   3.403   0.221
  125SOL     OW 1273   2.244   1.602   2.482
  125SOL    HW1 1274   2.151   1.580   2.514
  125SOL    HW2 1275   2.239   1.678   2.418
  126SOL     OW 1276   2.734   5.234   0.607
  126SOL    HW1 1277   2.733   5.147   0.657
  126SOL    HW2 1278   2.643   5.252   0.570
  127SOL     OW 1279   0.181   4.744   6.271
  127SOL    HW1 1280   0.275   4.713   6.279
  127SOL    HW2 1281   0.119   4.670   6.300
  128SOL     OW 1282   4.417   2.897   1.384
  128SOL    HW1 1283   4.515   2.909   1.399
  128SOL    HW2 1284   4.382   2.971   1.327
  129SOL     OW 1285   4.268   3.751   5.641
  129SOL    HW1 1286   4.332   3.674   5.633
  129SOL    HW2 1287   4.320   3.835   5.656
  130SOL     OW 1288   0.743   0.925   4.232
  130SOL    HW1 1289   0.679   0.850   4.246
  130SOL    HW2 1290   0.831   0.889   4.198
  131SOL     OW 1291   4.860   0.747   2.475
  131SOL    HW1 1292   4.863   0.847   2.473
  131SOL    HW2 1293   4.812   0.716   2.556
  132SOL     OW 1294   1.794   2.861   0.719
  132SOL    HW1 1295   1.851   2.924   0.773
  132SOL    HW2 1296   1.828   2.857   0.625
  133SOL     OW 1297   5.412   6.923   3.082
  133SOL    HW1 1298   5.424   6.858   3.007
  133SOL    HW2 1299   5.320   6.963   3.076
  134SOL     OW 1300   5.729   2.232   3.073
  134SOL    HW1 1301   5.651   2.295   3.070
  134SOL    HW2 1302   5.699   2.143   3.107
  135SOL     OW 1303   5.095   2.705   2.242
  135SOL    HW1 1304   5.058   2.613   2.229
  135SOL    HW2 1305   5.035   2.772   2.198
  136SOL     OW 1306   4.593   3.934   6.791
  136SOL    HW1 1307   4.635   4.020   6.819
  136SOL    HW2 1308   4.534   3.901   6.864
  137SOL     OW 1309   4.294   0.256   5.220
  137SOL    HW1 1310   4.326   0.192   5.149
  137SOL    HW2 1311   4.328   0.226   5.309
  138SOL     OW 1312   0.412   4.894   4.189
  138SOL    HW1 1313   0.345   4.959   4.224
  138SOL    HW2 1314   0.470   4.861   4.263
  139SOL     OW 1315   2.291   6.256   5.159
  139SOL    HW1 1316   2.354   6.179   5.170
  139SOL    HW2 1317   2.281   6.277   5.062
  140SOL     OW 1318   0.051   5.970   3.654
  140SOL    HW1 1319   0.104   5.928   3.728
  140SOL    HW2 1320   0.040   5.904   3.579
  141SOL     OW 1321   6.956   1.861   5.298
  141SOL    HW1 1322   6.972   1.960   5.296
  141SOL    HW2 1323   7.007   1.818   5.224
  142SOL     OW 1324   2.013   5.897   1.039
  142SOL    HW1 1325   1.943   5.968   1.035
  142SOL    HW2 1326   2.088   5.921   0.977
  143SOL     OW 1327   5.312   4.757   2.388
  143SOL    HW1 1328   5.295   4.695   2.465
  143SOL    HW2 1329   5.359   4.707   2.315
  144SOL     OW 1330   1.706   6.808   6.111
  144SOL    HW1 1331   1.668   6.723   6.073
  144SOL    HW2 1332   1.761   6.854   6.042
  145SOL     OW 1333   0.877   4.960   0.694
  145SOL    HW1 1334   0.921   4.913   0.617
  145SOL    HW2 1335   0.780   4.973   0.674
  146SOL     OW 1336   4.312   6.585   5.977
  146SOL    HW1 1337   4.339   6.601   6.071
  146SOL    HW2 1338   4.222   6.625   5.961
  147SOL     OW 1339   6.174   2.791   0.176
  147SOL    HW1 1340   6.210   2.864   0.233
  147SOL    HW2 1341   6.247   2.752   0.121
  148SOL     OW 1342   0.631   4.868   6.258
  148SOL    HW1 1343   0.543   4.917   6.258
  148SOL    HW2 1344   0.689   4.904   6.331
  149SOL     OW 1345   2.884   1.496   4.132
  149SOL    HW1 1346   2.856   1.428   4.200
  149SOL    HW2 1347   2.818   1.571   4.130
  150SOL     OW 1348   6.365   4.957   6.111
  150SOL    HW1 1349   6.291   4.943   6.046
  150SOL    HW2 1350   6.360   5.050   6.148
  151SOL     OW 1351   3.753   2.257   1.093
  151SOL    HW1 1352   3.828   2.191   1.098
  151SOL    HW2 1353   3.683   2.223   1.030
  152SOL     OW 1354   1.811   1.175   4.431
  152SOL    HW1 1355   1.862   1.252   4.468
  152SOL    HW2 1356   1.719   1.174   4.471
  153SOL     OW 1357   2.626   0.129   1.820
  153SOL    HW1 1358   2.632   0.192   1.897
  153SOL    HW2 1359   2.546   0.071   1.831
  154SOL     OW 1360   0.017   3.333   2.376
  154SOL    HW1 1361   0.042   3.336   2.280
  154SOL    HW2 1362   7.016   3.239   2.402
  155SOL     OW 1363   0.637   1.507   3.530
  155SOL    HW1 1364   0.644   1.530   3.627
  155SOL    HW2 1365   0.703   1.562   3.478
  156SOL     OW 1366   6.874   1.921   1.569
  156SOL    HW1 1367   6.824   1.973   1.500
  156SOL    HW2 1368   6.820   1.841   1.596
  157SOL     OW 1369   5.841   3.302   2.028
  157SOL    HW1 1370   5.819   3.205   2.017
  157SOL    HW2 1371   5.935   3.319   1.998
  158SOL     OW 1372   2.632   6.988   2.396
  158SOL    HW1 1373   2.657   6.895   2.368
  158SOL    HW2 1374   2.706   0.028   2.371
  159SOL     OW 1375   4.713   4.703   1.086
  159SOL    HW1 1376   4.715   4.695   0.986
  159SOL    HW2 1377   4.635   4.653   1.122
  160SOL     OW 1378   0.057   4.540   6.388
  160SOL    HW1 1379   0.110   4.524   6.471
  160SOL    HW2 1380   0.093   4.482   6.315
  161SOL     OW 1381   1.995   4.972   4.734
  161SOL    HW1 1382   2.009   5.064   4.695
  161SOL    HW2 1383   1.897   4.953   4.739
  162SOL     OW 1384   4.198   6.466   0.377
  162SOL    HW1 1385   4.285   6.514   0.367
  162SOL    HW2 1386   4.139   6.487   0.299
  163SOL     OW 1387   4.767   5.839   1.224
  163SOL    HW1 1388   4.723   5.765   1.274
  163SOL    HW2 1389   4.697   5.893   1.176
  164SOL     OW 1390   0.002   3.808   1.602
  164SOL    HW1 1391   0.035   3.859   1.522
  164SOL    HW2 1392   0.016   3.862   1.684
  165SOL     OW 1393   5.265   3.181   1.142
  165SOL    HW1 1394   5.222   3.092   1.160
  165SOL    HW2 1395   5.195   3.246   1.110
  166SOL     OW 1396   0.043   5.276   3.515
  166SOL    HW1 1397   0.050   5.343   3.441
  166SOL    HW2 1398   6.969   5.263   3.539
  167SOL     OW 1399   6.041   2.126   0.559
  167SOL    HW1 1400   6.034   2.045   0.618
  167SOL    HW2 1401   5.966   2.188   0.579
  168SOL     OW 1402   2.932   3.497   1.087
  168SOL    HW1 1403   3.001   3.494   1.159
  168SOL    HW2 1404   2.860   3.562   1.112
  169SOL     OW 1405   3.551   0.138   2.054
  169SOL    HW1 1406   3.479   0.075   2.025
  169SOL    HW2 1407   3.510   0.225   2.083
  170SOL     OW 1408   0.502   1.748   3.620
  170SOL    HW1 1409   0.494   1.718   3.525
  170SOL    HW2 1410   0.472   1.674   3.681
  171SOL     OW 1411   3.559   4.158   0.267
  171SOL    HW1 1412   3.622   4.218   0.219
  171SOL    HW2 1413   3.593   4.140   0.360
  172SOL     OW 1414   5.954   1.159   4.403
  172SOL    HW1 1415   5.921   1.078   4.356
  172SOL    HW2 1416   5.887   1.187   4.472
  173SOL     OW 1417   6.238   0.566   4.637
  173SOL    HW1 1418   6.313   0.628   4.659
  173SOL    HW2 1419   6.274   0.485   4.592
  174SOL     OW 1420   2.894   5.672   3.608
  174SOL    HW1 1421   2.878   5.579   3.640
  174SOL    HW2 1422   2.931   5.727   3.683
  175SOL     OW 1423   2.070   6.959   1.958
  175SOL    HW1 1424   2.063   6.998   2.050
  175SOL    HW2 1425   2.063   6.860   1.963
  176SOL     OW 1426   1.931   3.742   0.705
  176SOL    HW1 1427   1.995   3.726   0.630
  176SOL    HW2 1428   1.900   3.837   0.703
  177SOL     OW 1429   5.446   2.798   2.944
  177SOL    HW1 1430   5.465   2.798   2.845
  177SOL    HW2 1431   5.356   2.838   2.961
  178SOL     OW 1432   4.915   3.507   6.186
  178SOL    HW1 1433   5.014   3.495   6.190
  178SOL    HW2 1434   4.893   3.602   6.167
  179SOL     OW 1435   3.078   1.752   6.133
  179SOL    HW1 1436   3.089   1.779   6.229
  179SOL    HW2 1437   3.149   1.686   6.109
  180SOL     OW 1438   1.155   0.924   6.490
  180SOL    HW1 1439   1.223   0.873   6.543
  180SOL    HW2 1440   1.083   0.955   6.551
  181SOL     OW 1441   3.713   1.463   6.849
  181SOL    HW1 1442   3.614   1.475   6.858
  181SOL    HW2 1443   3.753   1.447   6.939
  182SOL     OW 1444   4.178   2.262   4.680
  182SOL    HW1 1445   4.140   2.221   4.763
  182SOL    HW2 1446   4.245   2.332   4.706
  183SOL     OW 1447   3.734   0.959   3.356
  183SOL    HW1 1448   3.686   1.027   3.300
  183SOL    HW2 1449   3.784   1.006   3.429
  184SOL     OW 1450   1.512   5.774   3.538
  184SOL    HW1 1451   1.465   5.776   3.450
  184SOL    HW2 1452   1.512   5.866   3.578
  185SOL     OW 1453   1.637   2.769   6.369
  185SOL    HW1 1454   1.665   2.684   6.325
  185SOL    HW2 1455   1.563   2.751   6.433
  186SOL     OW 1456   6.812   1.101   3.548
  186SOL    HW1 1457   6.860   1.032   3.603
  186SOL    HW2 1458   6.802   1.067   3.454
  187SOL     OW 1459   4.906   1.200   3.059
  187SOL    HW1 1460   4.833   1.211   3.127
  187SOL    HW2 1461   4.987   1.251   3.089
  188SOL     OW 1462   5.971   2.354   3.048
  188SOL    HW1 1463   6.048   2.302   3.013
  188SOL    HW2 1464   5.888   2.299   3.044
  189SOL     OW 1465   1.747   5.419   2.778
  189SOL    HW1 1466   1.675   5.486   2.798
  189SOL    HW2 1467   1.818   5.462   2.721
  190SOL     OW 1468   3.860   1.505   4.966
  190SOL    HW1 1469   3.871   1.496   5.065
  190SOL    HW2 1470   3.831   1.417   4.928
  191SOL     OW 1471   5.651   5.439   6.322
  191SOL    HW1 1472   5.622   5.445   6.418
  191SOL    HW2 1473   5.637   5.346   6.288
  192SOL     OW 1474   0.363   6.568   2.153
  192SOL    HW1 1475   0.436   6.521   2.103
  192SOL    HW2 1476   0.278   6.563   2.100
  193SOL     OW 1477   5.118   2.676   6.021
  193SOL    HW1 1478   5.062   2.612   6.074
  193SOL    HW2 1479   5.060   2.741   5.974
  194SOL     OW 1480   3.638   0.783   3.087
  194SOL    HW1 1481   3.737   0.797   3.093
  194SOL    HW2 1482   3.604   0.745   3.173
  195SOL     OW 1483   1.888   6.016   3.738
  195SOL    HW1 1484   1.848   6.015   3.647
  195SOL    HW2 1485   1.820   5.985   3.804
  196SOL     OW 1486   2.355   2.917   6.721
  196SOL    HW1 1487   2.365   2.837   6.781
  196SOL    HW2 1488   2.369   2.888   6.626
  197SOL     OW 1489   2.525   1.505   1.185
  197SOL    HW1 1490   2.621   1.518   1.212
  197SOL    HW2 1491   2.466   1.516   1.265
  198SOL     OW 1492   4.466   1.184   3.218
  198SOL    HW1 1493   4.403   1.112   3.250
  198SOL    HW2 1494   4.433   1.273   3.250
  199SOL     OW 1495   1.138   2.782   3.924
  199SOL    HW1 1496   1.087   2.759   3.841
  199SOL    HW2 1497   1.117   2.716   3.996
  200SOL     OW 1498   0.611   2.721   0.996
  200SOL    HW1 1499   0.524   2.766   0.972
  200SOL    HW2 1500   0.686   2.772   0.954
  201SOL     OW 1501   0.199   0.030   5.969
  201SOL    HW1 1502   0.243   0.036   6.058
  201SOL    HW2 1503   0.178   0.121   5.935
  202SOL     OW 1504   4.594   1.004   6.570
  202SOL    HW1 1505   4.580   0.906   6.585
  202SOL    HW2 1506   4.506   1.047   6.550
  203SOL     OW 1507   5.961   2.101   5.647
  203SOL    HW1 1508   5.952   2.197   5.620
  203SOL    HW2 1509   5.913   2.043   5.581
  204SOL     OW 1510   0.536   0.268   5.640
  204SOL    HW1 1511   0.573   0.195   5.583
  204SOL    HW2 1512   0.590   0.352   5.624
  205SOL     OW 1513   1.648   2.263   3.266
  205SOL    HW1 1514   1.554   2.232   3.252
  205SOL    HW2 1515   1.682   2.305   3.182
  206SOL     OW 1516   0.675   2.916   1.664
  206SOL    HW1 1517   0.635   2.888   1.751
  206SOL    HW2 1518   0.642   2.856   1.591
  207SOL     OW 1519   5.239   1.235   2.991
  207SOL    HW1 1520   5.219   1.201   3.083
  207SOL    HW2 1521   5.276   1.328   2.997
  208SOL     OW 1522   6.888   4.290   5.620
  208SOL    HW1 1523   6.910   4.232   5.541
  208SOL    HW2 1524   6.803   4.339   5.603
  209SOL     OW 1525   6.638   4.301   2.713
  209SOL    HW1 1526   6.659   4.225   2.650
  209SOL    HW2 1527   6.561   4.353   2.677
  210SOL     OW 1528   4.074   1.954   0.381
  210SOL    HW1 1529   4.140   2.028   0.394
  210SOL    HW2 1530   4.104   1.873   0.431
  211SOL     OW 1531   0.824   0.173   2.568
  211SOL    HW1 1532   0.902   0.235   2.580
  211SOL    HW2 1533   0.739   0.223   2.587
  212SOL     OW 1534   1.476   3.755   2.829
  212SOL    HW1 1535   1.522   3.823   2.772
  212SOL    HW2 1536   1.508   3.663   2.803
  213SOL     OW 1537   2.030   5.655   0.816
  213SOL    HW1 1538   1.948   5.606   0.846
  213SOL    HW2 1539   2.040   5.739   0.869
  214SOL     OW 1540   3.873   4.950   2.441
  214SOL    HW1 1541   3.786   4.902   2.429
  214SOL    HW2 1542   3.948   4.884   2.434
  215SOL     OW 1543   2.411   4.597   1.072
  215SOL    HW1 1544   2.412   4.692   1.103
  215SOL    HW2 1545   2.399   4.536   1.150
  216SOL     OW 1546   0.792   0.030   2.969
  216SOL    HW1 1547   0.829   0.032   3.062
  216SOL    HW2 1548   0.717   6.987   2.964
  217SOL     OW 1549   1.082   2.559   5.370
  217SOL    HW1 1550   1.066   2.519   5.461
  217SOL    HW2 1551   1.031   2.508   5.302
  218SOL     OW 1552   0.899   1.799   4.579
  218SOL    HW1 1553   0.857   1.762   4.495
  218SOL    HW2 1554   0.998   1.788   4.574
  219SOL     OW 1555   4.498   0.800   0.568
  219SOL    HW1 1556   4.402   0.774   0.556
  219SOL    HW2 1557   4.553   0.718   0.586
  220SOL     OW 1558   2.687   0.143   1.196
  220SOL    HW1 1559   2.689   0.161   1.098
  220SOL    HW2 1560   2.633   0.214   1.242
  221SOL     OW 1561   6.344   4.513   1.557
  221SOL    HW1 1562   6.321   4.477   1.467
  221SOL    HW2 1563   6.309   4.606   1.566
  222SOL     OW 1564   1.718   4.374   6.678
  222SOL    HW1 1565   1.784   4.379   6.754
  222SOL    HW2 1566   1.682   4.281   6.672
  223SOL     OW 1567   0.026   2.800   4.905
  223SOL    HW1 1568   6.959   2.785   4.947
  223SOL    HW2 1569   0.017   2.862   4.828
  224SOL     OW 1570   3.426   2.086   6.139
  224SOL    HW1 1571   3.435   2.086   6.238
  224SOL    HW2 1572   3.336   2.121   6.113
  225SOL     OW 1573   4.157   3.312   6.187
  225SOL    HW1 1574   4.200   3.277   6.270
  225SOL    HW2 1575   4.228   3.340   6.122
  226SOL     OW 1576   0.839   1.673   6.249
  226SOL    HW1 1577   0.829   1.716   6.339
  226SOL    HW2 1578   0.933   1.641   6.238
  227SOL     OW 1579   2.355   4.260   2.693
  227SOL    HW1 1580   2.314   4.229   2.779
  227SOL    HW2 1581   2.395   4.182   2.645
  228SOL     OW 1582   2.146   0.890   3.115
  228SOL    HW1 1583   2.055   0.929   3.127
  228SOL    HW2 1584   2.139   0.792   3.098
  229SOL     OW 1585   5.421   5.089   6.569
  229SOL    HW1 1586   5.500   5.088   6.630
  229SOL    HW2 1587   5.375   5.178   6.576
  230SOL     OW 1588   4.376   6.012   4.718
  230SOL    HW1 1589   4.355   5.919   4.690
  230SOL    HW2 1590   4.328   6.077   4.659
  231SOL     OW 1591   5.690   1.083   6.899
  231SOL    HW1 1592   5.739   1.164   6.930
  231SOL    HW2 1593   5.592   1.096   6.912
  232SOL     OW 1594   6.857   2.966   6.370
  232SOL    HW1 1595   6.838   2.881   6.320
  232SOL    HW2 1596   6.853   2.950   6.468
  233SOL     OW 1597   3.616   1.929   3.885
  233SOL    HW1 1598   3.604   2.002   3.953
  233SOL    HW2 1599   3.575   1.957   3.799
  234SOL     OW 1600   6.182   0.815   6.483
  234SOL    HW1 1601   6.184   0.716   6.471
  234SOL    HW2 1602   6.268   0.845   6.524
  235SOL     OW 1603   5.361   3.183   2.412
  235SOL    HW1 1604   5.286   3.233   2.368
  235SOL    HW2 1605   5.422   3.248   2.456
  236SOL     OW 1606   5.188   3.110   0.096
  236SOL    HW1 1607   5.148   3.102   0.005
  236SOL    HW2 1608   5.288   3.108   0.090
  237SOL     OW 1609   0.252   4.307   1.892
  237SOL    HW1 1610   0.311   4.253   1.832
  237SOL    HW2 1611   0.284   4.401   1.896
  238SOL     OW 1612   6.636   1.174   0.773
  238SOL    HW1 1613   6.646   1.109   0.848
  238SOL    HW2 1614   6.701   1.249   0.785
  239SOL     OW 1615   1.060   3.752   0.025
  239SOL    HW1 1616   0.962   3.737   0.039
  239SOL    HW2 1617   1.076   3.850   0.008
  240SOL     OW 1618   0.208   2.910   3.314
  240SOL    HW1 1619   0.191   2.861   3.399
  240SOL    HW2 1620   0.282   2.975   3.327
  241SOL     OW 1621   2.497   2.582   4.390
  241SOL    HW1 1622   2.420   2.645   4.378
  241SOL    HW2 1623   2.465   2.488   4.381
  242SOL     OW 1624   3.489   3.805   3.137
  242SOL    HW1 1625   3.509   3.873   3.067
  242SOL    HW2 1626   3.562   3.804   3.205
  243SOL     OW 1627   4.587   1.642   7.004
  243SOL    HW1 1628   4.609   1.643   0.079
  243SOL    HW2 1629   4.579   1.736   6.971
  244SOL     OW 1630   5.842   3.723   6.196
  244SOL    HW1 1631   5.820   3.725   6.098
  244SOL    HW2 1632   5.852   3.628   6.226
  245SOL     OW 1633   4.200   1.886   3.913
  245SOL    HW1 1634   4.235   1.792   3.918
  245SOL    HW2 1635   4.276   1.950   3.926
  246SOL     OW 1636   4.932   1.932   3.131
  246SOL    HW1 1637   4.962   1.876   3.054
  246SOL    HW2 1638   4.866   2.001   3.099
  247SOL     OW 1639   2.949   1.803   1.296
  247SOL    HW1 1640   3.016   1.864   1.338
  247SOL    HW2 1641   2.943   1.822   1.198
  248SOL     OW 1642   1.885   0.753   2.753
  248SOL    HW1 1643   1.948   0.691   2.800
  248SOL    HW2 1644   1.794   0.744   2.793
  249SOL     OW 1645   5.315   7.007   5.051
  249SOL    HW1 1646   5.235   6.975   5.001
  249SOL    HW2 1647   5.325   0.084   5.039
  250SOL     OW 1648   3.826   3.762   0.707
  250SOL    HW1 1649   3.803   3.666   0.688
  250SOL    HW2 1650   3.782   3.821   0.641
  251SOL     OW 1651   4.702   3.320   5.308
  251SOL    HW1 1652   4.611   3.289   5.337
  251SOL    HW2 1653   4.692   3.401   5.250
  252SOL     OW 1654   5.985   6.954   5.543
  252SOL    HW1 1655   6.069   6.919   5.502
  252SOL    HW2 1656   5.946   0.002   5.484
  253SOL     OW 1657   3.919   4.985   6.316
  253SOL    HW1 1658   3.828   5.009   6.350
  253SOL    HW2 1659   3.987   5.047   6.354
  254SOL     OW 1660   7.017   2.079   3.480
  254SOL    HW1 1661   6.967   1.992   3.482
  254SOL    HW2 1662   6.979   2.141   3.549
  255SOL     OW 1663   1.693   4.547   5.894
  255SOL    HW1 1664   1.707   4.502   5.982
  255SOL    HW2 1665   1.781   4.562   5.849
  256SOL     OW 1666   5.537   3.243   6.150
  256SOL    HW1 1667   5.572   3.171   6.209
  256SOL    HW2 1668   5.475   3.302   6.201
  257SOL     OW 1669   5.313   0.038   2.710
  257SOL    HW1 1670   5.255   6.980   2.723
  257SOL    HW2 1671   5.263   0.107   2.658
  258SOL     OW 1672   2.487   3.726   5.322
  258SOL    HW1 1673   2.587   3.716   5.324
  258SOL    HW2 1674   2.464   3.813   5.279
  259SOL     OW 1675   5.777   1.120   1.899
  259SOL    HW1 1676   5.798   1.101   1.995
  259SOL    HW2 1677   5.695   1.177   1.893
  260SOL     OW 1678   3.795   5.725   3.134
  260SOL    HW1 1679   3.862   5.799   3.137
  260SOL    HW2 1680   3.813   5.666   3.055
  261SOL     OW 1681   5.555   4.661   1.471
  261SOL    HW1 1682   5.495   4.737   1.448
  261SOL    HW2 1683   5.539   4.585   1.408
  262SOL     OW 1684   1.672   3.968   0.716
  262SOL    HW1 1685   1.600   4.005   0.774
  262SOL    HW2 1686   1.733   4.042   0.687
  263SOL     OW 1687   1.471   0.282   4.459
  263SOL    HW1 1688   1.493   0.369   4.503
  263SOL    HW2 1689   1.493   0.288   4.361
  264SOL     OW 1690   6.388   2.592   0.463
  264SOL    HW1 1691   6.421   2.657   0.396
  264SOL    HW2 1692   6.440   2.601   0.548
  265SOL     OW 1693   6.310   6.418   2.771
  265SOL    HW1 1694   6.386   6.431   2.835
  265SOL    HW2 1695   6.302   6.321   2.748
  266SOL     OW 1696   4.499   3.047   5.833
  266SOL    HW1 1697   4.500   2.947   5.833
  266SOL    HW2 1698   4.502   3.080   5.927
  267SOL     OW 1699   0.882   1.425   5.428
  267SOL    HW1 1700   0.879   1.468   5.519
  267SOL    HW2 1701   0.814   1.353   5.423
  268SOL     OW 1702   2.784   1.213   6.389
  268SOL    HW1 1703   2.704   1.156   6.407
  268SOL    HW2 1704   2.797   1.278   6.464
  269SOL     OW 1705   2.387   3.030   0.767
  269SOL    HW1 1706   2.399   2.977   0.683
  269SOL    HW2 1707   2.451   2.998   0.837
  270SOL     OW 1708   0.676   6.274   0.290
  270SOL    HW1 1709   0.632   6.221   0.218
  270SOL    HW2 1710   0.725   6.213   0.352
  271SOL     OW 1711   0.208   1.600   6.530
  271SOL    HW1 1712   0.128   1.580   6.586
  271SOL    HW2 1713   0.264   1.670   6.575
  272SOL     OW 1714   3.787   6.473   3.786
  272SOL    HW1 1715   3.858   6.431   3.841
  272SOL    HW2 1716   3.700   6.426   3.802
  273SOL     OW 1717   1.824   4.793   5.153
  273SOL    HW1 1718   1.841   4.798   5.252
  273SOL    HW2 1719   1.740   4.840   5.131
  274SOL     OW 1720   3.521   1.474   3.353
  274SOL    HW1 1721   3.463   1.525   3.415
  274SOL    HW2 1722   3.605   1.447   3.400
  275SOL     OW 1723   6.936   6.301   2.571
  275SOL    HW1 1724   6.928   6.305   2.471
  275SOL    HW2 1725   6.861   6.246   2.608
  276SOL     OW 1726   0.267   6.664   3.609
  276SOL    HW1 1727   0.328   6.584   3.606
  276SOL    HW2 1728   0.214   6.662   3.694
  277SOL     OW 1729   1.814   3.942   6.911
  277SOL    HW1 1730   1.741   3.983   6.968
  277SOL    HW2 1731   1.862   3.872   6.964
  278SOL     OW 1732   0.146   3.306   2.615
  278SOL    HW1 1733   0.075   3.241   2.641
  278SOL    HW2 1734   0.129   3.340   2.522
  279SOL     OW 1735   5.432   2.703   4.487
  279SOL    HW1 1736   5.497   2.772   4.455
  279SOL    HW2 1737   5.433   2.625   4.424
  280SOL     OW 1738   2.672   5.545   1.946
  280SOL    HW1 1739   2.638   5.623   1.893
  280SOL    HW2 1740   2.757   5.571   1.993
  281SOL     OW 1741   2.086   4.498   1.684
  281SOL    HW1 1742   2.046   4.519   1.773
  281SOL    HW2 1743   2.095   4.399   1.674
  282SOL     OW 1744   3.220   0.984   5.511
  282SOL    HW1 1745   3.160   1.063   5.506
  282SOL    HW2 1746   3.204   0.924   5.433
  283SOL     OW 1747   5.873   2.494   6.741
  283SOL    HW1 1748   5.864   2.582   6.788
  283SOL    HW2 1749   5.915   2.509   6.651
  284SOL     OW 1750   1.583   3.258   4.083
  284SOL    HW1 1751   1.496   3.210   4.070
  284SOL    HW2 1752   1.612   3.249   4.179
  285SOL     OW 1753   5.443   5.146   4.290
  285SOL    HW1 1754   5.380   5.093   4.233
  285SOL    HW2 1755   5.511   5.191   4.233
  286SOL     OW 1756   3.330   4.396   6.819
  286SOL    HW1 1757   3.256   4.350   6.770
  286SOL    HW2 1758   3.412   4.397   6.762
  287SOL     OW 1759   1.471   2.947   1.115
  287SOL    HW1 1760   1.549   2.995   1.155
  287SOL    HW2 1761   1.444   2.872   1.175
  288SOL     OW 1762   4.024   1.787   6.240
  288SOL    HW1 1763   3.976   1.702   6.263
  288SOL    HW2 1764   4.073   1.821   6.320
  289SOL     OW 1765   1.769   4.044   5.446
  289SOL    HW1 1766   1.704   4.049   5.370
  289SOL    HW2 1767   1.839   3.976   5.425
  290SOL     OW 1768   6.589   1.322   5.109
  290SOL    HW1 1769   6.677   1.362   5.133
  290SOL    HW2 1770   6.573   1.241   5.165
  291SOL     OW 1771   0.729   1.531   3.814
  291SOL    HW1 1772   0.674   1.543   3.896
  291SOL    HW2 1773   0.809   1.591   3.819
  292SOL     OW 1774   2.133   1.165   3.330
  292SOL    HW1 1775   2.108   1.184   3.235
  292SOL    HW2 1776   2.128   1.249   3.384
  293SOL     OW 1777   4.626   6.109   3.242
  293SOL    HW1 1778   4.664   6.195   3.276
  293SOL    HW2 1779   4.541   6.127   3.193
  294SOL     OW 1780   6.074   6.244   0.065
  294SOL    HW1 1781   6.126   6.191   7.020
  294SOL    HW2 1782   6.085   6.203   0.155
  295SOL     OW 1783   4.191   0.660   2.849
  295SOL    HW1 1784   4.128   0.640   2.774
  295SOL    HW2 1785   4.149   0.636   2.936
  296SOL     OW 1786   3.774   1.699   2.811
  296SOL    HW1 1787   3.761   1.611   2.766
  296SOL    HW2 1788   3.713   1.706   2.890
  297SOL     OW 1789   2.437   4.390   3.358
  297SOL    HW1 1790   2.347   4.350   3.343
  297SOL    HW2 1791   2.445   4.421   3.453
  298SOL     OW 1792   5.696   5.792   0.588
  298SOL    HW1 1793   5.731   5.816   0.498
  298SOL    HW2 1794   5.753   5.835   0.658
  299SOL     OW 1795   6.327   2.644   4.898
  299SOL    HW1 1796   6.413   2.605   4.864
  299SOL    HW2 1797   6.254   2.625   4.833
  300SOL     OW 1798   6.578   0.475   3.258
  300SOL    HW1 1799   6.492   0.502   3.300
  300SOL    HW2 1800   6.653   0.530   3.295
  301SOL     OW 1801   5.361   3.674   6.861
  301SOL    HW1 1802   5.459   3.653   6.855
  301SOL    HW2 1803   5.345   3.734   6.940
  302SOL     OW 1804   0.836   0.747   3.738
  302SOL    HW1 1805   0.772   0.811   3.697
  302SOL    HW2 1806   0.912   0.798   3.780
  303SOL     OW 1807   5.151   0.657   2.342
  303SOL    HW1 1808   5.138   0.567   2.301
  303SOL    HW2 1809   5.117   0.656   2.436
  304SOL     OW 1810   1.872   0.211   2.939
  304SOL    HW1 1811   1.967   0.182   2.940
  304SOL    HW2 1812   1.813   0.132   2.923
  305SOL     OW 1813   0.872   3.545   6.815
  305SOL    HW1 1814   0.869   3.500   6.905
  305SOL    HW2 1815   0.966   3.565   6.791
  306SOL     OW 1816   1.655   1.206   4.189
  306SOL    HW1 1817   1.720   1.219   4.263
  306SOL    HW2 1818   1.678   1.123   4.138
  307SOL     OW 1819   4.927   0.348   1.177
  307SOL    HW1 1820   4.976   0.280   1.233
  307SOL    HW2 1821   4.861   0.301   1.119
  308SOL     OW 1822   0.596   6.067   3.233
  308SOL    HW1 1823   0.668   6.042   3.298
  308SOL    HW2 1824   0.553   6.152   3.262
  309SOL     OW 1825   3.746   4.584   5.297
  309SOL    HW1 1826   3.653   4.613   5.320
  309SOL    HW2 1827   3.748   4.484   5.287
  310SOL     OW 1828   6.939   6.569   5.723
  310SOL    HW1 1829   6.866   6.618   5.773
  310SOL    HW2 1830   6.937   6.473   5.748
  311SOL     OW 1831   6.576   5.603   1.768
  311SOL    HW1 1832   6.508   5.534   1.795
  311SOL    HW2 1833   6.554   5.690   1.811
  312SOL     OW 1834   4.825   1.563   5.130
  312SOL    HW1 1835   4.823   1.464   5.140
  312SOL    HW2 1836   4.919   1.593   5.109
  313SOL     OW 1837   2.463   4.260   1.834
  313SOL    HW1 1838   2.515   4.338   1.801
  313SOL    HW2 1839   2.419   4.283   1.921
  314SOL     OW 1840   3.263   5.613   0.562
  314SOL    HW1 1841   3.217   5.703   0.560
  314SOL    HW2 1842   3.223   5.554   0.492
  315SOL     OW 1843   0.635   2.770   3.515
  315SOL    HW1 1844   0.641   2.831   3.436
  315SOL    HW2 1845   0.576   2.693   3.493
  316SOL     OW 1846   2.285   2.928   4.198
  316SOL    HW1 1847   2.272   3.011   4.252
  316SOL    HW2 1848   2.274   2.950   4.101
  317SOL     OW 1849   0.281   1.043   6.913
  317SOL    HW1 1850   0.235   1.082   6.993
  317SOL    HW2 1851   0.352   1.106   6.882
  318SOL     OW 1852   1.507   4.425   0.883
  318SOL    HW1 1853   1.540   4.498   0.824
  318SOL    HW2 1854   1.407   4.426   0.883
  319SOL     OW 1855   1.001   6.717   1.348
  319SOL    HW1 1856   0.998   6.678   1.440
  319SOL    HW2 1857   0.971   6.812   1.351
  320SOL     OW 1858   6.170   3.026   0.740
  320SOL    HW1 1859   6.233   2.967   0.791
  320SOL    HW2 1860   6.086   3.038   0.793
  321SOL     OW 1861   1.638   1.900   1.908
  321SOL    HW1 1862   1.719   1.910   1.966
  321SOL    HW2 1863   1.556   1.909   1.965
  322SOL     OW 1864   3.804   2.925   4.802
  322SOL    HW1 1865   3.854   2.924   4.715
  322SOL    HW2 1866   3.706   2.923   4.784
  323SOL     OW 1867   0.446   4.335   0.661
  323SOL    HW1 1868   0.440   4.434   0.658
  323SOL    HW2 1869   0.449   4.304   0.756
  324SOL     OW 1870   1.017   3.056   4.659
  324SOL    HW1 1871   0.945   3.078   4.725
  324SOL    HW2 1872   1.094   3.118   4.671
  325SOL     OW 1873   1.735   2.986   1.535
  325SOL    HW1 1874   1.657   2.929   1.562
  325SOL    HW2 1875   1.813   2.966   1.594
  326SOL     OW 1876   1.945   6.584   6.901
  326SOL    HW1 1877   1.981   6.514   6.839
  326SOL    HW2 1878   1.933   6.670   6.851
  327SOL     OW 1879   0.229   4.583   4.685
  327SOL    HW1 1880   0.217   4.682   4.684
  327SOL    HW2 1881   0.272   4.554   4.600
  328SOL     OW 1882   4.223   4.993   2.222
  328SOL    HW1 1883   4.298   4.996   2.156
  328SOL    HW2 1884   4.207   4.899   2.251
  329SOL     OW 1885   3.212   3.552   3.259
  329SOL    HW1 1886   3.243   3.555   3.164
  329SOL    HW2 1887   3.121   3.510   3.263
  330SOL     OW 1888   3.552   6.561   1.330
  330SOL    HW1 1889   3.629   6.609   1.286
  330SOL    HW2 1890   3.528   6.606   1.415
  331SOL     OW 1891   4.489   5.458   6.061
  331SOL    HW1 1892   4.428   5.536   6.069
  331SOL    HW2 1893   4.542   5.448   6.145
  332SOL     OW 1894   3.164   1.879   3.809
  332SOL    HW1 1895   3.175   1.858   3.712
  332SOL    HW2 1896   3.195   1.801   3.863
  333SOL     OW 1897   3.833   6.416   5.977
  333SOL    HW1 1898   3.871   6.416   5.884
  333SOL    HW2 1899   3.808   6.510   6.002
  334SOL     OW 1900   3.498   6.697   2.146
  334SOL    HW1 1901   3.420   6.726   2.090
  334SOL    HW2 1902   3.464   6.648   2.227
  335SOL     OW 1903   3.724   5.751   3.600
  335SOL    HW1 1904   3.658   5.681   3.631
  335SOL    HW2 1905   3.778   5.714   3.524
  336SOL     OW 1906   2.654   0.924   3.508
  336SOL    HW1 1907   2.638   0.892   3.414
  336SOL    HW2 1908   2.568   0.920   3.559
  337SOL     OW 1909   0.462   3.233   1.876
  337SOL    HW1 1910   0.519   3.299   1.828
  337SOL    HW2 1911   0.405   3.280   1.943
  338SOL     OW 1912   3.163   3.167   1.574
  338SOL    HW1 1913   3.071   3.131   1.588
  338SOL    HW2 1914   3.223   3.134   1.647
  339SOL     OW 1915   3.959   0.086   3.038
  339SOL    HW1 1916   3.963   0.093   3.137
  339SOL    HW2 1917   3.939   0.177   3.000
  340SOL     OW 1918   5.344   4.644   4.689
  340SOL    HW1 1919   5.368   4.649   4.592
  340SOL    HW2 1920   5.256   4.597   4.698
  341SOL     OW 1921   5.054   5.961   4.237
  341SOL    HW1 1922   5.003   5.964   4.151
  341SOL    HW2 1923   5.147   5.995   4.221
  342SOL     OW 1924   5.728   4.757   0.182
  342SOL    HW1 1925   5.669   4.752   0.263
  342SOL    HW2 1926   5.731   4.852   0.149
  343SOL     OW 1927   3.678   6.484   2.098
  343SOL    HW1 1928   3.766   6.529   2.118
  343SOL    HW2 1929   3.606   6.553   2.095
  344SOL     OW 1930   1.988   5.291   0.516
  344SOL    HW1 1931   2.058   5.356   0.544
  344SOL    HW2 1932   1.973   5.225   0.590
  345SOL     OW 1933   0.737   0.438   5.551
  345SOL    HW1 1934   0.784   0.390   5.477
  345SOL    HW2 1935   0.716   0.531   5.523
  346SOL     OW 1936   1.357   0.138   2.921
  346SOL    HW1 1937   1.397   0.228   2.905
  346SOL    HW2 1938   1.420   0.067   2.889
  347SOL     OW 1939   5.551   6.848   6.697
  347SOL    HW1 1940   5.452   6.857   6.700
  347SOL    HW2 1941   5.591   6.925   6.648
  348SOL     OW 1942   4.012   5.227   1.190
  348SOL    HW1 1943   3.915   5.208   1.206
  348SOL    HW2 1944   4.057   5.244   1.277
  349SOL     OW 1945   0.316   4.531   2.784
  349SOL    HW1 1946   0.218   4.551   2.780
  349SOL    HW2 1947   0.367   4.604   2.739
  350SOL     OW 1948   3.959   3.628   1.505
  350SOL    HW1 1949   4.014   3.663   1.429
  350SOL    HW2 1950   4.011   3.636   1.590
  351SOL     OW 1951   2.599   1.720   0.519
  351SOL    HW1 1952   2.524   1.741   0.583
  351SOL    HW2 1953   2.664   1.658   0.563
  352SOL     OW 1954   3.160   0.434   5.873
  352SOL    HW1 1955   3.240   0.377   5.854
  352SOL    HW2 1956   3.183   0.530   5.857
  353SOL     OW 1957   2.065   6.263   0.816
  353SOL    HW1 1958   1.997   6.300   0.753
  353SOL    HW2 1959   2.065   6.163   0.810
  354SOL     OW 1960   4.328   1.929   6.820
  354SOL    HW1 1961   4.420   1.918   6.856
  354SOL    HW2 1962   4.292   1.839   6.793
  355SOL     OW 1963   6.549   3.051   2.724
  355SOL    HW1 1964   6.621   3.038   2.792
  355SOL    HW2 1965   6.470   2.994   2.748
  356SOL     OW 1966   4.528   4.764   4.286
  356SOL    HW1 1967   4.564   4.772   4.193
  356SOL    HW2 1968   4.429   4.769   4.284
  357SOL     OW 1969   0.346   5.648   5.436
  357SOL    HW1 1970   0.429   5.595   5.455
  357SOL    HW2 1971   0.266   5.598   5.469
  358SOL     OW 1972   6.165   0.267   1.490
  358SOL    HW1 1973   6.169   0.319   1.405
  358SOL    HW2 1974   6.154   0.329   1.568
  359SOL     OW 1975   1.645   2.312   2.521
  359SOL    HW1 1976   1.603   2.401   2.542
  359SOL    HW2 1977   1.724   2.325   2.461
  360SOL     OW 1978   4.618   6.851   6.795
  360SOL    HW1 1979   4.673   6.817   6.871
  360SOL    HW2 1980   4.665   6.927   6.751
  361SOL     OW 1981   5.331   5.915   3.289
  361SOL    HW1 1982   5.360   6.010   3.300
  361SOL    HW2 1983   5.282   5.885   3.371
  362SOL     OW 1984   2.581   4.048   0.765
  362SOL    HW1 1985   2.580   4.108   0.685
  362SOL    HW2 1986   2.519   3.971   0.751
  363SOL     OW 1987   3.949   5.325   4.466
  363SOL    HW1 1988   3.902   5.242   4.497
  363SOL    HW2 1989   4.037   5.333   4.514
  364SOL     OW 1990   1.206   5.466   5.449
  364SOL    HW1 1991   1.174   5.388   5.395
  364SOL    HW2 1992   1.292   5.441   5.494
  365SOL     OW 1993   5.248   6.177   2.349
  365SOL    HW1 1994   5.239   6.101   2.413
  365SOL    HW2 1995   5.157   6.211   2.325
  366SOL     OW 1996   6.365   1.114   7.018
  366SOL    HW1 1997   6.328   1.146   6.932
  366SOL    HW2 1998   6.401   1.021   7.007
  367SOL     OW 1999   5.603   3.290   0.926
  367SOL    HW1 2000   5.645   3.379   0.942
  367SOL    HW2 2001   5.532   3.299   0.855
  368SOL     OW 2002   1.584   4.492   5.158
  368SOL    HW1 2003   1.570   4.490   5.257
  368SOL    HW2 2004   1.681   4.505   5.138
  369SOL     OW 2005   0.070   4.556   1.742
  369SOL    HW1 2006   0.123   4.503   1.676
  369SOL    HW2 2007   7.007   4.508   1.762
  370SOL     OW 2008   2.543   0.814   6.131
  370SOL    HW1 2009   2.590   0.743   6.078
  370SOL    HW2 2010   2.602   0.843   6.206
  371SOL     OW 2011   3.018   3.119   0.194
  371SOL    HW1 2012   3.113   3.121   0.162
  371SOL    HW2 2013   3.015   3.147   0.290
  372SOL     OW 2014   6.735   6.668   5.867
  372SOL    HW1 2015   6.690   6.694   5.952
  372SOL    HW2 2016   6.728   6.743   5.801
  373SOL     OW 2017   0.240   6.221   0.697
  373SOL    HW1 2018   0.219   6.304   0.749
  373SOL    HW2 2019   0.319   6.237   0.638
  374SOL     OW 2020   3.374   0.216   2.555
  374SOL    HW1 2021   3.458   0.270   2.551
  374SOL    HW2 2022   3.363   0.178   2.647
  375SOL     OW 2023   6.236   4.790   3.416
  375SOL    HW1 2024   6.274   4.876   3.383
  375SOL    HW2 2025   6.238   4.722   3.343
  376SOL     OW 2026   1.398   2.564   3.931
  376SOL    HW1 2027   1.483   2.590   3.885
  376SOL    HW2 2028   1.324   2.624   3.901
  377SOL     OW 2029   5.091   2.186   2.568
  377SOL    HW1 2030   5.022   2.149   2.630
  377SOL    HW2 2031   5.114   2.280   2.596
  378SOL     OW 2032   4.160   3.347   5.725
  378SOL    HW1 2033   4.174   3.436   5.682
  378SOL    HW2 2034   4.076   3.347   5.778
  379SOL     OW 2035   5.659   3.900   1.367
  379SOL    HW1 2036   5.616   3.872   1.281
  379SOL    HW2 2037   5.592   3.952   1.421
  380SOL     OW 2038   1.656   1.531   1.335
  380SOL    HW1 2039   1.594   1.591   1.284
  380SOL    HW2 2040   1.733   1.586   1.369
  381SOL     OW 2041   3.217   4.570   1.149
  381SOL    HW1 2042   3.162   4.550   1.068
  381SOL    HW2 2043   3.157   4.585   1.228
  382SOL     OW 2044   3.345   5.760   0.251
  382SOL    HW1 2045   3.254   5.743   0.288
  382SOL    HW2 2046   3.403   5.800   0.322
  383SOL     OW 2047   6.616   2.517   6.990
  383SOL    HW1 2048   6.689   2.576   6.956
  383SOL    HW2 2049   6.578   2.556   0.051
  384SOL     OW 2050   0.867   5.417   5.224
  384SOL    HW1 2051   0.846   5.502   5.175
  384SOL    HW2 2052   0.794   5.396   5.289
  385SOL     OW 2053   4.693   6.265   0.258
  385SOL    HW1 2054   4.784   6.230   0.236
  385SOL    HW2 2055   4.625   6.194   0.240
  386SOL     OW 2056   3.897   6.412   5.431
  386SOL    HW1 2057   3.798   6.413   5.443
  386SOL    HW2 2058   3.935   6.502   5.452
  387SOL     OW 2059   0.114   0.641   5.183
  387SOL    HW1 2060   0.128   0.710   5.112
  387SOL    HW2 2061   0.044   0.576   5.154
  388SOL     OW 2062   6.962   2.155   5.180
  388SOL    HW1 2063   6.912   2.167   5.266
  388SOL    HW2 2064   6.952   2.237   5.124
  389SOL     OW 2065   4.360   4.697   1.638
  389SOL    HW1 2066   4.284   4.641   1.671
  389SOL    HW2 2067   4.326   4.760   1.568
  390SOL     OW 2068   3.826   1.371   0.049
  390SOL    HW1 2069   3.832   1.423   0.135
  390SOL    HW2 2070   3.907   1.315   0.037
  391SOL     OW 2071   2.929   3.682   6.277
  391SOL    HW1 2072   2.986   3.703   6.357
  391SOL    HW2 2073   2.852   3.626   6.305
  392SOL     OW 2074   1.539   3.945   2.634
  392SOL    HW1 2075   1.630   3.968   2.601
  392SOL    HW2 2076   1.474   4.015   2.603
  393SOL     OW 2077   0.875   4.136   1.201
  393SOL    HW1 2078   0.834   4.171   1.286
  393SOL    HW2 2079   0.966   4.175   1.189
  394SOL     OW 2080   6.687   1.880   6.594
  394SOL    HW1 2081   6.618   1.839   6.654
  394SOL    HW2 2082   6.662   1.863   6.499
  395SOL     OW 2083   5.369   4.976   1.688
  395SOL    HW1 2084   5.314   4.954   1.769
  395SOL    HW2 2085   5.324   4.940   1.606
  396SOL     OW 2086   2.883   1.575   2.958
  396SOL    HW1 2087   2.846   1.554   2.867
  396SOL    HW2 2088   2.820   1.543   3.028
  397SOL     OW 2089   4.216   1.549   5.245
  397SOL    HW1 2090   4.281   1.602   5.299
  397SOL    HW2 2091   4.254   1.533   5.154
  398SOL     OW 2092   2.419   0.553   4.718
  398SOL    HW1 2093   2.353   0.522   4.786
  398SOL    HW2 2094   2.512   0.546   4.755
  399SOL     OW 2095   5.466   6.302   3.911
  399SOL    HW1 2096   5.448   6.297   3.813
  399SOL    HW2 2097   5.381   6.290   3.962
  400SOL     OW 2098   6.433   0.470   4.948
  400SOL    HW1 2099   6.430   0.548   4.885
  400SOL    HW2 2100   6.357   0.408   4.927
  401SOL     OW 2101   6.918   5.689   5.561
  401SOL    HW1 2102   6.930   5.788   5.552
  401SOL    HW2 2103   7.008   5.645   5.567
  402SOL     OW 2104   6.904   0.256   2.703
  402SOL    HW1 2105   6.916   0.174   2.648
  402SOL    HW2 2106   6.989   0.278   2.750
  403SOL     OW 2107   2.947   0.909   6.089
  403SOL    HW1 2108   2.965   0.854   6.007
  403SOL    HW2 2109   2.878   0.978   6.068
  404SOL     OW 2110   4.252   5.083   4.629
  404SOL    HW1 2111   4.243   4.984   4.625
  404SOL    HW2 2112   4.285   5.110   4.719
  405SOL     OW 2113   2.537   4.558   3.855
  405SOL    HW1 2114   2.527   4.555   3.954
  405SOL    HW2 2115   2.618   4.611   3.831
  406SOL     OW 2116   0.163   5.226   5.893
  406SOL    HW1 2117   0.195   5.174   5.972
  406SOL    HW2 2118   0.087   5.179   5.850
  407SOL     OW 2119   1.605   2.953   4.304
  407SOL    HW1 2120   1.696   2.944   4.264
  407SOL    HW2 2121   1.546   2.880   4.270
  408SOL     OW 2122   3.263   1.373   3.552
  408SOL    HW1 2123   3.283   1.300   3.487
  408SOL    HW2 2124   3.214   1.336   3.630
  409SOL     OW 2125   1.057   3.961   2.611
  409SOL    HW1 2126   0.990   3.887   2.609
  409SOL    HW2 2127   1.043   4.016   2.694
  410SOL     OW 2128   1.935   2.033   1.290
  410SOL    HW1 2129   1.998   2.109   1.311
  410SOL    HW2 2130   1.953   1.957   1.353
  411SOL     OW 2131   0.547   1.958   1.566
  411SOL    HW1 2132   0.607   1.879   1.574
  411SOL    HW2 2133   0.592   2.028   1.510
  412SOL     OW 2134   1.655   4.732   1.792
  412SOL    HW1 2135   1.586   4.685   1.737
  412SOL    HW2 2136   1.742   4.682   1.787
  413SOL     OW 2137   4.742   5.405   2.680
  413SOL    HW1 2138   4.654   5.359   2.691
  413SOL    HW2 2139   4.780   5.383   2.590
  414SOL     OW 2140   2.550   6.115   3.604
  414SOL    HW1 2141   2.502   6.188   3.555
  414SOL    HW2 2142   2.600   6.058   3.539
  415SOL     OW 2143   6.581   0.375   0.435
  415SOL    HW1 2144   6.570   0.412   0.528
  415SOL    HW2 2145   6.504   0.405   0.378
  416SOL     OW 2146   4.892   3.310   4.581
  416SOL    HW1 2147   4.800   3.273   4.568
  416SOL    HW2 2148   4.886   3.399   4.626
  417SOL     OW 2149   3.434   2.511   6.652
  417SOL    HW1 2150   3.391   2.474   6.569
  417SOL    HW2 2151   3.533   2.503   6.644
  418SOL     OW 2152   4.260   6.368   4.564
  418SOL    HW1 2153   4.193   6.416   4.620
  418SOL    HW2 2154   4.347   6.362   4.613
  419SOL     OW 2155   0.911   0.058   1.811
  419SOL    HW1 2156   0.940   0.019   1.899
  419SOL    HW2 2157   0.853   0.137   1.828
  420SOL     OW 2158   6.055   1.080   6.239
  420SOL    HW1 2159   6.055   1.139   6.320
  420SOL    HW2 2160   5.961   1.070   6.205
  421SOL     OW 2161   5.430   3.992   2.998
  421SOL    HW1 2162   5.430   3.984   2.899
  421SOL    HW2 2163   5.336   4.001   3.031
  422SOL     OW 2164   4.965   3.223   1.691
  422SOL    HW1 2165   4.993   3.296   1.629
  422SOL    HW2 2166   4.897   3.165   1.646
  423SOL     OW 2167   3.474   1.513   5.904
  423SOL    HW1 2168   3.415   1.590   5.880
  423SOL    HW2 2169   3.569   1.540   5.895
  424SOL     OW 2170   1.051   4.040   2.881
  424SOL    HW1 2171   1.151   4.031   2.883
  424SOL    HW2 2172   1.012   3.982   2.952
  425SOL     OW 2173   2.353   0.271   5.607
  425SOL    HW1 2174   2.354   0.173   5.591
  425SOL    HW2 2175   2.312   0.318   5.529
  426SOL     OW 2176   2.262   2.717   4.364
  426SOL    HW1 2177   2.264   2.771   4.280
  426SOL    HW2 2178   2.252   2.778   4.443
  427SOL     OW 2179   3.901   2.121   3.458
  427SOL    HW1 2180   3.864   2.116   3.551
  427SOL    HW2 2181   3.891   2.214   3.423
  428SOL     OW 2182   2.859   1.239   5.874
  428SOL    HW1 2183   2.815   1.224   5.785
  428SOL    HW2 2184   2.792   1.226   5.947
  429SOL     OW 2185   1.272   5.892   4.089
  429SOL    HW1 2186   1.281   5.987   4.059
  429SOL    HW2 2187   1.331   5.876   4.169
  430SOL     OW 2188   1.350   6.995   3.416
  430SOL    HW1 2189   1.374   6.914   3.470
  430SOL    HW2 2190   1.300   6.968   3.334
  431SOL     OW 2191   2.928   1.552   2.015
  431SOL    HW1 2192   2.959   1.628   1.958
  431SOL    HW2 2193   2.831   1.561   2.034
  432SOL     OW 2194   4.286   1.942   1.538
  432SOL    HW1 2195   4.273   1.956   1.440
  432SOL    HW2 2196   4.379   1.968   1.564
  433SOL     OW 2197   2.151   6.413   0.459
  433SOL    HW1 2198   2.171   6.440   0.365
  433SOL    HW2 2199   2.197   6.474   0.523
  434SOL     OW 2200   3.908   6.179   3.413
  434SOL    HW1 2201   3.967   6.156   3.336
  434SOL    HW2 2202   3.900   6.278   3.422
  435SOL     OW 2203   3.158   1.397   6.144
  435SOL    HW1 2204   3.120   1.312   6.179
  435SOL    HW2 2205   3.127   1.412   6.050
  436SOL     OW 2206   4.868   0.146   2.912
  436SOL    HW1 2207   4.869   0.160   3.011
  436SOL    HW2 2208   4.879   0.233   2.865
  437SOL     OW 2209   6.633   0.315   4.795
  437SOL    HW1 2210   6.586   0.245   4.850
  437SOL    HW2 2211   6.606   0.406   4.827
  438SOL     OW 2212   0.478   3.656   2.821
  438SOL    HW1 2213   0.436   3.569   2.797
  438SOL    HW2 2214   0.416   3.707   2.881
  439SOL     OW 2215   5.955   0.523   3.454
  439SOL    HW1 2216   5.868   0.571   3.465
  439SOL    HW2 2217   5.939   0.424   3.457
  440SOL     OW 2218   4.592   0.991   0.378
  440SOL    HW1 2219   4.674   0.971   0.324
  440SOL    HW2 2220   4.596   0.940   0.464
  441SOL     OW 2221   0.035   4.456   3.175
  441SOL    HW1 2222   0.133   4.475   3.183
  441SOL    HW2 2223   0.018   4.401   3.093
  442SOL     OW 2224   5.835   3.461   6.285
  442SOL    HW1 2225   5.772   3.421   6.352
  442SOL    HW2 2226   5.815   3.426   6.194
  443SOL     OW 2227   4.937   3.437   2.570
  443SOL    HW1 2228   4.917   3.443   2.472
  443SOL    HW2 2229   4.915   3.346   2.603
  444SOL     OW 2230   4.316   0.989   1.448
  444SOL    HW1 2231   4.320   0.941   1.360
  444SOL    HW2 2232   4.341   1.085   1.434
  445SOL     OW 2233   1.387   5.406   2.361
  445SOL    HW1 2234   1.311   5.462   2.326
  445SOL    HW2 2235   1.366   5.309   2.347
  446SOL     OW 2236   5.627   0.051   1.584
  446SOL    HW1 2237   5.602   0.144   1.610
  446SOL    HW2 2238   5.587   0.029   1.495
  447SOL     OW 2239   6.566   4.395   0.658
  447SOL    HW1 2240   6.644   4.431   0.709
  447SOL    HW2 2241   6.532   4.312   0.702
  448SOL     OW 2242   2.609   6.438   3.015
  448SOL    HW1 2243   2.549   6.409   2.941
  448SOL    HW2 2244   2.558   6.491   3.083
  449SOL     OW 2245   2.147   3.763   4.700
  449SOL    HW1 2246   2.150   3.743   4.798
  449SOL    HW2 2247   2.213   3.835   4.679
  450SOL     OW 2248   0.957   4.991   3.137
  450SOL    HW1 2249   0.964   4.955   3.229
  450SOL    HW2 2250   0.890   4.938   3.085
  451SOL     OW 2251   0.586   1.870   2.802
  451SOL    HW1 2252   0.660   1.804   2.796
  451SOL    HW2 2253   0.528   1.863   2.721
  452SOL     OW 2254   4.900   5.972   2.369
  452SOL    HW1 2255   4.922   5.875   2.354
  452SOL    HW2 2256   4.924   5.997   2.462
  453SOL     OW 2257   3.624   0.691   6.879
  453SOL    HW1 2258   3.664   0.637   6.805
  453SOL    HW2 2259   3.541   0.736   6.846
  454SOL     OW 2260   6.941   3.716   6.600
  454SOL    HW1 2261   6.995   3.742   6.680
  454SOL    HW2 2262   7.003   3.687   6.527
  455SOL     OW 2263   6.019   4.587   6.493
  455SOL    HW1 2264   6.041   4.612   6.588
  455SOL    HW2 2265   6.081   4.634   6.431
  456SOL     OW 2266   3.025   0.627   2.326
  456SOL    HW1 2267   2.943   0.608   2.380
  456SOL    HW2 2268   3.003   0.623   2.229
  457SOL     OW 2269   2.537   0.480   0.172
  457SOL    HW1 2270   2.580   0.570   0.182
  457SOL    HW2 2271   2.447   0.491   0.130
  458SOL     OW 2272   2.895   1.363   3.593
  458SOL    HW1 2273   2.844   1.356   3.679
  458SOL    HW2 2274   2.990   1.388   3.613
  459SOL     OW 2275   2.715   0.466   3.811
  459SOL    HW1 2276   2.743   0.444   3.718
  459SOL    HW2 2277   2.797   0.486   3.866
  460SOL     OW 2278   1.002   1.845   5.313
  460SOL    HW1 2279   1.052   1.897   5.382
  460SOL    HW2 2280   1.067   1.797   5.254
  461SOL     OW 2281   0.944   5.058   5.831
  461SOL    HW1 2282   0.851   5.086   5.853
  461SOL    HW2 2283   0.954   4.960   5.849
  462SOL     OW 2284   3.059   3.922   4.286
  462SOL    HW1 2285   3.081   4.001   4.342
  462SOL    HW2 2286   3.016   3.852   4.344
  463SOL     OW 2287   5.548   7.006   2.585
  463SOL    HW1 2288   5.457   7.009   2.626
  463SOL    HW2 2289   5.615   6.978   2.653
  464SOL     OW 2290   3.696   5.601   5.759
  464SOL    HW1 2291   3.724   5.506   5.771
  464SOL    HW2 2292   3.763   5.661   5.802
  465SOL     OW 2293   1.196   3.319   0.210
  465SOL    HW1 2294   1.253   3.318   0.292
  465SOL    HW2 2295   1.154   3.409   0.200
  466SOL     OW 2296   4.068   5.685   4.781
  466SOL    HW1 2297   4.151   5.686   4.835
  466SOL    HW2 2298   4.072   5.756   4.711
  467SOL     OW 2299   6.416   0.165   1.540
  467SOL    HW1 2300   6.463   0.110   1.471
  467SOL    HW2 2301   6.325   0.190   1.505
  468SOL     OW 2302   3.899   0.153   6.737
  468SOL    HW1 2303   3.884   0.243   6.778
  468SOL    HW2 2304   3.940   0.164   6.647
  469SOL     OW 2305   3.073   4.996   6.039
  469SOL    HW1 2306   2.992   5.054   6.029
  469SOL    HW2 2307   3.044   4.900   6.042
  470SOL     OW 2308   2.088   5.074   2.781
  470SOL    HW1 2309   2.163   5.100   2.721
  470SOL    HW2 2310   2.106   4.983   2.819
  471SOL     OW 2311   2.121   2.559   4.557
  471SOL    HW1 2312   2.177   2.616   4.497
  471SOL    HW2 2313   2.179   2.513   4.624
  472SOL     OW 2314   5.681   3.922   6.124
  472SOL    HW1 2315   5.655   3.895   6.032
  472SOL    HW2 2316   5.738   3.850   6.165
  473SOL     OW 2317   7.000   3.006   2.243
  473SOL    HW1 2318   6.911   3.052   2.242
  473SOL    HW2 2319   0.048   3.071   2.215
  474SOL     OW 2320   5.028   6.248   3.603
  474SOL    HW1 2321   5.001   6.343   3.615
  474SOL    HW2 2322   4.947   6.190   3.610
  475SOL     OW 2323   6.090   1.892   0.669
  475SOL    HW1 2324   6.190   1.889   0.664
  475SOL    HW2 2325   6.054   1.799   0.670
  476SOL     OW 2326   0.869   4.788   1.274
  476SOL    HW1 2327   0.793   4.797   1.338
  476SOL    HW2 2328   0.954   4.780   1.326
  477SOL     OW 2329   1.323   4.593   3.963
  477SOL    HW1 2330   1.329   4.497   3.992
  477SOL    HW2 2331   1.387   4.648   4.017
  478SOL     OW 2332   4.664   6.097   1.391
  478SOL    HW1 2333   4.702   6.035   1.461
  478SOL    HW2 2334   4.602   6.162   1.434
  479SOL     OW 2335   3.514   3.832   3.555
  479SOL    HW1 2336   3.444   3.846   3.485
  479SOL    HW2 2337   3.538   3.735   3.559
  480SOL     OW 2338   1.627   0.002   2.855
  480SOL    HW1 2339   1.638   6.996   2.760
  480SOL    HW2 2340   1.639   6.946   2.915
  481SOL     OW 2341   0.343   6.961   0.880
  481SOL    HW1 2342   0.340   6.912   0.967
  481SOL    HW2 2343   0.339   0.037   0.897
  482SOL     OW 2344   4.122   5.303   1.437
  482SOL    HW1 2345   4.203   5.247   1.420
  482SOL    HW2 2346   4.149   5.398   1.451
  483SOL     OW 2347   5.187   1.943   3.310
  483SOL    HW1 2348   5.238   2.014   3.359
  483SOL    HW2 2349   5.090   1.964   3.314
  484SOL     OW 2350   2.256   4.265   4.431
  484SOL    HW1 2351   2.244   4.355   4.388
  484SOL    HW2 2352   2.344   4.262   4.478
  485SOL     OW 2353   5.270   3.201   1.712
  485SOL    HW1 2354   5.328   3.265   1.662
  485SOL    HW2 2355   5.175   3.231   1.706
  486SOL     OW 2356   5.992   5.975   6.529
  486SOL    HW1 2357   5.948   6.049   6.579
  486SOL    HW2 2358   6.023   5.905   6.594
  487SOL     OW 2359   6.707   6.872   5.350
  487SOL    HW1 2360   6.787   6.885   5.409
  487SOL    HW2 2361   6.731   6.811   5.275
  488SOL     OW 2362   1.286   6.069   3.023
  488SOL    HW1 2363   1.326   5.978   3.029
  488SOL    HW2 2364   1.356   6.138   3.040
  489SOL     OW 2365   1.062   6.028   5.891
  489SOL    HW1 2366   1.046   6.088   5.813
  489SOL    HW2 2367   0.984   5.967   5.902
  490SOL     OW 2368   1.097   3.987   5.386
  490SOL    HW1 2369   1.168   3.966   5.318
  490SOL    HW2 2370   1.045   3.904   5.407
  491SOL     OW 2371   0.709   2.410   0.350
  491SOL    HW1 2372   0.627   2.359   0.378
  491SOL    HW2 2373   0.732   2.386   0.255
  492SOL     OW 2374   1.646   2.130   5.838
  492SOL    HW1 2375   1.583   2.067   5.883
  492SOL    HW2 2376   1.651   2.215   5.890
  493SOL     OW 2377   2.191   5.672   4.789
  493SOL    HW1 2378   2.160   5.577   4.793
  493SOL    HW2 2379   2.163   5.712   4.701
  494SOL     OW 2380   2.759   6.279   5.178
  494SOL    HW1 2381   2.699   6.247   5.105
  494SOL    HW2 2382   2.846   6.310   5.138
  495SOL     OW 2383   3.712   4.627   5.939
  495SOL    HW1 2384   3.671   4.710   5.902
  495SOL    HW2 2385   3.757   4.576   5.866
  496SOL     OW 2386   5.005   1.749   2.936
  496SOL    HW1 2387   4.925   1.784   2.888
  496SOL    HW2 2388   5.085   1.757   2.876
  497SOL     OW 2389   3.214   1.808   0.125
  497SOL    HW1 2390   3.202   1.717   0.163
  497SOL    HW2 2391   3.199   1.805   0.026
  498SOL     OW 2392   0.936   6.542   1.536
  498SOL    HW1 2393   0.933   6.444   1.518
  498SOL    HW2 2394   1.028   6.567   1.567
  499SOL     OW 2395   2.791   5.974   6.291
  499SOL    HW1 2396   2.867   6.003   6.350
  499SOL    HW2 2397   2.822   5.972   6.196
  500SOL     OW 2398   6.188   2.536   0.282
  500SOL    HW1 2399   6.163   2.630   0.260
  500SOL    HW2 2400   6.230   2.533   0.372
  501SOL     OW 2401   1.097   0.856   3.789
  501SOL    HW1 2402   1.151   0.913   3.851
  501SOL    HW2 2403   1.126   0.761   3.798
  502SOL     OW 2404   2.257   5.069   6.593
  502SOL    HW1 2405   2.165   5.101   6.572
  502SOL    HW2 2406   2.292   5.119   6.673
  503SOL     OW 2407   3.769   4.736   6.884
  503SOL    HW1 2408   3.790   4.706   6.791
  503SOL    HW2 2409   3.701   4.809   6.881
  504SOL     OW 2410   5.942   6.478   2.263
  504SOL    HW1 2411   5.956   6.572   2.234
  504SOL    HW2 2412   5.949   6.472   2.363
  505SOL     OW 2413   5.092   6.668   5.018
  505SOL    HW1 2414   5.143   6.588   4.986
  505SOL    HW2 2415   5.147   6.718   5.084
  506SOL     OW 2416   3.987   5.103   2.812
  506SOL    HW1 2417   3.929   5.069   2.887
  506SOL    HW2 2418   4.081   5.110   2.844
  507SOL     OW 2419   3.316   0.751   0.405
  507SOL    HW1 2420   3.257   0.741   0.325
  507SOL    HW2 2421   3.264   0.795   0.479
  508SOL     OW 2422   6.806   5.273   3.598
  508SOL    HW1 2423   6.726   5.292   3.541
  508SOL    HW2 2424   6.793   5.184   3.643
  509SOL     OW 2425   4.779   6.902   5.785
  509SOL    HW1 2426   4.681   6.922   5.786
  509SOL    HW2 2427   4.831   6.987   5.778
  510SOL     OW 2428   6.748   3.644   0.307
  510SOL    HW1 2429   6.666   3.657   0.252
  510SOL    HW2 2430   6.786   3.553   0.291
  511SOL     OW 2431   0.836   2.025   0.605
  511SOL    HW1 2432   0.789   1.989   0.524
  511SOL    HW2 2433   0.867   1.949   0.662
  512SOL     OW 2434   6.610   2.485   5.700
  512SOL    HW1 2435   6.598   2.479   5.799
  512SOL    HW2 2436   6.621   2.581   5.674
  513SOL     OW 2437   5.242   0.764   2.654
  513SOL    HW1 2438   5.177   0.839   2.651
  513SOL    HW2 2439   5.195   0.678   2.635
  514SOL     OW 2440   6.305   6.625   4.167
  514SOL    HW1 2441   6.326   6.560   4.094
  514SOL    HW2 2442   6.341   6.715   4.143
  515SOL     OW 2443   3.791   0.167   6.313
  515SOL    HW1 2444   3.882   0.125   6.307
  515SOL    HW2 2445   3.784   0.241   6.246
  516SOL     OW 2446   2.395   5.811   1.649
  516SOL    HW1 2447   2.303   5.784   1.676
  516SOL    HW2 2448   2.401   5.911   1.647
  517SOL     OW 2449   3.439   5.554   1.777
  517SOL    HW1 2450   3.493   5.618   1.833
  517SOL    HW2 2451   3.375   5.505   1.836
  518SOL     OW 2452   2.172   3.310   3.654
  518SOL    HW1 2453   2.100   3.262   3.703
  518SOL    HW2 2454   2.243   3.245   3.628
  519SOL     OW 2455   0.366   0.096   3.049
  519SOL    HW1 2456   0.274   0.097   3.088
  519SOL    HW2 2457   0.432   0.068   3.119
  520SOL     OW 2458   1.110   3.073   0.253
  520SOL    HW1 2459   1.102   3.025   0.166
  520SOL    HW2 2460   1.158   3.159   0.240
  521SOL     OW 2461   6.247   5.712   4.706
  521SOL    HW1 2462   6.214   5.805   4.722
  521SOL    HW2 2463   6.169   5.650   4.696
  522SOL     OW 2464   4.056   3.824   1.320
  522SOL    HW1 2465   4.114   3.823   1.238
  522SOL    HW2 2466   3.961   3.841   1.293
  523SOL     OW 2467   0.619   6.554   1.494
  523SOL    HW1 2468   0.702   6.608   1.481
  523SOL    HW2 2469   0.615   6.482   1.425
  524SOL     OW 2470   6.927   2.143   1.729
  524SOL    HW1 2471   6.890   2.132   1.822
  524SOL    HW2 2472   6.919   2.056   1.680
  525SOL     OW 2473   1.882   3.581   5.969
  525SOL    HW1 2474   1.888   3.668   5.921
  525SOL    HW2 2475   1.950   3.579   6.043
  526SOL     OW 2476   2.924   6.687   4.200
  526SOL    HW1 2477   2.904   6.761   4.264
  526SOL    HW2 2478   2.875   6.703   4.114
  527SOL     OW 2479   0.953   1.737   0.303
  527SOL    HW1 2480   0.976   1.801   0.230
  527SOL    HW2 2481   0.853   1.730   0.311
  528SOL     OW 2482   6.916   3.364   4.197
  528SOL    HW1 2483   6.989   3.306   4.232
  528SOL    HW2 2484   6.939   3.395   4.104
  529SOL     OW 2485   1.848   0.409   6.552
  529SOL    HW1 2486   1.943   0.441   6.552
  529SOL    HW2 2487   1.832   0.350   6.631
  530SOL     OW 2488   4.117   3.810   0.632
  530SOL    HW1 2489   4.019   3.794   0.641
  530SOL    HW2 2490   4.158   3.737   0.578
  531SOL     OW 2491   1.484   0.569   1.372
  531SOL    HW1 2492   1.487   0.595   1.275
  531SOL    HW2 2493   1.575   0.539   1.401
  532SOL     OW 2494   2.710   2.312   1.104
  532SOL    HW1 2495   2.694   2.316   1.005
  532SOL    HW2 2496   2.735   2.402   1.138
  533SOL     OW 2497   3.642   0.372   4.125
  533SOL    HW1 2498   3.651   0.376   4.026
  533SOL    HW2 2499   3.719   0.320   4.163
  534SOL     OW 2500   1.208   5.267   1.460
  534SOL    HW1 2501   1.144   5.190   1.469
  534SOL    HW2 2502   1.186   5.318   1.377
  535SOL     OW 2503   5.238   3.667   3.863
  535SOL    HW1 2504   5.281   3.578   3.879
  535SOL    HW2 2505   5.173   3.686   3.936
  536SOL     OW 2506   6.588   6.075   2.392
  536SOL    HW1 2507   6.645   6.157   2.393
  536SOL    HW2 2508   6.526   6.079   2.313
  537SOL     OW 2509   2.912   1.246   4.549
  537SOL    HW1 2510   2.833   1.307   4.553
  537SOL    HW2 2511   2.881   1.151   4.556
  538SOL     OW 2512   2.897   4.609   5.566
  538SOL    HW1 2513   2.939   4.692   5.603
  538SOL    HW2 2514   2.811   4.633   5.520
  539SOL     OW 2515   1.163   0.027   0.109
  539SOL    HW1 2516   1.200   7.008   0.192
  539SOL    HW2 2517   1.080   7.001   0.081
  540SOL     OW 2518   0.577   0.694   4.186
  540SOL    HW1 2519   0.618   0.643   4.110
  540SOL    HW2 2520   0.603   0.652   4.272
  541SOL     OW 2521   4.560   6.170   4.433
  541SOL    HW1 2522   4.461   6.164   4.422
  541SOL    HW2 2523   4.597   6.078   4.444
  542SOL     OW 2524   2.987   0.445   6.613
  542SOL    HW1 2525   2.957   0.357   6.577
  542SOL    HW2 2526   2.935   0.518   6.568
  543SOL     OW 2527   5.608   2.052   3.912
  543SOL    HW1 2528   5.656   2.139   3.921
  543SOL    HW2 2529   5.615   2.000   3.998
  544SOL     OW 2530   1.180   4.113   1.177
  544SOL    HW1 2531   1.203   4.207   1.204
  544SOL    HW2 2532   1.172   4.108   1.077
  545SOL     OW 2533   6.073   1.747   1.280
  545SOL    HW1 2534   5.999   1.681   1.290
  545SOL    HW2 2535   6.037   1.833   1.243
  546SOL     OW 2536   0.628   3.810   2.663
  546SOL    HW1 2537   0.573   3.893   2.673
  546SOL    HW2 2538   0.586   3.736   2.716
  547SOL     OW 2539   4.124   1.412   6.176
  547SOL    HW1 2540   4.025   1.405   6.160
  547SOL    HW2 2541   4.164   1.320   6.176
  548SOL     OW 2542   3.177   2.996   6.949
  548SOL    HW1 2543   3.147   2.941   6.871
  548SOL    HW2 2544   3.141   3.089   6.939
  549SOL     OW 2545   6.291   2.203   1.034
  549SOL    HW1 2546   6.275   2.272   1.105
  549SOL    HW2 2547   6.389   2.198   1.015
  550SOL     OW 2548   0.181   5.594   3.189
  550SOL    HW1 2549   0.155   5.614   3.094
  550SOL    HW2 2550   0.244   5.665   3.221
  551SOL     OW 2551   6.382   1.461   0.635
  551SOL    HW1 2552   6.328   1.484   0.716
  551SOL    HW2 2553   6.336   1.388   0.584
  552SOL     OW 2554   6.061   5.220   5.559
  552SOL    HW1 2555   6.038   5.209   5.462
  552SOL    HW2 2556   6.160   5.212   5.570
  553SOL     OW 2557   3.308   0.686   5.343
  553SOL    HW1 2558   3.261   0.737   5.271
  553SOL    HW2 2559   3.255   0.604   5.365
  554SOL     OW 2560   5.872   5.903   0.762
  554SOL    HW1 2561   5.852   5.906   0.860
  554SOL    HW2 2562   5.847   5.990   0.720
  555SOL     OW 2563   2.017   4.565   6.032
  555SOL    HW1 2564   2.023   4.471   6.066
  555SOL    HW2 2565   2.085   4.622   6.079
  556SOL     OW 2566   5.142   1.113   3.766
  556SOL    HW1 2567   5.199   1.142   3.690
  556SOL    HW2 2568   5.155   1.016   3.783
  557SOL     OW 2569   6.390   4.576   6.574
  557SOL    HW1 2570   6.398   4.627   6.489
  557SOL    HW2 2571   6.341   4.491   6.559
  558SOL     OW 2572   3.280   3.780   2.337
  558SOL    HW1 2573   3.275   3.875   2.306
  558SOL    HW2 2574   3.374   3.759   2.366
  559SOL     OW 2575   6.133   6.523   5.507
  559SOL    HW1 2576   6.220   6.482   5.532
  559SOL    HW2 2577   6.087   6.466   5.438
  560SOL     OW 2578   6.162   3.253   2.598
  560SOL    HW1 2579   6.168   3.349   2.627
  560SOL    HW2 2580   6.130   3.250   2.503
  561SOL     OW 2581   1.160   3.126   6.522
  561SOL    HW1 2582   1.108   3.044   6.498
  561SOL    HW2 2583   1.228   3.104   6.592
  562SOL     OW 2584   3.853   0.578   5.668
  562SOL    HW1 2585   3.869   0.504   5.603
  562SOL    HW2 2586   3.754   0.587   5.684
  563SOL     OW 2587   1.965   1.848   4.522
  563SOL    HW1 2588   2.000   1.771   4.469
  563SOL    HW2 2589   2.000   1.842   4.615
  564SOL     OW 2590   0.210   1.882   4.930
  564SOL    HW1 2591   0.176   1.820   5.001
  564SOL    HW2 2592   0.164   1.970   4.939
  565SOL     OW 2593   3.459   3.207   3.564
  565SOL    HW1 2594   3.432   3.125   3.513
  565SOL    HW2 2595   3.412   3.287   3.525
  566SOL     OW 2596   2.991   6.279   2.813
  566SOL    HW1 2597   2.912   6.225   2.783
  566SOL    HW2 2598   3.073   6.222   2.809
  567SOL     OW 2599   2.224   3.278   6.493
  567SOL    HW1 2600   2.285   3.263   6.570
  567SOL    HW2 2601   2.181   3.369   6.501
  568SOL     OW 2602   6.868   6.860   0.483
  568SOL    HW1 2603   6.786   6.868   0.539
  568SOL    HW2 2604   6.946   6.900   0.531
  569SOL     OW 2605   0.163   2.002   0.391
  569SOL    HW1 2606   0.256   2.036   0.379
  569SOL    HW2 2607   0.140   1.942   0.314
  570SOL     OW 2608   2.704   0.400   5.896
  570SOL    HW1 2609   2.795   0.372   5.864
  570SOL    HW2 2610   2.642   0.406   5.818
  571SOL     OW 2611   2.661   4.945   2.265
  571SOL    HW1 2612   2.663   5.033   2.219
  571SOL    HW2 2613   2.714   4.950   2.350
  572SOL     OW 2614   2.433   6.633   4.169
  572SOL    HW1 2615   2.498   6.707   4.186
  572SOL    HW2 2616   2.379   6.654   4.088
  573SOL     OW 2617   6.880   1.517   5.489
  573SOL    HW1 2618   6.975   1.531   5.461
  573SOL    HW2 2619   6.857   1.582   5.562
  574SOL     OW 2620   2.816   1.744   5.547
  574SOL    HW1 2621   2.753   1.679   5.505
  574SOL    HW2 2622   2.781   1.837   5.536
  575SOL     OW 2623   3.095   3.732   0.734
  575SOL    HW1 2624   3.093   3.692   0.642
  575SOL    HW2 2625   3.001   3.747   0.765
  576SOL     OW 2626   2.005   3.094   3.035
  576SOL    HW1 2627   2.081   3.029   3.026
  576SOL    HW2 2628   2.041   3.188   3.025
  577SOL     OW 2629   0.663   1.371   1.703
  577SOL    HW1 2630   0.750   1.335   1.736
  577SOL    HW2 2631   0.626   1.310   1.633
  578SOL     OW 2632   2.186   5.772   6.661
  578SOL    HW1 2633   2.195   5.681   6.702
  578SOL    HW2 2634   2.090   5.790   6.639
  579SOL     OW 2635   2.382   4.722   2.134
  579SOL    HW1 2636   2.398   4.763   2.223
  579SOL    HW2 2637   2.469   4.712   2.086
  580SOL     OW 2638   4.308   5.158   4.865
  580SOL    HW1 2639   4.338   5.091   4.934
  580SOL    HW2 2640   4.322   5.250   4.900
  581SOL     OW 2641   1.356   2.957   3.869
  581SOL    HW1 2642   1.353   3.019   3.791
  581SOL    HW2 2643   1.264   2.924   3.889
  582SOL     OW 2644   5.536   5.115   3.774
  582SOL    HW1 2645   5.625   5.070   3.782
  582SOL    HW2 2646   5.545   5.193   3.712
  583SOL     OW 2647   3.503   4.884   5.571
  583SOL    HW1 2648   3.515   4.976   5.533
  583SOL    HW2 2649   3.407   4.857   5.563
  584SOL     OW 2650   4.512   0.791   6.833
  584SOL    HW1 2651   4.483   0.728   6.760
  584SOL    HW2 2652   4.431   0.822   6.883
  585SOL     OW 2653   2.492   6.621   1.484
  585SOL    HW1 2654   2.519   6.526   1.500
  585SOL    HW2 2655   2.564   6.667   1.431
  586SOL     OW 2656   4.415   6.708   1.076
  586SOL    HW1 2657   4.495   6.724   1.019
  586SOL    HW2 2658   4.413   6.774   1.151
  587SOL     OW 2659   5.389   2.144   1.963
  587SOL    HW1 2660   5.298   2.124   2.000
  587SOL    HW2 2661   5.379   2.185   1.872
  588SOL     OW 2662   1.147   5.492   2.212
  588SOL    HW1 2663   1.070   5.551   2.187
  588SOL    HW2 2664   1.207   5.480   2.133
  589SOL     OW 2665   3.576   6.078   1.554
  589SOL    HW1 2666   3.521   6.158   1.531
  589SOL    HW2 2667   3.541   6.037   1.638
  590SOL     OW 2668   4.947   1.622   0.185
  590SOL    HW1 2669   5.013   1.550   0.162
  590SOL    HW2 2670   4.996   1.707   0.203
  591SOL     OW 2671   4.180   6.102   4.462
  591SOL    HW1 2672   4.154   6.071   4.370
  591SOL    HW2 2673   4.196   6.200   4.460
  592SOL     OW 2674   4.490   2.480   4.526
  592SOL    HW1 2675   4.505   2.456   4.622
  592SOL    HW2 2676   4.574   2.464   4.474
  593SOL     OW 2677   3.361   1.603   5.425
  593SOL    HW1 2678   3.368   1.550   5.341
  593SOL    HW2 2679   3.443   1.589   5.481
  594SOL     OW 2680   6.036   1.405   1.613
  594SOL    HW1 2681   6.042   1.342   1.536
  594SOL    HW2 2682   6.100   1.480   1.600
  595SOL     OW 2683   5.079   6.008   2.882
  595SOL    HW1 2684   5.148   5.944   2.917
  595SOL    HW2 2685   5.097   6.100   2.917
  596SOL     OW 2686   6.611   4.053   3.829
  596SOL    HW1 2687   6.696   4.053   3.882
  596SOL    HW2 2688   6.533   4.048   3.891
  597SOL     OW 2689   2.783   0.178   6.529
  597SOL    HW1 2690   2.755   0.254   6.471
  597SOL    HW2 2691   2.705   0.117   6.543
  598SOL     OW 2692   3.130   3.036   4.410
  598SOL    HW1 2693   3.167   3.006   4.498
  598SOL    HW2 2694   3.076   3.119   4.423
  599SOL     OW 2695   0.956   5.850   1.919
  599SOL    HW1 2696   1.048   5.872   1.887
  599SOL    HW2 2697   0.901   5.818   1.841
  600SOL     OW 2698   6.980   3.956   5.004
  600SOL    HW1 2699   0.027   3.892   4.971
  600SOL    HW2 2700   6.921   3.910   5.070
  601SOL     OW 2701   1.336   0.799   5.370
  601SOL    HW1 2702   1.246   0.757   5.368
  601SOL    HW2 2703   1.406   0.728   5.371
  602SOL     OW 2704   2.749   6.169   4.357
  602SOL    HW1 2705   2.783   6.090   4.408
  602SOL    HW2 2706   2.701   6.230   4.419
  603SOL     OW 2707   1.862   0.831   5.382
  603SOL    HW1 2708   1.772   0.874   5.373
  603SOL    HW2 2709   1.932   0.901   5.387
  604SOL     OW 2710   6.598   2.685   1.923
  604SOL    HW1 2711   6.517   2.739   1.947
  604SOL    HW2 2712   6.677   2.745   1.912
  605SOL     OW 2713   0.144   5.011   2.489
  605SOL    HW1 2714   0.062   5.050   2.447
  605SOL    HW2 2715   0.165   4.924   2.445
  606SOL     OW 2716   3.578   0.237   4.792
  606SOL    HW1 2717   3.546   0.317   4.843
  606SOL    HW2 2718   3.614   0.266   4.704
  607SOL     OW 2719   1.166   4.726   6.369
  607SOL    HW1 2720   1.124   4.639   6.343
  607SOL    HW2 2721   1.142   4.796   6.302
  608SOL     OW 2722   3.521   0.605   5.507
  608SOL    HW1 2723   3.444   0.637   5.451
  608SOL    HW2 2724   3.606   0.644   5.470
  609SOL     OW 2725   3.982   2.499   1.692
  609SOL    HW1 2726   3.961   2.595   1.674
  609SOL    HW2 2727   4.081   2.486   1.696
  610SOL     OW 2728   4.779   3.596   0.693
  610SOL    HW1 2729   4.758   3.517   0.751
  610SOL    HW2 2730   4.832   3.566   0.614
  611SOL     OW 2731   3.777   0.039   2.151
  611SOL    HW1 2732   3.843   0.113   2.167
  611SOL    HW2 2733   3.705   0.071   2.090
  612SOL     OW 2734   3.966   4.420   5.969
  612SOL    HW1 2735   4.055   4.375   5.972
  612SOL    HW2 2736   3.926   4.411   5.878
  613SOL     OW 2737   4.196   5.442   5.245
  613SOL    HW1 2738   4.291   5.426   5.274
  613SOL    HW2 2739   4.176   5.540   5.249
  614SOL     OW 2740   5.203   5.672   5.848
  614SOL    HW1 2741   5.233   5.597   5.788
  614SOL    HW2 2742   5.281   5.731   5.869
  615SOL     OW 2743   0.292   4.991   1.122
  615SOL    HW1 2744   0.216   4.929   1.141
  615SOL    HW2 2745   0.311   4.992   1.024
  616SOL     OW 2746   5.740   3.002   3.163
  616SOL    HW1 2747   5.700   2.911   3.172
  616SOL    HW2 2748   5.747   3.045   3.253
  617SOL     OW 2749   2.526   5.201   6.078
  617SOL    HW1 2750   2.581   5.121   6.051
  617SOL    HW2 2751   2.525   5.208   6.177
  618SOL     OW 2752   1.051   1.215   2.108
  618SOL    HW1 2753   1.113   1.205   2.030
  618SOL    HW2 2754   1.090   1.278   2.175
  619SOL     OW 2755   1.103   1.409   6.352
  619SOL    HW1 2756   1.140   1.465   6.426
  619SOL    HW2 2757   1.146   1.319   6.353
  620SOL     OW 2758   4.845   3.460   0.289
  620SOL    HW1 2759   4.803   3.381   0.334
  620SOL    HW2 2760   4.914   3.428   0.224
  621SOL     OW 2761   0.597   4.850   0.613
  621SOL    HW1 2762   0.555   4.882   0.699
  621SOL    HW2 2763   0.647   4.925   0.571
  622SOL     OW 2764   2.015   1.512   0.302
  622SOL    HW1 2765   2.026   1.488   0.206
  622SOL    HW2 2766   2.079   1.585   0.326
  623SOL     OW 2767   0.760   4.641   6.380
  623SOL    HW1 2768   0.785   4.667   6.474
  623SOL    HW2 2769   0.671   4.681   6.357
  624SOL     OW 2770   0.892   2.523   2.767
  624SOL    HW1 2771   0.853   2.540   2.858
  624SOL    HW2 2772   0.992   2.525   2.773
  625SOL     OW 2773   2.647   1.257   2.467
  625SOL    HW1 2774   2.712   1.206   2.523
  625SOL    HW2 2775   2.696   1.303   2.392
  626SOL     OW 2776   2.081   6.597   4.244
  626SOL    HW1 2777   2.043   6.668   4.184
  626SOL    HW2 2778   2.008   6.541   4.281
  627SOL     OW 2779   5.319   0.820   0.383
  627SOL    HW1 2780   5.296   0.874   0.464
  627SOL    HW2 2781   5.417   0.830   0.364
  628SOL     OW 2782   4.792   4.104   4.183
  628SOL    HW1 2783   4.790   4.069   4.276
  628SOL    HW2 2784   4.872   4.162   4.170
  629SOL     OW 2785   0.477   6.785   1.347
  629SOL    HW1 2786   0.519   6.876   1.351
  629SOL    HW2 2787   0.496   6.736   1.432
  630SOL     OW 2788   4.363   1.361   1.044
  630SOL    HW1 2789   4.429   1.354   0.968
  630SOL    HW2 2790   4.406   1.407   1.121
  631SOL     OW 2791   2.218   0.011   5.733
  631SOL    HW1 2792   2.273   7.013   5.652
  631SOL    HW2 2793   2.265   0.079   5.789
  632SOL     OW 2794   2.442   1.033   1.006
  632SOL    HW1 2795   2.438   1.133   1.015
  632SOL    HW2 2796   2.355   0.994   1.036
  633SOL     OW 2797   3.183   6.650   6.494
  633SOL    HW1 2798   3.255   6.708   6.455
  633SOL    HW2 2799   3.146   6.591   6.423
  634SOL     OW 2800   4.217   5.797   0.861
  634SOL    HW1 2801   4.170   5.882   0.885
  634SOL    HW2 2802   4.170   5.754   0.784
  635SOL     OW 2803   2.716   6.937   2.958
  635SOL    HW1 2804   2.782   6.938   2.883
  635SOL    HW2 2805   2.639   6.879   2.934
  636SOL     OW 2806   5.001   5.366   6.653
  636SOL    HW1 2807   4.985   5.309   6.733
  636SOL    HW2 2808   4.965   5.322   6.571
  637SOL     OW 2809   4.911   4.691   1.272
  637SOL    HW1 2810   4.828   4.711   1.221
  637SOL    HW2 2811   4.887   4.654   1.362
  638SOL     OW 2812   4.731   1.151   2.016
  638SOL    HW1 2813   4.661   1.210   1.975
  638SOL    HW2 2814   4.720   1.058   1.981
  639SOL     OW 2815   4.102   4.713   2.131
  639SOL    HW1 2816   4.135   4.634   2.079
  639SOL    HW2 2817   4.046   4.771   2.073
  640SOL     OW 2818   3.178   4.211   5.198
  640SOL    HW1 2819   3.265   4.196   5.244
  640SOL    HW2 2820   3.117   4.263   5.258
  641SOL     OW 2821   6.938   5.939   4.904
  641SOL    HW1 2822   6.905   5.864   4.846
  641SOL    HW2 2823   6.931   6.025   4.854
  642SOL     OW 2824   0.378   4.892   4.806
  642SOL    HW1 2825   0.452   4.830   4.782
  642SOL    HW2 2826   0.399   4.938   4.892
  643SOL     OW 2827   6.301   5.276   6.023
  643SOL    HW1 2828   6.296   5.257   6.121
  643SOL    HW2 2829   6.209   5.276   5.984
  644SOL     OW 2830   0.435   7.008   2.540
  644SOL    HW1 2831   0.393   6.934   2.594
  644SOL    HW2 2832   0.510   0.025   2.592
  645SOL     OW 2833   5.751   2.647   4.003
  645SOL    HW1 2834   5.703   2.690   4.079
  645SOL    HW2 2835   5.798   2.565   4.036
  646SOL     OW 2836   1.464   1.263   4.735
  646SOL    HW1 2837   1.417   1.184   4.775
  646SOL    HW2 2838   1.436   1.346   4.784
  647SOL     OW 2839   5.987   3.117   0.411
  647SOL    HW1 2840   6.059   3.047   0.408
  647SOL    HW2 2841   5.898   3.073   0.403
  648SOL     OW 2842   5.774   4.173   2.098
  648SOL    HW1 2843   5.855   4.120   2.126
  648SOL    HW2 2844   5.692   4.122   2.123
  649SOL     OW 2845   4.035   4.738   0.803
  649SOL    HW1 2846   4.057   4.796   0.881
  649SOL    HW2 2847   4.114   4.682   0.779
  650SOL     OW 2848   4.803   4.197   0.340
  650SOL    HW1 2849   4.806   4.284   0.390
  650SOL    HW2 2850   4.857   4.129   0.389
  651SOL     OW 2851   0.828   6.140   0.486
  651SOL    HW1 2852   0.753   6.086   0.522
  651SOL    HW2 2853   0.874   6.187   0.562
  652SOL     OW 2854   4.627   1.330   2.560
  652SOL    HW1 2855   4.608   1.428   2.554
  652SOL    HW2 2856   4.569   1.290   2.631
  653SOL     OW 2857   3.677   4.926   3.904
  653SOL    HW1 2858   3.587   4.958   3.876
  653SOL    HW2 2859   3.692   4.948   4.001
  654SOL     OW 2860   0.105   5.071   6.649
  654SOL    HW1 2861   0.067   5.093   6.739
  654SOL    HW2 2862   0.096   4.972   6.633
  655SOL     OW 2863   0.767   0.681   0.876
  655SOL    HW1 2864   0.788   0.706   0.782
  655SOL    HW2 2865   0.848   0.642   0.920
  656SOL     OW 2866   2.201   6.493   2.650
  656SOL    HW1 2867   2.155   6.407   2.673
  656SOL    HW2 2868   2.142   6.547   2.590
  657SOL     OW 2869   3.616   1.404   0.410
  657SOL    HW1 2870   3.669   1.436   0.332
  657SOL    HW2 2871   3.659   1.322   0.448
  658SOL     OW 2872   3.205   3.962   6.753
  658SOL    HW1 2873   3.233   3.866   6.748
  658SOL    HW2 2874   3.136   3.972   6.825
  659SOL     OW 2875   3.328   6.876   0.009
  659SOL    HW1 2876   3.372   6.867   6.942
  659SOL    HW2 2877   3.258   6.805   0.018
  660SOL     OW 2878   3.528   5.488   2.749
  660SOL    HW1 2879   3.551   5.545   2.828
  660SOL    HW2 2880   3.556   5.535   2.665
  661SOL     OW 2881   4.363   5.480   2.959
  661SOL    HW1 2882   4.351   5.525   2.870
  661SOL    HW2 2883   4.280   5.492   3.014
  662SOL     OW 2884   3.491   1.412   6.162
  662SOL    HW1 2885   3.511   1.490   6.222
  662SOL    HW2 2886   3.464   1.446   6.072
  663SOL     OW 2887   2.417   4.999   5.366
  663SOL    HW1 2888   2.512   5.027   5.362
  663SOL    HW2 2889   2.400   4.926   5.299
  664SOL     OW 2890   6.913   0.311   6.778
  664SOL    HW1 2891   6.815   0.326   6.764
  664SOL    HW2 2892   6.929   0.279   6.872
  665SOL     OW 2893   2.651   5.428   3.239
  665SOL    HW1 2894   2.615   5.380   3.159
  665SOL    HW2 2895   2.720   5.371   3.284
  666SOL     OW 2896   3.800   0.535   1.716
  666SOL    HW1 2897   3.790   0.494   1.807
  666SOL    HW2 2898   3.897   0.547   1.695
  667SOL     OW 2899   0.939   6.318   1.897
  667SOL    HW1 2900   0.925   6.307   1.995
  667SOL    HW2 2901   0.896   6.242   1.848
  668SOL     OW 2902   5.443   4.112   6.120
  668SOL    HW1 2903   5.519   4.048   6.121
  668SOL    HW2 2904   5.432   4.153   6.211
  669SOL     OW 2905   5.373   1.221   2.679
  669SOL    HW1 2906   5.337   1.209   2.771
  669SOL    HW2 2907   5.304   1.266   2.622
  670SOL     OW 2908   1.129   2.427   3.711
  670SOL    HW1 2909   1.099   2.519   3.687
  670SOL    HW2 2910   1.129   2.416   3.810
  671SOL     OW 2911   2.280   6.130   1.392
  671SOL    HW1 2912   2.226   6.186   1.454
  671SOL    HW2 2913   2.230   6.046   1.371
  672SOL     OW 2914   0.687   6.836   1.955
  672SOL    HW1 2915   0.628   6.916   1.962
  672SOL    HW2 2916   0.668   6.774   2.030
  673SOL     OW 2917   5.480   6.550   1.022
  673SOL    HW1 2918   5.563   6.602   1.007
  673SOL    HW2 2919   5.404   6.592   0.972
  674SOL     OW 2920   6.940   0.797   5.036
  674SOL    HW1 2921   6.957   0.744   4.952
  674SOL    HW2 2922   6.853   0.846   5.027
  675SOL     OW 2923   6.097   2.584   2.628
  675SOL    HW1 2924   6.174   2.522   2.640
  675SOL    HW2 2925   6.016   2.545   2.672
  676SOL     OW 2926   2.375   4.593   5.456
  676SOL    HW1 2927   2.276   4.578   5.457
  676SOL    HW2 2928   2.423   4.506   5.466
  677SOL     OW 2929   4.658   1.085   1.211
  677SOL    HW1 2930   4.655   1.158   1.143
  677SOL    HW2 2931   4.683   0.999   1.166
  678SOL     OW 2932   2.338   4.163   5.560
  678SOL    HW1 2933   2.399   4.144   5.482
  678SOL    HW2 2934   2.257   4.105   5.553
  679SOL     OW 2935   4.827   1.666   5.402
  679SOL    HW1 2936   4.810   1.640   5.307
  679SOL    HW2 2937   4.771   1.746   5.425
  680SOL     OW 2938   5.186   6.715   4.025
  680SOL    HW1 2939   5.143   6.799   3.994
  680SOL    HW2 2940   5.219   6.727   4.119
  681SOL     OW 2941   5.157   5.907   1.908
  681SOL    HW1 2942   5.230   5.856   1.955
  681SOL    HW2 2943   5.134   5.860   1.823
  682SOL     OW 2944   1.241   1.101   2.636
  682SOL    HW1 2945   1.312   1.154   2.587
  682SOL    HW2 2946   1.201   1.035   2.573
  683SOL     OW 2947   4.196   3.725   1.097
  683SOL    HW1 2948   4.295   3.728   1.113
  683SOL    HW2 2949   4.156   3.652   1.153
  684SOL     OW 2950   6.350   0.027   6.359
  684SOL    HW1 2951   6.378   6.978   6.296
  684SOL    HW2 2952   6.278   0.083   6.317
  685SOL     OW 2953   3.539   0.696   3.329
  685SOL    HW1 2954   3.459   0.637   3.333
  685SOL    HW2 2955   3.518   0.785   3.370
  686SOL     OW 2956   4.167   1.257   4.209
  686SOL    HW1 2957   4.116   1.340   4.230
  686SOL    HW2 2958   4.202   1.217   4.294
  687SOL     OW 2959   1.095   2.131   4.728
  687SOL    HW1 2960   1.099   2.032   4.712
  687SOL    HW2 2961   1.079   2.178   4.642
  688SOL     OW 2962   6.817   1.714   6.868
  688SOL    HW1 2963   6.812   1.677   6.776
  688SOL    HW2 2964   6.862   1.803   6.866
  689SOL     OW 2965   1.629   5.184   5.590
  689SOL    HW1 2966   1.591   5.108   5.642
  689SOL    HW2 2967   1.700   5.230   5.643
  690SOL     OW 2968   6.168   3.537   2.591
  690SOL    HW1 2969   6.185   3.585   2.677
  690SOL    HW2 2970   6.123   3.599   2.527
  691SOL     OW 2971   4.251   1.677   6.716
  691SOL    HW1 2972   4.298   1.620   6.649
  691SOL    HW2 2973   4.191   1.620   6.771
  692SOL     OW 2974   2.861   1.630   5.099
  692SOL    HW1 2975   2.903   1.694   5.163
  692SOL    HW2 2976   2.826   1.680   5.020
  693SOL     OW 2977   4.990   6.148   3.338
  693SOL    HW1 2978   5.056   6.151   3.263
  693SOL    HW2 2979   4.985   6.238   3.381
  694SOL     OW 2980   4.346   5.748   4.688
  694SOL    HW1 2981   4.359   5.663   4.636
  694SOL    HW2 2982   4.383   5.737   4.780
  695SOL     OW 2983   3.076   6.656   3.841
  695SOL    HW1 2984   3.066   6.567   3.798
  695SOL    HW2 2985   3.000   6.671   3.905
  696SOL     OW 2986   5.159   3.987   3.041
  696SOL    HW1 2987   5.107   4.065   3.077
  696SOL    HW2 2988   5.119   3.959   2.953
  697SOL     OW 2989   0.639   4.880   2.470
  697SOL    HW1 2990   0.731   4.840   2.468
  697SOL    HW2 2991   0.632   4.950   2.399
  698SOL     OW 2992   5.263   6.700   1.445
  698SOL    HW1 2993   5.220   6.672   1.532
  698SOL    HW2 2994   5.266   6.799   1.440
  699SOL     OW 2995   2.902   1.982   0.748
  699SOL    HW1 2996   2.849   2.005   0.667
  699SOL    HW2 2997   2.902   1.883   0.762
  700SOL     OW 2998   3.348   0.164   2.850
  700SOL    HW1 2999   3.258   0.158   2.894
  700SOL    HW2 3000   3.415   0.191   2.919
  701SOL     OW 3001   6.283   4.945   1.809
  701SOL    HW1 3002   6.260   4.880   1.881
  701SOL    HW2 3003   6.284   4.897   1.721
  702SOL     OW 3004   2.784   1.285   4.259
  702SOL    HW1 3005   2.686   1.266   4.259
  702SOL    HW2 3006   2.819   1.284   4.353
  703SOL     OW 3007   3.096   2.740   5.964
  703SOL    HW1 3008   3.107   2.837   5.985
  703SOL    HW2 3009   3.042   2.730   5.880
  704SOL     OW 3010   1.712   2.907   6.005
  704SOL    HW1 3011   1.714   3.000   5.967
  704SOL    HW2 3012   1.618   2.884   6.033
  705SOL     OW 3013   6.804   6.122   4.176
  705SOL    HW1 3014   6.742   6.148   4.103
  705SOL    HW2 3015   6.820   6.023   4.174
  706SOL     OW 3016   4.655   1.002   5.123
  706SOL    HW1 3017   4.660   0.945   5.041
  706SOL    HW2 3018   4.582   1.070   5.112
  707SOL     OW 3019   3.443   4.876   3.352
  707SOL    HW1 3020   3.542   4.866   3.357
  707SOL    HW2 3021   3.419   4.924   3.267
  708SOL     OW 3022   2.864   1.073   3.535
  708SOL    HW1 3023   2.780   1.019   3.528
  708SOL    HW2 3024   2.841   1.170   3.544
  709SOL     OW 3025   2.140   0.136   1.772
  709SOL    HW1 3026   2.109   0.062   1.831
  709SOL    HW2 3027   2.174   0.097   1.686
  710SOL     OW 3028   4.517   2.853   1.710
  710SOL    HW1 3029   4.552   2.935   1.755
  710SOL    HW2 3030   4.592   2.805   1.665
  711SOL     OW 3031   0.226   2.127   5.821
  711SOL    HW1 3032   0.230   2.080   5.909
  711SOL    HW2 3033   0.213   2.225   5.837
  712SOL     OW 3034   4.657   3.148   0.635
  712SOL    HW1 3035   4.698   3.188   0.717
  712SOL    HW2 3036   4.707   3.065   0.610
  713SOL     OW 3037   4.001   2.730   5.333
  713SOL    HW1 3038   4.040   2.662   5.271
  713SOL    HW2 3039   3.904   2.744   5.311
  714SOL     OW 3040   5.954   4.564   3.447
  714SOL    HW1 3041   5.957   4.634   3.376
  714SOL    HW2 3042   5.990   4.601   3.532
  715SOL     OW 3043   6.464   5.151   5.834
  715SOL    HW1 3044   6.428   5.190   5.749
  715SOL    HW2 3045   6.413   5.188   5.911
  716SOL     OW 3046   2.002   0.776   2.476
  716SOL    HW1 3047   1.945   0.805   2.400
  716SOL    HW2 3048   1.948   0.775   2.560
  717SOL     OW 3049   5.428   4.927   3.936
  717SOL    HW1 3050   5.413   4.836   3.897
  717SOL    HW2 3051   5.475   4.984   3.870
  718SOL     OW 3052   5.172   1.805   4.328
  718SOL    HW1 3053   5.111   1.883   4.335
  718SOL    HW2 3054   5.138   1.741   4.259
  719SOL     OW 3055   6.168   0.676   2.532
  719SOL    HW1 3056   6.182   0.727   2.617
  719SOL    HW2 3057   6.167   0.578   2.551
  720SOL     OW 3058   1.795   1.036   0.268
  720SOL    HW1 3059   1.765   1.094   0.192
  720SOL    HW2 3060   1.835   0.952   0.231
  721SOL     OW 3061   6.930   2.311   2.739
  721SOL    HW1 3062   7.011   2.273   2.694
  721SOL    HW2 3063   6.858   2.242   2.741
  722SOL     OW 3064   4.302   0.152   6.936
  722SOL    HW1 3065   4.386   0.103   6.957
  722SOL    HW2 3066   4.261   0.184   7.021
  723SOL     OW 3067   2.340   6.288   4.028
  723SOL    HW1 3068   2.281   6.327   4.098
  723SOL    HW2 3069   2.435   6.310   4.048
  724SOL     OW 3070   1.299   1.225   3.826
  724SOL    HW1 3071   1.288   1.249   3.730
  724SOL    HW2 3072   1.215   1.246   3.876
  725SOL     OW 3073   2.024   4.612   1.917
  725SOL    HW1 3074   2.037   4.532   1.976
  725SOL    HW2 3075   1.983   4.686   1.970
  726SOL     OW 3076   2.212   4.928   0.593
  726SOL    HW1 3077   2.151   4.850   0.580
  726SOL    HW2 3078   2.199   4.965   0.685
  727SOL     OW 3079   4.391   5.147   5.819
  727SOL    HW1 3080   4.341   5.231   5.839
  727SOL    HW2 3081   4.425   5.149   5.725
  728SOL     OW 3082   6.929   3.221   5.026
  728SOL    HW1 3083   6.856   3.229   4.958
  728SOL    HW2 3084   6.889   3.204   5.116
  729SOL     OW 3085   0.223   3.381   1.294
  729SOL    HW1 3086   0.170   3.460   1.264
  729SOL    HW2 3087   0.164   3.319   1.346
  730SOL     OW 3088   4.921   0.619   2.808
  730SOL    HW1 3089   4.959   0.586   2.895
  730SOL    HW2 3090   4.912   0.719   2.812
  731SOL     OW 3091   4.585   4.523   6.854
  731SOL    HW1 3092   4.500   4.485   6.889
  731SOL    HW2 3093   4.626   4.583   6.922
  732SOL     OW 3094   4.697   1.737   3.081
  732SOL    HW1 3095   4.645   1.768   3.160
  732SOL    HW2 3096   4.757   1.661   3.107
  733SOL     OW 3097   6.416   6.352   3.277
  733SOL    HW1 3098   6.504   6.329   3.319
  733SOL    HW2 3099   6.388   6.443   3.306
  734SOL     OW 3100   6.062   5.403   2.828
  734SOL    HW1 3101   6.000   5.423   2.752
  734SOL    HW2 3102   6.048   5.469   2.901
  735SOL     OW 3103   5.610   0.680   1.894
  735SOL    HW1 3104   5.571   0.729   1.972
  735SOL    HW2 3105   5.575   0.586   1.892
  736SOL     OW 3106   1.637   1.699   4.299
  736SOL    HW1 3107   1.685   1.775   4.343
  736SOL    HW2 3108   1.615   1.629   4.367
  737SOL     OW 3109   5.484   1.266   6.321
  737SOL    HW1 3110   5.425   1.209   6.379
  737SOL    HW2 3111   5.488   1.227   6.229
  738SOL     OW 3112   2.425   4.473   1.302
  738SOL    HW1 3113   2.418   4.379   1.333
  738SOL    HW2 3114   2.392   4.535   1.373
  739SOL     OW 3115   2.913   6.707   4.738
  739SOL    HW1 3116   2.864   6.719   4.825
  739SOL    HW2 3117   2.868   6.762   4.667
  740SOL     OW 3118   5.632   1.948   3.125
  740SOL    HW1 3119   5.725   1.926   3.097
  740SOL    HW2 3120   5.612   1.902   3.212
  741SOL     OW 3121   2.506   0.572   3.589
  741SOL    HW1 3122   2.416   0.548   3.552
  741SOL    HW2 3123   2.512   0.540   3.683
  742SOL     OW 3124   1.658   6.597   1.199
  742SOL    HW1 3125   1.713   6.662   1.145
  742SOL    HW2 3126   1.619   6.529   1.138
  743SOL     OW 3127   1.061   6.143   3.818
  743SOL    HW1 3128   0.983   6.173   3.763
  743SOL    HW2 3129   1.128   6.098   3.760
  744SOL     OW 3130   5.570   1.310   0.389
  744SOL    HW1 3131   5.568   1.240   0.317
  744SOL    HW2 3132   5.581   1.266   0.478
  745SOL     OW 3133   1.972   5.764   4.960
  745SOL    HW1 3134   2.049   5.701   4.970
  745SOL    HW2 3135   1.895   5.717   4.917
  746SOL     OW 3136   5.674   4.582   5.839
  746SOL    HW1 3137   5.587   4.534   5.837
  746SOL    HW2 3138   5.708   4.593   5.746
  747SOL     OW 3139   5.528   5.327   3.309
  747SOL    HW1 3140   5.445   5.299   3.358
  747SOL    HW2 3141   5.565   5.248   3.260
  748SOL     OW 3142   5.294   5.980   2.636
  748SOL    HW1 3143   5.244   5.989   2.723
  748SOL    HW2 3144   5.281   5.887   2.600
  749SOL     OW 3145   5.143   4.377   3.603
  749SOL    HW1 3146   5.047   4.407   3.602
  749SOL    HW2 3147   5.161   4.326   3.687
  750SOL     OW 3148   2.663   1.599   1.966
  750SOL    HW1 3149   2.637   1.523   1.907
  750SOL    HW2 3150   2.652   1.685   1.916
  751SOL     OW 3151   4.634   1.279   0.204
  751SOL    HW1 3152   4.733   1.284   0.218
  751SOL    HW2 3153   4.614   1.208   0.137
  752SOL     OW 3154   3.291   2.581   5.341
  752SOL    HW1 3155   3.204   2.630   5.343
  752SOL    HW2 3156   3.284   2.503   5.278
  753SOL     OW 3157   3.805   4.150   4.879
  753SOL    HW1 3158   3.772   4.129   4.787
  753SOL    HW2 3159   3.867   4.228   4.876
  754SOL     OW 3160   5.343   0.812   6.410
  754SOL    HW1 3161   5.291   0.777   6.332
  754SOL    HW2 3162   5.310   0.769   6.494
  755SOL     OW 3163   3.441   4.451   5.464
  755SOL    HW1 3164   3.472   4.487   5.552
  755SOL    HW2 3165   3.353   4.492   5.440
  756SOL     OW 3166   2.758   5.414   6.491
  756SOL    HW1 3167   2.794   5.381   6.404
  756SOL    HW2 3168   2.766   5.514   6.494
  757SOL     OW 3169   1.888   6.852   2.560
  757SOL    HW1 3170   1.855   6.946   2.552
  757SOL    HW2 3171   1.812   6.789   2.545
  758SOL     OW 3172   3.244   1.663   3.931
  758SOL    HW1 3173   3.339   1.640   3.912
  758SOL    HW2 3174   3.219   1.629   4.021
  759SOL     OW 3175   0.353   3.037   4.416
  759SOL    HW1 3176   0.443   3.067   4.386
  759SOL    HW2 3177   0.320   2.964   4.355
  760SOL     OW 3178   6.609   6.839   3.931
  760SOL    HW1 3179   6.630   6.784   4.011
  760SOL    HW2 3180   6.518   6.879   3.941
  761SOL     OW 3181   4.702   4.279   5.565
  761SOL    HW1 3182   4.607   4.247   5.572
  761SOL    HW2 3183   4.758   4.207   5.523
  762SOL     OW 3184   2.608   6.160   4.981
  762SOL    HW1 3185   2.595   6.109   4.897
  762SOL    HW2 3186   2.572   6.108   5.058
  763SOL     OW 3187   5.911   0.766   6.489
  763SOL    HW1 3188   6.009   0.789   6.494
  763SOL    HW2 3189   5.857   0.849   6.495
  764SOL     OW 3190   5.263   6.780   5.183
  764SOL    HW1 3191   5.302   6.861   5.140
  764SOL    HW2 3192   5.298   6.771   5.277
  765SOL     OW 3193   0.819   6.491   0.932
  765SOL    HW1 3194   0.794   6.536   1.018
  765SOL    HW2 3195   0.868   6.556   0.874
  766SOL     OW 3196   1.525   2.494   5.155
  766SOL    HW1 3197   1.481   2.485   5.245
  766SOL    HW2 3198   1.458   2.529   5.089
  767SOL     OW 3199   0.114   6.804   3.864
  767SOL    HW1 3200   0.097   6.869   3.938
  767SOL    HW2 3201   0.034   6.802   3.803
  768SOL     OW 3202   2.413   6.258   2.155
  768SOL    HW1 3203   2.469   6.190   2.203
  768SOL    HW2 3204   2.461   6.289   2.073
  769SOL     OW 3205   2.936   1.980   4.909
  769SOL    HW1 3206   2.885   2.003   4.992
  769SOL    HW2 3207   2.934   2.058   4.846
  770SOL     OW 3208   2.239   4.821   4.525
  770SOL    HW1 3209   2.251   4.748   4.592
  770SOL    HW2 3210   2.184   4.788   4.448
  771SOL     OW 3211   1.081   5.290   2.568
  771SOL    HW1 3212   1.085   5.385   2.597
  771SOL    HW2 3213   1.097   5.230   2.647
  772SOL     OW 3214   5.088   4.960   6.731
  772SOL    HW1 3215   5.003   4.911   6.752
  772SOL    HW2 3216   5.081   5.054   6.764
  773SOL     OW 3217   0.929   3.422   3.516
  773SOL    HW1 3218   1.009   3.465   3.559
  773SOL    HW2 3219   0.892   3.353   3.577
  774SOL     OW 3220   2.234   1.182   3.624
  774SOL    HW1 3221   2.242   1.114   3.551
  774SOL    HW2 3222   2.223   1.273   3.584
  775SOL     OW 3223   2.187   3.883   4.352
  775SOL    HW1 3224   2.107   3.892   4.292
  775SOL    HW2 3225   2.190   3.790   4.389
  776SOL     OW 3226   2.119   6.461   6.426
  776SOL    HW1 3227   2.205   6.497   6.391
  776SOL    HW2 3228   2.054   6.449   6.350
  777SOL     OW 3229   2.336   4.002   0.042
  777SOL    HW1 3230   2.433   4.009   0.067
  777SOL    HW2 3231   2.321   3.915   7.018
  778SOL     OW 3232   3.561   6.679   1.591
  778SOL    HW1 3233   3.463   6.676   1.605
  778SOL    HW2 3234   3.608   6.671   1.679
  779SOL     OW 3235   0.405   2.145   2.262
  779SOL    HW1 3236   0.485   2.092   2.287
  779SOL    HW2 3237   0.341   2.148   2.339
  780SOL     OW 3238   1.158   1.979   5.483
  780SOL    HW1 3239   1.159   1.996   5.581
  780SOL    HW2 3240   1.252   1.964   5.451
  781SOL     OW 3241   0.748   3.752   0.916
  781SOL    HW1 3242   0.772   3.826   0.853
  781SOL    HW2 3243   0.782   3.774   1.008
  782SOL     OW 3244   1.675   3.821   6.224
  782SOL    HW1 3245   1.597   3.876   6.255
  782SOL    HW2 3246   1.742   3.814   6.298
  783SOL     OW 3247   5.663   4.347   6.606
  783SOL    HW1 3248   5.741   4.380   6.660
  783SOL    HW2 3249   5.620   4.425   6.561
  784SOL     OW 3250   3.344   6.117   0.889
  784SOL    HW1 3251   3.291   6.103   0.973
  784SOL    HW2 3252   3.411   6.190   0.904
  785SOL     OW 3253   0.481   0.376   4.369
  785SOL    HW1 3254   0.534   0.292   4.360
  785SOL    HW2 3255   0.541   0.450   4.400
  786SOL     OW 3256   6.660   0.811   3.360
  786SOL    HW1 3257   6.573   0.822   3.311
  786SOL    HW2 3258   6.712   0.897   3.356
  787SOL     OW 3259   2.746   0.129   0.423
  787SOL    HW1 3260   2.727   0.031   0.414
  787SOL    HW2 3261   2.715   0.177   0.341
  788SOL     OW 3262   3.913   3.240   0.629
  788SOL    HW1 3263   3.936   3.206   0.720
  788SOL    HW2 3264   3.920   3.165   0.563
  789SOL     OW 3265   4.803   5.457   1.347
  789SOL    HW1 3266   4.784   5.368   1.389
  789SOL    HW2 3267   4.753   5.528   1.397
  790SOL     OW 3268   0.568   3.008   2.049
  790SOL    HW1 3269   0.605   2.950   1.976
  790SOL    HW2 3270   0.540   3.096   2.010
  791SOL     OW 3271   3.209   5.047   4.998
  791SOL    HW1 3272   3.116   5.082   5.012
  791SOL    HW2 3273   3.273   5.097   5.055
  792SOL     OW 3274   1.126   1.182   0.957
  792SOL    HW1 3275   1.080   1.269   0.941
  792SOL    HW2 3276   1.122   1.126   0.874
  793SOL     OW 3277   3.492   6.093   3.759
  793SOL    HW1 3278   3.400   6.056   3.754
  793SOL    HW2 3279   3.526   6.112   3.667
  794SOL     OW 3280   3.336   3.447   3.512
  794SOL    HW1 3281   3.274   3.480   3.583
  794SOL    HW2 3282   3.289   3.447   3.424
  795SOL     OW 3283   3.996   0.530   6.376
  795SOL    HW1 3284   3.971   0.625   6.358
  795SOL    HW2 3285   3.971   0.474   6.298
  796SOL     OW 3286   1.682   3.571   6.719
  796SOL    HW1 3287   1.715   3.486   6.760
  796SOL    HW2 3288   1.588   3.558   6.688
  797SOL     OW 3289   4.957   0.145   0.800
  797SOL    HW1 3290   4.940   0.159   0.898
  797SOL    HW2 3291   4.871   0.154   0.750
  798SOL     OW 3292   3.899   6.988   0.246
  798SOL    HW1 3293   3.997   6.979   0.268
  798SOL    HW2 3294   3.866   0.053   0.283
  799SOL     OW 3295   1.597   1.829   6.678
  799SOL    HW1 3296   1.509   1.811   6.720
  799SOL    HW2 3297   1.607   1.775   6.594
  800SOL     OW 3298   6.406   2.128   1.316
  800SOL    HW1 3299   6.359   2.087   1.395
  800SOL    HW2 3300   6.360   2.100   1.232
  801SOL     OW 3301   1.826   5.492   5.386
  801SOL    HW1 3302   1.770   5.542   5.452
  801SOL    HW2 3303   1.884   5.426   5.434
  802SOL     OW 3304   5.559   2.293   0.002
  802SOL    HW1 3305   5.569   2.393   7.022
  802SOL    HW2 3306   5.480   2.266   6.971
  803SOL     OW 3307   2.694   0.791   5.418
  803SOL    HW1 3308   2.715   0.863   5.484
  803SOL    HW2 3309   2.689   0.831   5.326
  804SOL     OW 3310   6.567   0.415   1.591
  804SOL    HW1 3311   6.537   0.471   1.668
  804SOL    HW2 3312   6.502   0.340   1.577
  805SOL     OW 3313   3.244   0.896   3.812
  805SOL    HW1 3314   3.297   0.974   3.845
  805SOL    HW2 3315   3.306   0.825   3.780
  806SOL     OW 3316   1.420   6.424   5.077
  806SOL    HW1 3317   1.485   6.430   5.153
  806SOL    HW2 3318   1.387   6.330   5.069
  807SOL     OW 3319   0.639   6.439   5.605
  807SOL    HW1 3320   0.548   6.480   5.599
  807SOL    HW2 3321   0.634   6.344   5.573
  808SOL     OW 3322   5.726   2.938   0.156
  808SOL    HW1 3323   5.788   2.909   0.082
  808SOL    HW2 3324   5.702   2.859   0.212
  809SOL     OW 3325   1.258   5.121   0.310
  809SOL    HW1 3326   1.264   5.047   0.244
  809SOL    HW2 3327   1.245   5.084   0.402
  810SOL     OW 3328   2.950   3.384   0.347
  810SOL    HW1 3329   2.854   3.411   0.348
  810SOL    HW2 3330   2.984   3.386   0.253
  811SOL     OW 3331   5.604   4.848   4.519
  811SOL    HW1 3332   5.587   4.936   4.564
  811SOL    HW2 3333   5.554   4.845   4.432
  812SOL     OW 3334   0.846   2.569   2.111
  812SOL    HW1 3335   0.763   2.513   2.104
  812SOL    HW2 3336   0.853   2.608   2.203
  813SOL     OW 3337   1.569   2.025   5.053
  813SOL    HW1 3338   1.533   2.099   4.995
  813SOL    HW2 3339   1.497   1.957   5.067
  814SOL     OW 3340   1.191   5.364   3.103
  814SOL    HW1 3341   1.102   5.355   3.057
  814SOL    HW2 3342   1.214   5.278   3.148
  815SOL     OW 3343   4.952   2.280   3.969
  815SOL    HW1 3344   4.880   2.275   4.038
  815SOL    HW2 3345   5.039   2.250   4.010
  816SOL     OW 3346   5.379   3.683   0.358
  816SOL    HW1 3347   5.307   3.750   0.376
  816SOL    HW2 3348   5.441   3.679   0.436
  817SOL     OW 3349   1.123   4.807   0.208
  817SOL    HW1 3350   1.105   4.732   0.144
  817SOL    HW2 3351   1.137   4.892   0.157
  818SOL     OW 3352   5.966   2.780   3.816
  818SOL    HW1 3353   6.014   2.847   3.872
  818SOL    HW2 3354   5.888   2.743   3.868
  819SOL     OW 3355   5.107   2.619   1.873
  819SOL    HW1 3356   5.196   2.589   1.907
  819SOL    HW2 3357   5.115   2.713   1.838
  820SOL     OW 3358   2.428   1.917   5.228
  820SOL    HW1 3359   2.368   1.985   5.187
  820SOL    HW2 3360   2.508   1.905   5.170
  821SOL     OW 3361   5.468   3.862   5.183
  821SOL    HW1 3362   5.397   3.882   5.116
  821SOL    HW2 3363   5.438   3.785   5.240
  822SOL     OW 3364   0.679   4.293   3.558
  822SOL    HW1 3365   0.671   4.206   3.606
  822SOL    HW2 3366   0.588   4.326   3.533
  823SOL     OW 3367   0.793   3.473   5.660
  823SOL    HW1 3368   0.808   3.505   5.754
  823SOL    HW2 3369   0.881   3.449   5.619
  824SOL     OW 3370   5.202   0.848   5.112
  824SOL    HW1 3371   5.167   0.914   5.178
  824SOL    HW2 3372   5.274   0.793   5.154
  825SOL     OW 3373   6.858   6.131   1.263
  825SOL    HW1 3374   6.918   6.120   1.183
  825SOL    HW2 3375   6.807   6.216   1.255
  826SOL     OW 3376   3.865   1.358   5.454
  826SOL    HW1 3377   3.845   1.278   5.398
  826SOL    HW2 3378   3.828   1.344   5.546
  827SOL     OW 3379   3.224   3.738   4.150
  827SOL    HW1 3380   3.201   3.738   4.052
  827SOL    HW2 3381   3.157   3.793   4.200
  828SOL     OW 3382   6.027   5.664   4.999
  828SOL    HW1 3383   5.999   5.676   4.904
  828SOL    HW2 3384   6.114   5.710   5.014
  829SOL     OW 3385   3.433   2.870   2.687
  829SOL    HW1 3386   3.422   2.800   2.757
  829SOL    HW2 3387   3.415   2.960   2.726
  830SOL     OW 3388   6.713   4.688   6.995
  830SOL    HW1 3389   6.648   4.613   6.983
  830SOL    HW2 3390   6.704   4.726   0.065
  831SOL     OW 3391   5.773   6.012   1.025
  831SOL    HW1 3392   5.825   6.002   1.110
  831SOL    HW2 3393   5.801   6.097   0.979
  832SOL     OW 3394   3.315   2.120   4.780
  832SOL    HW1 3395   3.279   2.038   4.824
  832SOL    HW2 3396   3.281   2.201   4.827
  833SOL     OW 3397   1.902   3.127   6.125
  833SOL    HW1 3398   1.849   3.048   6.092
  833SOL    HW2 3399   1.959   3.099   6.202
  834SOL     OW 3400   4.932   3.454   6.707
  834SOL    HW1 3401   5.012   3.505   6.737
  834SOL    HW2 3402   4.886   3.413   6.786
  835SOL     OW 3403   1.254   0.431   4.289
  835SOL    HW1 3404   1.336   0.471   4.250
  835SOL    HW2 3405   1.263   0.427   4.389
  836SOL     OW 3406   3.104   1.102   5.227
  836SOL    HW1 3407   3.140   1.167   5.294
  836SOL    HW2 3408   3.005   1.108   5.225
  837SOL     OW 3409   1.757   0.724   0.813
  837SOL    HW1 3410   1.675   0.690   0.768
  837SOL    HW2 3411   1.820   0.761   0.745
  838SOL     OW 3412   2.135   5.915   3.698
  838SOL    HW1 3413   2.159   5.879   3.608
  838SOL    HW2 3414   2.042   5.950   3.696
  839SOL     OW 3415   1.588   1.687   1.079
  839SOL    HW1 3416   1.538   1.739   1.009
  839SOL    HW2 3417   1.662   1.744   1.116
  840SOL     OW 3418   5.149   5.803   0.178
  840SOL    HW1 3419   5.122   5.814   0.273
  840SOL    HW2 3420   5.085   5.852   0.119
  841SOL     OW 3421   3.698   4.864   5.786
  841SOL    HW1 3422   3.791   4.883   5.754
  841SOL    HW2 3423   3.635   4.867   5.709
  842SOL     OW 3424   3.088   0.535   0.412
  842SOL    HW1 3425   3.043   0.462   0.464
  842SOL    HW2 3426   3.187   0.527   0.422
  843SOL     OW 3427   1.063   1.648   2.107
  843SOL    HW1 3428   1.079   1.563   2.159
  843SOL    HW2 3429   1.123   1.651   2.028
  844SOL     OW 3430   6.361   6.880   1.000
  844SOL    HW1 3431   6.460   6.887   1.006
  844SOL    HW2 3432   6.322   6.969   0.977
  845SOL     OW 3433   3.400   1.744   2.726
  845SOL    HW1 3434   3.442   1.835   2.721
  845SOL    HW2 3435   3.346   1.736   2.809
  846SOL     OW 3436   2.549   1.751   0.247
  846SOL    HW1 3437   2.477   1.702   0.199
  846SOL    HW2 3438   2.547   1.729   0.344
  847SOL     OW 3439   2.449   4.187   1.361
  847SOL    HW1 3440   2.459   4.141   1.273
  847SOL    HW2 3441   2.424   4.120   1.431
  848SOL     OW 3442   6.687   6.257   6.474
  848SOL    HW1 3443   6.775   6.297   6.446
  848SOL    HW2 3444   6.646   6.209   6.397
  849SOL     OW 3445   6.110   4.154   0.515
  849SOL    HW1 3446   6.177   4.079   0.512
  849SOL    HW2 3447   6.132   4.221   0.444
  850SOL     OW 3448   7.018   0.559   5.665
  850SOL    HW1 3449   6.956   0.481   5.653
  850SOL    HW2 3450   0.058   0.563   5.587
  851SOL     OW 3451   6.612   3.013   6.222
  851SOL    HW1 3452   6.711   3.015   6.237
  851SOL    HW2 3453   6.577   3.106   6.223
  852SOL     OW 3454   7.014   3.351   2.086
  852SOL    HW1 3455   6.950   3.426   2.069
  852SOL    HW2 3456   7.009   3.285   2.011
  853SOL     OW 3457   2.143   3.912   0.219
  853SOL    HW1 3458   2.177   3.819   0.234
  853SOL    HW2 3459   2.198   3.956   0.149
  854SOL     OW 3460   6.021   6.513   0.082
  854SOL    HW1 3461   6.017   6.531   7.006
  854SOL    HW2 3462   6.025   6.415   0.099
  855SOL     OW 3463   6.536   1.183   0.438
  855SOL    HW1 3464   6.598   1.126   0.385
  855SOL    HW2 3465   6.449   1.192   0.389
  856SOL     OW 3466   2.292   6.572   6.917
  856SOL    HW1 3467   2.229   6.650   6.929
  856SOL    HW2 3468   2.378   6.592   6.963
  857SOL     OW 3469   6.939   5.284   4.210
  857SOL    HW1 3470   6.999   5.275   4.131
  857SOL    HW2 3471   6.848   5.314   4.181
  858SOL     OW 3472   3.660   3.534   0.438
  858SOL    HW1 3473   3.708   3.457   0.394
  858SOL    HW2 3474   3.562   3.526   0.420
  859SOL     OW 3475   4.035   6.921   5.197
  859SOL    HW1 3476   4.043   6.841   5.138
  859SOL    HW2 3477   4.083   6.905   5.283
  860SOL     OW 3478   5.428   2.773   5.308
  860SOL    HW1 3479   5.409   2.872   5.308
  860SOL    HW2 3480   5.455   2.745   5.400
  861SOL     OW 3481   2.311   5.927   2.439
  861SOL    HW1 3482   2.334   5.829   2.438
  861SOL    HW2 3483   2.214   5.938   2.416
  862SOL     OW 3484   1.723   4.353   3.586
  862SOL    HW1 3485   1.742   4.260   3.617
  862SOL    HW2 3486   1.697   4.409   3.665
  863SOL     OW 3487   0.350   0.516   6.415
  863SOL    HW1 3488   0.406   0.598   6.421
  863SOL    HW2 3489   0.400   0.444   6.368
  864SOL     OW 3490   5.006   0.060   5.377
  864SOL    HW1 3491   5.017   0.158   5.359
  864SOL    HW2 3492   4.924   0.027   5.330
  865SOL     OW 3493   1.863   5.847   4.252
  865SOL    HW1 3494   1.932   5.782   4.284
  865SOL    HW2 3495   1.792   5.798   4.202
  866SOL     OW 3496   2.347   6.544   1.951
  866SOL    HW1 3497   2.337   6.608   2.027
  866SOL    HW2 3498   2.400   6.588   1.878
  867SOL     OW 3499   5.776   2.186   0.384
  867SOL    HW1 3500   5.683   2.201   0.350
  867SOL    HW2 3501   5.839   2.247   0.336
  868SOL     OW 3502   6.720   2.287   2.203
  868SOL    HW1 3503   6.685   2.223   2.134
  868SOL    HW2 3504   6.704   2.381   2.173
  869SOL     OW 3505   0.083   3.983   3.626
  869SOL    HW1 3506   0.151   3.994   3.554
  869SOL    HW2 3507   0.121   4.013   3.713
  870SOL     OW 3508   3.300   5.031   1.492
  870SOL    HW1 3509   3.208   4.992   1.491
  870SOL    HW2 3510   3.309   5.096   1.568
  871SOL     OW 3511   4.870   1.823   3.387
  871SOL    HW1 3512   4.928   1.751   3.425
  871SOL    HW2 3513   4.874   1.820   3.287
  872SOL     OW 3514   6.682   2.737   4.102
  872SOL    HW1 3515   6.726   2.647   4.106
  872SOL    HW2 3516   6.600   2.733   4.046
  873SOL     OW 3517   4.441   6.601   5.752
  873SOL    HW1 3518   4.397   6.581   5.839
  873SOL    HW2 3519   4.532   6.559   5.750
  874SOL     OW 3520   5.726   3.892   0.639
  874SOL    HW1 3521   5.716   3.827   0.563
  874SOL    HW2 3522   5.814   3.938   0.632
  875SOL     OW 3523   5.059   5.306   1.189
  875SOL    HW1 3524   5.039   5.347   1.278
  875SOL    HW2 3525   5.152   5.268   1.191
  876SOL     OW 3526   0.356   5.752   2.177
  876SOL    HW1 3527   0.349   5.657   2.147
  876SOL    HW2 3528   0.334   5.813   2.102
  877SOL     OW 3529   3.172   4.487   0.049
  877SOL    HW1 3530   3.200   4.579   0.075
  877SOL    HW2 3531   3.223   4.458   6.991
  878SOL     OW 3532   3.874   0.049   4.032
  878SOL    HW1 3533   3.910   0.123   3.975
  878SOL    HW2 3534   3.918   6.986   4.007
  879SOL     OW 3535   4.614   0.569   0.610
  879SOL    HW1 3536   4.532   0.516   0.635
  879SOL    HW2 3537   4.686   0.507   0.579
  880SOL     OW 3538   2.962   3.728   3.443
  880SOL    HW1 3539   2.908   3.811   3.455
  880SOL    HW2 3540   2.987   3.718   3.347
  881SOL     OW 3541   4.682   2.441   5.412
  881SOL    HW1 3542   4.664   2.470   5.318
  881SOL    HW2 3543   4.655   2.346   5.423
  882SOL     OW 3544   0.924   3.207   4.890
  882SOL    HW1 3545   1.019   3.235   4.883
  882SOL    HW2 3546   0.865   3.287   4.899
  883SOL     OW 3547   2.981   0.303   2.744
  883SOL    HW1 3548   3.015   0.229   2.686
  883SOL    HW2 3549   3.051   0.374   2.752
  884SOL     OW 3550   4.847   2.904   5.013
  884SOL    HW1 3551   4.921   2.933   4.953
  884SOL    HW2 3552   4.836   2.971   5.087
  885SOL     OW 3553   3.059   1.412   5.908
  885SOL    HW1 3554   3.047   1.490   5.846
  885SOL    HW2 3555   2.978   1.354   5.904
  886SOL     OW 3556   3.425   0.625   0.051
  886SOL    HW1 3557   3.332   0.614   0.018
  886SOL    HW2 3558   3.485   0.651   6.998
  887SOL     OW 3559   3.941   0.658   3.624
  887SOL    HW1 3560   4.037   0.683   3.636
  887SOL    HW2 3561   3.933   0.560   3.606
  888SOL     OW 3562   0.687   1.029   2.971
  888SOL    HW1 3563   0.749   0.977   3.029
  888SOL    HW2 3564   0.702   1.004   2.875
  889SOL     OW 3565   0.823   3.888   6.731
  889SOL    HW1 3566   0.804   3.936   6.816
  889SOL    HW2 3567   0.830   3.789   6.748
  890SOL     OW 3568   2.024   5.549   3.683
  890SOL    HW1 3569   2.088   5.604   3.737
  890SOL    HW2 3570   1.935   5.595   3.681
  891SOL     OW 3571   5.070   5.065   0.858
  891SOL    HW1 3572   5.086   4.988   0.920
  891SOL    HW2 3573   5.157   5.102   0.827
  892SOL     OW 3574   2.561   4.019   5.736
  892SOL    HW1 3575   2.493   4.088   5.709
  892SOL    HW2 3576   2.546   3.935   5.683
  893SOL     OW 3577   2.137   6.267   2.809
  893SOL    HW1 3578   2.173   6.341   2.865
  893SOL    HW2 3579   2.039   6.281   2.794
  894SOL     OW 3580   1.304   3.523   1.304
  894SOL    HW1 3581   1.322   3.571   1.390
  894SOL    HW2 3582   1.330   3.582   1.228
  895SOL     OW 3583   0.657   5.313   3.072
  895SOL    HW1 3584   0.577   5.373   3.086
  895SOL    HW2 3585   0.740   5.364   3.091
  896SOL     OW 3586   6.535   5.270   0.207
  896SOL    HW1 3587   6.527   5.319   0.294
  896SOL    HW2 3588   6.464   5.199   0.203
  897SOL     OW 3589   5.249   1.224   0.405
  897SOL    HW1 3590   5.227   1.134   0.442
  897SOL    HW2 3591   5.168   1.282   0.407
  898SOL     OW 3592   3.258   5.592   2.755
  898SOL    HW1 3593   3.208   5.527   2.699
  898SOL    HW2 3594   3.356   5.582   2.739
  899SOL     OW 3595   1.018   5.562   6.025
  899SOL    HW1 3596   0.966   5.585   6.107
  899SOL    HW2 3597   0.987   5.473   5.990
  900SOL     OW 3598   5.900   6.767   6.965
  900SOL    HW1 3599   5.972   6.708   6.928
  900SOL    HW2 3600   5.900   6.762   0.042
  901SOL     OW 3601   1.949   0.361   2.647
  901SOL    HW1 3602   1.989   0.381   2.558
  901SOL    HW2 3603   1.892   0.437   2.676
  902SOL     OW 3604   6.542   3.255   0.353
  902SOL    HW1 3605   6.476   3.315   0.399
  902SOL    HW2 3606   6.628   3.255   0.404
  903SOL     OW 3607   7.018   2.351   6.443
  903SOL    HW1 3608   0.080   2.380   6.399
  903SOL    HW2 3609   6.964   2.295   6.379
  904SOL     OW 3610   2.896   2.212   3.756
  904SOL    HW1 3611   2.947   2.134   3.792
  904SOL    HW2 3612   2.845   2.256   3.830
  905SOL     OW 3613   5.563   2.470   0.435
  905SOL    HW1 3614   5.533   2.524   0.513
  905SOL    HW2 3615   5.621   2.526   0.375
  906SOL     OW 3616   0.554   1.856   5.853
  906SOL    HW1 3617   0.618   1.799   5.803
  906SOL    HW2 3618   0.476   1.801   5.882
  907SOL     OW 3619   5.107   3.561   6.908
  907SOL    HW1 3620   5.108   3.575   7.007
  907SOL    HW2 3621   5.196   3.586   6.870
  908SOL     OW 3622   2.800   4.717   2.221
  908SOL    HW1 3623   2.832   4.684   2.133
  908SOL    HW2 3624   2.750   4.803   2.208
  909SOL     OW 3625   4.315   5.084   6.684
  909SOL    HW1 3626   4.348   5.072   6.590
  909SOL    HW2 3627   4.391   5.113   6.742
  910SOL     OW 3628   2.668   2.954   1.439
  910SOL    HW1 3629   2.616   2.987   1.360
  910SOL    HW2 3630   2.763   2.940   1.413
  911SOL     OW 3631   1.775   5.858   6.004
  911SOL    HW1 3632   1.754   5.909   5.920
  911SOL    HW2 3633   1.811   5.920   6.073
  912SOL     OW 3634   5.265   3.196   3.569
  912SOL    HW1 3635   5.238   3.285   3.531
  912SOL    HW2 3636   5.239   3.123   3.505
  913SOL     OW 3637   5.576   6.750   3.399
  913SOL    HW1 3638   5.585   6.677   3.330
  913SOL    HW2 3639   5.480   6.777   3.405
  914SOL     OW 3640   2.539   0.320   6.834
  914SOL    HW1 3641   2.638   0.332   6.847
  914SOL    HW2 3642   2.492   0.344   6.919
  915SOL     OW 3643   5.980   5.063   0.137
  915SOL    HW1 3644   6.053   5.005   0.102
  915SOL    HW2 3645   6.003   5.159   0.121
  916SOL     OW 3646   1.018   2.322   2.502
  916SOL    HW1 3647   1.108   2.304   2.541
  916SOL    HW2 3648   1.028   2.374   2.417
  917SOL     OW 3649   0.244   6.929   0.423
  917SOL    HW1 3650   0.217   6.878   0.505
  917SOL    HW2 3651   0.344   6.929   0.415
  918SOL     OW 3652   2.479   6.657   0.992
  918SOL    HW1 3653   2.430   6.657   1.079
  918SOL    HW2 3654   2.500   6.563   0.965
  919SOL     OW 3655   5.725   2.004   3.554
  919SOL    HW1 3656   5.640   1.957   3.573
  919SOL    HW2 3657   5.776   2.018   3.639
  920SOL     OW 3658   2.706   4.686   1.556
  920SOL    HW1 3659   2.654   4.768   1.579
  920SOL    HW2 3660   2.655   4.605   1.586
  921SOL     OW 3661   5.296   5.646   4.592
  921SOL    HW1 3662   5.243   5.731   4.585
  921SOL    HW2 3663   5.391   5.668   4.615
  922SOL     OW 3664   3.839   3.729   4.155
  922SOL    HW1 3665   3.782   3.811   4.167
  922SOL    HW2 3666   3.790   3.663   4.098
  923SOL     OW 3667   2.198   2.947   5.451
  923SOL    HW1 3668   2.269   3.016   5.463
  923SOL    HW2 3669   2.219   2.867   5.505
  924SOL     OW 3670   6.914   4.174   2.089
  924SOL    HW1 3671   6.948   4.081   2.076
  924SOL    HW2 3672   6.988   4.231   2.126
  925SOL     OW 3673   6.682   1.883   0.331
  925SOL    HW1 3674   6.731   1.942   0.267
  925SOL    HW2 3675   6.583   1.896   0.321
  926SOL     OW 3676   0.262   2.007   2.028
  926SOL    HW1 3677   0.242   2.072   2.102
  926SOL    HW2 3678   0.306   2.056   1.953
  927SOL     OW 3679   5.550   4.085   3.927
  927SOL    HW1 3680   5.503   4.025   3.993
  927SOL    HW2 3681   5.481   4.128   3.868
  928SOL     OW 3682   3.380   5.941   6.616
  928SOL    HW1 3683   3.438   5.861   6.633
  928SOL    HW2 3684   3.363   5.988   6.702
  929SOL     OW 3685   6.414   1.384   6.627
  929SOL    HW1 3686   6.422   1.427   6.538
  929SOL    HW2 3687   6.490   1.413   6.685
  930SOL     OW 3688   4.514   4.802   6.232
  930SOL    HW1 3689   4.501   4.735   6.159
  930SOL    HW2 3690   4.600   4.852   6.217
  931SOL     OW 3691   6.278   2.362   3.424
  931SOL    HW1 3692   6.181   2.379   3.438
  931SOL    HW2 3693   6.311   2.421   3.350
  932SOL     OW 3694   3.826   0.660   3.378
  932SOL    HW1 3695   3.855   0.692   3.469
  932SOL    HW2 3696   3.747   0.714   3.348
  933SOL     OW 3697   1.902   4.811   2.917
  933SOL    HW1 3698   1.874   4.875   2.846
  933SOL    HW2 3699   1.938   4.862   2.996
  934SOL     OW 3700   2.223   5.480   6.108
  934SOL    HW1 3701   2.162   5.417   6.060
  934SOL    HW2 3702   2.307   5.491   6.055
  935SOL     OW 3703   5.695   3.544   3.431
  935SOL    HW1 3704   5.771   3.490   3.398
  935SOL    HW2 3705   5.632   3.564   3.355
  936SOL     OW 3706   1.601   0.051   6.154
  936SOL    HW1 3707   1.589   6.976   6.137
  936SOL    HW2 3708   1.659   0.063   6.235
  937SOL     OW 3709   4.381   0.851   5.493
  937SOL    HW1 3710   4.343   0.772   5.541
  937SOL    HW2 3711   4.310   0.920   5.480
  938SOL     OW 3712   6.749   5.348   3.863
  938SOL    HW1 3713   6.727   5.259   3.823
  938SOL    HW2 3714   6.678   5.373   3.930
  939SOL     OW 3715   0.185   6.785   5.199
  939SOL    HW1 3716   0.159   6.725   5.123
  939SOL    HW2 3717   0.122   6.862   5.203
  940SOL     OW 3718   1.778   4.978   0.516
  940SOL    HW1 3719   1.741   4.933   0.597
  940SOL    HW2 3720   1.775   5.077   0.529
  941SOL     OW 3721   4.221   0.176   6.380
  941SOL    HW1 3722   4.256   0.165   6.473
  941SOL    HW2 3723   4.141   0.117   6.368
  942SOL     OW 3724   0.000   5.634   0.792
  942SOL    HW1 3725   6.958   5.558   0.795
  942SOL    HW2 3726   6.991   5.707   0.853
  943SOL     OW 3727   2.876   4.845   2.577
  943SOL    HW1 3728   2.807   4.910   2.609
  943SOL    HW2 3729   2.830   4.769   2.531
  944SOL     OW 3730   0.288   6.409   4.308
  944SOL    HW1 3731   0.372   6.448   4.270
  944SOL    HW2 3732   0.311   6.353   4.388
  945SOL     OW 3733   0.787   5.701   5.668
  945SOL    HW1 3734   0.700   5.653   5.659
  945SOL    HW2 3735   0.862   5.636   5.658
  946SOL     OW 3736   4.777   4.398   4.104
  946SOL    HW1 3737   4.798   4.441   4.192
  946SOL    HW2 3738   4.846   4.424   4.037
  947SOL     OW 3739   3.876   4.008   3.956
  947SOL    HW1 3740   3.920   4.067   4.024
  947SOL    HW2 3741   3.933   3.927   3.941
  948SOL     OW 3742   4.843   1.549   2.395
  948SOL    HW1 3743   4.883   1.575   2.483
  948SOL    HW2 3744   4.762   1.491   2.411
  949SOL     OW 3745   3.236   6.574   7.014
  949SOL    HW1 3746   3.215   6.501   6.950
  949SOL    HW2 3747   3.325   6.558   0.033
  950SOL     OW 3748   6.899   6.074   2.358
  950SOL    HW1 3749   6.854   5.997   2.404
  950SOL    HW2 3750   6.998   6.063   2.364
  951SOL     OW 3751   1.393   0.189   3.241
  951SOL    HW1 3752   1.409   0.139   3.156
  951SOL    HW2 3753   1.375   0.124   3.315
  952SOL     OW 3754   4.461   1.957   1.935
  952SOL    HW1 3755   4.434   2.039   1.984
  952SOL    HW2 3756   4.384   1.924   1.880
  953SOL     OW 3757   0.313   5.339   5.099
  953SOL    HW1 3758   0.302   5.240   5.106
  953SOL    HW2 3759   0.410   5.363   5.109
  954SOL     OW 3760   4.925   5.704   2.562
  954SOL    HW1 3761   4.990   5.630   2.546
  954SOL    HW2 3762   4.832   5.670   2.548
  955SOL     OW 3763   0.999   4.320   6.748
  955SOL    HW1 3764   1.080   4.264   6.760
  955SOL    HW2 3765   1.025   4.417   6.748
  956SOL     OW 3766   6.426   0.371   1.068
  956SOL    HW1 3767   6.385   0.330   0.987
  956SOL    HW2 3768   6.493   0.440   1.041
  957SOL     OW 3769   6.465   2.293   3.577
  957SOL    HW1 3770   6.404   2.320   3.503
  957SOL    HW2 3771   6.554   2.269   3.539
  958SOL     OW 3772   5.571   6.952   2.328
  958SOL    HW1 3773   5.564   6.970   2.426
  958SOL    HW2 3774   5.481   6.960   2.286
  959SOL     OW 3775   3.381   7.018   3.869
  959SOL    HW1 3776   3.287   0.022   3.889
  959SOL    HW2 3777   3.433   7.012   3.955
  960SOL     OW 3778   0.825   0.417   0.311
  960SOL    HW1 3779   0.804   0.361   0.231
  960SOL    HW2 3780   0.789   0.509   0.298
  961SOL     OW 3781   3.140   6.473   3.202
  961SOL    HW1 3782   3.148   6.518   3.291
  961SOL    HW2 3783   3.045   6.479   3.170
  962SOL     OW 3784   6.547   0.038   5.465
  962SOL    HW1 3785   6.599   6.979   5.438
  962SOL    HW2 3786   6.527   0.034   5.563
  963SOL     OW 3787   4.655   2.681   1.031
  963SOL    HW1 3788   4.577   2.641   0.983
  963SOL    HW2 3789   4.630   2.769   1.070
  964SOL     OW 3790   5.172   4.161   5.229
  964SOL    HW1 3791   5.223   4.137   5.146
  964SOL    HW2 3792   5.112   4.239   5.210
  965SOL     OW 3793   5.430   2.145   3.062
  965SOL    HW1 3794   5.483   2.063   3.083
  965SOL    HW2 3795   5.334   2.120   3.048
  966SOL     OW 3796   5.159   1.910   3.725
  966SOL    HW1 3797   5.111   1.860   3.797
  966SOL    HW2 3798   5.183   1.847   3.651
  967SOL     OW 3799   4.837   4.402   6.110
  967SOL    HW1 3800   4.815   4.360   6.021
  967SOL    HW2 3801   4.757   4.396   6.169
  968SOL     OW 3802   4.000   0.142   1.611
  968SOL    HW1 3803   4.065   0.215   1.630
  968SOL    HW2 3804   3.915   0.182   1.575
  969SOL     OW 3805   3.552   4.580   5.684
  969SOL    HW1 3806   3.498   4.642   5.740
  969SOL    HW2 3807   3.606   4.632   5.618
  970SOL     OW 3808   6.007   0.436   5.853
  970SOL    HW1 3809   5.923   0.383   5.861
  970SOL    HW2 3810   6.013   0.501   5.929
  971SOL     OW 3811   6.423   4.365   3.078
  971SOL    HW1 3812   6.336   4.319   3.097
  971SOL    HW2 3813   6.405   4.458   3.046
  972SOL     OW 3814   0.171   2.536   1.344
  972SOL    HW1 3815   0.091   2.480   1.322
  972SOL    HW2 3816   0.194   2.525   1.440
  973SOL     OW 3817   6.866   3.806   6.208
  973SOL    HW1 3818   6.818   3.890   6.233
  973SOL    HW2 3819   6.800   3.739   6.174
  974SOL     OW 3820   0.151   4.827   4.499
  974SOL    HW1 3821   0.080   4.833   4.429
  974SOL    HW2 3822   0.183   4.919   4.522
  975SOL     OW 3823   2.073   7.012   2.260
  975SOL    HW1 3824   2.163   6.974   2.280
  975SOL    HW2 3825   2.067   0.082   2.299
  976SOL     OW 3826   6.359   4.372   2.046
  976SOL    HW1 3827   6.454   4.360   2.073
  976SOL    HW2 3828   6.344   4.330   1.956
  977SOL     OW 3829   0.412   1.284   2.449
  977SOL    HW1 3830   0.501   1.292   2.405
  977SOL    HW2 3831   0.420   1.308   2.546
  978SOL     OW 3832   5.460   2.525   2.223
  978SOL    HW1 3833   5.409   2.597   2.270
  978SOL    HW2 3834   5.553   2.522   2.259
  979SOL     OW 3835   6.907   3.441   0.350
  979SOL    HW1 3836   6.946   3.381   0.281
  979SOL    HW2 3837   6.901   3.391   0.437
  980SOL     OW 3838   3.639   1.295   5.162
  980SOL    HW1 3839   3.598   1.276   5.073
  980SOL    HW2 3840   3.621   1.390   5.188
  981SOL     OW 3841   6.578   0.040   4.947
  981SOL    HW1 3842   6.650   7.003   4.913
  981SOL    HW2 3843   6.614   0.097   5.021
  982SOL     OW 3844   0.352   1.644   5.364
  982SOL    HW1 3845   0.431   1.692   5.327
  982SOL    HW2 3846   0.310   1.589   5.292
  983SOL     OW 3847   0.698   3.588   3.643
  983SOL    HW1 3848   0.688   3.676   3.596
  983SOL    HW2 3849   0.740   3.522   3.581
  984SOL     OW 3850   1.852   1.794   2.607
  984SOL    HW1 3851   1.759   1.760   2.598
  984SOL    HW2 3852   1.852   1.875   2.667
  985SOL     OW 3853   6.283   3.517   4.174
  985SOL    HW1 3854   6.255   3.605   4.134
  985SOL    HW2 3855   6.351   3.474   4.114
  986SOL     OW 3856   5.221   4.362   1.325
  986SOL    HW1 3857   5.173   4.362   1.412
  986SOL    HW2 3858   5.317   4.387   1.340
  987SOL     OW 3859   5.902   4.971   3.433
  987SOL    HW1 3860   5.934   4.909   3.505
  987SOL    HW2 3861   5.943   5.061   3.447
  988SOL     OW 3862   3.464   3.861   1.502
  988SOL    HW1 3863   3.525   3.919   1.558
  988SOL    HW2 3864   3.372   3.863   1.541
  989SOL     OW 3865   0.212   1.905   1.009
  989SOL    HW1 3866   0.162   1.989   1.030
  989SOL    HW2 3867   0.149   1.838   0.968
  990SOL     OW 3868   3.606   0.112   3.026
  990SOL    HW1 3869   3.681   0.068   3.076
  990SOL    HW2 3870   3.519   0.088   3.069
  991SOL     OW 3871   0.081   4.169   4.090
  991SOL    HW1 3872   0.133   4.137   4.169
  991SOL    HW2 3873   0.044   4.259   4.109
  992SOL     OW 3874   0.647   2.695   1.278
  992SOL    HW1 3875   0.624   2.700   1.181
  992SOL    HW2 3876   0.618   2.780   1.323
  993SOL     OW 3877   2.023   5.257   1.007
  993SOL    HW1 3878   2.066   5.170   1.032
  993SOL    HW2 3879   1.943   5.272   1.065
  994SOL     OW 3880   3.389   6.550   0.860
  994SOL    HW1 3881   3.376   6.523   0.956
  994SOL    HW2 3882   3.446   6.482   0.814
  995SOL     OW 3883   5.084   3.951   5.388
  995SOL    HW1 3884   5.122   4.019   5.326
  995SOL    HW2 3885   5.010   3.902   5.342
  996SOL     OW 3886   3.778   6.191   5.639
  996SOL    HW1 3887   3.709   6.168   5.708
  996SOL    HW2 3888   3.846   6.252   5.680
  997SOL     OW 3889   1.623   6.222   4.186
  997SOL    HW1 3890   1.713   6.261   4.166
  997SOL    HW2 3891   1.569   6.218   4.103
  998SOL     OW 3892   5.811   0.306   6.303
  998SOL    HW1 3893   5.852   0.247   6.233
  998SOL    HW2 3894   5.874   0.379   6.326
  999SOL     OW 3895   4.907   3.475   1.952
  999SOL    HW1 3896   4.937   3.393   2.000
  999SOL    HW2 3897   4.832   3.452   1.890
 1000SOL     OW 3898   3.761   1.601   1.473
 1000SOL    HW1 3899   3.682   1.643   1.516
 1000SOL    HW2 3900   3.839   1.662   1.480
 1001SOL     OW 3901   2.892   6.817   2.490
 1001SOL    HW1 3902   2.921   6.745   2.552
 1001SOL    HW2 3903   2.968   6.842   2.430
 1002SOL     OW 3904   5.482   2.997   1.020
 1002SOL    HW1 3905   5.427   3.077   0.994
 1002SOL    HW2 3906   5.483   2.988   1.120
 1003SOL     OW 3907   1.378   5.750   2.117
 1003SOL    HW1 3908   1.286   5.784   2.133
 1003SOL    HW2 3909   1.376   5.652   2.099
 1004SOL     OW 3910   5.618   1.769   3.338
 1004SOL    HW1 3911   5.709   1.782   3.376
 1004SOL    HW2 3912   5.569   1.699   3.391
 1005SOL     OW 3913   1.292   4.809   4.556
 1005SOL    HW1 3914   1.254   4.890   4.602
 1005SOL    HW2 3915   1.378   4.833   4.511
 1006SOL     OW 3916   2.584   3.850   0.412
 1006SOL    HW1 3917   2.636   3.807   0.486
 1006SOL    HW2 3918   2.647   3.874   0.338
 1007SOL     OW 3919   4.611   1.940   6.388
 1007SOL    HW1 3920   4.666   1.871   6.435
 1007SOL    HW2 3921   4.578   1.904   6.301
 1008SOL     OW 3922   0.580   4.703   5.024
 1008SOL    HW1 3923   0.507   4.638   5.045
 1008SOL    HW2 3924   0.600   4.701   4.926
 1009SOL     OW 3925   6.174   5.030   5.277
 1009SOL    HW1 3926   6.262   5.057   5.317
 1009SOL    HW2 3927   6.120   5.112   5.258
 1010SOL     OW 3928   2.045   3.155   1.439
 1010SOL    HW1 3929   2.031   3.253   1.455
 1010SOL    HW2 3930   2.140   3.139   1.412
 1011SOL     OW 3931   0.800   4.746   2.779
 1011SOL    HW1 3932   0.803   4.709   2.686
 1011SOL    HW2 3933   0.864   4.822   2.787
 1012SOL     OW 3934   5.962   0.341   2.456
 1012SOL    HW1 3935   5.918   0.430   2.469
 1012SOL    HW2 3936   5.909   0.288   2.390
 1013SOL     OW 3937   0.051   1.118   6.256
 1013SOL    HW1 3938   0.003   1.048   6.203
 1013SOL    HW2 3939   0.111   1.171   6.196
 1014SOL     OW 3940   1.202   5.261   4.091
 1014SOL    HW1 3941   1.140   5.205   4.036
 1014SOL    HW2 3942   1.255   5.202   4.152
 1015SOL     OW 3943   3.361   0.185   6.413
 1015SOL    HW1 3944   3.430   0.115   6.397
 1015SOL    HW2 3945   3.286   0.147   6.467
 1016SOL     OW 3946   5.143   4.398   1.583
 1016SOL    HW1 3947   5.164   4.360   1.673
 1016SOL    HW2 3948   5.173   4.493   1.580
 1017SOL     OW 3949   2.042   1.369   2.378
 1017SOL    HW1 3950   1.949   1.395   2.404
 1017SOL    HW2 3951   2.067   1.415   2.292
 1018SOL     OW 3952   0.432   5.178   3.650
 1018SOL    HW1 3953   0.466   5.255   3.705
 1018SOL    HW2 3954   0.346   5.145   3.689
 1019SOL     OW 3955   0.162   4.919   0.473
 1019SOL    HW1 3956   0.092   4.854   0.443
 1019SOL    HW2 3957   0.251   4.891   0.439
 1020SOL     OW 3958   6.762   0.179   1.190
 1020SOL    HW1 3959   6.859   0.183   1.164
 1020SOL    HW2 3960   6.735   0.265   1.232
 1021SOL     OW 3961   6.134   5.681   1.587
 1021SOL    HW1 3962   6.078   5.650   1.510
 1021SOL    HW2 3963   6.210   5.736   1.552
 1022SOL     OW 3964   2.559   6.306   6.322
 1022SOL    HW1 3965   2.551   6.270   6.415
 1022SOL    HW2 3966   2.539   6.233   6.257
 1023SOL     OW 3967   0.202   1.698   3.476
 1023SOL    HW1 3968   0.282   1.650   3.440
 1023SOL    HW2 3969   0.127   1.633   3.486
 1024SOL     OW 3970   1.305   2.150   4.902
 1024SOL    HW1 3971   1.366   2.226   4.880
 1024SOL    HW2 3972   1.238   2.139   4.828
 1025SOL     OW 3973   5.096   3.606   0.166
 1025SOL    HW1 3974   5.044   3.687   0.192
 1025SOL    HW2 3975   5.190   3.613   0.201
 1026SOL     OW 3976   3.230   2.559   1.366
 1026SOL    HW1 3977   3.171   2.633   1.333
 1026SOL    HW2 3978   3.287   2.593   1.441
 1027SOL     OW 3979   1.224   6.423   1.384
 1027SOL    HW1 3980   1.136   6.376   1.380
 1027SOL    HW2 3981   1.225   6.487   1.461
 1028SOL     OW 3982   1.156   5.780   2.813
 1028SOL    HW1 3983   1.217   5.721   2.866
 1028SOL    HW2 3984   1.112   5.846   2.874
 1029SOL     OW 3985   1.494   1.821   5.796
 1029SOL    HW1 3986   1.548   1.845   5.876
 1029SOL    HW2 3987   1.400   1.801   5.825
 1030SOL     OW 3988   3.207   3.730   1.454
 1030SOL    HW1 3989   3.129   3.735   1.392
 1030SOL    HW2 3990   3.193   3.792   1.531
 1031SOL     OW 3991   3.517   3.381   1.529
 1031SOL    HW1 3992   3.530   3.453   1.461
 1031SOL    HW2 3993   3.440   3.405   1.588
 1032SOL     OW 3994   2.197   1.787   5.865
 1032SOL    HW1 3995   2.119   1.751   5.814
 1032SOL    HW2 3996   2.252   1.845   5.805
 1033SOL     OW 3997   0.796   5.965   2.156
 1033SOL    HW1 3998   0.747   5.902   2.215
 1033SOL    HW2 3999   0.801   5.927   2.063
 1034SOL     OW 4000   3.612   6.803   4.638
 1034SOL    HW1 4001   3.654   6.849   4.560
 1034SOL    HW2 4002   3.551   6.731   4.607
 1035SOL     OW 4003   0.399   1.472   5.857
 1035SOL    HW1 4004   0.486   1.498   5.897
 1035SOL    HW2 4005   0.351   1.553   5.824
 1036SOL     OW 4006   5.186   1.643   0.989
 1036SOL    HW1 4007   5.212   1.640   0.893
 1036SOL    HW2 4008   5.183   1.739   1.019
 1037SOL     OW 4009   1.838   2.526   2.600
 1037SOL    HW1 4010   1.844   2.450   2.664
 1037SOL    HW2 4011   1.914   2.589   2.615
 1038SOL     OW 4012   2.855   0.443   6.864
 1038SOL    HW1 4013   2.910   0.449   6.781
 1038SOL    HW2 4014   2.903   0.388   6.932
 1039SOL     OW 4015   3.646   3.138   3.720
 1039SOL    HW1 4016   3.586   3.183   3.655
 1039SOL    HW2 4017   3.711   3.079   3.672
 1040SOL     OW 4018   3.832   0.813   2.667
 1040SOL    HW1 4019   3.734   0.798   2.677
 1040SOL    HW2 4020   3.876   0.727   2.642
 1041SOL     OW 4021   6.292   6.269   5.415
 1041SOL    HW1 4022   6.320   6.310   5.502
 1041SOL    HW2 4023   6.332   6.321   5.339
 1042SOL     OW 4024   4.747   4.554   2.355
 1042SOL    HW1 4025   4.662   4.546   2.303
 1042SOL    HW2 4026   4.731   4.607   2.438
 1043SOL     OW 4027   3.296   1.179   3.386
 1043SOL    HW1 4028   3.289   1.189   3.286
 1043SOL    HW2 4029   3.224   1.118   3.419
 1044SOL     OW 4030   5.879   4.932   1.506
 1044SOL    HW1 4031   5.814   5.005   1.526
 1044SOL    HW2 4032   5.834   4.843   1.520
 1045SOL     OW 4033   2.293   0.605   3.906
 1045SOL    HW1 4034   2.369   0.571   3.962
 1045SOL    HW2 4035   2.299   0.704   3.898
 1046SOL     OW 4036   3.467   1.216   0.975
 1046SOL    HW1 4037   3.382   1.241   1.020
 1046SOL    HW2 4038   3.525   1.297   0.963
 1047SOL     OW 4039   3.387   0.024   3.136
 1047SOL    HW1 4040   3.423   6.978   3.199
 1047SOL    HW2 4041   3.297   0.055   3.168
 1048SOL     OW 4042   1.738   5.925   2.094
 1048SOL    HW1 4043   1.727   5.890   2.001
 1048SOL    HW2 4044   1.804   6.000   2.093
 1049SOL     OW 4045   3.793   0.009   5.231
 1049SOL    HW1 4046   3.730   7.012   5.156
 1049SOL    HW2 4047   3.884   6.999   5.207
 1050SOL     OW 4048   3.452   5.117   3.674
 1050SOL    HW1 4049   3.393   5.174   3.616
 1050SOL    HW2 4050   3.519   5.070   3.617
 1051SOL     OW 4051   0.175   0.184   0.386
 1051SOL    HW1 4052   0.212   0.091   0.383
 1051SOL    HW2 4053   0.233   0.244   0.331
 1052SOL     OW 4054   3.991   0.396   6.616
 1052SOL    HW1 4055   4.072   0.435   6.659
 1052SOL    HW2 4056   3.981   0.433   6.524
 1053SOL     OW 4057   5.964   3.617   2.236
 1053SOL    HW1 4058   5.922   3.663   2.157
 1053SOL    HW2 4059   6.017   3.684   2.288
 1054SOL     OW 4060   3.650   4.465   0.551
 1054SOL    HW1 4061   3.667   4.559   0.582
 1054SOL    HW2 4062   3.734   4.426   0.514
 1055SOL     OW 4063   4.175   5.973   6.856
 1055SOL    HW1 4064   4.173   6.073   6.847
 1055SOL    HW2 4065   4.166   5.947   6.952
 1056SOL     OW 4066   2.330   4.499   0.469
 1056SOL    HW1 4067   2.317   4.463   0.561
 1056SOL    HW2 4068   2.410   4.455   0.427
 1057SOL     OW 4069   3.709   1.872   1.540
 1057SOL    HW1 4070   3.799   1.911   1.523
 1057SOL    HW2 4071   3.671   1.911   1.624
 1058SOL     OW 4072   3.540   1.978   2.838
 1058SOL    HW1 4073   3.586   1.905   2.888
 1058SOL    HW2 4074   3.590   2.064   2.849
 1059SOL     OW 4075   2.484   6.085   1.656
 1059SOL    HW1 4076   2.480   6.172   1.607
 1059SOL    HW2 4077   2.572   6.079   1.704
 1060SOL     OW 4078   0.075   5.894   5.442
 1060SOL    HW1 4079   0.011   5.910   5.367
 1060SOL    HW2 4080   0.167   5.877   5.405
 1061SOL     OW 4081   0.157   4.352   0.658
 1061SOL    HW1 4082   0.157   4.405   0.744
 1061SOL    HW2 4083   0.130   4.258   0.677
 1062SOL     OW 4084   3.662   6.294   5.219
 1062SOL    HW1 4085   3.567   6.291   5.251
 1062SOL    HW2 4086   3.711   6.214   5.254
 1063SOL     OW 4087   1.635   6.684   5.796
 1063SOL    HW1 4088   1.617   6.641   5.708
 1063SOL    HW2 4089   1.632   6.783   5.787
 1064SOL     OW 4090   0.400   4.256   0.942
 1064SOL    HW1 4091   0.384   4.345   0.986
 1064SOL    HW2 4092   0.314   4.221   0.906
 1065SOL     OW 4093   3.652   0.347   4.550
 1065SOL    HW1 4094   3.717   0.305   4.486
 1065SOL    HW2 4095   3.648   0.446   4.534
 1066SOL     OW 4096   4.408   0.569   2.009
 1066SOL    HW1 4097   4.465   0.642   1.971
 1066SOL    HW2 4098   4.316   0.604   2.028
 1067SOL     OW 4099   2.926   1.443   0.405
 1067SOL    HW1 4100   2.993   1.480   0.470
 1067SOL    HW2 4101   2.962   1.358   0.366
 1068SOL     OW 4102   5.746   3.458   1.252
 1068SOL    HW1 4103   5.730   3.365   1.222
 1068SOL    HW2 4104   5.756   3.460   1.352
 1069SOL     OW 4105   6.417   4.264   1.093
 1069SOL    HW1 4106   6.387   4.192   1.156
 1069SOL    HW2 4107   6.372   4.251   1.005
 1070SOL     OW 4108   1.786   0.878   2.299
 1070SOL    HW1 4109   1.687   0.876   2.290
 1070SOL    HW2 4110   1.828   0.821   2.228
 1071SOL     OW 4111   6.552   2.468   4.828
 1071SOL    HW1 4112   6.569   2.463   4.730
 1071SOL    HW2 4113   6.555   2.377   4.868
 1072SOL     OW 4114   3.099   1.102   2.319
 1072SOL    HW1 4115   3.077   1.076   2.225
 1072SOL    HW2 4116   3.147   1.028   2.364
 1073SOL     OW 4117   5.174   2.069   3.035
 1073SOL    HW1 4118   5.154   2.166   3.027
 1073SOL    HW2 4119   5.097   2.022   3.079
 1074SOL     OW 4120   3.334   5.165   2.023
 1074SOL    HW1 4121   3.293   5.201   2.106
 1074SOL    HW2 4122   3.326   5.065   2.023
 1075SOL     OW 4123   5.908   2.282   5.185
 1075SOL    HW1 4124   5.831   2.328   5.141
 1075SOL    HW2 4125   5.886   2.186   5.197
 1076SOL     OW 4126   2.127   4.072   4.873
 1076SOL    HW1 4127   2.210   4.069   4.929
 1076SOL    HW2 4128   2.152   4.066   4.776
 1077SOL     OW 4129   6.712   0.438   6.914
 1077SOL    HW1 4130   6.665   0.414   6.829
 1077SOL    HW2 4131   6.668   0.392   6.991
 1078SOL     OW 4132   6.806   6.443   3.937
 1078SOL    HW1 4133   6.877   6.396   3.990
 1078SOL    HW2 4134   6.732   6.379   3.915
 1079SOL     OW 4135   1.436   5.843   2.522
 1079SOL    HW1 4136   1.470   5.928   2.481
 1079SOL    HW2 4137   1.340   5.855   2.548
 1080SOL     OW 4138   2.198   5.192   5.354
 1080SOL    HW1 4139   2.273   5.144   5.399
 1080SOL    HW2 4140   2.150   5.128   5.293
 1081SOL     OW 4141   6.128   5.761   4.354
 1081SOL    HW1 4142   6.105   5.845   4.401
 1081SOL    HW2 4143   6.053   5.696   4.363
 1082SOL     OW 4144   5.533   6.834   6.137
 1082SOL    HW1 4145   5.598   6.788   6.198
 1082SOL    HW2 4146   5.480   6.767   6.087
 1083SOL     OW 4147   5.237   4.183   1.116
 1083SOL    HW1 4148   5.220   4.255   1.184
 1083SOL    HW2 4149   5.254   4.226   1.027
 1084SOL     OW 4150   6.955   6.851   6.683
 1084SOL    HW1 4151   6.875   6.850   6.623
 1084SOL    HW2 4152   6.934   6.902   6.766
 1085SOL     OW 4153   2.004   3.859   4.147
 1085SOL    HW1 4154   2.004   3.807   4.062
 1085SOL    HW2 4155   1.945   3.814   4.214
 1086SOL     OW 4156   6.547   4.427   6.735
 1086SOL    HW1 4157   6.486   4.373   6.793
 1086SOL    HW2 4158   6.492   4.493   6.683
 1087SOL     OW 4159   1.784   0.346   5.497
 1087SOL    HW1 4160   1.825   0.429   5.533
 1087SOL    HW2 4161   1.711   0.315   5.558
 1088SOL     OW 4162   0.087   4.644   3.728
 1088SOL    HW1 4163   0.084   4.544   3.727
 1088SOL    HW2 4164   0.179   4.675   3.705
 1089SOL     OW 4165   6.643   4.966   4.880
 1089SOL    HW1 4166   6.552   4.941   4.914
 1089SOL    HW2 4167   6.670   5.054   4.917
 1090SOL     OW 4168   5.410   1.735   4.630
 1090SOL    HW1 4169   5.335   1.786   4.672
 1090SOL    HW2 4170   5.480   1.798   4.599
 1091SOL     OW 4171   2.183   2.991   3.943
 1091SOL    HW1 4172   2.141   2.902   3.925
 1091SOL    HW2 4173   2.202   3.037   3.857
 1092SOL     OW 4174   0.899   4.696   0.826
 1092SOL    HW1 4175   0.931   4.727   0.915
 1092SOL    HW2 4176   0.925   4.762   0.756
 1093SOL     OW 4177   2.347   6.596   1.220
 1093SOL    HW1 4178   2.330   6.501   1.193
 1093SOL    HW2 4179   2.369   6.599   1.317
 1094SOL     OW 4180   1.220   0.477   2.900
 1094SOL    HW1 4181   1.167   0.509   2.979
 1094SOL    HW2 4182   1.316   0.498   2.914
 1095SOL     OW 4183   6.809   3.042   6.991
 1095SOL    HW1 4184   6.717   3.072   7.017
 1095SOL    HW2 4185   6.841   3.095   6.913
 1096SOL     OW 4186   2.908   5.511   1.204
 1096SOL    HW1 4187   2.887   5.414   1.210
 1096SOL    HW2 4188   2.830   5.564   1.235
 1097SOL     OW 4189   2.298   5.251   3.856
 1097SOL    HW1 4190   2.259   5.164   3.885
 1097SOL    HW2 4191   2.377   5.274   3.913
 1098SOL     OW 4192   5.822   4.464   0.104
 1098SOL    HW1 4193   5.744   4.523   0.125
 1098SOL    HW2 4194   5.801   4.370   0.130
 1099SOL     OW 4195   4.696   1.552   6.104
 1099SOL    HW1 4196   4.791   1.540   6.131
 1099SOL    HW2 4197   4.654   1.463   6.088
 1100SOL     OW 4198   4.029   1.227   3.758
 1100SOL    HW1 4199   3.940   1.271   3.749
 1100SOL    HW2 4200   4.036   1.180   3.846
 1101SOL     OW 4201   5.808   3.332   5.384
 1101SOL    HW1 4202   5.763   3.253   5.342
 1101SOL    HW2 4203   5.749   3.369   5.456
 1102SOL     OW 4204   2.193   0.862   4.409
 1102SOL    HW1 4205   2.101   0.889   4.439
 1102SOL    HW2 4206   2.249   0.841   4.489
 1103SOL     OW 4207   3.023   0.828   6.655
 1103SOL    HW1 4208   3.088   0.791   6.588
 1103SOL    HW2 4209   3.057   0.915   6.689
 1104SOL     OW 4210   0.724   3.875   2.932
 1104SOL    HW1 4211   0.666   3.877   2.850
 1104SOL    HW2 4212   0.678   3.823   3.004
 1105SOL     OW 4213   5.396   1.587   5.023
 1105SOL    HW1 4214   5.479   1.630   4.985
 1105SOL    HW2 4215   5.403   1.584   5.123
 1106SOL     OW 4216   0.730   1.484   0.381
 1106SOL    HW1 4217   0.746   1.511   0.476
 1106SOL    HW2 4218   0.762   1.390   0.367
 1107SOL     OW 4219   1.119   0.647   6.775
 1107SOL    HW1 4220   1.022   0.658   6.752
 1107SOL    HW2 4221   1.165   0.593   6.705
 1108SOL     OW 4222   3.330   6.342   3.981
 1108SOL    HW1 4223   3.320   6.380   4.073
 1108SOL    HW2 4224   3.249   6.363   3.927
 1109SOL     OW 4225   5.383   1.821   4.084
 1109SOL    HW1 4226   5.379   1.909   4.131
 1109SOL    HW2 4227   5.433   1.832   3.998
 1110SOL     OW 4228   3.582   0.846   2.807
 1110SOL    HW1 4229   3.634   0.862   2.891
 1110SOL    HW2 4230   3.538   0.930   2.778
 1111SOL     OW 4231   4.837   3.827   6.155
 1111SOL    HW1 4232   4.771   3.892   6.117
 1111SOL    HW2 4233   4.882   3.867   6.234
 1112SOL     OW 4234   5.753   0.986   2.441
 1112SOL    HW1 4235   5.684   0.982   2.513
 1112SOL    HW2 4236   5.844   0.984   2.482
 1113SOL     OW 4237   6.408   4.392   2.552
 1113SOL    HW1 4238   6.386   4.486   2.579
 1113SOL    HW2 4239   6.341   4.360   2.485
 1114SOL     OW 4240   4.484   2.629   5.790
 1114SOL    HW1 4241   4.413   2.698   5.801
 1114SOL    HW2 4242   4.447   2.539   5.814
 1115SOL     OW 4243   2.959   4.139   6.049
 1115SOL    HW1 4244   3.040   4.194   6.030
 1115SOL    HW2 4245   2.880   4.177   6.001
 1116SOL     OW 4246   5.076   0.724   6.806
 1116SOL    HW1 4247   5.083   0.824   6.810
 1116SOL    HW2 4248   4.979   0.698   6.809
 1117SOL     OW 4249   1.163   2.454   1.620
 1117SOL    HW1 4250   1.161   2.554   1.615
 1117SOL    HW2 4251   1.255   2.421   1.600
 1118SOL     OW 4252   3.101   5.251   0.168
 1118SOL    HW1 4253   3.188   5.283   0.131
 1118SOL    HW2 4254   3.097   5.151   0.162
 1119SOL     OW 4255   4.236   4.935   3.469
 1119SOL    HW1 4256   4.248   4.883   3.553
 1119SOL    HW2 4257   4.326   4.962   3.433
 1120SOL     OW 4258   6.663   5.503   0.921
 1120SOL    HW1 4259   6.599   5.451   0.979
 1120SOL    HW2 4260   6.612   5.571   0.869
 1121SOL     OW 4261   0.848   4.529   4.268
 1121SOL    HW1 4262   0.795   4.489   4.194
 1121SOL    HW2 4263   0.940   4.551   4.235
 1122SOL     OW 4264   5.878   2.557   2.123
 1122SOL    HW1 4265   5.972   2.530   2.146
 1122SOL    HW2 4266   5.820   2.551   2.204
 1123SOL     OW 4267   4.251   2.322   3.015
 1123SOL    HW1 4268   4.191   2.241   3.018
 1123SOL    HW2 4269   4.198   2.401   2.986
 1124SOL     OW 4270   1.951   2.974   4.952
 1124SOL    HW1 4271   1.996   2.942   5.036
 1124SOL    HW2 4272   1.883   3.044   4.976
 1125SOL     OW 4273   1.569   3.665   4.105
 1125SOL    HW1 4274   1.552   3.642   4.009
 1125SOL    HW2 4275   1.667   3.679   4.119
 1126SOL     OW 4276   4.425   5.803   5.200
 1126SOL    HW1 4277   4.449   5.741   5.274
 1126SOL    HW2 4278   4.486   5.882   5.202
 1127SOL     OW 4279   5.187   5.718   3.676
 1127SOL    HW1 4280   5.280   5.708   3.710
 1127SOL    HW2 4281   5.164   5.816   3.668
 1128SOL     OW 4282   6.251   1.300   3.475
 1128SOL    HW1 4283   6.284   1.267   3.564
 1128SOL    HW2 4284   6.322   1.358   3.433
 1129SOL     OW 4285   1.665   0.164   1.235
 1129SOL    HW1 4286   1.609   0.151   1.153
 1129SOL    HW2 4287   1.762   0.162   1.211
 1130SOL     OW 4288   2.342   4.911   3.132
 1130SOL    HW1 4289   2.328   4.845   3.206
 1130SOL    HW2 4290   2.350   5.003   3.170
 1131SOL     OW 4291   0.783   6.871   4.081
 1131SOL    HW1 4292   0.838   6.793   4.108
 1131SOL    HW2 4293   0.839   6.936   4.030
 1132SOL     OW 4294   4.181   1.154   3.310
 1132SOL    HW1 4295   4.120   1.145   3.232
 1132SOL    HW2 4296   4.133   1.199   3.385
 1133SOL     OW 4297   1.263   6.653   5.061
 1133SOL    HW1 4298   1.339   6.588   5.061
 1133SOL    HW2 4299   1.209   6.641   5.145
 1134SOL     OW 4300   4.853   0.018   1.292
 1134SOL    HW1 4301   4.821   7.007   1.203
 1134SOL    HW2 4302   4.786   0.082   1.329
 1135SOL     OW 4303   2.084   6.355   3.552
 1135SOL    HW1 4304   2.060   6.452   3.558
 1135SOL    HW2 4305   2.047   6.317   3.467
 1136SOL     OW 4306   2.953   5.824   2.138
 1136SOL    HW1 4307   2.995   5.853   2.051
 1136SOL    HW2 4308   3.017   5.840   2.213
 1137SOL     OW 4309   0.356   5.891   6.398
 1137SOL    HW1 4310   0.272   5.846   6.429
 1137SOL    HW2 4311   0.415   5.823   6.355
 1138SOL     OW 4312   2.100   2.860   5.170
 1138SOL    HW1 4313   2.118   2.951   5.207
 1138SOL    HW2 4314   2.119   2.791   5.239
 1139SOL     OW 4315   2.944   4.921   4.113
 1139SOL    HW1 4316   2.991   4.886   4.194
 1139SOL    HW2 4317   2.900   5.008   4.135
 1140SOL     OW 4318   2.202   1.249   2.013
 1140SOL    HW1 4319   2.244   1.159   1.997
 1140SOL    HW2 4320   2.256   1.298   2.081
 1141SOL     OW 4321   6.132   4.926   5.952
 1141SOL    HW1 4322   6.130   4.938   5.852
 1141SOL    HW2 4323   6.074   4.849   5.977
 1142SOL     OW 4324   2.445   0.118   3.123
 1142SOL    HW1 4325   2.409   0.197   3.074
 1142SOL    HW2 4326   2.534   0.141   3.161
 1143SOL     OW 4327   0.792   4.188   1.807
 1143SOL    HW1 4328   0.800   4.177   1.708
 1143SOL    HW2 4329   0.879   4.221   1.844
 1144SOL     OW 4330   5.468   4.610   2.218
 1144SOL    HW1 4331   5.501   4.550   2.145
 1144SOL    HW2 4332   5.537   4.618   2.289
 1145SOL     OW 4333   1.179   1.738   0.486
 1145SOL    HW1 4334   1.234   1.795   0.425
 1145SOL    HW2 4335   1.086   1.732   0.451
 1146SOL     OW 4336   0.705   0.842   1.761
 1146SOL    HW1 4337   0.624   0.891   1.792
 1146SOL    HW2 4338   0.722   0.764   1.821
 1147SOL     OW 4339   3.163   6.051   1.118
 1147SOL    HW1 4340   3.079   6.105   1.116
 1147SOL    HW2 4341   3.144   5.958   1.090
 1148SOL     OW 4342   4.083   6.306   2.173
 1148SOL    HW1 4343   4.135   6.282   2.091
 1148SOL    HW2 4344   4.128   6.381   2.221
 1149SOL     OW 4345   5.697   2.334   1.461
 1149SOL    HW1 4346   5.701   2.256   1.523
 1149SOL    HW2 4347   5.717   2.418   1.511
 1150SOL     OW 4348   1.208   4.130   6.713
 1150SOL    HW1 4349   1.300   4.156   6.685
 1150SOL    HW2 4350   1.169   4.067   6.646
 1151SOL     OW 4351   6.548   5.083   3.792
 1151SOL    HW1 4352   6.510   5.023   3.721
 1151SOL    HW2 4353   6.506   5.061   3.879
 1152SOL     OW 4354   4.929   1.030   6.950
 1152SOL    HW1 4355   5.008   1.005   6.893
 1152SOL    HW2 4356   4.850   1.047   6.892
 1153SOL     OW 4357   6.606   6.815   1.392
 1153SOL    HW1 4358   6.665   6.847   1.466
 1153SOL    HW2 4359   6.571   6.894   1.341
 1154SOL     OW 4360   1.505   3.395   2.270
 1154SOL    HW1 4361   1.550   3.437   2.191
 1154SOL    HW2 4362   1.564   3.324   2.308
 1155SOL     OW 4363   2.126   6.455   4.544
 1155SOL    HW1 4364   2.027   6.468   4.542
 1155SOL    HW2 4365   2.152   6.413   4.631
 1156SOL     OW 4366   3.770   1.758   5.076
 1156SOL    HW1 4367   3.847   1.787   5.133
 1156SOL    HW2 4368   3.804   1.701   5.001
 1157SOL     OW 4369   4.061   0.189   5.605
 1157SOL    HW1 4370   4.160   0.199   5.594
 1157SOL    HW2 4371   4.042   0.144   5.692
 1158SOL     OW 4372   5.687   5.546   3.362
 1158SOL    HW1 4373   5.715   5.597   3.280
 1158SOL    HW2 4374   5.651   5.457   3.335
 1159SOL     OW 4375   6.835   6.079   2.696
 1159SOL    HW1 4376   6.927   6.096   2.732
 1159SOL    HW2 4377   6.834   5.990   2.649
 1160SOL     OW 4378   4.175   0.139   0.790
 1160SOL    HW1 4379   4.112   0.088   0.849
 1160SOL    HW2 4380   4.128   0.165   0.706
 1161SOL     OW 4381   6.898   5.658   0.065
 1161SOL    HW1 4382   6.807   5.634   0.101
 1161SOL    HW2 4383   6.950   5.575   0.048
 1162SOL     OW 4384   1.925   2.985   5.430
 1162SOL    HW1 4385   2.017   2.945   5.430
 1162SOL    HW2 4386   1.906   3.026   5.519
 1163SOL     OW 4387   6.104   4.584   1.801
 1163SOL    HW1 4388   6.008   4.561   1.819
 1163SOL    HW2 4389   6.144   4.517   1.739
 1164SOL     OW 4390   5.019   2.016   4.356
 1164SOL    HW1 4391   4.968   2.037   4.273
 1164SOL    HW2 4392   5.030   2.099   4.410
 1165SOL     OW 4393   4.332   6.570   3.299
 1165SOL    HW1 4394   4.259   6.506   3.325
 1165SOL    HW2 4395   4.399   6.577   3.373
 1166SOL     OW 4396   2.364   6.624   6.637
 1166SOL    HW1 4397   2.451   6.632   6.589
 1166SOL    HW2 4398   2.382   6.598   6.732
 1167SOL     OW 4399   5.340   4.128   2.291
 1167SOL    HW1 4400   5.278   4.078   2.351
 1167SOL    HW2 4401   5.289   4.171   2.217
 1168SOL     OW 4402   5.707   2.670   2.623
 1168SOL    HW1 4403   5.756   2.740   2.570
 1168SOL    HW2 4404   5.772   2.624   2.684
 1169SOL     OW 4405   5.414   0.907   5.679
 1169SOL    HW1 4406   5.318   0.881   5.684
 1169SOL    HW2 4407   5.433   0.948   5.589
 1170SOL     OW 4408   4.806   0.218   3.179
 1170SOL    HW1 4409   4.876   0.191   3.245
 1170SOL    HW2 4410   4.744   0.141   3.162
 1171SOL     OW 4411   1.516   0.603   0.706
 1171SOL    HW1 4412   1.459   0.524   0.731
 1171SOL    HW2 4413   1.557   0.587   0.616
 1172SOL     OW 4414   6.733   3.743   0.555
 1172SOL    HW1 4415   6.635   3.757   0.569
 1172SOL    HW2 4416   6.748   3.707   0.463
 1173SOL     OW 4417   3.157   1.358   1.395
 1173SOL    HW1 4418   3.075   1.366   1.451
 1173SOL    HW2 4419   3.213   1.282   1.429
 1174SOL     OW 4420   3.785   3.823   1.272
 1174SOL    HW1 4421   3.738   3.808   1.359
 1174SOL    HW2 4422   3.719   3.818   1.197
 1175SOL     OW 4423   4.147   3.051   5.670
 1175SOL    HW1 4424   4.187   3.138   5.639
 1175SOL    HW2 4425   4.050   3.048   5.646
 1176SOL     OW 4426   5.051   3.719   5.704
 1176SOL    HW1 4427   5.128   3.739   5.644
 1176SOL    HW2 4428   5.069   3.756   5.795
 1177SOL     OW 4429   6.318   2.132   4.836
 1177SOL    HW1 4430   6.253   2.206   4.818
 1177SOL    HW2 4431   6.411   2.165   4.822
 1178SOL     OW 4432   2.975   4.827   0.582
 1178SOL    HW1 4433   3.000   4.828   0.485
 1178SOL    HW2 4434   3.042   4.880   0.634
 1179SOL     OW 4435   2.195   6.147   0.142
 1179SOL    HW1 4436   2.130   6.216   0.111
 1179SOL    HW2 4437   2.151   6.085   0.205
 1180SOL     OW 4438   3.301   5.795   1.411
 1180SOL    HW1 4439   3.392   5.815   1.447
 1180SOL    HW2 4440   3.305   5.716   1.350
 1181SOL     OW 4441   0.612   5.519   6.705
 1181SOL    HW1 4442   0.662   5.582   6.647
 1181SOL    HW2 4443   0.527   5.491   6.660
 1182SOL     OW 4444   3.494   5.742   2.921
 1182SOL    HW1 4445   3.473   5.802   2.999
 1182SOL    HW2 4446   3.463   5.786   2.837
 1183SOL     OW 4447   1.505   4.406   0.006
 1183SOL    HW1 4448   1.517   4.334   6.960
 1183SOL    HW2 4449   1.414   4.398   0.046
 1184SOL     OW 4450   0.850   0.529   4.572
 1184SOL    HW1 4451   0.914   0.476   4.515
 1184SOL    HW2 4452   0.884   0.532   4.666
 1185SOL     OW 4453   7.000   1.228   6.508
 1185SOL    HW1 4454   0.003   1.175   6.427
 1185SOL    HW2 4455   6.910   1.271   6.494
 1186SOL     OW 4456   4.879   5.815   4.381
 1186SOL    HW1 4457   4.945   5.873   4.333
 1186SOL    HW2 4458   4.847   5.743   4.320
 1187SOL     OW 4459   6.613   6.864   6.649
 1187SOL    HW1 4460   6.647   6.941   6.704
 1187SOL    HW2 4461   6.630   6.883   6.552
 1188SOL     OW 4462   3.029   6.275   4.809
 1188SOL    HW1 4463   3.097   6.290   4.737
 1188SOL    HW2 4464   3.036   6.181   4.843
 1189SOL     OW 4465   6.401   3.371   2.867
 1189SOL    HW1 4466   6.316   3.329   2.898
 1189SOL    HW2 4467   6.411   3.358   2.768
 1190SOL     OW 4468   1.932   5.899   3.330
 1190SOL    HW1 4469   1.898   5.805   3.322
 1190SOL    HW2 4470   2.015   5.900   3.386
 1191SOL     OW 4471   4.030   4.829   3.343
 1191SOL    HW1 4472   4.102   4.881   3.390
 1191SOL    HW2 4473   4.065   4.798   3.255
 1192SOL     OW 4474   3.616   5.969   3.215
 1192SOL    HW1 4475   3.636   5.872   3.201
 1192SOL    HW2 4476   3.569   5.981   3.302
 1193SOL     OW 4477   5.999   4.539   4.530
 1193SOL    HW1 4478   5.927   4.594   4.572
 1193SOL    HW2 4479   6.087   4.563   4.571
 1194SOL     OW 4480   5.549   0.324   1.601
 1194SOL    HW1 4481   5.510   0.345   1.691
 1194SOL    HW2 4482   5.648   0.338   1.603
 1195SOL     OW 4483   6.135   5.222   2.062
 1195SOL    HW1 4484   6.068   5.149   2.044
 1195SOL    HW2 4485   6.109   5.271   2.145
 1196SOL     OW 4486   0.350   6.324   3.085
 1196SOL    HW1 4487   0.254   6.323   3.113
 1196SOL    HW2 4488   0.358   6.290   2.991
 1197SOL     OW 4489   3.335   0.933   6.923
 1197SOL    HW1 4490   3.403   1.006   6.937
 1197SOL    HW2 4491   3.278   0.925   7.005
 1198SOL     OW 4492   0.959   2.443   1.205
 1198SOL    HW1 4493   1.013   2.360   1.218
 1198SOL    HW2 4494   0.951   2.492   1.292
 1199SOL     OW 4495   4.705   5.260   1.566
 1199SOL    HW1 4496   4.742   5.208   1.643
 1199SOL    HW2 4497   4.685   5.198   1.490
 1200SOL     OW 4498   3.211   3.171   2.588
 1200SOL    HW1 4499   3.181   3.119   2.509
 1200SOL    HW2 4500   3.307   3.151   2.606
 1201SOL     OW 4501   1.291   1.106   4.851
 1201SOL    HW1 4502   1.219   1.106   4.920
 1201SOL    HW2 4503   1.311   1.012   4.823
 1202SOL     OW 4504   1.162   5.696   6.440
 1202SOL    HW1 4505   1.257   5.692   6.408
 1202SOL    HW2 4506   1.110   5.758   6.382
 1203SOL     OW 4507   5.018   5.836   6.251
 1203SOL    HW1 4508   5.020   5.917   6.193
 1203SOL    HW2 4509   4.985   5.758   6.197
 1204SOL     OW 4510   2.427   0.314   1.691
 1204SOL    HW1 4511   2.365   0.236   1.695
 1204SOL    HW2 4512   2.383   0.395   1.730
 1205SOL     OW 4513   4.869   4.307   1.528
 1205SOL    HW1 4514   4.801   4.314   1.601
 1205SOL    HW2 4515   4.958   4.337   1.563
 1206SOL     OW 4516   3.551   2.925   4.736
 1206SOL    HW1 4517   3.505   2.904   4.822
 1206SOL    HW2 4518   3.561   3.024   4.728
 1207SOL     OW 4519   2.663   6.951   1.558
 1207SOL    HW1 4520   2.585   6.898   1.525
 1207SOL    HW2 4521   2.634   0.023   1.576
 1208SOL     OW 4522   3.565   3.970   0.064
 1208SOL    HW1 4523   3.508   4.025   0.003
 1208SOL    HW2 4524   3.580   4.021   0.149
 1209SOL     OW 4525   3.671   0.237   5.613
 1209SOL    HW1 4526   3.731   0.287   5.550
 1209SOL    HW2 4527   3.683   0.272   5.706
 1210SOL     OW 4528   2.637   6.708   3.564
 1210SOL    HW1 4529   2.663   6.611   3.568
 1210SOL    HW2 4530   2.637   6.739   3.469
 1211SOL     OW 4531   1.352   3.834   0.821
 1211SOL    HW1 4532   1.424   3.769   0.797
 1211SOL    HW2 4533   1.381   3.889   0.899
 1212SOL     OW 4534   0.289   0.174   6.219
 1212SOL    HW1 4535   0.326   0.222   6.298
 1212SOL    HW2 4536   0.195   0.147   6.238
 1213SOL     OW 4537   5.846   2.375   0.175
 1213SOL    HW1 4538   5.822   2.368   0.078
 1213SOL    HW2 4539   5.945   2.362   0.185
 1214SOL     OW 4540   0.037   2.103   1.006
 1214SOL    HW1 4541   0.100   2.180   0.996
 1214SOL    HW2 4542   6.992   2.125   1.078
 1215SOL     OW 4543   1.685   4.622   4.270
 1215SOL    HW1 4544   1.708   4.574   4.354
 1215SOL    HW2 4545   1.660   4.556   4.199
 1216SOL     OW 4546   4.202   0.459   0.240
 1216SOL    HW1 4547   4.129   0.491   0.299
 1216SOL    HW2 4548   4.180   0.368   0.206
 1217SOL     OW 4549   1.741   4.333   0.617
 1217SOL    HW1 4550   1.762   4.280   0.699
 1217SOL    HW2 4551   1.691   4.416   0.642
 1218SOL     OW 4552   1.378   5.104   3.908
 1218SOL    HW1 4553   1.432   5.021   3.898
 1218SOL    HW2 4554   1.422   5.164   3.975
 1219SOL     OW 4555   4.668   5.982   1.965
 1219SOL    HW1 4556   4.706   6.044   2.034
 1219SOL    HW2 4557   4.647   6.034   1.882
 1220SOL     OW 4558   1.662   4.994   3.021
 1220SOL    HW1 4559   1.580   5.048   3.006
 1220SOL    HW2 4560   1.740   5.055   3.038
 1221SOL     OW 4561   5.408   2.892   5.757
 1221SOL    HW1 4562   5.343   2.833   5.806
 1221SOL    HW2 4563   5.410   2.982   5.800
 1222SOL     OW 4564   6.103   6.612   6.855
 1222SOL    HW1 4565   6.190   6.567   6.873
 1222SOL    HW2 4566   6.118   6.706   6.827
 1223SOL     OW 4567   4.009   0.546   0.380
 1223SOL    HW1 4568   4.026   0.643   0.362
 1223SOL    HW2 4569   4.006   0.530   0.479
 1224SOL     OW 4570   2.270   0.028   1.165
 1224SOL    HW1 4571   2.271   0.045   1.066
 1224SOL    HW2 4572   2.343   6.986   1.188
 1225SOL     OW 4573   3.229   4.248   6.001
 1225SOL    HW1 4574   3.288   4.167   5.994
 1225SOL    HW2 4575   3.201   4.277   5.909
 1226SOL     OW 4576   2.347   4.617   1.537
 1226SOL    HW1 4577   2.314   4.598   1.629
 1226SOL    HW2 4578   2.270   4.632   1.475
 1227SOL     OW 4579   6.855   3.240   6.807
 1227SOL    HW1 4580   6.890   3.248   6.714
 1227SOL    HW2 4581   6.864   3.328   6.854
 1228SOL     OW 4582   3.706   2.571   6.581
 1228SOL    HW1 4583   3.681   2.664   6.608
 1228SOL    HW2 4584   3.805   2.560   6.588
 1229SOL     OW 4585   4.730   4.770   6.548
 1229SOL    HW1 4586   4.637   4.738   6.566
 1229SOL    HW2 4587   4.781   4.774   6.634
 1230SOL     OW 4588   4.065   0.628   4.097
 1230SOL    HW1 4589   3.972   0.614   4.129
 1230SOL    HW2 4590   4.127   0.566   4.145
 1231SOL     OW 4591   2.123   3.758   4.993
 1231SOL    HW1 4592   2.132   3.853   5.025
 1231SOL    HW2 4593   2.028   3.730   5.001
 1232SOL     OW 4594   1.113   2.840   5.447
 1232SOL    HW1 4595   1.077   2.756   5.407
 1232SOL    HW2 4596   1.147   2.900   5.374
 1233SOL     OW 4597   1.337   2.745   5.647
 1233SOL    HW1 4598   1.278   2.707   5.718
 1233SOL    HW2 4599   1.305   2.836   5.623
 1234SOL     OW 4600   6.845   4.361   4.759
 1234SOL    HW1 4601   6.825   4.281   4.815
 1234SOL    HW2 4602   6.915   4.417   4.802
 1235SOL     OW 4603   6.537   5.668   2.596
 1235SOL    HW1 4604   6.565   5.649   2.501
 1235SOL    HW2 4605   6.476   5.595   2.628
 1236SOL     OW 4606   5.291   1.098   6.415
 1236SOL    HW1 4607   5.321   1.005   6.390
 1236SOL    HW2 4608   5.297   1.109   6.514
 1237SOL     OW 4609   2.508   4.538   5.958
 1237SOL    HW1 4610   2.581   4.479   5.993
 1237SOL    HW2 4611   2.524   4.632   5.988
 1238SOL     OW 4612   2.034   1.090   1.249
 1238SOL    HW1 4613   2.024   1.013   1.313
 1238SOL    HW2 4614   2.107   1.151   1.281
 1239SOL     OW 4615   0.208   6.105   6.338
 1239SOL    HW1 4616   0.275   6.035   6.363
 1239SOL    HW2 4617   0.134   6.106   6.405
 1240SOL     OW 4618   5.535   6.304   1.579
 1240SOL    HW1 4619   5.623   6.297   1.532
 1240SOL    HW2 4620   5.482   6.379   1.539
 1241SOL     OW 4621   6.563   3.216   4.540
 1241SOL    HW1 4622   6.538   3.256   4.628
 1241SOL    HW2 4623   6.563   3.286   4.470
 1242SOL     OW 4624   1.519   3.554   0.155
 1242SOL    HW1 4625   1.436   3.603   0.130
 1242SOL    HW2 4626   1.598   3.615   0.143
 1243SOL     OW 4627   1.995   5.465   5.171
 1243SOL    HW1 4628   1.967   5.410   5.092
 1243SOL    HW2 4629   1.918   5.473   5.235
 1244SOL     OW 4630   0.363   0.594   3.156
 1244SOL    HW1 4631   0.412   0.507   3.154
 1244SOL    HW2 4632   0.376   0.642   3.069
 1245SOL     OW 4633   2.931   3.519   6.822
 1245SOL    HW1 4634   2.979   3.561   6.899
 1245SOL    HW2 4635   2.996   3.466   6.767
 1246SOL     OW 4636   2.395   6.942   2.097
 1246SOL    HW1 4637   2.399   6.842   2.099
 1246SOL    HW2 4638   2.363   6.976   2.186
 1247SOL     OW 4639   2.990   6.818   6.615
 1247SOL    HW1 4640   2.942   6.877   6.551
 1247SOL    HW2 4641   3.084   6.804   6.584
 1248SOL     OW 4642   1.665   6.316   3.715
 1248SOL    HW1 4643   1.762   6.334   3.730
 1248SOL    HW2 4644   1.652   6.266   3.630
 1249SOL     OW 4645   6.047   3.443   3.347
 1249SOL    HW1 4646   6.111   3.368   3.362
 1249SOL    HW2 4647   6.006   3.434   3.256
 1250SOL     OW 4648   1.261   4.872   4.146
 1250SOL    HW1 4649   1.358   4.848   4.143
 1250SOL    HW2 4650   1.245   4.938   4.220
 1251SOL     OW 4651   4.179   0.884   4.467
 1251SOL    HW1 4652   4.105   0.920   4.409
 1251SOL    HW2 4653   4.231   0.816   4.416
 1252SOL     OW 4654   3.268   3.565   6.013
 1252SOL    HW1 4655   3.240   3.657   6.040
 1252SOL    HW2 4656   3.309   3.568   5.922
 1253SOL     OW 4657   3.620   5.319   2.298
 1253SOL    HW1 4658   3.672   5.282   2.375
 1253SOL    HW2 4659   3.610   5.250   2.227
 1254SOL     OW 4660   6.276   2.120   3.221
 1254SOL    HW1 4661   6.313   2.032   3.252
 1254SOL    HW2 4662   6.290   2.189   3.293
 1255SOL     OW 4663   0.266   0.237   5.536
 1255SOL    HW1 4664   0.358   0.236   5.575
 1255SOL    HW2 4665   0.269   0.275   5.444
 1256SOL     OW 4666   6.351   0.168   2.686
 1256SOL    HW1 4667   6.425   0.169   2.619
 1256SOL    HW2 4668   6.389   0.173   2.778
 1257SOL     OW 4669   6.944   0.422   3.575
 1257SOL    HW1 4670   6.872   0.477   3.534
 1257SOL    HW2 4671   6.964   0.456   3.667
 1258SOL     OW 4672   0.780   6.266   3.132
 1258SOL    HW1 4673   0.767   6.348   3.075
 1258SOL    HW2 4674   0.785   6.185   3.073
 1259SOL     OW 4675   3.889   1.529   5.256
 1259SOL    HW1 4676   3.973   1.575   5.286
 1259SOL    HW2 4677   3.862   1.462   5.325
 1260SOL     OW 4678   0.960   1.052   0.084
 1260SOL    HW1 4679   0.871   1.050   0.038
 1260SOL    HW2 4680   0.971   0.970   0.139
 1261SOL     OW 4681   0.475   5.099   0.220
 1261SOL    HW1 4682   0.414   5.160   0.272
 1261SOL    HW2 4683   0.480   5.011   0.266
 1262SOL     OW 4684   5.375   5.739   1.994
 1262SOL    HW1 4685   5.459   5.723   1.941
 1262SOL    HW2 4686   5.399   5.773   2.085
 1263SOL     OW 4687   0.718   1.964   2.547
 1263SOL    HW1 4688   0.775   1.892   2.507
 1263SOL    HW2 4689   0.746   1.980   2.642
 1264SOL     OW 4690   1.040   3.122   5.317
 1264SOL    HW1 4691   1.103   3.186   5.360
 1264SOL    HW2 4692   1.001   3.062   5.387
 1265SOL     OW 4693   5.975   5.918   5.586
 1265SOL    HW1 4694   6.011   6.011   5.586
 1265SOL    HW2 4695   5.933   5.898   5.675
 1266SOL     OW 4696   1.425   0.622   5.065
 1266SOL    HW1 4697   1.514   0.599   5.026
 1266SOL    HW2 4698   1.416   0.722   5.068
 1267SOL     OW 4699   4.864   0.699   2.199
 1267SOL    HW1 4700   4.930   0.743   2.138
 1267SOL    HW2 4701   4.884   0.723   2.293
 1268SOL     OW 4702   4.046   2.368   5.360
 1268SOL    HW1 4703   4.127   2.320   5.396
 1268SOL    HW2 4704   4.076   2.443   5.300
 1269SOL     OW 4705   5.983   2.363   3.686
 1269SOL    HW1 4706   6.044   2.439   3.707
 1269SOL    HW2 4707   5.900   2.398   3.643
 1270SOL     OW 4708   1.645   4.442   2.555
 1270SOL    HW1 4709   1.554   4.452   2.595
 1270SOL    HW2 4710   1.638   4.438   2.455
 1271SOL     OW 4711   1.745   1.499   1.646
 1271SOL    HW1 4712   1.771   1.479   1.740
 1271SOL    HW2 4713   1.688   1.582   1.644
 1272SOL     OW 4714   6.812   4.145   0.269
 1272SOL    HW1 4715   6.827   4.241   0.243
 1272SOL    HW2 4716   6.783   4.094   0.188
 1273SOL     OW 4717   1.357   4.353   5.058
 1273SOL    HW1 4718   1.450   4.382   5.082
 1273SOL    HW2 4719   1.292   4.401   5.117
 1274SOL     OW 4720   0.862   4.808   2.244
 1274SOL    HW1 4721   0.843   4.899   2.281
 1274SOL    HW2 4722   0.874   4.814   2.145
 1275SOL     OW 4723   3.070   0.845   3.152
 1275SOL    HW1 4724   3.098   0.807   3.064
 1275SOL    HW2 4725   2.975   0.875   3.147
 1276SOL     OW 4726   5.314   4.678   4.408
 1276SOL    HW1 4727   5.364   4.742   4.350
 1276SOL    HW2 4728   5.224   4.659   4.367
 1277SOL     OW 4729   0.119   5.774   6.477
 1277SOL    HW1 4730   0.159   5.809   6.562
 1277SOL    HW2 4731   0.069   5.690   6.496
 1278SOL     OW 4732   1.123   5.859   2.542
 1278SOL    HW1 4733   1.054   5.794   2.511
 1278SOL    HW2 4734   1.141   5.845   2.639
 1279SOL     OW 4735   3.210   2.694   6.627
 1279SOL    HW1 4736   3.159   2.777   6.652
 1279SOL    HW2 4737   3.281   2.677   6.695
 1280SOL     OW 4738   3.312   1.638   3.495
 1280SOL    HW1 4739   3.259   1.722   3.505
 1280SOL    HW2 4740   3.279   1.569   3.559
 1281SOL     OW 4741   3.659   6.264   4.140
 1281SOL    HW1 4742   3.611   6.177   4.127
 1281SOL    HW2 4743   3.750   6.257   4.098
 1282SOL     OW 4744   6.914   2.691   0.738
 1282SOL    HW1 4745   6.985   2.652   0.680
 1282SOL    HW2 4746   6.898   2.786   0.712
 1283SOL     OW 4747   5.637   3.502   5.161
 1283SOL    HW1 4748   5.695   3.493   5.242
 1283SOL    HW2 4749   5.673   3.574   5.103
 1284SOL     OW 4750   3.754   1.580   1.142
 1284SOL    HW1 4751   3.830   1.644   1.145
 1284SOL    HW2 4752   3.673   1.622   1.183
 1285SOL     OW 4753   3.319   1.818   4.621
 1285SOL    HW1 4754   3.283   1.897   4.671
 1285SOL    HW2 4755   3.389   1.774   4.676
 1286SOL     OW 4756   5.154   2.006   1.774
 1286SOL    HW1 4757   5.160   2.033   1.870
 1286SOL    HW2 4758   5.112   2.079   1.721
 1287SOL     OW 4759   0.065   4.405   4.861
 1287SOL    HW1 4760   0.118   4.470   4.807
 1287SOL    HW2 4761   0.126   4.336   4.899
 1288SOL     OW 4762   4.564   3.761   6.509
 1288SOL    HW1 4763   4.635   3.721   6.567
 1288SOL    HW2 4764   4.587   3.856   6.487
 1289SOL     OW 4765   6.866   0.712   1.752
 1289SOL    HW1 4766   6.959   0.687   1.724
 1289SOL    HW2 4767   6.814   0.628   1.769
 1290SOL     OW 4768   1.338   0.435   6.884
 1290SOL    HW1 4769   1.332   0.452   6.786
 1290SOL    HW2 4770   1.246   0.430   6.923
 1291SOL     OW 4771   6.500   4.892   2.947
 1291SOL    HW1 4772   6.515   4.862   2.853
 1291SOL    HW2 4773   6.492   4.991   2.950
 1292SOL     OW 4774   0.831   6.073   1.850
 1292SOL    HW1 4775   0.878   5.997   1.896
 1292SOL    HW2 4776   0.739   6.044   1.824
 1293SOL     OW 4777   2.645   1.602   6.726
 1293SOL    HW1 4778   2.716   1.610   6.655
 1293SOL    HW2 4779   2.655   1.677   6.792
 1294SOL     OW 4780   1.804   4.231   5.652
 1294SOL    HW1 4781   1.782   4.140   5.617
 1294SOL    HW2 4782   1.805   4.296   5.576
 1295SOL     OW 4783   6.965   3.374   1.375
 1295SOL    HW1 4784   6.948   3.291   1.428
 1295SOL    HW2 4785   6.964   3.453   1.436
 1296SOL     OW 4786   5.430   6.678   5.924
 1296SOL    HW1 4787   5.463   6.596   5.877
 1296SOL    HW2 4788   5.417   6.751   5.858
 1297SOL     OW 4789   0.443   0.841   2.590
 1297SOL    HW1 4790   0.422   0.850   2.493
 1297SOL    HW2 4791   0.461   0.932   2.629
 1298SOL     OW 4792   5.750   5.485   2.982
 1298SOL    HW1 4793   5.784   5.507   2.890
 1298SOL    HW2 4794   5.651   5.476   2.979
 1299SOL     OW 4795   2.084   3.347   4.390
 1299SOL    HW1 4796   2.169   3.296   4.398
 1299SOL    HW2 4797   2.063   3.390   4.477
 1300SOL     OW 4798   2.044   4.022   1.340
 1300SOL    HW1 4799   1.979   4.087   1.380
 1300SOL    HW2 4800   2.100   4.069   1.272
 1301SOL     OW 4801   1.150   0.633   1.759
 1301SOL    HW1 4802   1.105   0.713   1.800
 1301SOL    HW2 4803   1.081   0.568   1.728
 1302SOL     OW 4804   5.274   6.202   6.027
 1302SOL    HW1 4805   5.245   6.139   6.100
 1302SOL    HW2 4806   5.245   6.295   6.050
 1303SOL     OW 4807   4.597   6.815   1.627
 1303SOL    HW1 4808   4.588   6.719   1.600
 1303SOL    HW2 4809   4.511   6.846   1.668
 1304SOL     OW 4810   0.655   0.922   1.235
 1304SOL    HW1 4811   0.699   1.004   1.198
 1304SOL    HW2 4812   0.625   0.939   1.328
 1305SOL     OW 4813   5.554   4.581   0.064
 1305SOL    HW1 4814   5.628   4.627   0.113
 1305SOL    HW2 4815   5.547   4.618   6.994
 1306SOL     OW 4816   1.458   5.065   4.758
 1306SOL    HW1 4817   1.466   5.138   4.826
 1306SOL    HW2 4818   1.363   5.054   4.732
 1307SOL     OW 4819   1.610   2.869   3.925
 1307SOL    HW1 4820   1.628   2.776   3.893
 1307SOL    HW2 4821   1.514   2.892   3.911
 1308SOL     OW 4822   6.689   5.411   6.107
 1308SOL    HW1 4823   6.743   5.373   6.182
 1308SOL    HW2 4824   6.677   5.509   6.121
 1309SOL     OW 4825   5.362   4.401   6.270
 1309SOL    HW1 4826   5.264   4.379   6.271
 1309SOL    HW2 4827   5.399   4.388   6.362
 1310SOL     OW 4828   1.284   3.767   4.106
 1310SOL    HW1 4829   1.308   3.786   4.011
 1310SOL    HW2 4830   1.361   3.721   4.152
 1311SOL     OW 4831   6.693   5.575   0.413
 1311SOL    HW1 4832   6.691   5.669   0.447
 1311SOL    HW2 4833   6.780   5.533   0.439
 1312SOL     OW 4834   1.621   0.578   5.654
 1312SOL    HW1 4835   1.718   0.603   5.650
 1312SOL    HW2 4836   1.580   0.616   5.736
 1313SOL     OW 4837   6.701   4.821   3.101
 1313SOL    HW1 4838   6.774   4.764   3.064
 1313SOL    HW2 4839   6.638   4.847   3.028
 1314SOL     OW 4840   2.677   1.757   4.926
 1314SOL    HW1 4841   2.596   1.728   4.978
 1314SOL    HW2 4842   2.687   1.856   4.934
 1315SOL     OW 4843   5.989   0.013   4.132
 1315SOL    HW1 4844   5.973   6.944   4.170
 1315SOL    HW2 4845   5.920   0.076   4.167
 1316SOL     OW 4846   4.001   0.708   4.837
 1316SOL    HW1 4847   4.022   0.706   4.935
 1316SOL    HW2 4848   4.051   0.783   4.793
 1317SOL     OW 4849   2.907   3.413   5.649
 1317SOL    HW1 4850   2.989   3.452   5.607
 1317SOL    HW2 4851   2.836   3.400   5.579
 1318SOL     OW 4852   1.988   2.637   0.135
 1318SOL    HW1 4853   1.972   2.693   0.054
 1318SOL    HW2 4854   1.901   2.620   0.182
 1319SOL     OW 4855   6.805   6.306   0.289
 1319SOL    HW1 4856   6.904   6.301   0.277
 1319SOL    HW2 4857   6.768   6.378   0.230
 1320SOL     OW 4858   3.559   2.859   6.365
 1320SOL    HW1 4859   3.481   2.907   6.325
 1320SOL    HW2 4860   3.644   2.903   6.335
 1321SOL     OW 4861   5.997   2.083   6.640
 1321SOL    HW1 4862   6.012   1.989   6.672
 1321SOL    HW2 4863   5.906   2.090   6.598
 1322SOL     OW 4864   2.861   1.303   6.641
 1322SOL    HW1 4865   2.907   1.371   6.699
 1322SOL    HW2 4866   2.848   1.219   6.694
 1323SOL     OW 4867   3.357   0.272   0.377
 1323SOL    HW1 4868   3.433   0.222   0.417
 1323SOL    HW2 4869   3.391   0.335   0.307
 1324SOL     OW 4870   1.379   3.771   6.800
 1324SOL    HW1 4871   1.417   3.861   6.823
 1324SOL    HW2 4872   1.394   3.753   6.702
 1325SOL     OW 4873   2.108   5.938   6.111
 1325SOL    HW1 4874   2.057   5.963   6.029
 1325SOL    HW2 4875   2.137   6.021   6.158
 1326SOL     OW 4876   4.867   4.120   4.470
 1326SOL    HW1 4877   4.841   4.088   4.561
 1326SOL    HW2 4878   4.935   4.058   4.430
 1327SOL     OW 4879   0.217   6.441   0.867
 1327SOL    HW1 4880   0.148   6.513   0.861
 1327SOL    HW2 4881   0.308   6.481   0.878
 1328SOL     OW 4882   1.055   3.373   5.692
 1328SOL    HW1 4883   1.054   3.395   5.789
 1328SOL    HW2 4884   1.068   3.457   5.639
 1329SOL     OW 4885   0.241   2.494   3.330
 1329SOL    HW1 4886   0.221   2.412   3.277
 1329SOL    HW2 4887   0.186   2.494   3.414
 1330SOL     OW 4888   6.664   2.316   0.923
 1330SOL    HW1 4889   6.625   2.316   1.015
 1330SOL    HW2 4890   6.690   2.223   0.897
 1331SOL     OW 4891   4.011   2.203   2.357
 1331SOL    HW1 4892   4.046   2.240   2.443
 1331SOL    HW2 4893   4.087   2.169   2.302
 1332SOL     OW 4894   2.019   0.533   0.830
 1332SOL    HW1 4895   1.927   0.564   0.806
 1332SOL    HW2 4896   2.046   0.571   0.918
 1333SOL     OW 4897   3.782   4.039   2.992
 1333SOL    HW1 4898   3.727   4.058   3.073
 1333SOL    HW2 4899   3.797   4.123   2.941
 1334SOL     OW 4900   6.817   1.452   2.679
 1334SOL    HW1 4901   6.821   1.529   2.743
 1334SOL    HW2 4902   6.830   1.485   2.586
 1335SOL     OW 4903   2.228   4.184   1.650
 1335SOL    HW1 4904   2.271   4.131   1.577
 1335SOL    HW2 4905   2.298   4.226   1.708
 1336SOL     OW 4906   3.867   0.740   5.209
 1336SOL    HW1 4907   3.790   0.682   5.235
 1336SOL    HW2 4908   3.832   0.827   5.175
 1337SOL     OW 4909   6.149   1.627   3.649
 1337SOL    HW1 4910   6.116   1.637   3.555
 1337SOL    HW2 4911   6.146   1.715   3.695
 1338SOL     OW 4912   6.267   4.026   4.265
 1338SOL    HW1 4913   6.168   4.036   4.259
 1338SOL    HW2 4914   6.305   4.100   4.320
 1339SOL     OW 4915   0.164   0.308   6.893
 1339SOL    HW1 4916   0.162   0.359   6.807
 1339SOL    HW2 4917   0.191   0.213   6.875
 1340SOL     OW 4918   5.132   1.133   1.902
 1340SOL    HW1 4919   5.224   1.103   1.876
 1340SOL    HW2 4920   5.067   1.106   1.832
 1341SOL     OW 4921   4.330   6.901   6.805
 1341SOL    HW1 4922   4.303   6.989   6.845
 1341SOL    HW2 4923   4.429   6.900   6.791
 1342SOL     OW 4924   3.378   5.817   0.985
 1342SOL    HW1 4925   3.416   5.856   1.070
 1342SOL    HW2 4926   3.387   5.884   0.911
 1343SOL     OW 4927   5.187   4.992   3.184
 1343SOL    HW1 4928   5.257   5.003   3.254
 1343SOL    HW2 4929   5.227   5.006   3.093
 1344SOL     OW 4930   6.977   0.065   4.541
 1344SOL    HW1 4931   6.882   0.070   4.511
 1344SOL    HW2 4932   0.012   0.117   4.478
 1345SOL     OW 4933   0.376   5.589   1.797
 1345SOL    HW1 4934   0.364   5.523   1.724
 1345SOL    HW2 4935   0.442   5.555   1.863
 1346SOL     OW 4936   2.294   4.834   5.545
 1346SOL    HW1 4937   2.342   4.904   5.492
 1346SOL    HW2 4938   2.360   4.766   5.578
 1347SOL     OW 4939   1.665   0.233   6.730
 1347SOL    HW1 4940   1.676   0.158   6.795
 1347SOL    HW2 4941   1.581   0.220   6.677
 1348SOL     OW 4942   0.159   6.044   5.153
 1348SOL    HW1 4943   0.223   6.037   5.229
 1348SOL    HW2 4944   0.074   6.086   5.184
 1349SOL     OW 4945   5.423   3.860   4.081
 1349SOL    HW1 4946   5.368   3.792   4.033
 1349SOL    HW2 4947   5.519   3.832   4.079
 1350SOL     OW 4948   3.224   3.682   0.231
 1350SOL    HW1 4949   3.320   3.687   0.205
 1350SOL    HW2 4950   3.172   3.746   0.174
 1351SOL     OW 4951   6.434   2.444   4.239
 1351SOL    HW1 4952   6.502   2.418   4.170
 1351SOL    HW2 4953   6.401   2.536   4.220
 1352SOL     OW 4954   6.991   0.183   2.438
 1352SOL    HW1 4955   0.014   0.103   2.399
 1352SOL    HW2 4956   0.026   0.263   2.425
 1353SOL     OW 4957   0.485   1.671   1.296
 1353SOL    HW1 4958   0.472   1.665   1.395
 1353SOL    HW2 4959   0.571   1.719   1.277
 1354SOL     OW 4960   6.008   4.028   2.212
 1354SOL    HW1 4961   5.983   4.088   2.288
 1354SOL    HW2 4962   6.104   4.002   2.219
 1355SOL     OW 4963   6.031   3.486   4.314
 1355SOL    HW1 4964   6.098   3.519   4.247
 1355SOL    HW2 4965   6.011   3.559   4.380
 1356SOL     OW 4966   3.707   2.886   2.197
 1356SOL    HW1 4967   3.783   2.869   2.135
 1356SOL    HW2 4968   3.628   2.833   2.168
 1357SOL     OW 4969   6.716   3.366   5.533
 1357SOL    HW1 4970   6.701   3.384   5.436
 1357SOL    HW2 4971   6.649   3.299   5.566
 1358SOL     OW 4972   1.379   6.699   0.442
 1358SOL    HW1 4973   1.347   6.653   0.359
 1358SOL    HW2 4974   1.301   6.733   0.494
 1359SOL     OW 4975   6.621   4.207   1.396
 1359SOL    HW1 4976   6.524   4.198   1.373
 1359SOL    HW2 4977   6.663   4.117   1.396
 1360SOL     OW 4978   3.161   3.107   6.451
 1360SOL    HW1 4979   3.169   3.042   6.375
 1360SOL    HW2 4980   3.138   3.197   6.415
 1361SOL     OW 4981   6.956   3.979   4.640
 1361SOL    HW1 4982   0.014   3.940   4.685
 1361SOL    HW2 4983   6.939   4.071   4.676
 1362SOL     OW 4984   3.685   2.874   2.468
 1362SOL    HW1 4985   3.724   2.873   2.376
 1362SOL    HW2 4986   3.588   2.852   2.463
 1363SOL     OW 4987   0.152   5.540   5.579
 1363SOL    HW1 4988   0.164   5.577   5.671
 1363SOL    HW2 4989   0.135   5.442   5.584
 1364SOL     OW 4990   4.569   4.372   0.447
 1364SOL    HW1 4991   4.659   4.330   0.443
 1364SOL    HW2 4992   4.564   4.447   0.381
 1365SOL     OW 4993   0.778   3.486   6.292
 1365SOL    HW1 4994   0.705   3.422   6.268
 1365SOL    HW2 4995   0.834   3.446   6.365
 1366SOL     OW 4996   2.237   0.427   4.866
 1366SOL    HW1 4997   2.139   0.428   4.847
 1366SOL    HW2 4998   2.256   0.362   4.940
 1367SOL     OW 4999   2.247   0.775   2.388
 1367SOL    HW1 5000   2.150   0.779   2.409
 1367SOL    HW2 5001   2.297   0.744   2.469
 1368SOL     OW 5002   6.113   6.943   4.620
 1368SOL    HW1 5003   6.105   7.003   4.540
 1368SOL    HW2 5004   6.060   6.981   4.696
 1369SOL     OW 5005   0.758   0.642   3.087
 1369SOL    HW1 5006   0.743   0.635   2.989
 1369SOL    HW2 5007   0.708   0.721   3.123
 1370SOL     OW 5008   3.225   0.794   2.018
 1370SOL    HW1 5009   3.170   0.872   1.992
 1370SOL    HW2 5010   3.320   0.809   1.990
 1371SOL     OW 5011   3.548   0.286   6.136
 1371SOL    HW1 5012   3.517   0.318   6.226
 1371SOL    HW2 5013   3.490   0.210   6.106
 1372SOL     OW 5014   2.702   1.840   2.255
 1372SOL    HW1 5015   2.653   1.754   2.239
 1372SOL    HW2 5016   2.641   1.905   2.301
 1373SOL     OW 5017   0.673   5.785   1.294
 1373SOL    HW1 5018   0.610   5.718   1.335
 1373SOL    HW2 5019   0.720   5.742   1.217
 1374SOL     OW 5020   4.262   2.191   0.367
 1374SOL    HW1 5021   4.301   2.274   0.406
 1374SOL    HW2 5022   4.308   2.170   0.281
 1375SOL     OW 5023   7.006   4.099   5.974
 1375SOL    HW1 5024   6.918   4.138   6.002
 1375SOL    HW2 5025   6.990   4.024   5.910
 1376SOL     OW 5026   4.883   3.270   3.160
 1376SOL    HW1 5027   4.872   3.294   3.257
 1376SOL    HW2 5028   4.848   3.177   3.145
 1377SOL     OW 5029   6.847   5.542   5.190
 1377SOL    HW1 5030   6.779   5.565   5.260
 1377SOL    HW2 5031   6.916   5.481   5.229
 1378SOL     OW 5032   1.574   2.525   0.178
 1378SOL    HW1 5033   1.494   2.511   0.237
 1378SOL    HW2 5034   1.649   2.468   0.211
 1379SOL     OW 5035   3.988   6.662   2.716
 1379SOL    HW1 5036   3.971   6.752   2.755
 1379SOL    HW2 5037   3.905   6.629   2.671
 1380SOL     OW 5038   6.473   6.900   2.801
 1380SOL    HW1 5039   6.392   6.854   2.764
 1380SOL    HW2 5040   6.540   6.912   2.728
 1381SOL     OW 5041   6.843   1.839   0.797
 1381SOL    HW1 5042   6.891   1.872   0.715
 1381SOL    HW2 5043   6.801   1.751   0.777
 1382SOL     OW 5044   5.620   4.628   6.606
 1382SOL    HW1 5045   5.694   4.610   6.542
 1382SOL    HW2 5046   5.556   4.693   6.565
 1383SOL     OW 5047   2.650   0.165   0.683
 1383SOL    HW1 5048   2.576   0.229   0.663
 1383SOL    HW2 5049   2.695   0.139   0.598
 1384SOL     OW 5050   3.008   2.094   2.553
 1384SOL    HW1 5051   3.095   2.063   2.515
 1384SOL    HW2 5052   2.948   2.125   2.480
 1385SOL     OW 5053   6.896   3.281   3.215
 1385SOL    HW1 5054   6.916   3.292   3.117
 1385SOL    HW2 5055   6.894   3.184   3.238
 1386SOL     OW 5056   1.965   2.238   4.249
 1386SOL    HW1 5057   2.003   2.146   4.247
 1386SOL    HW2 5058   1.940   2.262   4.342
 1387SOL     OW 5059   2.405   0.069   4.974
 1387SOL    HW1 5060   2.453   0.116   4.899
 1387SOL    HW2 5061   2.324   0.122   5.000
 1388SOL     OW 5062   6.331   0.948   4.084
 1388SOL    HW1 5063   6.315   0.891   4.165
 1388SOL    HW2 5064   6.384   0.897   4.017
 1389SOL     OW 5065   5.799   0.101   4.335
 1389SOL    HW1 5066   5.792   0.054   4.424
 1389SOL    HW2 5067   5.733   0.061   4.271
 1390SOL     OW 5068   5.036   2.228   2.305
 1390SOL    HW1 5069   5.107   2.284   2.261
 1390SOL    HW2 5070   5.071   2.190   2.390
 1391SOL     OW 5071   4.954   0.862   4.349
 1391SOL    HW1 5072   5.032   0.870   4.412
 1391SOL    HW2 5073   4.937   0.765   4.329
 1392SOL     OW 5074   4.972   5.902   6.727
 1392SOL    HW1 5075   5.010   5.822   6.679
 1392SOL    HW2 5076   4.873   5.889   6.740
 1393SOL     OW 5077   6.519   0.871   6.414
 1393SOL    HW1 5078   6.461   0.803   6.368
 1393SOL    HW2 5079   6.598   0.891   6.356
 1394SOL     OW 5080   4.554   0.188   4.049
 1394SOL    HW1 5081   4.635   0.163   4.103
 1394SOL    HW2 5082   4.473   0.143   4.087
 1395SOL     OW 5083   1.484   4.672   2.393
 1395SOL    HW1 5084   1.406   4.679   2.455
 1395SOL    HW2 5085   1.505   4.762   2.356
 1396SOL     OW 5086   2.209   1.516   4.067
 1396SOL    HW1 5087   2.306   1.494   4.082
 1396SOL    HW2 5088   2.200   1.611   4.038
 1397SOL     OW 5089   0.207   5.299   4.065
 1397SOL    HW1 5090   0.146   5.298   3.985
 1397SOL    HW2 5091   0.294   5.256   4.041
 1398SOL     OW 5092   0.352   0.868   0.841
 1398SOL    HW1 5093   0.370   0.775   0.808
 1398SOL    HW2 5094   0.410   0.933   0.792
 1399SOL     OW 5095   4.407   0.352   0.418
 1399SOL    HW1 5096   4.395   0.387   0.511
 1399SOL    HW2 5097   4.326   0.373   0.363
 1400SOL     OW 5098   6.065   6.975   5.011
 1400SOL    HW1 5099   6.054   0.043   5.051
 1400SOL    HW2 5100   6.149   6.934   5.044
 1401SOL     OW 5101   5.238   0.524   3.367
 1401SOL    HW1 5102   5.150   0.559   3.398
 1401SOL    HW2 5103   5.240   0.425   3.377
 1402SOL     OW 5104   0.042   4.737   2.095
 1402SOL    HW1 5105   0.023   4.640   2.108
 1402SOL    HW2 5106   0.141   4.750   2.082
 1403SOL     OW 5107   3.043   2.987   6.706
 1403SOL    HW1 5108   3.090   3.044   6.638
 1403SOL    HW2 5109   2.974   2.931   6.660
 1404SOL     OW 5110   4.483   6.717   0.352
 1404SOL    HW1 5111   4.472   6.776   0.272
 1404SOL    HW2 5112   4.492   6.622   0.321
 1405SOL     OW 5113   1.325   3.609   1.030
 1405SOL    HW1 5114   1.324   3.697   0.983
 1405SOL    HW2 5115   1.251   3.552   0.996
 1406SOL     OW 5116   2.266   2.960   1.229
 1406SOL    HW1 5117   2.311   2.885   1.277
 1406SOL    HW2 5118   2.304   3.047   1.261
 1407SOL     OW 5119   0.324   3.063   0.852
 1407SOL    HW1 5120   0.344   2.979   0.902
 1407SOL    HW2 5121   0.226   3.083   0.858
 1408SOL     OW 5122   6.169   6.310   0.394
 1408SOL    HW1 5123   6.243   6.251   0.363
 1408SOL    HW2 5124   6.180   6.401   0.354
 1409SOL     OW 5125   6.229   1.767   6.082
 1409SOL    HW1 5126   6.180   1.737   6.000
 1409SOL    HW2 5127   6.163   1.779   6.156
 1410SOL     OW 5128   3.897   1.889   5.856
 1410SOL    HW1 5129   3.882   1.939   5.941
 1410SOL    HW2 5130   3.943   1.802   5.877
 1411SOL     OW 5131   3.882   5.072   0.208
 1411SOL    HW1 5132   3.849   5.164   0.227
 1411SOL    HW2 5133   3.809   5.006   0.222
 1412SOL     OW 5134   1.908   3.194   0.524
 1412SOL    HW1 5135   1.895   3.147   0.437
 1412SOL    HW2 5136   1.819   3.210   0.567
 1413SOL     OW 5137   1.838   1.757   5.427
 1413SOL    HW1 5138   1.871   1.704   5.349
 1413SOL    HW2 5139   1.739   1.744   5.437
 1414SOL     OW 5140   1.398   4.137   2.499
 1414SOL    HW1 5141   1.301   4.136   2.475
 1414SOL    HW2 5142   1.414   4.205   2.571
 1415SOL     OW 5143   2.076   1.829   4.789
 1415SOL    HW1 5144   2.039   1.918   4.815
 1415SOL    HW2 5145   2.143   1.799   4.858
 1416SOL     OW 5146   3.959   0.260   4.867
 1416SOL    HW1 5147   4.010   0.206   4.933
 1416SOL    HW2 5148   3.898   0.201   4.815
 1417SOL     OW 5149   3.355   3.075   6.110
 1417SOL    HW1 5150   3.451   3.073   6.081
 1417SOL    HW2 5151   3.302   3.130   6.045
 1418SOL     OW 5152   3.346   4.531   6.483
 1418SOL    HW1 5153   3.425   4.576   6.525
 1418SOL    HW2 5154   3.378   4.459   6.422
 1419SOL     OW 5155   2.408   4.577   2.467
 1419SOL    HW1 5156   2.398   4.672   2.437
 1419SOL    HW2 5157   2.405   4.573   2.567
 1420SOL     OW 5158   2.873   6.473   3.061
 1420SOL    HW1 5159   2.780   6.443   3.043
 1420SOL    HW2 5160   2.936   6.426   2.999
 1421SOL     OW 5161   1.247   4.948   5.953
 1421SOL    HW1 5162   1.192   4.986   5.878
 1421SOL    HW2 5163   1.250   4.848   5.944
 1422SOL     OW 5164   1.988   3.991   6.198
 1422SOL    HW1 5165   2.071   3.947   6.164
 1422SOL    HW2 5166   1.921   3.998   6.125
 1423SOL     OW 5167   4.203   0.496   5.337
 1423SOL    HW1 5168   4.148   0.523   5.258
 1423SOL    HW2 5169   4.209   0.396   5.341
 1424SOL     OW 5170   6.570   2.980   6.824
 1424SOL    HW1 5171   6.621   2.902   6.861
 1424SOL    HW2 5172   6.504   3.011   6.892
 1425SOL     OW 5173   4.921   6.462   3.410
 1425SOL    HW1 5174   4.828   6.431   3.387
 1425SOL    HW2 5175   4.915   6.549   3.459
 1426SOL     OW 5176   3.603   2.223   0.183
 1426SOL    HW1 5177   3.526   2.285   0.166
 1426SOL    HW2 5178   3.578   2.154   0.250
 1427SOL     OW 5179   1.404   1.175   4.236
 1427SOL    HW1 5180   1.500   1.199   4.223
 1427SOL    HW2 5181   1.347   1.255   4.216
 1428SOL     OW 5182   0.799   3.621   4.312
 1428SOL    HW1 5183   0.723   3.597   4.251
 1428SOL    HW2 5184   0.762   3.655   4.398
 1429SOL     OW 5185   5.958   1.217   0.834
 1429SOL    HW1 5186   5.929   1.137   0.782
 1429SOL    HW2 5187   6.041   1.254   0.793
 1430SOL     OW 5188   2.050   3.703   3.891
 1430SOL    HW1 5189   2.080   3.636   3.959
 1430SOL    HW2 5190   2.084   3.676   3.801
 1431SOL     OW 5191   2.367   1.229   5.999
 1431SOL    HW1 5192   2.391   1.229   6.096
 1431SOL    HW2 5193   2.270   1.207   5.988
 1432SOL     OW 5194   2.815   0.911   2.530
 1432SOL    HW1 5195   2.761   0.898   2.613
 1432SOL    HW2 5196   2.840   1.007   2.521
 1433SOL     OW 5197   2.671   6.853   3.816
 1433SOL    HW1 5198   2.589   6.887   3.861
 1433SOL    HW2 5199   2.648   6.817   3.726
 1434SOL     OW 5200   0.385   3.336   0.822
 1434SOL    HW1 5201   0.384   3.237   0.830
 1434SOL    HW2 5202   0.424   3.362   0.734
 1435SOL     OW 5203   1.139   6.816   3.861
 1435SOL    HW1 5204   1.071   6.889   3.855
 1435SOL    HW2 5205   1.180   6.816   3.952
 1436SOL     OW 5206   5.388   1.975   6.903
 1436SOL    HW1 5207   5.363   2.066   6.936
 1436SOL    HW2 5208   5.480   1.978   6.863
 1437SOL     OW 5209   3.630   0.309   5.877
 1437SOL    HW1 5210   3.618   0.289   5.974
 1437SOL    HW2 5211   3.643   0.408   5.865
 1438SOL     OW 5212   2.817   0.332   2.273
 1438SOL    HW1 5213   2.831   0.360   2.368
 1438SOL    HW2 5214   2.814   0.232   2.268
 1439SOL     OW 5215   0.284   5.063   7.000
 1439SOL    HW1 5216   0.275   4.973   0.019
 1439SOL    HW2 5217   0.196   5.111   7.005
 1440SOL     OW 5218   3.680   3.233   3.133
 1440SOL    HW1 5219   3.697   3.332   3.131
 1440SOL    HW2 5220   3.749   3.187   3.077
 1441SOL     OW 5221   6.120   2.629   3.642
 1441SOL    HW1 5222   6.118   2.660   3.547
 1441SOL    HW2 5223   6.071   2.695   3.700
 1442SOL     OW 5224   5.490   5.208   0.546
 1442SOL    HW1 5225   5.509   5.259   0.630
 1442SOL    HW2 5226   5.552   5.129   0.540
 1443SOL     OW 5227   0.496   2.732   2.834
 1443SOL    HW1 5228   0.497   2.737   2.934
 1443SOL    HW2 5229   0.438   2.805   2.797
 1444SOL     OW 5230   4.767   1.273   3.824
 1444SOL    HW1 5231   4.812   1.223   3.750
 1444SOL    HW2 5232   4.672   1.291   3.798
 1445SOL     OW 5233   6.353   1.961   0.742
 1445SOL    HW1 5234   6.380   1.965   0.838
 1445SOL    HW2 5235   6.340   2.053   0.707
 1446SOL     OW 5236   4.597   0.853   1.453
 1446SOL    HW1 5237   4.569   0.768   1.497
 1446SOL    HW2 5238   4.521   0.918   1.455
 1447SOL     OW 5239   6.152   0.837   5.695
 1447SOL    HW1 5240   6.059   0.826   5.730
 1447SOL    HW2 5241   6.182   0.751   5.654
 1448SOL     OW 5242   5.510   0.535   6.596
 1448SOL    HW1 5243   5.427   0.585   6.619
 1448SOL    HW2 5244   5.549   0.496   6.680
 1449SOL     OW 5245   4.425   5.847   1.247
 1449SOL    HW1 5246   4.424   5.820   1.344
 1449SOL    HW2 5247   4.483   5.927   1.235
 1450SOL     OW 5248   5.580   2.942   3.416
 1450SOL    HW1 5249   5.650   2.892   3.467
 1450SOL    HW2 5250   5.564   3.030   3.460
 1451SOL     OW 5251   1.312   6.414   3.087
 1451SOL    HW1 5252   1.347   6.499   3.127
 1451SOL    HW2 5253   1.282   6.352   3.159
 1452SOL     OW 5254   4.449   1.196   5.074
 1452SOL    HW1 5255   4.360   1.192   5.118
 1452SOL    HW2 5256   4.477   1.292   5.065
 1453SOL     OW 5257   5.531   4.764   5.294
 1453SOL    HW1 5258   5.468   4.837   5.320
 1453SOL    HW2 5259   5.601   4.800   5.232
 1454SOL     OW 5260   4.033   3.878   0.947
 1454SOL    HW1 5261   4.011   3.819   0.869
 1454SOL    HW2 5262   4.101   3.832   1.004
 1455SOL     OW 5263   1.924   2.671   1.516
 1455SOL    HW1 5264   1.844   2.657   1.458
 1455SOL    HW2 5265   1.900   2.654   1.611
 1456SOL     OW 5266   6.338   6.214   3.658
 1456SOL    HW1 5267   6.327   6.143   3.588
 1456SOL    HW2 5268   6.391   6.178   3.734
 1457SOL     OW 5269   1.363   0.654   3.142
 1457SOL    HW1 5270   1.338   0.579   3.204
 1457SOL    HW2 5271   1.460   0.676   3.154
 1458SOL     OW 5272   5.867   5.255   6.824
 1458SOL    HW1 5273   5.781   5.247   6.874
 1458SOL    HW2 5274   5.942   5.219   6.880
 1459SOL     OW 5275   2.053   0.008   0.369
 1459SOL    HW1 5276   2.004   7.016   0.455
 1459SOL    HW2 5277   2.003   6.988   0.294
 1460SOL     OW 5278   1.210   0.031   6.852
 1460SOL    HW1 5279   1.282   6.992   6.821
 1460SOL    HW2 5280   1.207   0.031   6.952
 1461SOL     OW 5281   5.647   5.053   1.696
 1461SOL    HW1 5282   5.644   5.121   1.769
 1461SOL    HW2 5283   5.561   5.002   1.695
 1462SOL     OW 5284   5.763   0.795   6.019
 1462SOL    HW1 5285   5.664   0.793   6.002
 1462SOL    HW2 5286   5.785   0.872   6.077
 1463SOL     OW 5287   0.734   1.499   4.697
 1463SOL    HW1 5288   0.701   1.416   4.742
 1463SOL    HW2 5289   0.808   1.539   4.752
 1464SOL     OW 5290   0.722   6.236   0.988
 1464SOL    HW1 5291   0.751   6.182   1.068
 1464SOL    HW2 5292   0.771   6.322   0.987
 1465SOL     OW 5293   0.047   6.752   4.912
 1465SOL    HW1 5294   0.127   6.696   4.893
 1465SOL    HW2 5295   6.987   6.700   4.889
 1466SOL     OW 5296   5.566   5.257   4.020
 1466SOL    HW1 5297   5.529   5.189   3.957
 1466SOL    HW2 5298   5.651   5.222   4.061
 1467SOL     OW 5299   0.185   2.675   3.153
 1467SOL    HW1 5300   0.201   2.748   3.219
 1467SOL    HW2 5301   0.201   2.586   3.197
 1468SOL     OW 5302   5.773   5.704   3.562
 1468SOL    HW1 5303   5.738   5.797   3.573
 1468SOL    HW2 5304   5.726   5.659   3.486
 1469SOL     OW 5305   0.548   1.328   3.003
 1469SOL    HW1 5306   0.451   1.314   3.021
 1469SOL    HW2 5307   0.571   1.287   2.914
 1470SOL     OW 5308   0.088   1.322   3.347
 1470SOL    HW1 5309   0.169   1.358   3.300
 1470SOL    HW2 5310   0.086   1.223   3.338
 1471SOL     OW 5311   0.257   0.024   6.893
 1471SOL    HW1 5312   0.256   6.954   6.931
 1471SOL    HW2 5313   0.297   0.022   6.802
 1472SOL     OW 5314   4.070   0.745   5.607
 1472SOL    HW1 5315   3.987   0.690   5.618
 1472SOL    HW2 5316   4.148   0.686   5.588
 1473SOL     OW 5317   6.306   4.272   4.032
 1473SOL    HW1 5318   6.235   4.342   4.034
 1473SOL    HW2 5319   6.382   4.300   4.092
 1474SOL     OW 5320   4.781   5.764   3.673
 1474SOL    HW1 5321   4.711   5.774   3.602
 1474SOL    HW2 5322   4.854   5.704   3.640
 1475SOL     OW 5323   0.468   1.090   2.732
 1475SOL    HW1 5324   0.542   1.158   2.730
 1475SOL    HW2 5325   0.390   1.128   2.782
 1476SOL     OW 5326   6.611   2.096   2.044
 1476SOL    HW1 5327   6.628   2.002   2.074
 1476SOL    HW2 5328   6.513   2.109   2.030
 1477SOL     OW 5329   2.495   5.835   3.682
 1477SOL    HW1 5330   2.455   5.926   3.691
 1477SOL    HW2 5331   2.490   5.787   3.770
 1478SOL     OW 5332   6.659   4.348   1.172
 1478SOL    HW1 5333   6.654   4.321   1.268
 1478SOL    HW2 5334   6.589   4.299   1.120
 1479SOL     OW 5335   1.656   5.290   0.744
 1479SOL    HW1 5336   1.739   5.235   0.748
 1479SOL    HW2 5337   1.674   5.381   0.782
 1480SOL     OW 5338   2.874   1.074   0.195
 1480SOL    HW1 5339   2.800   1.139   0.210
 1480SOL    HW2 5340   2.931   1.069   0.277
 1481SOL     OW 5341   5.997   2.464   6.067
 1481SOL    HW1 5342   6.048   2.549   6.055
 1481SOL    HW2 5343   6.061   2.388   6.077
 1482SOL     OW 5344   5.934   0.530   6.296
 1482SOL    HW1 5345   5.959   0.545   6.201
 1482SOL    HW2 5346   5.888   0.612   6.331
 1483SOL     OW 5347   6.240   1.861   6.777
 1483SOL    HW1 5348   6.320   1.805   6.759
 1483SOL    HW2 5349   6.265   1.938   6.836
 1484SOL     OW 5350   6.291   5.794   2.830
 1484SOL    HW1 5351   6.211   5.819   2.776
 1484SOL    HW2 5352   6.272   5.811   2.927
 1485SOL     OW 5353   5.132   3.191   3.837
 1485SOL    HW1 5354   5.171   3.164   3.748
 1485SOL    HW2 5355   5.033   3.201   3.829
 1486SOL     OW 5356   4.990   1.824   2.041
 1486SOL    HW1 5357   4.967   1.806   1.945
 1486SOL    HW2 5358   4.930   1.771   2.100
 1487SOL     OW 5359   6.132   1.452   5.404
 1487SOL    HW1 5360   6.228   1.445   5.376
 1487SOL    HW2 5361   6.091   1.361   5.405
 1488SOL     OW 5362   4.311   1.773   3.150
 1488SOL    HW1 5363   4.337   1.795   3.056
 1488SOL    HW2 5364   4.228   1.717   3.149
 1489SOL     OW 5365   3.993   5.995   4.942
 1489SOL    HW1 5366   3.896   5.992   4.916
 1489SOL    HW2 5367   4.049   5.970   4.863
 1490SOL     OW 5368   1.873   2.795   0.456
 1490SOL    HW1 5369   1.939   2.865   0.431
 1490SOL    HW2 5370   1.917   2.705   0.454
 1491SOL     OW 5371   0.421   3.009   5.150
 1491SOL    HW1 5372   0.338   2.954   5.141
 1491SOL    HW2 5373   0.406   3.081   5.218
 1492SOL     OW 5374   5.250   2.340   2.183
 1492SOL    HW1 5375   5.256   2.390   2.097
 1492SOL    HW2 5376   5.321   2.372   2.246
 1493SOL     OW 5377   4.784   0.995   5.381
 1493SOL    HW1 5378   4.724   1.010   5.459
 1493SOL    HW2 5379   4.734   1.015   5.296
 1494SOL     OW 5380   4.719   2.887   6.057
 1494SOL    HW1 5381   4.765   2.974   6.040
 1494SOL    HW2 5382   4.672   2.891   6.145
 1495SOL     OW 5383   1.920   3.147   2.601
 1495SOL    HW1 5384   1.829   3.107   2.594
 1495SOL    HW2 5385   1.975   3.093   2.664
 1496SOL     OW 5386   0.761   0.858   2.229
 1496SOL    HW1 5387   0.824   0.784   2.203
 1496SOL    HW2 5388   0.673   0.842   2.185
 1497SOL     OW 5389   5.776   5.349   5.316
 1497SOL    HW1 5390   5.812   5.441   5.298
 1497SOL    HW2 5391   5.852   5.283   5.318
 1498SOL     OW 5392   2.529   6.332   0.597
 1498SOL    HW1 5393   2.532   6.393   0.518
 1498SOL    HW2 5394   2.468   6.370   0.666
 1499SOL     OW 5395   0.370   4.338   5.609
 1499SOL    HW1 5396   0.317   4.413   5.569
 1499SOL    HW2 5397   0.333   4.316   5.699
 1500SOL     OW 5398   4.704   0.246   6.189
 1500SOL    HW1 5399   4.676   0.342   6.187
 1500SOL    HW2 5400   4.626   0.189   6.213
 1501SOL     OW 5401   4.033   0.013   6.246
 1501SOL    HW1 5402   4.083   6.949   6.259
 1501SOL    HW2 5403   4.018   0.028   6.148
 1502SOL     OW 5404   6.577   5.974   0.235
 1502SOL    HW1 5405   6.583   6.065   0.194
 1502SOL    HW2 5406   6.666   5.950   0.275
 1503SOL     OW 5407   3.309   3.240   5.712
 1503SOL    HW1 5408   3.378   3.192   5.658
 1503SOL    HW2 5409   3.281   3.182   5.789
 1504SOL     OW 5410   2.593   5.952   4.768
 1504SOL    HW1 5411   2.612   5.867   4.818
 1504SOL    HW2 5412   2.626   5.943   4.674
 1505SOL     OW 5413   4.853   5.512   0.392
 1505SOL    HW1 5414   4.848   5.455   0.474
 1505SOL    HW2 5415   4.944   5.504   0.351
 1506SOL     OW 5416   0.565   6.061   3.935
 1506SOL    HW1 5417   0.521   5.979   3.971
 1506SOL    HW2 5418   0.662   6.041   3.917
 1507SOL     OW 5419   1.942   1.841   6.586
 1507SOL    HW1 5420   2.006   1.918   6.584
 1507SOL    HW2 5421   1.968   1.774   6.516
 1508SOL     OW 5422   5.205   0.100   0.361
 1508SOL    HW1 5423   5.228   0.051   0.278
 1508SOL    HW2 5424   5.216   0.199   0.346
 1509SOL     OW 5425   4.910   2.154   0.405
 1509SOL    HW1 5426   4.916   2.055   0.389
 1509SOL    HW2 5427   5.000   2.189   0.430
 1510SOL     OW 5428   6.746   1.546   3.551
 1510SOL    HW1 5429   6.842   1.521   3.558
 1510SOL    HW2 5430   6.711   1.570   3.642
 1511SOL     OW 5431   1.916   2.458   0.565
 1511SOL    HW1 5432   2.014   2.460   0.547
 1511SOL    HW2 5433   1.896   2.511   0.648
 1512SOL     OW 5434   6.555   0.628   2.222
 1512SOL    HW1 5435   6.611   0.550   2.250
 1512SOL    HW2 5436   6.470   0.595   2.182
 1513SOL     OW 5437   3.514   1.042   2.488
 1513SOL    HW1 5438   3.552   1.025   2.397
 1513SOL    HW2 5439   3.547   1.130   2.522
 1514SOL     OW 5440   4.982   1.694   4.817
 1514SOL    HW1 5441   5.032   1.636   4.881
 1514SOL    HW2 5442   5.016   1.678   4.724
 1515SOL     OW 5443   0.109   4.330   4.394
 1515SOL    HW1 5444   0.019   4.361   4.427
 1515SOL    HW2 5445   0.172   4.407   4.395
 1516SOL     OW 5446   0.691   1.782   0.929
 1516SOL    HW1 5447   0.707   1.754   1.024
 1516SOL    HW2 5448   0.667   1.702   0.874
 1517SOL     OW 5449   4.028   5.798   3.006
 1517SOL    HW1 5450   4.106   5.740   3.034
 1517SOL    HW2 5451   3.995   5.769   2.916
 1518SOL     OW 5452   0.785   4.520   1.169
 1518SOL    HW1 5453   0.802   4.611   1.207
 1518SOL    HW2 5454   0.752   4.460   1.241
 1519SOL     OW 5455   6.704   4.842   0.743
 1519SOL    HW1 5456   6.635   4.903   0.782
 1519SOL    HW2 5457   6.661   4.780   0.677
 1520SOL     OW 5458   1.335   3.090   2.789
 1520SOL    HW1 5459   1.290   3.128   2.708
 1520SOL    HW2 5460   1.340   3.160   2.860
 1521SOL     OW 5461   2.851   4.015   6.767
 1521SOL    HW1 5462   2.855   3.920   6.736
 1521SOL    HW2 5463   2.837   4.075   6.689
 1522SOL     OW 5464   6.239   2.488   6.874
 1522SOL    HW1 5465   6.227   2.427   6.796
 1522SOL    HW2 5466   6.318   2.459   6.927
 1523SOL     OW 5467   0.425   1.961   0.610
 1523SOL    HW1 5468   0.432   1.966   0.709
 1523SOL    HW2 5469   0.377   1.877   0.584
 1524SOL     OW 5470   0.000   0.681   2.573
 1524SOL    HW1 5471   7.011   0.781   2.566
 1524SOL    HW2 5472   7.016   0.653   2.669
 1525SOL     OW 5473   4.694   2.187   6.250
 1525SOL    HW1 5474   4.672   2.121   6.322
 1525SOL    HW2 5475   4.786   2.223   6.265
 1526SOL     OW 5476   6.825   2.572   1.613
 1526SOL    HW1 5477   6.796   2.486   1.572
 1526SOL    HW2 5478   6.870   2.554   1.700
 1527SOL     OW 5479   3.071   1.484   5.482
 1527SOL    HW1 5480   3.152   1.502   5.426
 1527SOL    HW2 5481   3.072   1.543   5.562
 1528SOL     OW 5482   5.302   6.312   3.644
 1528SOL    HW1 5483   5.210   6.283   3.621
 1528SOL    HW2 5484   5.317   6.406   3.610
 1529SOL     OW 5485   2.936   0.470   5.679
 1529SOL    HW1 5486   2.933   0.560   5.635
 1529SOL    HW2 5487   2.970   0.480   5.773
 1530SOL     OW 5488   4.096   6.634   1.864
 1530SOL    HW1 5489   4.152   6.658   1.944
 1530SOL    HW2 5490   4.014   6.585   1.894
 1531SOL     OW 5491   6.710   6.858   4.827
 1531SOL    HW1 5492   6.737   6.763   4.811
 1531SOL    HW2 5493   6.785   6.919   4.803
 1532SOL     OW 5494   3.082   1.783   5.216
 1532SOL    HW1 5495   3.122   1.776   5.308
 1532SOL    HW2 5496   3.081   1.878   5.187
 1533SOL     OW 5497   5.984   2.359   6.936
 1533SOL    HW1 5498   6.075   2.402   6.939
 1533SOL    HW2 5499   5.928   2.406   6.868
 1534SOL     OW 5500   6.967   6.378   1.554
 1534SOL    HW1 5501   6.957   6.291   1.505
 1534SOL    HW2 5502   6.877   6.421   1.564
 1535SOL     OW 5503   4.720   5.349   4.234
 1535SOL    HW1 5504   4.637   5.325   4.182
 1535SOL    HW2 5505   4.798   5.299   4.197
 1536SOL     OW 5506   2.751   6.333   4.812
 1536SOL    HW1 5507   2.842   6.294   4.818
 1536SOL    HW2 5508   2.690   6.285   4.875
 1537SOL     OW 5509   1.570   5.287   4.376
 1537SOL    HW1 5510   1.556   5.265   4.280
 1537SOL    HW2 5511   1.511   5.364   4.401
 1538SOL     OW 5512   2.391   5.630   6.535
 1538SOL    HW1 5513   2.309   5.682   6.559
 1538SOL    HW2 5514   2.365   5.539   6.503
 1539SOL     OW 5515   3.347   4.742   1.747
 1539SOL    HW1 5516   3.404   4.820   1.722
 1539SOL    HW2 5517   3.405   4.667   1.781
 1540SOL     OW 5518   0.570   6.498   4.663
 1540SOL    HW1 5519   0.652   6.444   4.684
 1540SOL    HW2 5520   0.595   6.595   4.657
 1541SOL     OW 5521   5.001   2.384   1.162
 1541SOL    HW1 5522   5.021   2.302   1.108
 1541SOL    HW2 5523   5.084   2.414   1.208
 1542SOL     OW 5524   0.998   6.231   0.699
 1542SOL    HW1 5525   0.970   6.295   0.771
 1542SOL    HW2 5526   1.069   6.170   0.734
 1543SOL     OW 5527   3.057   3.980   4.018
 1543SOL    HW1 5528   3.020   3.965   4.110
 1543SOL    HW2 5529   3.141   4.034   4.024
 1544SOL     OW 5530   3.757   4.094   2.574
 1544SOL    HW1 5531   3.800   4.148   2.501
 1544SOL    HW2 5532   3.826   4.072   2.643
 1545SOL     OW 5533   5.612   0.381   4.707
 1545SOL    HW1 5534   5.579   0.295   4.746
 1545SOL    HW2 5535   5.690   0.362   4.647
 1546SOL     OW 5536   0.892   6.542   5.885
 1546SOL    HW1 5537   0.963   6.612   5.888
 1546SOL    HW2 5538   0.802   6.585   5.895
 1547SOL     OW 5539   3.455   6.271   0.480
 1547SOL    HW1 5540   3.404   6.265   0.565
 1547SOL    HW2 5541   3.391   6.278   0.403
 1548SOL     OW 5542   5.509   3.990   4.852
 1548SOL    HW1 5543   5.608   4.007   4.851
 1548SOL    HW2 5544   5.491   3.893   4.840
 1549SOL     OW 5545   6.850   1.697   1.216
 1549SOL    HW1 5546   6.796   1.660   1.292
 1549SOL    HW2 5547   6.944   1.664   1.223
 1550SOL     OW 5548   2.310   5.867   4.948
 1550SOL    HW1 5549   2.375   5.918   4.891
 1550SOL    HW2 5550   2.267   5.795   4.894
 1551SOL     OW 5551   1.777   2.374   0.331
 1551SOL    HW1 5552   1.785   2.284   0.287
 1551SOL    HW2 5553   1.841   2.378   0.408
 1552SOL     OW 5554   0.887   1.029   0.468
 1552SOL    HW1 5555   0.938   0.972   0.404
 1552SOL    HW2 5556   0.828   0.971   0.525
 1553SOL     OW 5557   6.157   1.213   6.473
 1553SOL    HW1 5558   6.078   1.213   6.534
 1553SOL    HW2 5559   6.237   1.176   6.521
 1554SOL     OW 5560   3.374   1.893   1.592
 1554SOL    HW1 5561   3.419   1.975   1.555
 1554SOL    HW2 5562   3.437   1.846   1.654
 1555SOL     OW 5563   4.176   1.408   5.819
 1555SOL    HW1 5564   4.188   1.481   5.752
 1555SOL    HW2 5565   4.108   1.436   5.887
 1556SOL     OW 5566   3.706   1.419   0.911
 1556SOL    HW1 5567   3.752   1.478   0.845
 1556SOL    HW2 5568   3.729   1.449   1.004
 1557SOL     OW 5569   1.909   2.175   0.611
 1557SOL    HW1 5570   1.893   2.138   0.703
 1557SOL    HW2 5571   1.891   2.273   0.612
 1558SOL     OW 5572   5.961   3.150   6.224
 1558SOL    HW1 5573   5.964   3.225   6.290
 1558SOL    HW2 5574   5.928   3.183   6.136
 1559SOL     OW 5575   2.005   4.285   3.472
 1559SOL    HW1 5576   1.990   4.187   3.466
 1559SOL    HW2 5577   1.917   4.333   3.472
 1560SOL     OW 5578   4.364   1.493   1.368
 1560SOL    HW1 5579   4.396   1.528   1.456
 1560SOL    HW2 5580   4.387   1.395   1.361
 1561SOL     OW 5581   6.358   5.827   1.021
 1561SOL    HW1 5582   6.289   5.777   1.073
 1561SOL    HW2 5583   6.427   5.864   1.084
 1562SOL     OW 5584   3.890   6.642   2.161
 1562SOL    HW1 5585   3.896   6.647   2.260
 1562SOL    HW2 5586   3.912   6.731   2.121
 1563SOL     OW 5587   4.018   2.155   3.966
 1563SOL    HW1 5588   4.033   2.175   4.063
 1563SOL    HW2 5589   4.103   2.120   3.926
 1564SOL     OW 5590   1.746   2.353   3.018
 1564SOL    HW1 5591   1.660   2.403   3.013
 1564SOL    HW2 5592   1.777   2.330   2.925
 1565SOL     OW 5593   3.748   1.124   4.527
 1565SOL    HW1 5594   3.774   1.174   4.609
 1565SOL    HW2 5595   3.800   1.160   4.449
 1566SOL     OW 5596   4.559   4.673   3.163
 1566SOL    HW1 5597   4.563   4.604   3.235
 1566SOL    HW2 5598   4.479   4.732   3.178
 1567SOL     OW 5599   5.063   6.946   4.916
 1567SOL    HW1 5600   5.000   6.872   4.938
 1567SOL    HW2 5601   5.083   6.945   4.818
 1568SOL     OW 5602   2.315   5.482   2.348
 1568SOL    HW1 5603   2.399   5.433   2.323
 1568SOL    HW2 5604   2.330   5.531   2.434
 1569SOL     OW 5605   3.114   0.367   3.398
 1569SOL    HW1 5606   3.044   0.346   3.466
 1569SOL    HW2 5607   3.077   0.433   3.332
 1570SOL     OW 5608   3.527   6.531   6.824
 1570SOL    HW1 5609   3.539   6.482   6.911
 1570SOL    HW2 5610   3.432   6.522   6.794
 1571SOL     OW 5611   0.795   2.054   5.038
 1571SOL    HW1 5612   0.876   2.106   5.066
 1571SOL    HW2 5613   0.807   2.019   4.946
 1572SOL     OW 5614   1.859   5.124   1.682
 1572SOL    HW1 5615   1.808   5.130   1.768
 1572SOL    HW2 5616   1.799   5.146   1.606
 1573SOL     OW 5617   5.235   5.478   0.669
 1573SOL    HW1 5618   5.286   5.452   0.752
 1573SOL    HW2 5619   5.139   5.494   0.693
 1574SOL     OW 5620   6.820   3.376   3.474
 1574SOL    HW1 5621   6.842   3.349   3.381
 1574SOL    HW2 5622   6.819   3.476   3.480
 1575SOL     OW 5623   0.223   1.168   0.154
 1575SOL    HW1 5624   0.133   1.206   0.176
 1575SOL    HW2 5625   0.284   1.242   0.125
 1576SOL     OW 5626   0.455   0.311   2.150
 1576SOL    HW1 5627   0.541   0.333   2.196
 1576SOL    HW2 5628   0.426   0.219   2.176
 1577SOL     OW 5629   4.607   5.992   5.365
 1577SOL    HW1 5630   4.513   6.010   5.394
 1577SOL    HW2 5631   4.628   6.048   5.285
 1578SOL     OW 5632   4.830   0.985   0.565
 1578SOL    HW1 5633   4.894   0.957   0.637
 1578SOL    HW2 5634   4.882   1.017   0.486
 1579SOL     OW 5635   1.631   2.494   1.249
 1579SOL    HW1 5636   1.612   2.466   1.155
 1579SOL    HW2 5637   1.668   2.587   1.249
 1580SOL     OW 5638   3.160   3.595   2.512
 1580SOL    HW1 5639   3.061   3.610   2.506
 1580SOL    HW2 5640   3.205   3.637   2.434
 1581SOL     OW 5641   6.466   4.259   5.934
 1581SOL    HW1 5642   6.457   4.278   6.031
 1581SOL    HW2 5643   6.437   4.166   5.914
 1582SOL     OW 5644   4.517   6.353   5.329
 1582SOL    HW1 5645   4.449   6.411   5.284
 1582SOL    HW2 5646   4.547   6.282   5.266
 1583SOL     OW 5647   1.306   6.169   5.198
 1583SOL    HW1 5648   1.240   6.207   5.262
 1583SOL    HW2 5649   1.261   6.101   5.140
 1584SOL     OW 5650   0.263   5.264   6.732
 1584SOL    HW1 5651   0.340   5.206   6.760
 1584SOL    HW2 5652   0.208   5.215   6.664
 1585SOL     OW 5653   3.892   6.782   3.095
 1585SOL    HW1 5654   3.941   6.694   3.099
 1585SOL    HW2 5655   3.794   6.765   3.088
 1586SOL     OW 5656   2.782   4.776   3.920
 1586SOL    HW1 5657   2.820   4.766   3.829
 1586SOL    HW2 5658   2.849   4.819   3.980
 1587SOL     OW 5659   1.959   6.058   5.882
 1587SOL    HW1 5660   2.030   6.047   5.812
 1587SOL    HW2 5661   1.871   6.025   5.846
 1588SOL     OW 5662   5.723   0.534   2.841
 1588SOL    HW1 5663   5.714   0.496   2.933
 1588SOL    HW2 5664   5.647   0.596   2.822
 1589SOL     OW 5665   6.168   4.543   4.277
 1589SOL    HW1 5666   6.190   4.623   4.332
 1589SOL    HW2 5667   6.161   4.463   4.336
 1590SOL     OW 5668   6.338   2.488   3.730
 1590SOL    HW1 5669   6.277   2.554   3.686
 1590SOL    HW2 5670   6.374   2.425   3.661
 1591SOL     OW 5671   0.882   6.680   1.784
 1591SOL    HW1 5672   0.835   6.594   1.762
 1591SOL    HW2 5673   0.823   6.737   1.842
 1592SOL     OW 5674   0.411   3.991   6.644
 1592SOL    HW1 5675   0.393   3.947   6.556
 1592SOL    HW2 5676   0.500   3.960   6.679
 1593SOL     OW 5677   2.660   0.704   0.312
 1593SOL    HW1 5678   2.709   0.646   0.378
 1593SOL    HW2 5679   2.724   0.733   0.241
 1594SOL     OW 5680   6.078   0.431   2.130
 1594SOL    HW1 5681   6.029   0.345   2.145
 1594SOL    HW2 5682   6.029   0.505   2.177
 1595SOL     OW 5683   0.728   4.032   6.513
 1595SOL    HW1 5684   0.698   3.957   6.455
 1595SOL    HW2 5685   0.777   3.996   6.593
 1596SOL     OW 5686   4.832   4.739   2.751
 1596SOL    HW1 5687   4.793   4.798   2.822
 1596SOL    HW2 5688   4.760   4.712   2.688
 1597SOL     OW 5689   3.920   6.456   6.446
 1597SOL    HW1 5690   4.010   6.414   6.454
 1597SOL    HW2 5691   3.877   6.462   6.536
 1598SOL     OW 5692   1.809   5.315   0.299
 1598SOL    HW1 5693   1.824   5.230   0.249
 1598SOL    HW2 5694   1.882   5.329   0.365
 1599SOL     OW 5695   4.800   4.975   3.806
 1599SOL    HW1 5696   4.751   5.052   3.764
 1599SOL    HW2 5697   4.892   4.969   3.766
 1600SOL     OW 5698   4.134   0.718   2.407
 1600SOL    HW1 5699   4.130   0.806   2.361
 1600SOL    HW2 5700   4.217   0.670   2.379
 1601SOL     OW 5701   6.570   6.633   4.521
 1601SOL    HW1 5702   6.669   6.638   4.534
 1601SOL    HW2 5703   6.531   6.725   4.533
 1602SOL     OW 5704   3.740   5.009   3.649
 1602SOL    HW1 5705   3.701   4.958   3.726
 1602SOL    HW2 5706   3.839   4.996   3.648
 1603SOL     OW 5707   3.126   5.762   2.934
 1603SOL    HW1 5708   3.167   5.808   2.855
 1603SOL    HW2 5709   3.162   5.669   2.940
 1604SOL     OW 5710   3.978   5.175   2.298
 1604SOL    HW1 5711   3.927   5.111   2.356
 1604SOL    HW2 5712   4.010   5.128   2.217
 1605SOL     OW 5713   4.903   5.593   1.141
 1605SOL    HW1 5714   4.925   5.679   1.187
 1605SOL    HW2 5715   4.865   5.529   1.207
 1606SOL     OW 5716   4.053   6.444   4.731
 1606SOL    HW1 5717   4.028   6.368   4.792
 1606SOL    HW2 5718   3.970   6.491   4.702
 1607SOL     OW 5719   4.334   5.571   2.708
 1607SOL    HW1 5720   4.245   5.560   2.662
 1607SOL    HW2 5721   4.353   5.668   2.720
 1608SOL     OW 5722   6.297   0.656   3.194
 1608SOL    HW1 5723   6.198   0.664   3.209
 1608SOL    HW2 5724   6.314   0.594   3.118
 1609SOL     OW 5725   3.654   6.337   0.300
 1609SOL    HW1 5726   3.579   6.323   0.365
 1609SOL    HW2 5727   3.642   6.276   0.222
 1610SOL     OW 5728   5.212   0.153   0.636
 1610SOL    HW1 5729   5.222   0.133   0.538
 1610SOL    HW2 5730   5.121   0.127   0.666
 1611SOL     OW 5731   1.105   4.028   1.436
 1611SOL    HW1 5732   1.144   4.079   1.360
 1611SOL    HW2 5733   1.049   3.953   1.400
 1612SOL     OW 5734   3.622   6.921   2.345
 1612SOL    HW1 5735   3.563   6.858   2.294
 1612SOL    HW2 5736   3.661   6.988   2.283
 1613SOL     OW 5737   7.002   5.562   2.168
 1613SOL    HW1 5738   6.925   5.621   2.191
 1613SOL    HW2 5739   7.019   5.566   2.070
 1614SOL     OW 5740   6.829   2.422   6.144
 1614SOL    HW1 5741   6.850   2.332   6.182
 1614SOL    HW2 5742   6.913   2.475   6.136
 1615SOL     OW 5743   1.478   5.458   6.536
 1615SOL    HW1 5744   1.396   5.454   6.479
 1615SOL    HW2 5745   1.545   5.520   6.494
 1616SOL     OW 5746   1.863   1.277   4.722
 1616SOL    HW1 5747   1.858   1.360   4.667
 1616SOL    HW2 5748   1.958   1.258   4.746
 1617SOL     OW 5749   5.653   6.175   3.472
 1617SOL    HW1 5750   5.674   6.104   3.539
 1617SOL    HW2 5751   5.561   6.161   3.436
 1618SOL     OW 5752   3.307   5.291   2.986
 1618SOL    HW1 5753   3.214   5.275   2.951
 1618SOL    HW2 5754   3.318   5.387   3.010
 1619SOL     OW 5755   1.277   5.362   6.777
 1619SOL    HW1 5756   1.360   5.311   6.756
 1619SOL    HW2 5757   1.197   5.314   6.741
 1620SOL     OW 5758   3.832   5.448   6.346
 1620SOL    HW1 5759   3.760   5.470   6.279
 1620SOL    HW2 5760   3.913   5.414   6.298
 1621SOL     OW 5761   5.057   6.427   0.713
 1621SOL    HW1 5762   5.015   6.466   0.630
 1621SOL    HW2 5763   5.142   6.381   0.688
 1622SOL     OW 5764   0.158   4.042   4.361
 1622SOL    HW1 5765   0.252   4.026   4.391
 1622SOL    HW2 5766   0.125   4.129   4.397
 1623SOL     OW 5767   0.933   1.713   3.788
 1623SOL    HW1 5768   0.959   1.724   3.693
 1623SOL    HW2 5769   0.901   1.801   3.825
 1624SOL     OW 5770   4.117   1.347   0.920
 1624SOL    HW1 5771   4.042   1.341   0.986
 1624SOL    HW2 5772   4.203   1.367   0.969
 1625SOL     OW 5773   1.270   5.467   0.845
 1625SOL    HW1 5774   1.251   5.437   0.751
 1625SOL    HW2 5775   1.334   5.543   0.843
 1626SOL     OW 5776   3.316   1.973   1.251
 1626SOL    HW1 5777   3.252   2.012   1.317
 1626SOL    HW2 5778   3.313   2.026   1.166
 1627SOL     OW 5779   4.428   1.583   4.243
 1627SOL    HW1 5780   4.461   1.662   4.296
 1627SOL    HW2 5781   4.329   1.575   4.254
 1628SOL     OW 5782   5.472   6.815   0.232
 1628SOL    HW1 5783   5.493   6.754   0.155
 1628SOL    HW2 5784   5.421   6.894   0.198
 1629SOL     OW 5785   2.045   0.930   3.456
 1629SOL    HW1 5786   2.106   0.852   3.461
 1629SOL    HW2 5787   2.081   0.997   3.390
 1630SOL     OW 5788   0.417   3.353   0.218
 1630SOL    HW1 5789   0.336   3.385   0.268
 1630SOL    HW2 5790   0.497   3.405   0.248
 1631SOL     OW 5791   0.086   3.198   0.649
 1631SOL    HW1 5792   0.020   3.269   0.627
 1631SOL    HW2 5793   0.067   3.162   0.740
 1632SOL     OW 5794   6.704   4.554   2.812
 1632SOL    HW1 5795   6.642   4.625   2.781
 1632SOL    HW2 5796   6.667   4.464   2.787
 1633SOL     OW 5797   5.314   3.052   4.068
 1633SOL    HW1 5798   5.346   2.964   4.102
 1633SOL    HW2 5799   5.261   3.038   3.984
 1634SOL     OW 5800   5.258   0.881   4.251
 1634SOL    HW1 5801   5.284   0.843   4.340
 1634SOL    HW2 5802   5.211   0.810   4.198
 1635SOL     OW 5803   3.577   6.024   4.019
 1635SOL    HW1 5804   3.631   5.940   4.025
 1635SOL    HW2 5805   3.565   6.050   3.923
 1636SOL     OW 5806   5.870   6.482   1.284
 1636SOL    HW1 5807   5.925   6.468   1.202
 1636SOL    HW2 5808   5.835   6.395   1.317
 1637SOL     OW 5809   0.040   0.289   2.109
 1637SOL    HW1 5810   0.070   0.384   2.109
 1637SOL    HW2 5811   0.113   0.230   2.144
 1638SOL     OW 5812   0.060   2.749   2.194
 1638SOL    HW1 5813   0.133   2.702   2.244
 1638SOL    HW2 5814   0.041   2.837   2.238
 1639SOL     OW 5815   4.797   2.769   2.716
 1639SOL    HW1 5816   4.859   2.694   2.736
 1639SOL    HW2 5817   4.706   2.733   2.697
 1640SOL     OW 5818   6.242   0.249   0.338
 1640SOL    HW1 5819   6.175   0.179   0.312
 1640SOL    HW2 5820   6.320   0.206   0.383
 1641SOL     OW 5821   6.304   2.410   2.991
 1641SOL    HW1 5822   6.395   2.395   3.028
 1641SOL    HW2 5823   6.259   2.322   2.977
 1642SOL     OW 5824   5.722   2.165   5.444
 1642SOL    HW1 5825   5.702   2.104   5.521
 1642SOL    HW2 5826   5.729   2.111   5.360
 1643SOL     OW 5827   2.830   5.764   4.131
 1643SOL    HW1 5828   2.908   5.779   4.192
 1643SOL    HW2 5829   2.780   5.682   4.161
 1644SOL     OW 5830   5.997   3.113   0.952
 1644SOL    HW1 5831   6.010   3.153   1.043
 1644SOL    HW2 5832   5.912   3.147   0.913
 1645SOL     OW 5833   1.908   0.697   5.847
 1645SOL    HW1 5834   1.863   0.648   5.922
 1645SOL    HW2 5835   1.918   0.636   5.768
 1646SOL     OW 5836   1.066   5.345   1.053
 1646SOL    HW1 5837   1.108   5.395   0.977
 1646SOL    HW2 5838   0.967   5.351   1.046
 1647SOL     OW 5839   6.236   2.958   4.243
 1647SOL    HW1 5840   6.221   3.041   4.191
 1647SOL    HW2 5841   6.248   2.981   4.340
 1648SOL     OW 5842   5.577   6.288   1.134
 1648SOL    HW1 5843   5.607   6.260   1.043
 1648SOL    HW2 5844   5.541   6.381   1.130
 1649SOL     OW 5845   3.182   0.092   3.327
 1649SOL    HW1 5846   3.188   0.190   3.348
 1649SOL    HW2 5847   3.125   0.047   3.395
 1650SOL     OW 5848   3.108   4.962   6.495
 1650SOL    HW1 5849   3.047   5.041   6.505
 1650SOL    HW2 5850   3.072   4.902   6.424
 1651SOL     OW 5851   0.923   3.069   3.860
 1651SOL    HW1 5852   0.938   2.974   3.886
 1651SOL    HW2 5853   1.004   3.123   3.882
 1652SOL     OW 5854   0.429   2.355   1.116
 1652SOL    HW1 5855   0.452   2.362   1.018
 1652SOL    HW2 5856   0.512   2.366   1.170
 1653SOL     OW 5857   6.744   4.746   3.750
 1653SOL    HW1 5858   6.799   4.712   3.675
 1653SOL    HW2 5859   6.725   4.672   3.814
 1654SOL     OW 5860   0.928   3.231   1.881
 1654SOL    HW1 5861   0.968   3.226   1.972
 1654SOL    HW2 5862   0.830   3.253   1.889
 1655SOL     OW 5863   6.842   6.602   4.784
 1655SOL    HW1 5864   6.831   6.558   4.694
 1655SOL    HW2 5865   6.837   6.533   4.855
 1656SOL     OW 5866   1.821   4.837   4.348
 1656SOL    HW1 5867   1.804   4.753   4.297
 1656SOL    HW2 5868   1.840   4.815   4.444
 1657SOL     OW 5869   1.368   0.351   5.145
 1657SOL    HW1 5870   1.306   0.384   5.216
 1657SOL    HW2 5871   1.408   0.428   5.097
 1658SOL     OW 5872   6.507   0.150   6.537
 1658SOL    HW1 5873   6.455   0.107   6.463
 1658SOL    HW2 5874   6.480   0.109   6.624
 1659SOL     OW 5875   4.919   6.926   6.239
 1659SOL    HW1 5876   4.889   6.962   6.151
 1659SOL    HW2 5877   4.846   6.939   6.306
 1660SOL     OW 5878   1.796   0.202   2.283
 1660SOL    HW1 5879   1.733   0.198   2.206
 1660SOL    HW2 5880   1.849   0.287   2.279
 1661SOL     OW 5881   4.006   4.797   2.725
 1661SOL    HW1 5882   3.959   4.767   2.642
 1661SOL    HW2 5883   3.969   4.886   2.754
 1662SOL     OW 5884   0.299   0.793   4.975
 1662SOL    HW1 5885   0.305   0.693   4.981
 1662SOL    HW2 5886   0.388   0.834   4.996
 1663SOL     OW 5887   4.790   4.925   0.925
 1663SOL    HW1 5888   4.822   4.975   1.005
 1663SOL    HW2 5889   4.864   4.870   0.888
 1664SOL     OW 5890   1.221   0.375   5.785
 1664SOL    HW1 5891   1.305   0.385   5.731
 1664SOL    HW2 5892   1.160   0.311   5.739
 1665SOL     OW 5893   2.354   3.998   0.397
 1665SOL    HW1 5894   2.438   3.944   0.407
 1665SOL    HW2 5895   2.311   3.976   0.310
 1666SOL     OW 5896   5.576   6.666   6.394
 1666SOL    HW1 5897   5.603   6.575   6.363
 1666SOL    HW2 5898   5.481   6.664   6.425
 1667SOL     OW 5899   0.807   6.554   1.220
 1667SOL    HW1 5900   0.879   6.614   1.253
 1667SOL    HW2 5901   0.838   6.459   1.225
 1668SOL     OW 5902   5.546   4.402   3.705
 1668SOL    HW1 5903   5.637   4.435   3.677
 1668SOL    HW2 5904   5.525   4.317   3.658
 1669SOL     OW 5905   6.397   3.569   5.340
 1669SOL    HW1 5906   6.364   3.573   5.434
 1669SOL    HW2 5907   6.397   3.662   5.301
 1670SOL     OW 5908   1.736   4.770   5.690
 1670SOL    HW1 5909   1.664   4.703   5.709
 1670SOL    HW2 5910   1.797   4.776   5.769
 1671SOL     OW 5911   5.900   1.881   1.080
 1671SOL    HW1 5912   5.981   1.934   1.055
 1671SOL    HW2 5913   5.883   1.812   1.009
 1672SOL     OW 5914   1.196   3.438   6.630
 1672SOL    HW1 5915   1.137   3.368   6.669
 1672SOL    HW2 5916   1.176   3.526   6.674
 1673SOL     OW 5917   2.493   1.360   4.471
 1673SOL    HW1 5918   2.401   1.387   4.499
 1673SOL    HW2 5919   2.487   1.290   4.400
 1674SOL     OW 5920   4.872   2.178   3.015
 1674SOL    HW1 5921   4.914   2.235   3.085
 1674SOL    HW2 5922   4.791   2.225   2.977
 1675SOL     OW 5923   5.283   0.838   0.832
 1675SOL    HW1 5924   5.269   0.825   0.930
 1675SOL    HW2 5925   5.378   0.817   0.809
 1676SOL     OW 5926   1.697   1.359   2.988
 1676SOL    HW1 5927   1.631   1.418   2.942
 1676SOL    HW2 5928   1.719   1.281   2.930
 1677SOL     OW 5929   3.914   4.007   3.677
 1677SOL    HW1 5930   3.966   3.922   3.681
 1677SOL    HW2 5931   3.908   4.047   3.769
 1678SOL     OW 5932   0.585   6.700   0.729
 1678SOL    HW1 5933   0.577   6.608   0.693
 1678SOL    HW2 5934   0.507   6.719   0.789
 1679SOL     OW 5935   1.609   1.902   5.541
 1679SOL    HW1 5936   1.560   1.902   5.629
 1679SOL    HW2 5937   1.696   1.949   5.552
 1680SOL     OW 5938   5.150   2.652   3.499
 1680SOL    HW1 5939   5.200   2.671   3.414
 1680SOL    HW2 5940   5.090   2.729   3.521
 1681SOL     OW 5941   1.937   6.346   3.812
 1681SOL    HW1 5942   1.946   6.247   3.795
 1681SOL    HW2 5943   2.000   6.396   3.752
 1682SOL     OW 5944   2.813   6.923   5.549
 1682SOL    HW1 5945   2.770   6.833   5.542
 1682SOL    HW2 5946   2.793   6.976   5.466
 1683SOL     OW 5947   6.125   4.995   2.283
 1683SOL    HW1 5948   6.165   4.945   2.207
 1683SOL    HW2 5949   6.065   4.935   2.335
 1684SOL     OW 5950   2.646   4.438   1.694
 1684SOL    HW1 5951   2.643   4.356   1.637
 1684SOL    HW2 5952   2.739   4.451   1.727
 1685SOL     OW 5953   0.409   0.912   5.510
 1685SOL    HW1 5954   0.491   0.856   5.494
 1685SOL    HW2 5955   0.377   0.898   5.604
 1686SOL     OW 5956   4.736   6.211   3.001
 1686SOL    HW1 5957   4.649   6.260   2.990
 1686SOL    HW2 5958   4.732   6.154   3.084
 1687SOL     OW 5959   6.313   4.130   2.663
 1687SOL    HW1 5960   6.345   4.057   2.602
 1687SOL    HW2 5961   6.348   4.218   2.632
 1688SOL     OW 5962   2.230   1.803   3.642
 1688SOL    HW1 5963   2.310   1.835   3.591
 1688SOL    HW2 5964   2.246   1.711   3.676
 1689SOL     OW 5965   5.285   0.588   1.624
 1689SOL    HW1 5966   5.276   0.505   1.680
 1689SOL    HW2 5967   5.195   0.631   1.614
 1690SOL     OW 5968   0.262   3.713   4.575
 1690SOL    HW1 5969   0.324   3.684   4.649
 1690SOL    HW2 5970   0.207   3.636   4.545
 1691SOL     OW 5971   5.018   2.725   5.361
 1691SOL    HW1 5972   4.955   2.803   5.365
 1691SOL    HW2 5973   5.094   2.741   5.424
 1692SOL     OW 5974   6.019   5.551   1.343
 1692SOL    HW1 5975   5.933   5.524   1.300
 1692SOL    HW2 5976   6.075   5.470   1.359
 1693SOL     OW 5977   5.585   0.141   5.054
 1693SOL    HW1 5978   5.486   0.155   5.053
 1693SOL    HW2 5979   5.615   0.114   5.146
 1694SOL     OW 5980   4.700   0.694   5.586
 1694SOL    HW1 5981   4.684   0.789   5.556
 1694SOL    HW2 5982   4.707   0.692   5.685
 1695SOL     OW 5983   3.520   0.688   6.033
 1695SOL    HW1 5984   3.511   0.786   6.016
 1695SOL    HW2 5985   3.593   0.672   6.099
 1696SOL     OW 5986   4.199   6.232   0.127
 1696SOL    HW1 5987   4.174   6.174   0.204
 1696SOL    HW2 5988   4.134   6.307   0.119
 1697SOL     OW 5989   5.907   2.357   1.256
 1697SOL    HW1 5990   5.864   2.387   1.171
 1697SOL    HW2 5991   5.862   2.402   1.334
 1698SOL     OW 5992   3.980   0.986   1.974
 1698SOL    HW1 5993   4.072   1.003   1.938
 1698SOL    HW2 5994   3.917   1.055   1.940
 1699SOL     OW 5995   2.468   0.159   0.270
 1699SOL    HW1 5996   2.554   0.201   0.245
 1699SOL    HW2 5997   2.399   0.230   0.286
 1700SOL     OW 5998   6.389   3.423   3.247
 1700SOL    HW1 5999   6.448   3.358   3.199
 1700SOL    HW2 6000   6.443   3.503   3.274
 1701SOL     OW 6001   0.324   5.468   4.824
 1701SOL    HW1 6002   0.342   5.417   4.908
 1701SOL    HW2 6003   0.238   5.519   4.833
 1702SOL     OW 6004   1.971   2.607   5.722
 1702SOL    HW1 6005   1.979   2.706   5.710
 1702SOL    HW2 6006   1.910   2.569   5.654
 1703SOL     OW 6007   3.512   2.064   0.385
 1703SOL    HW1 6008   3.528   1.966   0.385
 1703SOL    HW2 6009   3.418   2.083   0.414
 1704SOL     OW 6010   2.564   1.921   1.282
 1704SOL    HW1 6011   2.536   2.012   1.312
 1704SOL    HW2 6012   2.529   1.905   1.190
 1705SOL     OW 6013   4.248   1.747   0.501
 1705SOL    HW1 6014   4.200   1.662   0.523
 1705SOL    HW2 6015   4.337   1.725   0.460
 1706SOL     OW 6016   4.287   2.485   0.571
 1706SOL    HW1 6017   4.242   2.533   0.496
 1706SOL    HW2 6018   4.248   2.515   0.658
 1707SOL     OW 6019   4.625   2.091   2.221
 1707SOL    HW1 6020   4.597   1.996   2.204
 1707SOL    HW2 6021   4.693   2.118   2.153
 1708SOL     OW 6022   3.474   5.204   1.776
 1708SOL    HW1 6023   3.402   5.198   1.846
 1708SOL    HW2 6024   3.514   5.113   1.763
 1709SOL     OW 6025   4.502   6.035   0.604
 1709SOL    HW1 6026   4.498   5.957   0.666
 1709SOL    HW2 6027   4.576   6.097   0.632
 1710SOL     OW 6028   3.728   5.447   3.031
 1710SOL    HW1 6029   3.760   5.376   3.092
 1710SOL    HW2 6030   3.634   5.471   3.054
 1711SOL     OW 6031   3.655   5.038   6.402
 1711SOL    HW1 6032   3.571   4.999   6.440
 1711SOL    HW2 6033   3.693   5.104   6.467
 1712SOL     OW 6034   6.868   1.867   3.535
 1712SOL    HW1 6035   6.915   1.800   3.592
 1712SOL    HW2 6036   6.769   1.855   3.545
 1713SOL     OW 6037   3.915   1.081   2.684
 1713SOL    HW1 6038   3.994   1.064   2.625
 1713SOL    HW2 6039   3.854   1.002   2.681
 1714SOL     OW 6040   3.593   2.977   6.883
 1714SOL    HW1 6041   3.613   3.040   6.958
 1714SOL    HW2 6042   3.542   2.898   6.919
 1715SOL     OW 6043   1.321   6.703   2.883
 1715SOL    HW1 6044   1.323   6.604   2.864
 1715SOL    HW2 6045   1.236   6.741   2.848
 1716SOL     OW 6046   4.513   0.582   3.525
 1716SOL    HW1 6047   4.428   0.538   3.497
 1716SOL    HW2 6048   4.502   0.681   3.525
 1717SOL     OW 6049   3.729   6.074   5.385
 1717SOL    HW1 6050   3.739   6.146   5.454
 1717SOL    HW2 6051   3.811   6.018   5.382
 1718SOL     OW 6052   1.378   2.697   1.274
 1718SOL    HW1 6053   1.413   2.658   1.189
 1718SOL    HW2 6054   1.439   2.675   1.349
 1719SOL     OW 6055   0.898   5.169   1.846
 1719SOL    HW1 6056   0.916   5.266   1.829
 1719SOL    HW2 6057   0.974   5.129   1.897
 1720SOL     OW 6058   6.815   2.592   5.485
 1720SOL    HW1 6059   6.791   2.529   5.558
 1720SOL    HW2 6060   6.834   2.683   5.524
 1721SOL     OW 6061   2.283   1.806   1.063
 1721SOL    HW1 6062   2.338   1.741   1.012
 1721SOL    HW2 6063   2.186   1.791   1.042
 1722SOL     OW 6064   2.807   2.077   2.767
 1722SOL    HW1 6065   2.902   2.080   2.735
 1722SOL    HW2 6066   2.774   1.983   2.768
 1723SOL     OW 6067   5.423   2.756   7.020
 1723SOL    HW1 6068   5.362   2.779   0.074
 1723SOL    HW2 6069   5.439   2.838   6.966
 1724SOL     OW 6070   6.917   2.438   1.279
 1724SOL    HW1 6071   6.909   2.345   1.243
 1724SOL    HW2 6072   6.826   2.479   1.285
 1725SOL     OW 6073   1.694   5.847   0.060
 1725SOL    HW1 6074   1.700   5.829   0.158
 1725SOL    HW2 6075   1.601   5.874   0.036
 1726SOL     OW 6076   5.361   4.420   3.902
 1726SOL    HW1 6077   5.428   4.413   3.829
 1726SOL    HW2 6078   5.290   4.351   3.888
 1727SOL     OW 6079   3.398   3.293   3.266
 1727SOL    HW1 6080   3.430   3.381   3.299
 1727SOL    HW2 6081   3.453   3.264   3.188
 1728SOL     OW 6082   4.659   2.236   3.988
 1728SOL    HW1 6083   4.682   2.287   3.905
 1728SOL    HW2 6084   4.577   2.274   4.029
 1729SOL     OW 6085   1.851   3.773   2.392
 1729SOL    HW1 6086   1.947   3.747   2.400
 1729SOL    HW2 6087   1.793   3.701   2.431
 1730SOL     OW 6088   2.999   4.832   5.688
 1730SOL    HW1 6089   2.943   4.913   5.668
 1730SOL    HW2 6090   3.003   4.818   5.787
 1731SOL     OW 6091   5.887   4.354   4.363
 1731SOL    HW1 6092   5.911   4.435   4.415
 1731SOL    HW2 6093   5.869   4.379   4.268
 1732SOL     OW 6094   2.058   4.313   6.138
 1732SOL    HW1 6095   2.108   4.375   6.197
 1732SOL    HW2 6096   2.002   4.251   6.194
 1733SOL     OW 6097   2.761   4.155   0.189
 1733SOL    HW1 6098   2.853   4.190   0.167
 1733SOL    HW2 6099   2.714   4.220   0.249
 1734SOL     OW 6100   6.826   2.897   1.315
 1734SOL    HW1 6101   6.836   2.843   1.231
 1734SOL    HW2 6102   6.866   2.847   1.392
 1735SOL     OW 6103   3.890   5.421   5.937
 1735SOL    HW1 6104   3.928   5.346   5.991
 1735SOL    HW2 6105   3.826   5.384   5.869
 1736SOL     OW 6106   4.900   3.058   0.975
 1736SOL    HW1 6107   4.998   3.059   0.996
 1736SOL    HW2 6108   4.847   3.066   1.059
 1737SOL     OW 6109   4.540   1.450   5.212
 1737SOL    HW1 6110   4.624   1.399   5.194
 1737SOL    HW2 6111   4.545   1.540   5.167
 1738SOL     OW 6112   1.309   3.326   4.747
 1738SOL    HW1 6113   1.372   3.250   4.765
 1738SOL    HW2 6114   1.275   3.318   4.653
 1739SOL     OW 6115   5.518   0.265   4.164
 1739SOL    HW1 6116   5.506   0.332   4.237
 1739SOL    HW2 6117   5.615   0.256   4.142
 1740SOL     OW 6118   6.341   3.106   3.982
 1740SOL    HW1 6119   6.343   3.019   3.933
 1740SOL    HW2 6120   6.270   3.165   3.943
 1741SOL     OW 6121   1.002   2.194   4.474
 1741SOL    HW1 6122   0.979   2.121   4.409
 1741SOL    HW2 6123   0.921   2.250   4.490
 1742SOL     OW 6124   5.939   6.213   6.644
 1742SOL    HW1 6125   6.032   6.224   6.609
 1742SOL    HW2 6126   5.885   6.294   6.622
 1743SOL     OW 6127   1.356   0.780   2.900
 1743SOL    HW1 6128   1.349   0.724   2.983
 1743SOL    HW2 6129   1.269   0.825   2.882
 1744SOL     OW 6130   3.659   1.794   4.321
 1744SOL    HW1 6131   3.675   1.883   4.365
 1744SOL    HW2 6132   3.718   1.785   4.241
 1745SOL     OW 6133   6.733   6.462   1.653
 1745SOL    HW1 6134   6.662   6.459   1.723
 1745SOL    HW2 6135   6.693   6.486   1.565
 1746SOL     OW 6136   1.920   4.357   3.992
 1746SOL    HW1 6137   1.969   4.300   4.058
 1746SOL    HW2 6138   1.983   4.386   3.920
 1747SOL     OW 6139   3.876   0.231   2.507
 1747SOL    HW1 6140   3.826   0.173   2.571
 1747SOL    HW2 6141   3.822   0.241   2.423
 1748SOL     OW 6142   6.717   2.152   4.290
 1748SOL    HW1 6143   6.653   2.172   4.216
 1748SOL    HW2 6144   6.669   2.110   4.366
 1749SOL     OW 6145   1.592   4.926   0.985
 1749SOL    HW1 6146   1.627   4.847   1.037
 1749SOL    HW2 6147   1.620   5.010   1.031
 1750SOL     OW 6148   4.131   6.898   5.456
 1750SOL    HW1 6149   4.210   6.853   5.499
 1750SOL    HW2 6150   4.123   6.991   5.491
 1751SOL     OW 6151   5.340   2.807   5.025
 1751SOL    HW1 6152   5.266   2.743   5.004
 1751SOL    HW2 6153   5.376   2.786   5.116
 1752SOL     OW 6154   6.698   0.944   1.528
 1752SOL    HW1 6155   6.664   0.964   1.620
 1752SOL    HW2 6156   6.696   0.846   1.512
 1753SOL     OW 6157   6.469   1.765   1.925
 1753SOL    HW1 6158   6.556   1.716   1.938
 1753SOL    HW2 6159   6.486   1.848   1.871
 1754SOL     OW 6160   3.373   5.720   4.818
 1754SOL    HW1 6161   3.419   5.645   4.865
 1754SOL    HW2 6162   3.432   5.755   4.745
 1755SOL     OW 6163   6.464   6.691   5.309
 1755SOL    HW1 6164   6.411   6.710   5.392
 1755SOL    HW2 6165   6.562   6.701   5.329
 1756SOL     OW 6166   5.115   6.953   5.765
 1756SOL    HW1 6167   5.152   6.992   5.849
 1756SOL    HW2 6168   5.015   6.961   5.766
 1757SOL     OW 6169   2.404   4.767   5.246
 1757SOL    HW1 6170   2.496   4.751   5.212
 1757SOL    HW2 6171   2.380   4.698   5.313
 1758SOL     OW 6172   1.890   6.638   4.889
 1758SOL    HW1 6173   1.978   6.590   4.885
 1758SOL    HW2 6174   1.865   6.669   4.797
 1759SOL     OW 6175   1.557   6.630   0.236
 1759SOL    HW1 6176   1.517   6.675   0.316
 1759SOL    HW2 6177   1.594   6.700   0.174
 1760SOL     OW 6178   6.147   1.285   4.985
 1760SOL    HW1 6179   6.167   1.376   5.021
 1760SOL    HW2 6180   6.049   1.278   4.967
 1761SOL     OW 6181   6.077   1.991   2.124
 1761SOL    HW1 6182   6.069   1.934   2.206
 1761SOL    HW2 6183   6.007   1.964   2.058
 1762SOL     OW 6184   0.067   1.516   5.874
 1762SOL    HW1 6185   0.002   1.491   5.945
 1762SOL    HW2 6186   0.082   1.438   5.814
 1763SOL     OW 6187   1.087   3.947   4.178
 1763SOL    HW1 6188   1.155   3.878   4.157
 1763SOL    HW2 6189   1.069   4.002   4.096
 1764SOL     OW 6190   0.788   5.321   2.799
 1764SOL    HW1 6191   0.748   5.381   2.869
 1764SOL    HW2 6192   0.728   5.242   2.786
 1765SOL     OW 6193   5.305   3.142   2.735
 1765SOL    HW1 6194   5.283   3.091   2.652
 1765SOL    HW2 6195   5.359   3.223   2.710
 1766SOL     OW 6196   4.807   4.749   4.425
 1766SOL    HW1 6197   4.742   4.823   4.446
 1766SOL    HW2 6198   4.856   4.771   4.341
 1767SOL     OW 6199   1.073   4.635   2.273
 1767SOL    HW1 6200   1.005   4.702   2.300
 1767SOL    HW2 6201   1.029   4.563   2.219
 1768SOL     OW 6202   5.376   6.409   2.300
 1768SOL    HW1 6203   5.309   6.479   2.274
 1768SOL    HW2 6204   5.328   6.325   2.326
 1769SOL     OW 6205   5.081   0.394   6.767
 1769SOL    HW1 6206   5.152   0.372   6.833
 1769SOL    HW2 6207   5.119   0.450   6.693
 1770SOL     OW 6208   2.220   5.349   6.366
 1770SOL    HW1 6209   2.306   5.311   6.400
 1770SOL    HW2 6210   2.230   5.372   6.269
 1771SOL     OW 6211   1.093   3.623   5.873
 1771SOL    HW1 6212   1.065   3.716   5.851
 1771SOL    HW2 6213   1.188   3.624   5.906
 1772SOL     OW 6214   2.448   4.492   3.607
 1772SOL    HW1 6215   2.479   4.502   3.702
 1772SOL    HW2 6216   2.447   4.582   3.563
 1773SOL     OW 6217   1.069   6.671   5.257
 1773SOL    HW1 6218   0.999   6.630   5.197
 1773SOL    HW2 6219   1.024   6.725   5.328
 1774SOL     OW 6220   4.985   5.493   0.787
 1774SOL    HW1 6221   4.960   5.590   0.779
 1774SOL    HW2 6222   4.936   5.453   0.864
 1775SOL     OW 6223   2.521   5.501   6.011
 1775SOL    HW1 6224   2.595   5.559   5.976
 1775SOL    HW2 6225   2.550   5.405   6.009
 1776SOL     OW 6226   4.968   1.562   6.199
 1776SOL    HW1 6227   5.033   1.618   6.251
 1776SOL    HW2 6228   4.996   1.466   6.204
 1777SOL     OW 6229   5.040   6.496   6.821
 1777SOL    HW1 6230   5.100   6.462   6.748
 1777SOL    HW2 6231   5.082   6.577   6.863
 1778SOL     OW 6232   5.955   6.754   3.923
 1778SOL    HW1 6233   6.017   6.739   4.001
 1778SOL    HW2 6234   5.883   6.684   3.925
 1779SOL     OW 6235   5.904   5.921   4.157
 1779SOL    HW1 6236   6.003   5.913   4.149
 1779SOL    HW2 6237   5.881   6.006   4.205
 1780SOL     OW 6238   1.678   5.923   4.811
 1780SOL    HW1 6239   1.732   5.974   4.878
 1780SOL    HW2 6240   1.730   5.843   4.781
 1781SOL     OW 6241   3.962   0.930   4.297
 1781SOL    HW1 6242   3.963   0.867   4.219
 1781SOL    HW2 6243   3.872   0.927   4.341
 1782SOL     OW 6244   1.197   1.682   2.513
 1782SOL    HW1 6245   1.148   1.595   2.520
 1782SOL    HW2 6246   1.218   1.716   2.604
 1783SOL     OW 6247   2.316   4.308   6.723
 1783SOL    HW1 6248   2.405   4.265   6.712
 1783SOL    HW2 6249   2.285   4.295   6.818
 1784SOL     OW 6250   3.091   6.868   1.412
 1784SOL    HW1 6251   3.013   6.907   1.363
 1784SOL    HW2 6252   3.058   6.815   1.490
 1785SOL     OW 6253   1.116   6.585   4.326
 1785SOL    HW1 6254   1.178   6.507   4.339
 1785SOL    HW2 6255   1.097   6.628   4.414
 1786SOL     OW 6256   1.312   6.092   0.478
 1786SOL    HW1 6257   1.290   6.180   0.435
 1786SOL    HW2 6258   1.304   6.101   0.578
 1787SOL     OW 6259   2.820   3.907   6.137
 1787SOL    HW1 6260   2.898   3.961   6.105
 1787SOL    HW2 6261   2.851   3.838   6.202
 1788SOL     OW 6262   4.621   3.824   0.626
 1788SOL    HW1 6263   4.663   3.744   0.668
 1788SOL    HW2 6264   4.574   3.878   0.696
 1789SOL     OW 6265   6.596   4.425   2.355
 1789SOL    HW1 6266   6.681   4.423   2.407
 1789SOL    HW2 6267   6.519   4.420   2.418
 1790SOL     OW 6268   2.299   2.388   4.712
 1790SOL    HW1 6269   2.392   2.420   4.693
 1790SOL    HW2 6270   2.289   2.294   4.682
 1791SOL     OW 6271   4.892   6.897   3.241
 1791SOL    HW1 6272   4.965   6.837   3.211
 1791SOL    HW2 6273   4.917   6.992   3.223
 1792SOL     OW 6274   0.219   1.384   5.475
 1792SOL    HW1 6275   0.296   1.321   5.486
 1792SOL    HW2 6276   0.253   1.478   5.477
 1793SOL     OW 6277   6.946   1.374   6.071
 1793SOL    HW1 6278   6.886   1.311   6.120
 1793SOL    HW2 6279   6.975   1.447   6.132
 1794SOL     OW 6280   1.164   0.074   6.377
 1794SOL    HW1 6281   1.100   0.069   6.454
 1794SOL    HW2 6282   1.113   0.062   6.291
 1795SOL     OW 6283   6.357   4.081   1.261
 1795SOL    HW1 6284   6.408   4.015   1.316
 1795SOL    HW2 6285   6.269   4.099   1.304
 1796SOL     OW 6286   1.243   0.352   6.321
 1796SOL    HW1 6287   1.163   0.409   6.304
 1796SOL    HW2 6288   1.214   0.264   6.359
 1797SOL     OW 6289   2.766   5.003   5.612
 1797SOL    HW1 6290   2.757   4.974   5.516
 1797SOL    HW2 6291   2.728   5.095   5.622
 1798SOL     OW 6292   3.186   3.483   4.307
 1798SOL    HW1 6293   3.268   3.425   4.300
 1798SOL    HW2 6294   3.196   3.562   4.247
 1799SOL     OW 6295   3.226   1.564   0.251
 1799SOL    HW1 6296   3.289   1.542   0.325
 1799SOL    HW2 6297   3.194   1.480   0.207
 1800SOL     OW 6298   5.685   3.743   4.800
 1800SOL    HW1 6299   5.699   3.766   4.704
 1800SOL    HW2 6300   5.773   3.727   4.844
 1801SOL     OW 6301   1.220   1.534   1.921
 1801SOL    HW1 6302   1.129   1.518   1.883
 1801SOL    HW2 6303   1.283   1.557   1.847
 1802SOL     OW 6304   6.813   5.030   3.771
 1802SOL    HW1 6305   6.815   4.932   3.756
 1802SOL    HW2 6306   6.720   5.060   3.791
 1803SOL     OW 6307   0.888   6.830   3.461
 1803SOL    HW1 6308   0.926   6.900   3.521
 1803SOL    HW2 6309   0.963   6.777   3.420
 1804SOL     OW 6310   2.293   3.268   5.776
 1804SOL    HW1 6311   2.217   3.273   5.841
 1804SOL    HW2 6312   2.369   3.324   5.809
 1805SOL     OW 6313   6.897   5.846   6.367
 1805SOL    HW1 6314   6.987   5.889   6.374
 1805SOL    HW2 6315   6.835   5.889   6.433
 1806SOL     OW 6316   0.124   1.715   2.281
 1806SOL    HW1 6317   0.122   1.813   2.259
 1806SOL    HW2 6318   0.142   1.662   2.198
 1807SOL     OW 6319   0.102   2.977   2.523
 1807SOL    HW1 6320   0.080   2.978   2.425
 1807SOL    HW2 6321   0.186   2.924   2.538
 1808SOL     OW 6322   4.800   2.405   5.882
 1808SOL    HW1 6323   4.855   2.329   5.915
 1808SOL    HW2 6324   4.835   2.491   5.920
 1809SOL     OW 6325   3.977   0.522   5.931
 1809SOL    HW1 6326   3.951   0.547   5.837
 1809SOL    HW2 6327   4.017   0.601   5.976
 1810SOL     OW 6328   0.069   0.239   4.368
 1810SOL    HW1 6329   0.034   0.290   4.290
 1810SOL    HW2 6330   0.149   0.186   4.340
 1811SOL     OW 6331   4.133   5.700   1.822
 1811SOL    HW1 6332   4.068   5.644   1.872
 1811SOL    HW2 6333   4.084   5.764   1.763
 1812SOL     OW 6334   4.716   6.497   5.739
 1812SOL    HW1 6335   4.799   6.441   5.732
 1812SOL    HW2 6336   4.739   6.585   5.779
 1813SOL     OW 6337   4.333   4.622   2.865
 1813SOL    HW1 6338   4.417   4.571   2.846
 1813SOL    HW2 6339   4.265   4.600   2.796
 1814SOL     OW 6340   0.203   6.071   0.102
 1814SOL    HW1 6341   0.218   6.076   0.004
 1814SOL    HW2 6342   0.206   5.976   0.132
 1815SOL     OW 6343   5.730   6.246   1.356
 1815SOL    HW1 6344   5.650   6.231   1.299
 1815SOL    HW2 6345   5.811   6.212   1.310
 1816SOL     OW 6346   4.125   5.117   5.452
 1816SOL    HW1 6347   4.186   5.180   5.500
 1816SOL    HW2 6348   4.127   5.138   5.354
 1817SOL     OW 6349   1.042   1.831   3.547
 1817SOL    HW1 6350   1.026   1.918   3.500
 1817SOL    HW2 6351   1.140   1.816   3.557
 1818SOL     OW 6352   2.067   0.291   0.978
 1818SOL    HW1 6353   2.164   0.268   0.972
 1818SOL    HW2 6354   2.046   0.365   0.914
 1819SOL     OW 6355   2.013   4.645   3.499
 1819SOL    HW1 6356   2.009   4.675   3.595
 1819SOL    HW2 6357   2.015   4.545   3.496
 1820SOL     OW 6358   3.507   6.722   5.134
 1820SOL    HW1 6359   3.481   6.762   5.045
 1820SOL    HW2 6360   3.602   6.693   5.131
 1821SOL     OW 6361   3.270   2.018   2.769
 1821SOL    HW1 6362   3.252   2.078   2.691
 1821SOL    HW2 6363   3.367   2.021   2.792
 1822SOL     OW 6364   6.603   3.022   2.424
 1822SOL    HW1 6365   6.571   3.042   2.517
 1822SOL    HW2 6366   6.529   3.035   2.359
 1823SOL     OW 6367   3.853   6.002   2.314
 1823SOL    HW1 6368   3.827   6.077   2.253
 1823SOL    HW2 6369   3.942   6.022   2.354
 1824SOL     OW 6370   4.210   2.985   1.724
 1824SOL    HW1 6371   4.191   2.937   1.638
 1824SOL    HW2 6372   4.295   2.950   1.764
 1825SOL     OW 6373   1.780   1.320   5.117
 1825SOL    HW1 6374   1.693   1.345   5.160
 1825SOL    HW2 6375   1.815   1.397   5.064
 1826SOL     OW 6376   3.618   2.058   1.749
 1826SOL    HW1 6377   3.680   2.124   1.793
 1826SOL    HW2 6378   3.566   2.105   1.677
 1827SOL     OW 6379   5.828   4.693   1.008
 1827SOL    HW1 6380   5.824   4.771   0.945
 1827SOL    HW2 6381   5.878   4.618   0.965
 1828SOL     OW 6382   1.621   3.012   5.129
 1828SOL    HW1 6383   1.667   2.926   5.107
 1828SOL    HW2 6384   1.681   3.088   5.107
 1829SOL     OW 6385   3.847   0.411   3.219
 1829SOL    HW1 6386   3.883   0.336   3.275
 1829SOL    HW2 6387   3.816   0.485   3.278
 1830SOL     OW 6388   4.907   0.141   4.617
 1830SOL    HW1 6389   4.901   0.241   4.617
 1830SOL    HW2 6390   4.984   0.112   4.675
 1831SOL     OW 6391   4.242   5.145   1.073
 1831SOL    HW1 6392   4.300   5.102   1.142
 1831SOL    HW2 6393   4.173   5.202   1.119
 1832SOL     OW 6394   2.470   3.268   0.346
 1832SOL    HW1 6395   2.549   3.225   0.303
 1832SOL    HW2 6396   2.386   3.228   0.310
 1833SOL     OW 6397   5.268   0.646   0.632
 1833SOL    HW1 6398   5.196   0.649   0.562
 1833SOL    HW2 6399   5.257   0.724   0.693
 1834SOL     OW 6400   1.395   2.642   5.937
 1834SOL    HW1 6401   1.443   2.686   5.861
 1834SOL    HW2 6402   1.419   2.687   6.022
 1835SOL     OW 6403   6.921   6.104   1.521
 1835SOL    HW1 6404   6.909   6.013   1.561
 1835SOL    HW2 6405   6.882   6.106   1.429
 1836SOL     OW 6406   4.945   2.497   1.662
 1836SOL    HW1 6407   4.904   2.544   1.584
 1836SOL    HW2 6408   4.981   2.565   1.727
 1837SOL     OW 6409   3.197   2.918   6.232
 1837SOL    HW1 6410   3.234   2.825   6.227
 1837SOL    HW2 6411   3.255   2.981   6.180
 1838SOL     OW 6412   6.492   0.783   0.707
 1838SOL    HW1 6413   6.415   0.819   0.759
 1838SOL    HW2 6414   6.572   0.840   0.722
 1839SOL     OW 6415   0.058   1.175   6.757
 1839SOL    HW1 6416   0.042   1.188   6.659
 1839SOL    HW2 6417   0.038   1.080   6.781
 1840SOL     OW 6418   4.534   6.545   3.491
 1840SOL    HW1 6419   4.506   6.531   3.586
 1840SOL    HW2 6420   4.581   6.632   3.483
 1841SOL     OW 6421   2.345   0.581   2.215
 1841SOL    HW1 6422   2.444   0.574   2.227
 1841SOL    HW2 6423   2.309   0.652   2.276
 1842SOL     OW 6424   1.448   5.418   0.064
 1842SOL    HW1 6425   1.387   5.390   0.138
 1842SOL    HW2 6426   1.495   5.337   0.027
 1843SOL     OW 6427   2.408   1.345   4.995
 1843SOL    HW1 6428   2.446   1.436   5.012
 1843SOL    HW2 6429   2.476   1.287   4.950
 1844SOL     OW 6430   5.791   2.406   6.230
 1844SOL    HW1 6431   5.863   2.413   6.161
 1844SOL    HW2 6432   5.703   2.390   6.186
 1845SOL     OW 6433   1.294   1.458   3.028
 1845SOL    HW1 6434   1.281   1.506   3.114
 1845SOL    HW2 6435   1.206   1.451   2.980
 1846SOL     OW 6436   4.527   1.853   2.184
 1846SOL    HW1 6437   4.497   1.888   2.095
 1846SOL    HW2 6438   4.449   1.810   2.231
 1847SOL     OW 6439   1.787   5.902   5.286
 1847SOL    HW1 6440   1.753   5.875   5.376
 1847SOL    HW2 6441   1.886   5.892   5.282
 1848SOL     OW 6442   2.729   5.896   3.543
 1848SOL    HW1 6443   2.652   5.882   3.605
 1848SOL    HW2 6444   2.788   5.815   3.546
 1849SOL     OW 6445   4.829   2.894   1.775
 1849SOL    HW1 6446   4.830   2.806   1.822
 1849SOL    HW2 6447   4.786   2.962   1.834
 1850SOL     OW 6448   4.962   1.308   1.288
 1850SOL    HW1 6449   4.955   1.340   1.194
 1850SOL    HW2 6450   5.053   1.270   1.305
 1851SOL     OW 6451   0.165   4.386   5.380
 1851SOL    HW1 6452   0.111   4.343   5.307
 1851SOL    HW2 6453   0.262   4.374   5.361
 1852SOL     OW 6454   0.166   0.093   2.757
 1852SOL    HW1 6455   0.180   7.016   2.760
 1852SOL    HW2 6456   0.200   0.129   2.671
 1853SOL     OW 6457   0.025   2.519   4.826
 1853SOL    HW1 6458   0.072   2.495   4.741
 1853SOL    HW2 6459   0.033   2.618   4.841
 1854SOL     OW 6460   0.575   0.069   3.408
 1854SOL    HW1 6461   0.487   0.060   3.456
 1854SOL    HW2 6462   0.588   7.014   3.348
 1855SOL     OW 6463   4.744   2.507   4.441
 1855SOL    HW1 6464   4.759   2.496   4.342
 1855SOL    HW2 6465   4.804   2.579   4.476
 1856SOL     OW 6466   3.726   2.856   0.807
 1856SOL    HW1 6467   3.736   2.848   0.708
 1856SOL    HW2 6468   3.629   2.869   0.830
 1857SOL     OW 6469   4.068   1.779   0.936
 1857SOL    HW1 6470   4.161   1.744   0.931
 1857SOL    HW2 6471   4.062   1.865   0.886
 1858SOL     OW 6472   4.600   2.658   3.875
 1858SOL    HW1 6473   4.612   2.654   3.775
 1858SOL    HW2 6474   4.629   2.747   3.908
 1859SOL     OW 6475   6.249   1.971   4.279
 1859SOL    HW1 6476   6.255   1.918   4.194
 1859SOL    HW2 6477   6.266   2.068   4.259
 1860SOL     OW 6478   1.536   1.676   4.721
 1860SOL    HW1 6479   1.629   1.691   4.755
 1860SOL    HW2 6480   1.484   1.622   4.788
 1861SOL     OW 6481   6.289   6.996   3.776
 1861SOL    HW1 6482   6.214   6.988   3.711
 1861SOL    HW2 6483   6.367   0.017   3.732
 1862SOL     OW 6484   3.128   5.403   6.060
 1862SOL    HW1 6485   3.047   5.363   6.104
 1862SOL    HW2 6486   3.206   5.393   6.121
 1863SOL     OW 6487   0.146   3.137   0.327
 1863SOL    HW1 6488   0.101   3.072   0.388
 1863SOL    HW2 6489   0.241   3.110   0.314
 1864SOL     OW 6490   4.201   5.173   2.497
 1864SOL    HW1 6491   4.136   5.192   2.424
 1864SOL    HW2 6492   4.187   5.080   2.531
 1865SOL     OW 6493   5.584   1.292   5.353
 1865SOL    HW1 6494   5.590   1.297   5.452
 1865SOL    HW2 6495   5.488   1.283   5.326
 1866SOL     OW 6496   1.140   5.119   3.747
 1866SOL    HW1 6497   1.232   5.127   3.785
 1866SOL    HW2 6498   1.144   5.126   3.647
 1867SOL     OW 6499   1.617   2.546   1.691
 1867SOL    HW1 6500   1.671   2.501   1.762
 1867SOL    HW2 6501   1.535   2.491   1.672
 1868SOL     OW 6502   5.579   3.823   5.867
 1868SOL    HW1 6503   5.649   3.759   5.834
 1868SOL    HW2 6504   5.488   3.785   5.849
 1869SOL     OW 6505   4.272   1.270   3.875
 1869SOL    HW1 6506   4.201   1.227   3.819
 1869SOL    HW2 6507   4.246   1.365   3.893
 1870SOL     OW 6508   0.135   5.773   4.628
 1870SOL    HW1 6509   0.132   5.781   4.528
 1870SOL    HW2 6510   0.217   5.819   4.663
 1871SOL     OW 6511   0.684   6.699   0.380
 1871SOL    HW1 6512   0.707   6.705   0.283
 1871SOL    HW2 6513   0.617   6.769   0.403
 1872SOL     OW 6514   2.884   2.561   1.474
 1872SOL    HW1 6515   2.963   2.544   1.532
 1872SOL    HW2 6516   2.807   2.592   1.530
 1873SOL     OW 6517   0.285   1.657   0.283
 1873SOL    HW1 6518   0.318   1.568   0.311
 1873SOL    HW2 6519   0.345   1.728   0.320
 1874SOL     OW 6520   0.515   6.092   0.100
 1874SOL    HW1 6521   0.539   6.161   0.032
 1874SOL    HW2 6522   0.417   6.092   0.114
 1875SOL     OW 6523   6.746   5.006   0.039
 1875SOL    HW1 6524   6.646   5.000   0.035
 1875SOL    HW2 6525   6.783   5.002   6.969
 1876SOL     OW 6526   0.270   6.430   0.054
 1876SOL    HW1 6527   0.287   6.332   0.066
 1876SOL    HW2 6528   0.203   6.443   7.003
 1877SOL     OW 6529   1.057   1.430   2.887
 1877SOL    HW1 6530   0.987   1.460   2.951
 1877SOL    HW2 6531   1.030   1.342   2.847
 1878SOL     OW 6532   6.351   3.752   3.781
 1878SOL    HW1 6533   6.432   3.779   3.833
 1878SOL    HW2 6534   6.320   3.829   3.726
 1879SOL     OW 6535   4.748   6.056   4.762
 1879SOL    HW1 6536   4.747   6.149   4.798
 1879SOL    HW2 6537   4.766   5.992   4.837
 1880SOL     OW 6538   0.212   1.952   4.076
 1880SOL    HW1 6539   0.285   2.020   4.072
 1880SOL    HW2 6540   0.165   1.959   4.164
 1881SOL     OW 6541   1.397   1.860   4.593
 1881SOL    HW1 6542   1.444   1.946   4.574
 1881SOL    HW2 6543   1.456   1.801   4.648
 1882SOL     OW 6544   1.710   5.779   6.808
 1882SOL    HW1 6545   1.719   5.815   6.901
 1882SOL    HW2 6546   1.761   5.694   6.800
 1883SOL     OW 6547   1.873   3.053   2.340
 1883SOL    HW1 6548   1.936   3.069   2.264
 1883SOL    HW2 6549   1.915   3.083   2.425
 1884SOL     OW 6550   3.144   1.322   0.012
 1884SOL    HW1 6551   3.062   1.329   0.068
 1884SOL    HW2 6552   3.225   1.337   0.070
 1885SOL     OW 6553   0.305   2.254   1.317
 1885SOL    HW1 6554   0.376   2.246   1.387
 1885SOL    HW2 6555   0.347   2.281   1.231
 1886SOL     OW 6556   2.846   2.576   6.256
 1886SOL    HW1 6557   2.821   2.672   6.263
 1886SOL    HW2 6558   2.930   2.567   6.203
 1887SOL     OW 6559   0.299   6.987   5.541
 1887SOL    HW1 6560   0.228   6.954   5.605
 1887SOL    HW2 6561   0.296   0.065   5.538
 1888SOL     OW 6562   2.468   1.872   5.487
 1888SOL    HW1 6563   2.482   1.885   5.388
 1888SOL    HW2 6564   2.432   1.781   5.504
 1889SOL     OW 6565   3.333   2.784   0.615
 1889SOL    HW1 6566   3.393   2.805   0.692
 1889SOL    HW2 6567   3.263   2.719   0.644
 1890SOL     OW 6568   6.384   5.847   6.327
 1890SOL    HW1 6569   6.441   5.929   6.321
 1890SOL    HW2 6570   6.290   5.870   6.301
 1891SOL     OW 6571   5.811   4.312   5.626
 1891SOL    HW1 6572   5.802   4.228   5.679
 1891SOL    HW2 6573   5.722   4.338   5.589
 1892SOL     OW 6574   3.969   6.300   1.714
 1892SOL    HW1 6575   3.918   6.226   1.670
 1892SOL    HW2 6576   3.905   6.363   1.758
 1893SOL     OW 6577   3.401   1.721   4.891
 1893SOL    HW1 6578   3.337   1.795   4.912
 1893SOL    HW2 6579   3.436   1.682   4.976
 1894SOL     OW 6580   3.496   4.019   0.851
 1894SOL    HW1 6581   3.460   3.933   0.815
 1894SOL    HW2 6582   3.594   4.025   0.830
 1895SOL     OW 6583   5.169   0.300   2.973
 1895SOL    HW1 6584   5.261   0.340   2.975
 1895SOL    HW2 6585   5.171   0.210   3.017
 1896SOL     OW 6586   6.478   1.174   5.690
 1896SOL    HW1 6587   6.544   1.244   5.664
 1896SOL    HW2 6588   6.524   1.085   5.696
 1897SOL     OW 6589   5.746   4.983   3.840
 1897SOL    HW1 6590   5.744   4.890   3.876
 1897SOL    HW2 6591   5.841   5.014   3.832
 1898SOL     OW 6592   6.020   5.534   0.162
 1898SOL    HW1 6593   6.050   5.442   0.188
 1898SOL    HW2 6594   5.951   5.528   0.091
 1899SOL     OW 6595   1.187   3.003   3.488
 1899SOL    HW1 6596   1.203   3.081   3.427
 1899SOL    HW2 6597   1.089   2.983   3.491
 1900SOL     OW 6598   2.589   6.067   0.691
 1900SOL    HW1 6599   2.532   6.147   0.707
 1900SOL    HW2 6600   2.531   5.986   0.676
 1901SOL     OW 6601   1.461   1.526   6.859
 1901SOL    HW1 6602   1.391   1.560   6.796
 1901SOL    HW2 6603   1.436   1.549   6.953
 1902SOL     OW 6604   1.231   2.717   5.186
 1902SOL    HW1 6605   1.299   2.781   5.221
 1902SOL    HW2 6606   1.196   2.661   5.261
 1903SOL     OW 6607   6.217   3.507   3.882
 1903SOL    HW1 6608   6.159   3.518   3.801
 1903SOL    HW2 6609   6.286   3.579   3.883
 1904SOL     OW 6610   6.964   6.866   4.266
 1904SOL    HW1 6611   6.956   6.769   4.245
 1904SOL    HW2 6612   0.027   6.902   4.226
 1905SOL     OW 6613   6.544   2.647   3.873
 1905SOL    HW1 6614   6.630   2.633   3.824
 1905SOL    HW2 6615   6.476   2.581   3.840
 1906SOL     OW 6616   2.408   6.767   0.528
 1906SOL    HW1 6617   2.492   6.782   0.579
 1906SOL    HW2 6618   2.345   6.843   0.545
 1907SOL     OW 6619   3.181   6.196   3.144
 1907SOL    HW1 6620   3.160   6.161   3.235
 1907SOL    HW2 6621   3.180   6.296   3.146
 1908SOL     OW 6622   4.988   1.318   6.998
 1908SOL    HW1 6623   4.967   1.220   6.998
 1908SOL    HW2 6624   4.908   1.369   6.965
 1909SOL     OW 6625   3.787   5.012   4.135
 1909SOL    HW1 6626   3.812   5.108   4.149
 1909SOL    HW2 6627   3.791   4.963   4.222
 1910SOL     OW 6628   4.959   2.033   5.533
 1910SOL    HW1 6629   5.010   2.120   5.530
 1910SOL    HW2 6630   5.024   1.957   5.536
 1911SOL     OW 6631   6.416   3.671   5.854
 1911SOL    HW1 6632   6.352   3.662   5.930
 1911SOL    HW2 6633   6.459   3.761   5.856
 1912SOL     OW 6634   3.604   6.650   3.644
 1912SOL    HW1 6635   3.517   6.616   3.678
 1912SOL    HW2 6636   3.678   6.590   3.677
 1913SOL     OW 6637   1.295   4.121   5.209
 1913SOL    HW1 6638   1.313   4.188   5.281
 1913SOL    HW2 6639   1.316   4.161   5.120
 1914SOL     OW 6640   4.015   1.770   5.516
 1914SOL    HW1 6641   4.033   1.858   5.560
 1914SOL    HW2 6642   3.920   1.744   5.531
 1915SOL     OW 6643   3.117   0.027   5.275
 1915SOL    HW1 6644   3.112   6.950   5.266
 1915SOL    HW2 6645   3.101   0.053   5.370
 1916SOL     OW 6646   3.833   6.581   1.522
 1916SOL    HW1 6647   3.795   6.653   1.464
 1916SOL    HW2 6648   3.807   6.492   1.486
 1917SOL     OW 6649   3.217   2.949   3.806
 1917SOL    HW1 6650   3.300   2.945   3.861
 1917SOL    HW2 6651   3.145   2.995   3.858
 1918SOL     OW 6652   5.713   6.920   3.941
 1918SOL    HW1 6653   5.802   6.877   3.927
 1918SOL    HW2 6654   5.697   6.931   4.039
 1919SOL     OW 6655   6.470   6.786   1.750
 1919SOL    HW1 6656   6.544   6.811   1.688
 1919SOL    HW2 6657   6.425   6.703   1.718
 1920SOL     OW 6658   6.873   5.872   4.254
 1920SOL    HW1 6659   6.848   5.801   4.188
 1920SOL    HW2 6660   6.919   5.830   4.332
 1921SOL     OW 6661   0.872   6.698   6.777
 1921SOL    HW1 6662   0.922   6.768   6.827
 1921SOL    HW2 6663   0.937   6.635   6.734
 1922SOL     OW 6664   3.134   4.569   0.640
 1922SOL    HW1 6665   3.066   4.642   0.644
 1922SOL    HW2 6666   3.225   4.608   0.641
 1923SOL     OW 6667   1.758   1.900   0.726
 1923SOL    HW1 6668   1.766   1.898   0.626
 1923SOL    HW2 6669   1.717   1.986   0.754
 1924SOL     OW 6670   0.655   4.823   1.446
 1924SOL    HW1 6671   0.562   4.859   1.436
 1924SOL    HW2 6672   0.705   4.879   1.512
 1925SOL     OW 6673   3.057   4.585   0.940
 1925SOL    HW1 6674   2.969   4.589   0.988
 1925SOL    HW2 6675   3.076   4.491   0.912
 1926SOL     OW 6676   1.041   0.302   3.800
 1926SOL    HW1 6677   1.082   0.356   3.873
 1926SOL    HW2 6678   0.986   0.362   3.741
 1927SOL     OW 6679   4.095   3.320   6.897
 1927SOL    HW1 6680   4.133   3.411   6.885
 1927SOL    HW2 6681   4.088   3.298   6.994
 1928SOL     OW 6682   6.176   4.647   5.655
 1928SOL    HW1 6683   6.104   4.693   5.603
 1928SOL    HW2 6684   6.254   4.708   5.664
 1929SOL     OW 6685   1.213   6.932   2.580
 1929SOL    HW1 6686   1.171   6.898   2.663
 1929SOL    HW2 6687   1.205   6.863   2.508
 1930SOL     OW 6688   5.770   3.835   6.677
 1930SOL    HW1 6689   5.849   3.862   6.622
 1930SOL    HW2 6690   5.689   3.831   6.618
 1931SOL     OW 6691   0.942   2.459   5.189
 1931SOL    HW1 6692   0.958   2.384   5.125
 1931SOL    HW2 6693   0.862   2.512   5.160
 1932SOL     OW 6694   5.761   3.452   1.528
 1932SOL    HW1 6695   5.846   3.417   1.567
 1932SOL    HW2 6696   5.689   3.382   1.536
 1933SOL     OW 6697   2.971   4.177   1.416
 1933SOL    HW1 6698   2.935   4.116   1.345
 1933SOL    HW2 6699   2.962   4.272   1.386
 1934SOL     OW 6700   0.838   5.673   5.085
 1934SOL    HW1 6701   0.769   5.695   5.017
 1934SOL    HW2 6702   0.870   5.758   5.129
 1935SOL     OW 6703   2.299   1.130   3.889
 1935SOL    HW1 6704   2.229   1.164   3.952
 1935SOL    HW2 6705   2.270   1.145   3.795
 1936SOL     OW 6706   6.213   5.461   5.366
 1936SOL    HW1 6707   6.185   5.514   5.447
 1936SOL    HW2 6708   6.281   5.513   5.315
 1937SOL     OW 6709   3.955   6.882   2.054
 1937SOL    HW1 6710   3.971   6.913   1.961
 1937SOL    HW2 6711   3.892   6.945   2.099
 1938SOL     OW 6712   4.748   0.659   3.391
 1938SOL    HW1 6713   4.746   0.751   3.430
 1938SOL    HW2 6714   4.664   0.610   3.414
 1939SOL     OW 6715   2.166   0.567   3.528
 1939SOL    HW1 6716   2.197   0.658   3.503
 1939SOL    HW2 6717   2.181   0.504   3.451
 1940SOL     OW 6718   7.008   5.563   6.554
 1940SOL    HW1 6719   6.912   5.560   6.583
 1940SOL    HW2 6720   0.018   5.469   6.541
 1941SOL     OW 6721   5.318   4.150   2.724
 1941SOL    HW1 6722   5.226   4.181   2.747
 1941SOL    HW2 6723   5.315   4.055   2.694
 1942SOL     OW 6724   6.214   5.124   2.742
 1942SOL    HW1 6725   6.158   5.197   2.782
 1942SOL    HW2 6726   6.296   5.164   2.702
 1943SOL     OW 6727   2.425   4.858   2.384
 1943SOL    HW1 6728   2.358   4.932   2.386
 1943SOL    HW2 6729   2.511   4.892   2.347
 1944SOL     OW 6730   6.680   1.554   1.383
 1944SOL    HW1 6731   6.647   1.485   1.319
 1944SOL    HW2 6732   6.741   1.512   1.450
 1945SOL     OW 6733   3.455   4.943   4.179
 1945SOL    HW1 6734   3.416   4.953   4.087
 1945SOL    HW2 6735   3.553   4.927   4.172
 1946SOL     OW 6736   1.619   0.542   0.432
 1946SOL    HW1 6737   1.553   0.469   0.449
 1946SOL    HW2 6738   1.706   0.501   0.403
 1947SOL     OW 6739   5.440   5.511   4.038
 1947SOL    HW1 6740   5.493   5.427   4.042
 1947SOL    HW2 6741   5.410   5.535   4.130
 1948SOL     OW 6742   6.052   4.926   4.612
 1948SOL    HW1 6743   5.965   4.968   4.584
 1948SOL    HW2 6744   6.118   4.997   4.636
 1949SOL     OW 6745   4.694   4.005   6.518
 1949SOL    HW1 6746   4.654   4.094   6.498
 1949SOL    HW2 6747   4.667   3.977   6.611
 1950SOL     OW 6748   3.078   3.801   6.474
 1950SOL    HW1 6749   3.060   3.895   6.447
 1950SOL    HW2 6750   3.176   3.790   6.493
 1951SOL     OW 6751   6.314   2.100   6.925
 1951SOL    HW1 6752   6.225   2.093   6.969
 1951SOL    HW2 6753   6.381   2.136   6.990
 1952SOL     OW 6754   3.746   2.208   6.208
 1952SOL    HW1 6755   3.670   2.213   6.143
 1952SOL    HW2 6756   3.720   2.254   6.293
 1953SOL     OW 6757   0.271   2.874   6.343
 1953SOL    HW1 6758   0.210   2.914   6.411
 1953SOL    HW2 6759   0.304   2.946   6.282
 1954SOL     OW 6760   3.446   2.092   4.052
 1954SOL    HW1 6761   3.402   2.177   4.081
 1954SOL    HW2 6762   3.432   2.021   4.120
 1955SOL     OW 6763   0.199   6.844   3.350
 1955SOL    HW1 6764   0.152   6.758   3.329
 1955SOL    HW2 6765   0.267   6.829   3.421
 1956SOL     OW 6766   5.597   5.994   2.680
 1956SOL    HW1 6767   5.504   5.958   2.675
 1956SOL    HW2 6768   5.643   5.982   2.592
 1957SOL     OW 6769   0.594   6.771   5.593
 1957SOL    HW1 6770   0.680   6.772   5.643
 1957SOL    HW2 6771   0.537   6.695   5.625
 1958SOL     OW 6772   5.316   3.390   5.768
 1958SOL    HW1 6773   5.378   3.336   5.825
 1958SOL    HW2 6774   5.228   3.341   5.760
 1959SOL     OW 6775   1.520   1.693   6.433
 1959SOL    HW1 6776   1.550   1.597   6.431
 1959SOL    HW2 6777   1.583   1.748   6.379
 1960SOL     OW 6778   5.605   5.558   0.839
 1960SOL    HW1 6779   5.649   5.624   0.901
 1960SOL    HW2 6780   5.609   5.593   0.745
 1961SOL     OW 6781   5.564   4.389   4.082
 1961SOL    HW1 6782   5.521   4.411   4.170
 1961SOL    HW2 6783   5.496   4.392   4.009
 1962SOL     OW 6784   0.700   6.400   3.557
 1962SOL    HW1 6785   0.605   6.370   3.546
 1962SOL    HW2 6786   0.704   6.500   3.550
 1963SOL     OW 6787   1.204   0.534   3.558
 1963SOL    HW1 6788   1.211   0.546   3.657
 1963SOL    HW2 6789   1.200   0.623   3.514
 1964SOL     OW 6790   5.371   3.883   2.722
 1964SOL    HW1 6791   5.287   3.862   2.671
 1964SOL    HW2 6792   5.405   3.800   2.766
 1965SOL     OW 6793   1.334   4.064   3.466
 1965SOL    HW1 6794   1.344   3.992   3.397
 1965SOL    HW2 6795   1.311   4.023   3.554
 1966SOL     OW 6796   6.417   5.016   5.381
 1966SOL    HW1 6797   6.405   4.942   5.448
 1966SOL    HW2 6798   6.506   5.059   5.394
 1967SOL     OW 6799   4.451   2.983   5.338
 1967SOL    HW1 6800   4.525   2.923   5.308
 1967SOL    HW2 6801   4.374   2.927   5.369
 1968SOL     OW 6802   3.269   5.500   6.313
 1968SOL    HW1 6803   3.312   5.565   6.250
 1968SOL    HW2 6804   3.334   5.428   6.337
 1969SOL     OW 6805   0.019   2.578   0.967
 1969SOL    HW1 6806   6.997   2.592   1.056
 1969SOL    HW2 6807   6.997   2.635   0.898
 1970SOL     OW 6808   1.571   0.942   4.080
 1970SOL    HW1 6809   1.539   0.992   3.999
 1970SOL    HW2 6810   1.494   0.928   4.143
 1971SOL     OW 6811   0.334   6.502   6.598
 1971SOL    HW1 6812   0.253   6.549   6.565
 1971SOL    HW2 6813   0.395   6.568   6.644
 1972SOL     OW 6814   0.639   4.669   3.841
 1972SOL    HW1 6815   0.548   4.690   3.875
 1972SOL    HW2 6816   0.707   4.719   3.895
 1973SOL     OW 6817   3.247   3.481   1.590
 1973SOL    HW1 6818   3.199   3.400   1.555
 1973SOL    HW2 6819   3.213   3.562   1.544
 1974SOL     OW 6820   5.204   0.844   3.829
 1974SOL    HW1 6821   5.261   0.787   3.769
 1974SOL    HW2 6822   5.229   0.826   3.924
 1975SOL     OW 6823   3.108   0.111   3.907
 1975SOL    HW1 6824   3.129   0.206   3.883
 1975SOL    HW2 6825   3.009   0.097   3.904
 1976SOL     OW 6826   0.683   5.722   0.723
 1976SOL    HW1 6827   0.600   5.730   0.779
 1976SOL    HW2 6828   0.664   5.753   0.630
 1977SOL     OW 6829   0.766   2.636   5.363
 1977SOL    HW1 6830   0.715   2.562   5.407
 1977SOL    HW2 6831   0.703   2.691   5.307
 1978SOL     OW 6832   6.607   1.980   4.512
 1978SOL    HW1 6833   6.509   1.982   4.495
 1978SOL    HW2 6834   6.624   1.946   4.605
 1979SOL     OW 6835   6.098   4.439   4.037
 1979SOL    HW1 6836   6.010   4.415   4.078
 1979SOL    HW2 6837   6.142   4.510   4.092
 1980SOL     OW 6838   4.322   0.407   1.390
 1980SOL    HW1 6839   4.301   0.504   1.372
 1980SOL    HW2 6840   4.268   0.375   1.468
 1981SOL     OW 6841   4.984   3.219   1.983
 1981SOL    HW1 6842   4.993   3.226   1.884
 1981SOL    HW2 6843   4.897   3.176   2.006
 1982SOL     OW 6844   5.597   6.289   4.638
 1982SOL    HW1 6845   5.645   6.297   4.725
 1982SOL    HW2 6846   5.627   6.362   4.577
 1983SOL     OW 6847   1.171   3.527   3.642
 1983SOL    HW1 6848   1.227   3.445   3.653
 1983SOL    HW2 6849   1.221   3.594   3.587
 1984SOL     OW 6850   4.159   1.083   6.201
 1984SOL    HW1 6851   4.102   1.051   6.277
 1984SOL    HW2 6852   4.102   1.096   6.120
 1985SOL     OW 6853   1.185   0.844   1.508
 1985SOL    HW1 6854   1.206   0.752   1.543
 1985SOL    HW2 6855   1.110   0.883   1.561
 1986SOL     OW 6856   2.061   1.597   6.471
 1986SOL    HW1 6857   2.072   1.502   6.502
 1986SOL    HW2 6858   2.151   1.633   6.444
 1987SOL     OW 6859   2.478   3.293   0.784
 1987SOL    HW1 6860   2.441   3.202   0.766
 1987SOL    HW2 6861   2.556   3.285   0.847
 1988SOL     OW 6862   4.517   3.850   0.031
 1988SOL    HW1 6863   4.421   3.839   0.057
 1988SOL    HW2 6864   4.570   3.878   0.111
 1989SOL     OW 6865   2.260   0.155   4.193
 1989SOL    HW1 6866   2.248   0.254   4.182
 1989SOL    HW2 6867   2.199   0.107   4.130
 1990SOL     OW 6868   3.238   0.783   1.336
 1990SOL    HW1 6869   3.311   0.758   1.400
 1990SOL    HW2 6870   3.166   0.832   1.384
 1991SOL     OW 6871   3.048   5.725   4.313
 1991SOL    HW1 6872   3.111   5.801   4.299
 1991SOL    HW2 6873   3.089   5.641   4.276
 1992SOL     OW 6874   2.223   6.545   5.586
 1992SOL    HW1 6875   2.182   6.472   5.639
 1992SOL    HW2 6876   2.226   6.629   5.641
 1993SOL     OW 6877   3.985   3.634   5.558
 1993SOL    HW1 6878   3.943   3.706   5.503
 1993SOL    HW2 6879   4.060   3.672   5.613
 1994SOL     OW 6880   6.653   2.543   2.153
 1994SOL    HW1 6881   6.635   2.581   2.062
 1994SOL    HW2 6882   6.642   2.615   2.222
 1995SOL     OW 6883   5.769   2.121   1.638
 1995SOL    HW1 6884   5.670   2.124   1.652
 1995SOL    HW2 6885   5.813   2.080   1.718
 1996SOL     OW 6886   3.291   4.276   0.287
 1996SOL    HW1 6887   3.388   4.259   0.272
 1996SOL    HW2 6888   3.267   4.366   0.250
 1997SOL     OW 6889   5.025   0.659   3.473
 1997SOL    HW1 6890   4.925   0.648   3.466
 1997SOL    HW2 6891   5.055   0.730   3.409
 1998SOL     OW 6892   3.019   4.367   5.356
 1998SOL    HW1 6893   3.091   4.426   5.390
 1998SOL    HW2 6894   2.953   4.421   5.304
 1999SOL     OW 6895   2.355   0.307   2.329
 1999SOL    HW1 6896   2.363   0.245   2.251
 1999SOL    HW2 6897   2.367   0.401   2.299
 2000SOL     OW 6898   3.870   1.631   4.734
 2000SOL    HW1 6899   3.891   1.561   4.666
 2000SOL    HW2 6900   3.872   1.591   4.825
 2001SOL     OW 6901   3.136   1.487   1.170
 2001SOL    HW1 6902   3.158   1.447   1.259
 2001SOL    HW2 6903   3.197   1.565   1.153
 2002SOL     OW 6904   1.840   5.289   5.747
 2002SOL    HW1 6905   1.807   5.306   5.840
 2002SOL    HW2 6906   1.918   5.228   5.750
 2003SOL     OW 6907   6.012   5.991   3.606
 2003SOL    HW1 6908   6.011   6.088   3.628
 2003SOL    HW2 6909   6.074   5.943   3.668
 2004SOL     OW 6910   2.964   0.760   5.860
 2004SOL    HW1 6911   2.922   0.757   5.769
 2004SOL    HW2 6912   3.062   0.738   5.852
 2005SOL     OW 6913   2.041   5.883   5.523
 2005SOL    HW1 6914   2.063   5.844   5.434
 2005SOL    HW2 6915   2.009   5.810   5.584
 2006SOL     OW 6916   4.136   5.123   4.220
 2006SOL    HW1 6917   4.096   5.032   4.231
 2006SOL    HW2 6918   4.200   5.141   4.294
 2007SOL     OW 6919   5.309   5.675   0.494
 2007SOL    HW1 6920   5.290   5.619   0.575
 2007SOL    HW2 6921   5.253   5.758   0.496
 2008SOL     OW 6922   7.019   6.256   3.741
 2008SOL    HW1 6923   6.919   6.265   3.739
 2008SOL    HW2 6924   0.021   6.159   3.749
 2009SOL     OW 6925   0.112   0.343   1.841
 2009SOL    HW1 6926   0.055   0.399   1.781
 2009SOL    HW2 6927   0.060   0.320   1.924
 2010SOL     OW 6928   0.759   0.732   0.593
 2010SOL    HW1 6929   0.769   0.694   0.501
 2010SOL    HW2 6930   0.664   0.757   0.609
 2011SOL     OW 6931   0.234   1.662   4.764
 2011SOL    HW1 6932   0.298   1.683   4.689
 2011SOL    HW2 6933   0.236   1.736   4.831
 2012SOL     OW 6934   1.093   3.905   0.831
 2012SOL    HW1 6935   1.131   3.993   0.860
 2012SOL    HW2 6936   1.166   3.846   0.799
 2013SOL     OW 6937   5.808   1.612   2.277
 2013SOL    HW1 6938   5.813   1.562   2.190
 2013SOL    HW2 6939   5.831   1.550   2.352
 2014SOL     OW 6940   2.085   5.256   3.287
 2014SOL    HW1 6941   2.073   5.353   3.308
 2014SOL    HW2 6942   2.178   5.240   3.254
 2015SOL     OW 6943   3.100   0.440   0.123
 2015SOL    HW1 6944   3.121   0.533   0.093
 2015SOL    HW2 6945   3.094   0.438   0.223
 2016SOL     OW 6946   0.757   5.236   4.497
 2016SOL    HW1 6947   0.690   5.176   4.454
 2016SOL    HW2 6948   0.793   5.300   4.429
 2017SOL     OW 6949   2.655   5.946   2.869
 2017SOL    HW1 6950   2.726   5.923   2.935
 2017SOL    HW2 6951   2.591   6.012   2.909
 2018SOL     OW 6952   0.448   5.150   6.340
 2018SOL    HW1 6953   0.493   5.239   6.332
 2018SOL    HW2 6954   0.457   5.116   6.434
 2019SOL     OW 6955   6.337   2.134   2.079
 2019SOL    HW1 6956   6.314   2.172   2.168
 2019SOL    HW2 6957   6.253   2.112   2.030
 2020SOL     OW 6958   2.625   5.152   3.079
 2020SOL    HW1 6959   2.565   5.216   3.032
 2020SOL    HW2 6960   2.589   5.131   3.169
 2021SOL     OW 6961   1.460   0.686   2.602
 2021SOL    HW1 6962   1.417   0.699   2.513
 2021SOL    HW2 6963   1.404   0.625   2.658
 2022SOL     OW 6964   2.478   3.986   1.756
 2022SOL    HW1 6965   2.464   4.082   1.780
 2022SOL    HW2 6966   2.392   3.936   1.767
 2023SOL     OW 6967   6.586   0.942   5.780
 2023SOL    HW1 6968   6.618   0.956   5.874
 2023SOL    HW2 6969   6.625   0.857   5.744
 2024SOL     OW 6970   5.756   0.938   3.598
 2024SOL    HW1 6971   5.819   0.888   3.658
 2024SOL    HW2 6972   5.798   1.025   3.571
 2025SOL     OW 6973   0.086   1.483   1.851
 2025SOL    HW1 6974   0.148   1.511   1.778
 2025SOL    HW2 6975   0.071   1.384   1.845
 2026SOL     OW 6976   2.010   1.296   5.319
 2026SOL    HW1 6977   2.096   1.332   5.282
 2026SOL    HW2 6978   1.936   1.359   5.298
 2027SOL     OW 6979   1.053   1.467   2.582
 2027SOL    HW1 6980   0.975   1.410   2.557
 2027SOL    HW2 6981   1.080   1.446   2.676
 2028SOL     OW 6982   3.855   3.010   0.077
 2028SOL    HW1 6983   3.831   2.991   0.172
 2028SOL    HW2 6984   3.833   3.106   0.055
 2029SOL     OW 6985   0.822   1.154   6.585
 2029SOL    HW1 6986   0.803   1.098   6.505
 2029SOL    HW2 6987   0.794   1.249   6.567
 2030SOL     OW 6988   1.589   1.831   3.345
 2030SOL    HW1 6989   1.658   1.760   3.331
 2030SOL    HW2 6990   1.634   1.918   3.365
 2031SOL     OW 6991   5.798   6.793   1.760
 2031SOL    HW1 6992   5.811   6.705   1.714
 2031SOL    HW2 6993   5.886   6.827   1.793
 2032SOL     OW 6994   4.624   6.416   1.210
 2032SOL    HW1 6995   4.695   6.406   1.280
 2032SOL    HW2 6996   4.538   6.379   1.245
 2033SOL     OW 6997   5.303   4.839   6.841
 2033SOL    HW1 6998   5.234   4.878   6.781
 2033SOL    HW2 6999   5.323   4.745   6.813
 2034SOL     OW 7000   2.096   6.880   3.135
 2034SOL    HW1 7001   1.997   6.891   3.148
 2034SOL    HW2 7002   2.131   6.958   3.082
 2035SOL     OW 7003   0.418   2.115   2.757
 2035SOL    HW1 7004   0.412   2.054   2.678
 2035SOL    HW2 7005   0.495   2.087   2.815
 2036SOL     OW 7006   1.090   4.995   0.488
 2036SOL    HW1 7007   1.027   5.071   0.470
 2036SOL    HW2 7008   1.042   4.909   0.474
 2037SOL     OW 7009   6.944   1.701   5.700
 2037SOL    HW1 7010   6.989   1.636   5.761
 2037SOL    HW2 7011   7.011   1.742   5.639
 2038SOL     OW 7012   0.128   1.481   4.523
 2038SOL    HW1 7013   0.189   1.410   4.558
 2038SOL    HW2 7014   0.108   1.546   4.596
 2039SOL     OW 7015   0.179   5.846   3.015
 2039SOL    HW1 7016   0.093   5.868   3.061
 2039SOL    HW2 7017   0.242   5.923   3.023
 2040SOL     OW 7018   4.170   3.522   4.667
 2040SOL    HW1 7019   4.257   3.526   4.717
 2040SOL    HW2 7020   4.187   3.528   4.569
 2041SOL     OW 7021   5.875   4.469   5.228
 2041SOL    HW1 7022   5.955   4.512   5.188
 2041SOL    HW2 7023   5.898   4.429   5.316
 2042SOL     OW 7024   4.674   5.685   0.479
 2042SOL    HW1 7025   4.608   5.624   0.522
 2042SOL    HW2 7026   4.745   5.631   0.433
 2043SOL     OW 7027   5.587   4.386   2.088
 2043SOL    HW1 7028   5.658   4.322   2.119
 2043SOL    HW2 7029   5.630   4.464   2.043
 2044SOL     OW 7030   5.895   0.103   1.698
 2044SOL    HW1 7031   5.931   0.055   1.618
 2044SOL    HW2 7032   5.807   0.065   1.723
 2045SOL     OW 7033   2.117   4.871   5.741
 2045SOL    HW1 7034   2.193   4.873   5.675
 2045SOL    HW2 7035   2.079   4.778   5.744
 2046SOL     OW 7036   6.261   7.013   4.316
 2046SOL    HW1 7037   6.179   6.985   4.267
 2046SOL    HW2 7038   6.280   0.087   4.297
 2047SOL     OW 7039   5.048   2.533   0.584
 2047SOL    HW1 7040   4.997   2.569   0.506
 2047SOL    HW2 7041   4.999   2.551   0.669
 2048SOL     OW 7042   4.648   0.681   6.288
 2048SOL    HW1 7043   4.669   0.776   6.269
 2048SOL    HW2 7044   4.637   0.668   6.387
 2049SOL     OW 7045   4.180   1.147   0.215
 2049SOL    HW1 7046   4.240   1.199   0.276
 2049SOL    HW2 7047   4.214   1.053   0.208
 2050SOL     OW 7048   6.082   2.965   3.964
 2050SOL    HW1 7049   6.162   2.935   4.017
 2050SOL    HW2 7050   6.075   3.065   3.968
 2051SOL     OW 7051   1.488   5.929   0.629
 2051SOL    HW1 7052   1.566   5.899   0.574
 2051SOL    HW2 7053   1.433   5.994   0.577
 2052SOL     OW 7054   1.413   2.807   6.554
 2052SOL    HW1 7055   1.331   2.751   6.548
 2052SOL    HW2 7056   1.460   2.787   6.640
 2053SOL     OW 7057   6.400   0.444   0.243
 2053SOL    HW1 7058   6.422   0.419   0.149
 2053SOL    HW2 7059   6.306   0.417   0.264
 2054SOL     OW 7060   5.763   2.606   0.279
 2054SOL    HW1 7061   5.855   2.630   0.313
 2054SOL    HW2 7062   5.767   2.520   0.229
 2055SOL     OW 7063   5.325   2.921   3.733
 2055SOL    HW1 7064   5.368   2.866   3.661
 2055SOL    HW2 7065   5.390   2.990   3.765
 2056SOL     OW 7066   2.359   1.012   3.206
 2056SOL    HW1 7067   2.339   1.100   3.249
 2056SOL    HW2 7068   2.273   0.964   3.187
 2057SOL     OW 7069   6.820   2.968   4.211
 2057SOL    HW1 7070   6.778   3.056   4.187
 2057SOL    HW2 7071   6.763   2.894   4.176
 2058SOL     OW 7072   6.876   2.049   2.526
 2058SOL    HW1 7073   6.973   2.026   2.535
 2058SOL    HW2 7074   6.826   1.970   2.490
 2059SOL     OW 7075   2.086   1.015   0.140
 2059SOL    HW1 7076   2.068   1.047   0.233
 2059SOL    HW2 7077   2.178   1.043   0.112
 2060SOL     OW 7078   0.386   4.562   1.932
 2060SOL    HW1 7079   0.353   4.618   1.856
 2060SOL    HW2 7080   0.377   4.614   2.018
 2061SOL     OW 7081   6.703   1.445   2.350
 2061SOL    HW1 7082   6.640   1.367   2.349
 2061SOL    HW2 7083   6.741   1.459   2.258
 2062SOL     OW 7084   4.655   0.376   2.577
 2062SOL    HW1 7085   4.669   0.378   2.478
 2062SOL    HW2 7086   4.567   0.417   2.599
 2063SOL     OW 7087   1.730   3.024   6.367
 2063SOL    HW1 7088   1.829   3.018   6.353
 2063SOL    HW2 7089   1.688   2.935   6.350
 2064SOL     OW 7090   1.057   2.281   6.402
 2064SOL    HW1 7091   1.038   2.235   6.489
 2064SOL    HW2 7092   1.153   2.268   6.378
 2065SOL     OW 7093   5.960   3.735   1.976
 2065SOL    HW1 7094   5.942   3.712   1.880
 2065SOL    HW2 7095   6.057   3.756   1.987
 2066SOL     OW 7096   0.017   0.027   4.805
 2066SOL    HW1 7097   6.998   0.014   4.715
 2066SOL    HW2 7098   0.037   6.960   4.846
 2067SOL     OW 7099   6.530   6.587   1.108
 2067SOL    HW1 7100   6.470   6.519   1.150
 2067SOL    HW2 7101   6.562   6.555   1.019
 2068SOL     OW 7102   1.917   1.386   5.563
 2068SOL    HW1 7103   1.975   1.336   5.498
 2068SOL    HW2 7104   1.975   1.440   5.624
 2069SOL     OW 7105   1.363   2.246   2.211
 2069SOL    HW1 7106   1.455   2.267   2.178
 2069SOL    HW2 7107   1.365   2.162   2.265
 2070SOL     OW 7108   1.568   1.689   2.664
 2070SOL    HW1 7109   1.524   1.642   2.740
 2070SOL    HW2 7110   1.568   1.788   2.681
 2071SOL     OW 7111   0.608   0.141   4.266
 2071SOL    HW1 7112   0.547   0.064   4.247
 2071SOL    HW2 7113   0.687   0.108   4.317
 2072SOL     OW 7114   4.748   5.989   1.630
 2072SOL    HW1 7115   4.812   5.913   1.644
 2072SOL    HW2 7116   4.655   5.958   1.647
 2073SOL     OW 7117   3.107   6.675   5.731
 2073SOL    HW1 7118   3.179   6.721   5.783
 2073SOL    HW2 7119   3.018   6.715   5.756
 2074SOL     OW 7120   6.492   1.758   1.482
 2074SOL    HW1 7121   6.523   1.846   1.517
 2074SOL    HW2 7122   6.571   1.701   1.460
 2075SOL     OW 7123   4.376   3.277   0.043
 2075SOL    HW1 7124   4.428   3.355   0.080
 2075SOL    HW2 7125   4.353   3.295   6.970
 2076SOL     OW 7126   4.920   6.278   0.894
 2076SOL    HW1 7127   4.967   6.323   0.818
 2076SOL    HW2 7128   4.857   6.342   0.937
 2077SOL     OW 7129   5.894   1.447   2.507
 2077SOL    HW1 7130   5.874   1.514   2.578
 2077SOL    HW2 7131   5.824   1.376   2.507
 2078SOL     OW 7132   3.191   5.066   6.749
 2078SOL    HW1 7133   3.205   4.997   6.820
 2078SOL    HW2 7134   3.178   5.020   6.660
 2079SOL     OW 7135   5.924   1.148   3.507
 2079SOL    HW1 7136   6.009   1.098   3.488
 2079SOL    HW2 7137   5.938   1.245   3.490
 2080SOL     OW 7138   2.768   2.270   5.006
 2080SOL    HW1 7139   2.725   2.354   4.973
 2080SOL    HW2 7140   2.861   2.263   4.968
 2081SOL     OW 7141   1.032   6.457   4.930
 2081SOL    HW1 7142   1.129   6.471   4.911
 2081SOL    HW2 7143   1.020   6.367   4.973
 2082SOL     OW 7144   5.733   0.922   0.687
 2082SOL    HW1 7145   5.680   0.841   0.662
 2082SOL    HW2 7146   5.829   0.907   0.666
 2083SOL     OW 7147   3.576   4.684   6.529
 2083SOL    HW1 7148   3.577   4.784   6.524
 2083SOL    HW2 7149   3.624   4.647   6.450
 2084SOL     OW 7150   6.805   2.773   3.290
 2084SOL    HW1 7151   6.789   2.713   3.212
 2084SOL    HW2 7152   6.873   2.732   3.350
 2085SOL     OW 7153   4.386   0.271   5.732
 2085SOL    HW1 7154   4.475   0.316   5.745
 2085SOL    HW2 7155   4.332   0.279   5.816
 2086SOL     OW 7156   2.777   4.953   0.202
 2086SOL    HW1 7157   2.704   4.937   0.134
 2086SOL    HW2 7158   2.827   4.868   0.216
 2087SOL     OW 7159   5.753   6.884   2.738
 2087SOL    HW1 7160   5.823   6.933   2.687
 2087SOL    HW2 7161   5.778   6.881   2.835
 2088SOL     OW 7162   3.552   6.308   0.812
 2088SOL    HW1 7163   3.605   6.344   0.889
 2088SOL    HW2 7164   3.612   6.255   0.753
 2089SOL     OW 7165   5.449   1.475   7.010
 2089SOL    HW1 7166   5.520   1.498   0.053
 2089SOL    HW2 7167   5.451   1.540   6.934
 2090SOL     OW 7168   3.746   3.691   4.754
 2090SOL    HW1 7169   3.763   3.700   4.656
 2090SOL    HW2 7170   3.799   3.614   4.790
 2091SOL     OW 7171   0.983   5.609   0.564
 2091SOL    HW1 7172   1.047   5.534   0.547
 2091SOL    HW2 7173   0.960   5.653   0.477
 2092SOL     OW 7174   6.444   6.137   1.363
 2092SOL    HW1 7175   6.444   6.174   1.456
 2092SOL    HW2 7176   6.442   6.212   1.297
 2093SOL     OW 7177   1.126   2.982   1.526
 2093SOL    HW1 7178   1.039   3.030   1.538
 2093SOL    HW2 7179   1.185   3.034   1.464
 2094SOL     OW 7180   5.747   6.916   2.139
 2094SOL    HW1 7181   5.808   6.837   2.145
 2094SOL    HW2 7182   5.702   6.930   2.227
 2095SOL     OW 7183   5.862   5.991   4.589
 2095SOL    HW1 7184   5.770   5.971   4.621
 2095SOL    HW2 7185   5.929   5.943   4.645
 2096SOL     OW 7186   4.814   3.903   2.439
 2096SOL    HW1 7187   4.798   3.930   2.534
 2096SOL    HW2 7188   4.823   3.984   2.382
 2097SOL     OW 7189   0.129   2.600   6.691
 2097SOL    HW1 7190   0.109   2.669   6.622
 2097SOL    HW2 7191   0.055   2.532   6.693
 2098SOL     OW 7192   4.135   0.103   3.920
 2098SOL    HW1 7193   4.119   0.038   3.846
 2098SOL    HW2 7194   4.101   0.193   3.893
 2099SOL     OW 7195   2.556   0.927   4.653
 2099SOL    HW1 7196   2.468   0.901   4.614
 2099SOL    HW2 7197   2.566   1.026   4.651
 2100SOL     OW 7198   4.462   4.238   6.827
 2100SOL    HW1 7199   4.435   4.251   6.732
 2100SOL    HW2 7200   4.562   4.242   6.834
 2101SOL     OW 7201   0.724   0.244   3.274
 2101SOL    HW1 7202   0.662   0.190   3.332
 2101SOL    HW2 7203   0.709   0.342   3.291
 2102SOL     OW 7204   0.116   5.437   2.845
 2102SOL    HW1 7205   0.111   5.512   2.780
 2102SOL    HW2 7206   0.204   5.391   2.837
 2103SOL     OW 7207   3.415   3.202   6.859
 2103SOL    HW1 7208   3.471   3.128   6.896
 2103SOL    HW2 7209   3.328   3.206   6.909
 2104SOL     OW 7210   1.601   3.574   5.500
 2104SOL    HW1 7211   1.594   3.513   5.579
 2104SOL    HW2 7212   1.538   3.651   5.511
 2105SOL     OW 7213   5.531   5.078   2.750
 2105SOL    HW1 7214   5.625   5.109   2.761
 2105SOL    HW2 7215   5.476   5.151   2.709
 2106SOL     OW 7216   4.801   5.645   6.462
 2106SOL    HW1 7217   4.892   5.657   6.502
 2106SOL    HW2 7218   4.749   5.730   6.473
 2107SOL     OW 7219   3.778   4.304   5.305
 2107SOL    HW1 7220   3.711   4.242   5.264
 2107SOL    HW2 7221   3.870   4.269   5.288
 2108SOL     OW 7222   6.032   5.389   6.025
 2108SOL    HW1 7223   5.994   5.457   5.963
 2108SOL    HW2 7224   6.049   5.430   6.114
 2109SOL     OW 7225   5.512   6.104   3.043
 2109SOL    HW1 7226   5.572   6.169   3.089
 2109SOL    HW2 7227   5.449   6.154   2.983
 2110SOL     OW 7228   2.489   4.352   6.288
 2110SOL    HW1 7229   2.529   4.359   6.197
 2110SOL    HW2 7230   2.435   4.268   6.294
 2111SOL     OW 7231   1.300   2.522   6.215
 2111SOL    HW1 7232   1.297   2.480   6.124
 2111SOL    HW2 7233   1.364   2.472   6.273
 2112SOL     OW 7234   4.445   2.407   1.380
 2112SOL    HW1 7235   4.375   2.339   1.361
 2112SOL    HW2 7236   4.431   2.487   1.322
 2113SOL     OW 7237   1.529   0.931   2.688
 2113SOL    HW1 7238   1.551   0.938   2.785
 2113SOL    HW2 7239   1.502   0.836   2.667
 2114SOL     OW 7240   1.312   4.364   0.260
 2114SOL    HW1 7241   1.232   4.355   0.320
 2114SOL    HW2 7242   1.371   4.284   0.271
 2115SOL     OW 7243   1.798   4.904   2.427
 2115SOL    HW1 7244   1.739   4.829   2.395
 2115SOL    HW2 7245   1.800   4.976   2.358
 2116SOL     OW 7246   0.122   3.624   3.495
 2116SOL    HW1 7247   0.213   3.595   3.466
 2116SOL    HW2 7248   0.130   3.696   3.564
 2117SOL     OW 7249   0.468   4.603   1.492
 2117SOL    HW1 7250   0.509   4.516   1.465
 2117SOL    HW2 7251   0.534   4.676   1.480
 2118SOL     OW 7252   0.162   3.703   2.555
 2118SOL    HW1 7253   0.118   3.782   2.512
 2118SOL    HW2 7254   0.159   3.713   2.655
 2119SOL     OW 7255   2.490   5.922   1.125
 2119SOL    HW1 7256   2.454   5.895   1.214
 2119SOL    HW2 7257   2.580   5.882   1.112
 2120SOL     OW 7258   6.610   4.882   1.569
 2120SOL    HW1 7259   6.589   4.813   1.500
 2120SOL    HW2 7260   6.698   4.925   1.548
 2121SOL     OW 7261   0.171   5.038   5.187
 2121SOL    HW1 7262   0.250   5.037   5.125
 2121SOL    HW2 7263   0.203   5.052   5.280
 2122SOL     OW 7264   5.116   4.513   4.741
 2122SOL    HW1 7265   5.096   4.498   4.838
 2122SOL    HW2 7266   5.043   4.567   4.699
 2123SOL     OW 7267   6.858   4.704   2.491
 2123SOL    HW1 7268   6.859   4.690   2.590
 2123SOL    HW2 7269   6.939   4.757   2.464
 2124SOL     OW 7270   2.177   1.983   1.550
 2124SOL    HW1 7271   2.095   1.937   1.583
 2124SOL    HW2 7272   2.242   1.915   1.513
 2125SOL     OW 7273   2.802   0.583   0.535
 2125SOL    HW1 7274   2.843   0.672   0.554
 2125SOL    HW2 7275   2.874   0.513   0.532
 2126SOL     OW 7276   2.845   1.073   6.807
 2126SOL    HW1 7277   2.792   1.120   6.878
 2126SOL    HW2 7278   2.942   1.076   6.829
 2127SOL     OW 7279   5.674   3.005   4.689
 2127SOL    HW1 7280   5.745   2.945   4.726
 2127SOL    HW2 7281   5.716   3.088   4.653
 2128SOL     OW 7282   0.637   4.288   5.022
 2128SOL    HW1 7283   0.700   4.359   4.992
 2128SOL    HW2 7284   0.669   4.250   5.109
 2129SOL     OW 7285   4.820   3.071   5.240
 2129SOL    HW1 7286   4.819   3.013   5.322
 2129SOL    HW2 7287   4.798   3.165   5.266
 2130SOL     OW 7288   4.826   7.014   2.425
 2130SOL    HW1 7289   4.912   0.037   2.448
 2130SOL    HW2 7290   4.750   0.055   2.439
 2131SOL     OW 7291   0.091   0.685   0.720
 2131SOL    HW1 7292   7.020   0.686   0.684
 2131SOL    HW2 7293   0.142   0.761   0.681
 2132SOL     OW 7294   2.810   2.916   0.739
 2132SOL    HW1 7295   2.770   2.887   0.653
 2132SOL    HW2 7296   2.902   2.877   0.748
 2133SOL     OW 7297   3.298   2.482   6.175
 2133SOL    HW1 7298   3.361   2.553   6.206
 2133SOL    HW2 7299   3.345   2.421   6.111
 2134SOL     OW 7300   0.057   1.535   1.167
 2134SOL    HW1 7301   0.006   1.453   1.142
 2134SOL    HW2 7302   0.148   1.532   1.128
 2135SOL     OW 7303   1.009   3.892   4.499
 2135SOL    HW1 7304   1.002   3.873   4.401
 2135SOL    HW2 7305   1.097   3.859   4.533
 2136SOL     OW 7306   2.010   5.550   1.817
 2136SOL    HW1 7307   2.039   5.638   1.854
 2136SOL    HW2 7308   1.929   5.517   1.866
 2137SOL     OW 7309   3.222   5.383   4.824
 2137SOL    HW1 7310   3.153   5.452   4.843
 2137SOL    HW2 7311   3.181   5.292   4.828
 2138SOL     OW 7312   5.943   1.237   2.756
 2138SOL    HW1 7313   5.901   1.285   2.833
 2138SOL    HW2 7314   5.892   1.258   2.672
 2139SOL     OW 7315   3.590   0.643   5.223
 2139SOL    HW1 7316   3.499   0.671   5.191
 2139SOL    HW2 7317   3.593   0.544   5.233
 2140SOL     OW 7318   2.652   1.224   4.925
 2140SOL    HW1 7319   2.647   1.125   4.937
 2140SOL    HW2 7320   2.747   1.255   4.935
 2141SOL     OW 7321   6.234   4.580   2.192
 2141SOL    HW1 7322   6.286   4.521   2.129
 2141SOL    HW2 7323   6.291   4.658   2.218
 2142SOL     OW 7324   1.743   2.602   3.513
 2142SOL    HW1 7325   1.719   2.698   3.501
 2142SOL    HW2 7326   1.663   2.545   3.496
 2143SOL     OW 7327   2.518   4.877   0.691
 2143SOL    HW1 7328   2.426   4.842   0.710
 2143SOL    HW2 7329   2.558   4.912   0.776
 2144SOL     OW 7330   6.614   5.825   3.986
 2144SOL    HW1 7331   6.667   5.769   3.923
 2144SOL    HW2 7332   6.642   5.805   4.080
 2145SOL     OW 7333   4.210   6.791   4.104
 2145SOL    HW1 7334   4.243   6.885   4.094
 2145SOL    HW2 7335   4.114   6.786   4.076
 2146SOL     OW 7336   2.379   2.783   1.028
 2146SOL    HW1 7337   2.329   2.865   1.057
 2146SOL    HW2 7338   2.467   2.809   0.990
 2147SOL     OW 7339   6.576   0.872   5.459
 2147SOL    HW1 7340   6.511   0.947   5.466
 2147SOL    HW2 7341   6.666   0.907   5.430
 2148SOL     OW 7342   0.145   3.471   6.651
 2148SOL    HW1 7343   0.102   3.383   6.631
 2148SOL    HW2 7344   0.226   3.482   6.593
 2149SOL     OW 7345   0.812   0.354   6.654
 2149SOL    HW1 7346   0.807   0.419   6.578
 2149SOL    HW2 7347   0.905   0.354   6.691
 2150SOL     OW 7348   2.462   2.823   1.807
 2150SOL    HW1 7349   2.386   2.888   1.803
 2150SOL    HW2 7350   2.430   2.738   1.849
 2151SOL     OW 7351   1.438   5.907   6.939
 2151SOL    HW1 7352   1.425   5.996   6.982
 2151SOL    HW2 7353   1.414   5.913   6.842
 2152SOL     OW 7354   4.257   6.204   2.773
 2152SOL    HW1 7355   4.173   6.257   2.762
 2152SOL    HW2 7356   4.260   6.166   2.866
 2153SOL     OW 7357   4.903   1.273   2.764
 2153SOL    HW1 7358   4.834   1.207   2.734
 2153SOL    HW2 7359   4.916   1.264   2.863
 2154SOL     OW 7360   3.169   6.382   3.513
 2154SOL    HW1 7361   3.266   6.406   3.513
 2154SOL    HW2 7362   3.159   6.285   3.491
 2155SOL     OW 7363   4.388   6.253   0.423
 2155SOL    HW1 7364   4.307   6.310   0.405
 2155SOL    HW2 7365   4.359   6.166   0.462
 2156SOL     OW 7366   5.411   1.653   4.359
 2156SOL    HW1 7367   5.348   1.723   4.324
 2156SOL    HW2 7368   5.409   1.653   4.459
 2157SOL     OW 7369   4.080   5.351   3.785
 2157SOL    HW1 7370   4.063   5.431   3.843
 2157SOL    HW2 7371   4.064   5.267   3.837
 2158SOL     OW 7372   3.357   0.483   0.558
 2158SOL    HW1 7373   3.387   0.391   0.533
 2158SOL    HW2 7374   3.277   0.478   0.618
 2159SOL     OW 7375   1.058   0.461   5.993
 2159SOL    HW1 7376   1.126   0.398   5.957
 2159SOL    HW2 7377   1.087   0.496   6.082
 2160SOL     OW 7378   4.999   6.171   0.439
 2160SOL    HW1 7379   4.944   6.240   0.486
 2160SOL    HW2 7380   5.082   6.214   0.403
 2161SOL     OW 7381   1.300   3.806   2.546
 2161SOL    HW1 7382   1.238   3.882   2.563
 2161SOL    HW2 7383   1.389   3.824   2.588
 2162SOL     OW 7384   1.565   6.721   2.998
 2162SOL    HW1 7385   1.477   6.710   2.951
 2162SOL    HW2 7386   1.550   6.722   3.097
 2163SOL     OW 7387   1.320   3.116   1.361
 2163SOL    HW1 7388   1.410   3.158   1.351
 2163SOL    HW2 7389   1.261   3.147   1.286
 2164SOL     OW 7390   1.983   2.960   1.638
 2164SOL    HW1 7391   2.018   3.030   1.575
 2164SOL    HW2 7392   2.025   2.872   1.617
 2165SOL     OW 7393   0.146   1.844   3.813
 2165SOL    HW1 7394   0.124   1.924   3.868
 2165SOL    HW2 7395   0.197   1.872   3.732
 2166SOL     OW 7396   0.399   4.503   3.485
 2166SOL    HW1 7397   0.371   4.583   3.540
 2166SOL    HW2 7398   0.384   4.420   3.539
 2167SOL     OW 7399   1.851   2.378   4.060
 2167SOL    HW1 7400   1.890   2.340   4.144
 2167SOL    HW2 7401   1.779   2.317   4.027
 2168SOL     OW 7402   1.381   1.959   3.212
 2168SOL    HW1 7403   1.373   2.054   3.242
 2168SOL    HW2 7404   1.441   1.909   3.275
 2169SOL     OW 7405   0.405   0.771   1.439
 2169SOL    HW1 7406   0.446   0.680   1.433
 2169SOL    HW2 7407   0.335   0.781   1.368
 2170SOL     OW 7408   0.898   3.851   5.636
 2170SOL    HW1 7409   0.920   3.841   5.733
 2170SOL    HW2 7410   0.799   3.867   5.626
 2171SOL     OW 7411   0.196   5.260   1.175
 2171SOL    HW1 7412   0.258   5.333   1.147
 2171SOL    HW2 7413   0.228   5.173   1.136
 2172SOL     OW 7414   6.869   1.896   4.477
 2172SOL    HW1 7415   6.877   1.812   4.531
 2172SOL    HW2 7416   6.774   1.926   4.475
 2173SOL     OW 7417   5.472   0.137   4.709
 2173SOL    HW1 7418   5.383   0.165   4.745
 2173SOL    HW2 7419   5.465   0.047   4.668
 2174SOL     OW 7420   0.193   5.887   4.936
 2174SOL    HW1 7421   0.188   5.955   5.009
 2174SOL    HW2 7422   0.101   5.874   4.897
 2175SOL     OW 7423   3.266   2.906   5.791
 2175SOL    HW1 7424   3.192   2.916   5.725
 2175SOL    HW2 7425   3.351   2.885   5.742
 2176SOL     OW 7426   5.402   2.751   0.904
 2176SOL    HW1 7427   5.349   2.691   0.964
 2176SOL    HW2 7428   5.418   2.838   0.950
 2177SOL     OW 7429   0.242   0.788   3.510
 2177SOL    HW1 7430   0.218   0.731   3.589
 2177SOL    HW2 7431   0.228   0.736   3.426
 2178SOL     OW 7432   0.709   1.658   2.250
 2178SOL    HW1 7433   0.650   1.607   2.313
 2178SOL    HW2 7434   0.775   1.712   2.303
 2179SOL     OW 7435   2.003   4.413   6.736
 2179SOL    HW1 7436   1.971   4.338   6.794
 2179SOL    HW2 7437   2.003   4.383   6.640
 2180SOL     OW 7438   1.098   4.496   2.009
 2180SOL    HW1 7439   1.184   4.476   2.057
 2180SOL    HW2 7440   1.045   4.412   2.000
 2181SOL     OW 7441   4.410   5.009   3.963
 2181SOL    HW1 7442   4.340   4.940   3.945
 2181SOL    HW2 7443   4.422   5.066   3.882
 2182SOL     OW 7444   0.894   5.468   3.136
 2182SOL    HW1 7445   0.940   5.467   3.224
 2182SOL    HW2 7446   0.894   5.561   3.100
 2183SOL     OW 7447   3.383   2.913   0.360
 2183SOL    HW1 7448   3.338   2.876   0.279
 2183SOL    HW2 7449   3.361   2.857   0.439
 2184SOL     OW 7450   6.599   0.270   0.111
 2184SOL    HW1 7451   6.642   0.229   0.191
 2184SOL    HW2 7452   6.516   0.219   0.087
 2185SOL     OW 7453   0.690   1.683   6.957
 2185SOL    HW1 7454   0.672   1.592   6.994
 2185SOL    HW2 7455   0.613   1.714   6.902
 2186SOL     OW 7456   6.888   5.648   4.714
 2186SOL    HW1 7457   6.840   5.641   4.626
 2186SOL    HW2 7458   6.985   5.627   4.700
 2187SOL     OW 7459   0.495   5.565   2.839
 2187SOL    HW1 7460   0.432   5.511   2.784
 2187SOL    HW2 7461   0.536   5.636   2.781
 2188SOL     OW 7462   1.893   6.759   0.473
 2188SOL    HW1 7463   1.920   6.838   0.528
 2188SOL    HW2 7464   1.898   6.782   0.376
 2189SOL     OW 7465   2.391   1.345   2.167
 2189SOL    HW1 7466   2.419   1.436   2.198
 2189SOL    HW2 7467   2.395   1.281   2.244
 2190SOL     OW 7468   6.831   4.155   2.360
 2190SOL    HW1 7469   6.853   4.244   2.400
 2190SOL    HW2 7470   6.859   4.154   2.264
 2191SOL     OW 7471   2.100   0.847   5.972
 2191SOL    HW1 7472   2.026   0.802   5.922
 2191SOL    HW2 7473   2.071   0.862   6.066
 2192SOL     OW 7474   4.989   0.920   2.065
 2192SOL    HW1 7475   5.057   0.910   2.138
 2192SOL    HW2 7476   4.987   1.015   2.035
 2193SOL     OW 7477   6.923   6.770   6.259
 2193SOL    HW1 7478   7.015   6.786   6.294
 2193SOL    HW2 7479   6.926   6.767   6.159
 2194SOL     OW 7480   0.834   4.366   5.630
 2194SOL    HW1 7481   0.888   4.428   5.573
 2194SOL    HW2 7482   0.893   4.322   5.697
 2195SOL     OW 7483   0.721   4.296   6.562
 2195SOL    HW1 7484   0.815   4.327   6.572
 2195SOL    HW2 7485   0.720   4.197   6.550
 2196SOL     OW 7486   2.441   6.095   5.639
 2196SOL    HW1 7487   2.522   6.090   5.581
 2196SOL    HW2 7488   2.453   6.036   5.719
 2197SOL     OW 7489   2.883   4.012   5.651
 2197SOL    HW1 7490   2.964   3.962   5.682
 2197SOL    HW2 7491   2.810   3.947   5.630
 2198SOL     OW 7492   0.616   6.896   6.267
 2198SOL    HW1 7493   0.656   6.838   6.338
 2198SOL    HW2 7494   0.660   6.986   6.269
 2199SOL     OW 7495   4.778   6.806   4.271
 2199SOL    HW1 7496   4.740   6.721   4.233
 2199SOL    HW2 7497   4.771   6.879   4.203
 2200SOL     OW 7498   2.828   0.988   4.549
 2200SOL    HW1 7499   2.852   0.932   4.470
 2200SOL    HW2 7500   2.739   0.960   4.585
 2201SOL     OW 7501   6.642   2.696   3.516
 2201SOL    HW1 7502   6.544   2.712   3.527
 2201SOL    HW2 7503   6.675   2.747   3.437
 2202SOL     OW 7504   3.612   4.874   2.438
 2202SOL    HW1 7505   3.515   4.891   2.420
 2202SOL    HW2 7506   3.631   4.888   2.535
 2203SOL     OW 7507   2.141   3.930   1.043
 2203SOL    HW1 7508   2.167   3.838   1.014
 2203SOL    HW2 7509   2.052   3.953   1.003
 2204SOL     OW 7510   4.453   2.936   0.962
 2204SOL    HW1 7511   4.423   2.857   0.910
 2204SOL    HW2 7512   4.432   3.020   0.911
 2205SOL     OW 7513   1.157   6.320   0.467
 2205SOL    HW1 7514   1.104   6.363   0.394
 2205SOL    HW2 7515   1.097   6.300   0.544
 2206SOL     OW 7516   2.281   3.155   6.255
 2206SOL    HW1 7517   2.271   3.220   6.331
 2206SOL    HW2 7518   2.215   3.081   6.267
 2207SOL     OW 7519   4.475   5.806   0.750
 2207SOL    HW1 7520   4.388   5.792   0.798
 2207SOL    HW2 7521   4.549   5.815   0.816
 2208SOL     OW 7522   0.929   5.728   3.825
 2208SOL    HW1 7523   1.022   5.720   3.862
 2208SOL    HW2 7524   0.933   5.714   3.726
 2209SOL     OW 7525   2.670   5.293   5.172
 2209SOL    HW1 7526   2.578   5.326   5.154
 2209SOL    HW2 7527   2.737   5.355   5.130
 2210SOL     OW 7528   5.925   6.034   1.261
 2210SOL    HW1 7529   6.017   5.999   1.280
 2210SOL    HW2 7530   5.863   6.006   1.334
 2211SOL     OW 7531   5.935   0.693   0.926
 2211SOL    HW1 7532   6.002   0.653   0.864
 2211SOL    HW2 7533   5.842   0.674   0.893
 2212SOL     OW 7534   2.512   6.196   6.585
 2212SOL    HW1 7535   2.454   6.232   6.659
 2212SOL    HW2 7536   2.520   6.097   6.594
 2213SOL     OW 7537   4.432   2.402   3.970
 2213SOL    HW1 7538   4.383   2.369   3.889
 2213SOL    HW2 7539   4.445   2.501   3.963
 2214SOL     OW 7540   4.256   2.767   5.942
 2214SOL    HW1 7541   4.178   2.712   5.971
 2214SOL    HW2 7542   4.225   2.858   5.914
 2215SOL     OW 7543   5.120   1.001   6.743
 2215SOL    HW1 7544   5.210   1.042   6.756
 2215SOL    HW2 7545   5.066   1.057   6.680
 2216SOL     OW 7546   0.770   5.615   6.501
 2216SOL    HW1 7547   0.732   5.602   6.409
 2216SOL    HW2 7548   0.846   5.552   6.516
 2217SOL     OW 7549   4.388   1.020   2.881
 2217SOL    HW1 7550   4.443   1.100   2.903
 2217SOL    HW2 7551   4.387   0.957   2.959
 2218SOL     OW 7552   0.471   4.978   6.589
 2218SOL    HW1 7553   0.466   4.880   6.606
 2218SOL    HW2 7554   0.444   5.028   6.671
 2219SOL     OW 7555   5.650   1.175   0.642
 2219SOL    HW1 7556   5.693   1.246   0.698
 2219SOL    HW2 7557   5.688   1.086   0.666
 2220SOL     OW 7558   1.652   6.537   5.550
 2220SOL    HW1 7559   1.657   6.447   5.593
 2220SOL    HW2 7560   1.744   6.574   5.540
 2221SOL     OW 7561   6.642   1.184   4.739
 2221SOL    HW1 7562   6.645   1.282   4.721
 2221SOL    HW2 7563   6.580   1.166   4.815
 2222SOL     OW 7564   6.040   6.653   0.555
 2222SOL    HW1 7565   6.048   6.752   0.556
 2222SOL    HW2 7566   6.100   6.614   0.486
 2223SOL     OW 7567   6.604   0.477   5.715
 2223SOL    HW1 7568   6.529   0.493   5.779
 2223SOL    HW2 7569   6.648   0.564   5.693
 2224SOL     OW 7570   5.849   4.222   1.835
 2224SOL    HW1 7571   5.806   4.200   1.922
 2224SOL    HW2 7572   5.784   4.268   1.775
 2225SOL     OW 7573   0.699   6.479   3.880
 2225SOL    HW1 7574   0.790   6.489   3.840
 2225SOL    HW2 7575   0.656   6.569   3.887
 2226SOL     OW 7576   3.219   5.042   0.577
 2226SOL    HW1 7577   3.229   4.994   0.664
 2226SOL    HW2 7578   3.297   5.103   0.563
 2227SOL     OW 7579   4.220   2.507   1.516
 2227SOL    HW1 7580   4.132   2.478   1.478
 2227SOL    HW2 7581   4.294   2.462   1.466
 2228SOL     OW 7582   4.524   5.210   0.222
 2228SOL    HW1 7583   4.474   5.236   0.305
 2228SOL    HW2 7584   4.462   5.210   0.144
 2229SOL     OW 7585   3.207   3.545   4.651
 2229SOL    HW1 7586   3.250   3.458   4.675
 2229SOL    HW2 7587   3.226   3.566   4.555
 2230SOL     OW 7588   5.128   6.269   1.059
 2230SOL    HW1 7589   5.045   6.241   1.011
 2230SOL    HW2 7590   5.109   6.352   1.112
 2231SOL     OW 7591   0.375   1.062   6.570
 2231SOL    HW1 7592   0.424   0.975   6.579
 2231SOL    HW2 7593   0.342   1.092   6.659
 2232SOL     OW 7594   1.421   0.397   5.569
 2232SOL    HW1 7595   1.412   0.420   5.471
 2232SOL    HW2 7596   1.503   0.443   5.605
 2233SOL     OW 7597   3.265   3.682   0.932
 2233SOL    HW1 7598   3.355   3.652   0.899
 2233SOL    HW2 7599   3.207   3.705   0.853
 2234SOL     OW 7600   3.859   1.604   0.764
 2234SOL    HW1 7601   3.914   1.619   0.682
 2234SOL    HW2 7602   3.890   1.665   0.837
 2235SOL     OW 7603   2.615   0.510   2.638
 2235SOL    HW1 7604   2.552   0.438   2.609
 2235SOL    HW2 7605   2.607   0.523   2.737
 2236SOL     OW 7606   1.776   3.966   5.995
 2236SOL    HW1 7607   1.819   3.903   5.930
 2236SOL    HW2 7608   1.721   3.914   6.061
 2237SOL     OW 7609   6.020   5.265   5.265
 2237SOL    HW1 7610   5.996   5.308   5.178
 2237SOL    HW2 7611   6.098   5.314   5.305
 2238SOL     OW 7612   4.495   4.868   2.814
 2238SOL    HW1 7613   4.567   4.869   2.883
 2238SOL    HW2 7614   4.439   4.786   2.826
 2239SOL     OW 7615   3.562   6.358   3.838
 2239SOL    HW1 7616   3.478   6.376   3.890
 2239SOL    HW2 7617   3.554   6.269   3.793
 2240SOL     OW 7618   4.085   5.540   2.578
 2240SOL    HW1 7619   4.075   5.587   2.491
 2240SOL    HW2 7620   4.084   5.441   2.564
 2241SOL     OW 7621   6.854   6.844   1.852
 2241SOL    HW1 7622   6.803   6.834   1.938
 2241SOL    HW2 7623   6.891   6.755   1.825
 2242SOL     OW 7624   5.334   3.393   2.932
 2242SOL    HW1 7625   5.284   3.338   2.999
 2242SOL    HW2 7626   5.279   3.404   2.850
 2243SOL     OW 7627   2.668   6.143   6.946
 2243SOL    HW1 7628   2.572   6.167   6.937
 2243SOL    HW2 7629   2.717   6.166   6.862
 2244SOL     OW 7630   2.840   0.461   1.450
 2244SOL    HW1 7631   2.783   0.522   1.396
 2244SOL    HW2 7632   2.797   0.444   1.538
 2245SOL     OW 7633   0.620   1.564   0.762
 2245SOL    HW1 7634   0.698   1.538   0.705
 2245SOL    HW2 7635   0.544   1.592   0.702
 2246SOL     OW 7636   2.046   0.618   4.305
 2246SOL    HW1 7637   2.062   0.703   4.355
 2246SOL    HW2 7638   1.957   0.624   4.258
 2247SOL     OW 7639   3.396   4.041   2.490
 2247SOL    HW1 7640   3.358   4.102   2.420
 2247SOL    HW2 7641   3.457   3.974   2.446
 2248SOL     OW 7642   6.123   4.265   4.600
 2248SOL    HW1 7643   6.049   4.299   4.542
 2248SOL    HW2 7644   6.207   4.257   4.546
 2249SOL     OW 7645   3.051   6.613   3.436
 2249SOL    HW1 7646   3.124   6.674   3.467
 2249SOL    HW2 7647   3.063   6.523   3.479
 2250SOL     OW 7648   3.553   4.036   5.485
 2250SOL    HW1 7649   3.553   3.939   5.459
 2250SOL    HW2 7650   3.517   4.091   5.411
 2251SOL     OW 7651   5.283   6.681   6.438
 2251SOL    HW1 7652   5.210   6.613   6.428
 2251SOL    HW2 7653   5.259   6.763   6.387
 2252SOL     OW 7654   5.810   1.381   2.969
 2252SOL    HW1 7655   5.815   1.413   3.064
 2252SOL    HW2 7656   5.800   1.460   2.908
 2253SOL     OW 7657   0.747   3.019   0.318
 2253SOL    HW1 7658   0.773   3.095   0.377
 2253SOL    HW2 7659   0.808   2.941   0.336
 2254SOL     OW 7660   3.552   4.092   2.727
 2254SOL    HW1 7661   3.477   4.107   2.662
 2254SOL    HW2 7662   3.639   4.105   2.680
 2255SOL     OW 7663   2.895   4.098   5.399
 2255SOL    HW1 7664   2.985   4.111   5.357
 2255SOL    HW2 7665   2.906   4.071   5.495
 2256SOL     OW 7666   4.710   6.255   2.457
 2256SOL    HW1 7667   4.692   6.347   2.421
 2256SOL    HW2 7668   4.659   6.242   2.542
 2257SOL     OW 7669   0.775   1.743   4.312
 2257SOL    HW1 7670   0.730   1.827   4.281
 2257SOL    HW2 7671   0.753   1.669   4.248
 2258SOL     OW 7672   2.122   6.506   4.964
 2258SOL    HW1 7673   2.183   6.430   4.939
 2258SOL    HW2 7674   2.082   6.489   5.054
 2259SOL     OW 7675   6.242   2.203   4.529
 2259SOL    HW1 7676   6.230   2.208   4.629
 2259SOL    HW2 7677   6.164   2.157   4.488
 2260SOL     OW 7678   1.063   3.416   1.202
 2260SOL    HW1 7679   1.140   3.474   1.229
 2260SOL    HW2 7680   1.097   3.331   1.164
 2261SOL     OW 7681   6.588   4.076   0.677
 2261SOL    HW1 7682   6.679   4.112   0.700
 2261SOL    HW2 7683   6.597   4.002   0.610
 2262SOL     OW 7684   6.585   0.575   3.762
 2262SOL    HW1 7685   6.504   0.524   3.732
 2262SOL    HW2 7686   6.573   0.603   3.858
 2263SOL     OW 7687   1.248   5.363   0.574
 2263SOL    HW1 7688   1.315   5.289   0.566
 2263SOL    HW2 7689   1.156   5.324   0.576
 2264SOL     OW 7690   2.861   6.868   6.840
 2264SOL    HW1 7691   2.913   6.837   6.761
 2264SOL    HW2 7692   2.864   6.967   6.846
 2265SOL     OW 7693   1.550   0.314   4.215
 2265SOL    HW1 7694   1.589   0.401   4.182
 2265SOL    HW2 7695   1.526   0.256   4.137
 2266SOL     OW 7696   5.365   1.002   6.054
 2266SOL    HW1 7697   5.291   1.058   6.017
 2266SOL    HW2 7698   5.452   1.052   6.047
 2267SOL     OW 7699   4.535   2.639   4.832
 2267SOL    HW1 7700   4.615   2.696   4.818
 2267SOL    HW2 7701   4.459   2.695   4.866
 2268SOL     OW 7702   5.775   4.041   6.871
 2268SOL    HW1 7703   5.831   3.997   6.941
 2268SOL    HW2 7704   5.758   3.976   6.797
 2269SOL     OW 7705   0.229   3.174   5.671
 2269SOL    HW1 7706   0.195   3.098   5.614
 2269SOL    HW2 7707   0.323   3.195   5.646
 2270SOL     OW 7708   4.363   3.096   6.125
 2270SOL    HW1 7709   4.387   3.190   6.101
 2270SOL    HW2 7710   4.273   3.073   6.087
 2271SOL     OW 7711   5.698   4.438   0.431
 2271SOL    HW1 7712   5.671   4.374   0.359
 2271SOL    HW2 7713   5.638   4.518   0.428
 2272SOL     OW 7714   6.747   1.262   6.410
 2272SOL    HW1 7715   6.679   1.190   6.428
 2272SOL    HW2 7716   6.783   1.252   6.318
 2273SOL     OW 7717   2.092   2.259   1.829
 2273SOL    HW1 7718   2.178   2.212   1.850
 2273SOL    HW2 7719   2.027   2.195   1.788
 2274SOL     OW 7720   0.491   1.832   6.815
 2274SOL    HW1 7721   0.405   1.795   6.781
 2274SOL    HW2 7722   0.541   1.873   6.739
 2275SOL     OW 7723   6.072   5.403   2.260
 2275SOL    HW1 7724   6.005   5.470   2.229
 2275SOL    HW2 7725   6.153   5.450   2.295
 2276SOL     OW 7726   1.648   6.989   1.469
 2276SOL    HW1 7727   1.554   6.976   1.502
 2276SOL    HW2 7728   1.645   0.017   1.383
 2277SOL     OW 7729   3.601   3.585   4.027
 2277SOL    HW1 7730   3.615   3.500   4.078
 2277SOL    HW2 7731   3.560   3.653   4.087
 2278SOL     OW 7732   0.057   2.900   4.264
 2278SOL    HW1 7733   0.065   2.873   4.360
 2278SOL    HW2 7734   6.983   2.915   4.242
 2279SOL     OW 7735   6.466   5.765   5.700
 2279SOL    HW1 7736   6.419   5.786   5.615
 2279SOL    HW2 7737   6.545   5.706   5.681
 2280SOL     OW 7738   5.962   0.549   5.333
 2280SOL    HW1 7739   5.886   0.559   5.267
 2280SOL    HW2 7740   5.925   0.548   5.426
 2281SOL     OW 7741   4.170   0.231   2.516
 2281SOL    HW1 7742   4.201   0.267   2.604
 2281SOL    HW2 7743   4.071   0.217   2.518
 2282SOL     OW 7744   4.795   5.854   5.209
 2282SOL    HW1 7745   4.713   5.872   5.263
 2282SOL    HW2 7746   4.847   5.781   5.252
 2283SOL     OW 7747   1.501   0.392   2.933
 2283SOL    HW1 7748   1.497   0.381   3.033
 2283SOL    HW2 7749   1.582   0.445   2.909
 2284SOL     OW 7750   0.503   3.094   5.641
 2284SOL    HW1 7751   0.551   3.101   5.729
 2284SOL    HW2 7752   0.564   3.053   5.573
 2285SOL     OW 7753   1.444   4.017   6.319
 2285SOL    HW1 7754   1.393   3.942   6.277
 2285SOL    HW2 7755   1.406   4.105   6.289
 2286SOL     OW 7756   5.127   6.718   2.756
 2286SOL    HW1 7757   5.194   6.745   2.687
 2286SOL    HW2 7758   5.035   6.737   2.721
 2287SOL     OW 7759   2.715   1.583   3.587
 2287SOL    HW1 7760   2.625   1.589   3.544
 2287SOL    HW2 7761   2.754   1.492   3.573
 2288SOL     OW 7762   0.598   5.024   4.004
 2288SOL    HW1 7763   0.556   4.972   4.078
 2288SOL    HW2 7764   0.686   4.983   3.980
 2289SOL     OW 7765   7.004   4.565   1.280
 2289SOL    HW1 7766   0.058   4.542   1.339
 2289SOL    HW2 7767   6.923   4.585   1.336
 2290SOL     OW 7768   0.938   3.903   1.084
 2290SOL    HW1 7769   1.013   3.917   1.020
 2290SOL    HW2 7770   0.910   3.991   1.122
 2291SOL     OW 7771   3.189   1.849   5.850
 2291SOL    HW1 7772   3.276   1.838   5.898
 2291SOL    HW2 7773   3.122   1.890   5.912
 2292SOL     OW 7774   1.110   1.107   5.031
 2292SOL    HW1 7775   1.011   1.116   5.042
 2292SOL    HW2 7776   1.151   1.079   5.118
 2293SOL     OW 7777   5.370   5.777   1.410
 2293SOL    HW1 7778   5.458   5.816   1.382
 2293SOL    HW2 7779   5.350   5.697   1.353
 2294SOL     OW 7780   3.578   0.085   0.432
 2294SOL    HW1 7781   3.591   0.024   0.354
 2294SOL    HW2 7782   3.600   0.036   0.516
 2295SOL     OW 7783   0.382   1.871   2.590
 2295SOL    HW1 7784   0.374   1.831   2.499
 2295SOL    HW2 7785   0.350   1.806   2.659
 2296SOL     OW 7786   3.294   0.361   0.851
 2296SOL    HW1 7787   3.359   0.319   0.788
 2296SOL    HW2 7788   3.323   0.344   0.945
 2297SOL     OW 7789   4.065   4.191   5.649
 2297SOL    HW1 7790   3.974   4.198   5.609
 2297SOL    HW2 7791   4.101   4.282   5.668
 2298SOL     OW 7792   3.900   2.478   1.027
 2298SOL    HW1 7793   3.840   2.400   1.048
 2298SOL    HW2 7794   3.897   2.543   1.103
 2299SOL     OW 7795   5.209   6.707   6.908
 2299SOL    HW1 7796   5.299   6.675   6.940
 2299SOL    HW2 7797   5.222   6.775   6.836
 2300SOL     OW 7798   1.431   5.181   1.330
 2300SOL    HW1 7799   1.351   5.210   1.384
 2300SOL    HW2 7800   1.513   5.224   1.367
 2301SOL     OW 7801   2.970   3.207   3.003
 2301SOL    HW1 7802   3.016   3.187   3.090
 2301SOL    HW2 7803   3.001   3.296   2.969
 2302SOL     OW 7804   4.139   6.437   2.639
 2302SOL    HW1 7805   4.110   6.528   2.669
 2302SOL    HW2 7806   4.232   6.442   2.602
 2303SOL     OW 7807   1.194   3.262   5.461
 2303SOL    HW1 7808   1.293   3.243   5.465
 2303SOL    HW2 7809   1.168   3.316   5.541
 2304SOL     OW 7810   2.740   0.199   3.609
 2304SOL    HW1 7811   2.758   0.294   3.582
 2304SOL    HW2 7812   2.753   0.139   3.530
 2305SOL     OW 7813   3.990   5.414   3.020
 2305SOL    HW1 7814   3.897   5.428   3.053
 2305SOL    HW2 7815   4.044   5.367   3.090
 2306SOL     OW 7816   1.970   4.711   1.537
 2306SOL    HW1 7817   2.006   4.803   1.549
 2306SOL    HW2 7818   2.006   4.652   1.610
 2307SOL     OW 7819   2.016   4.250   2.831
 2307SOL    HW1 7820   2.087   4.274   2.897
 2307SOL    HW2 7821   2.020   4.313   2.754
 2308SOL     OW 7822   0.627   0.752   6.513
 2308SOL    HW1 7823   0.586   0.788   6.429
 2308SOL    HW2 7824   0.627   0.822   6.584
 2309SOL     OW 7825   2.859   5.953   6.730
 2309SOL    HW1 7826   2.874   6.034   6.786
 2309SOL    HW2 7827   2.947   5.915   6.701
 2310SOL     OW 7828   6.594   6.517   1.429
 2310SOL    HW1 7829   6.565   6.435   1.380
 2310SOL    HW2 7830   6.614   6.590   1.364
 2311SOL     OW 7831   2.471   6.800   2.814
 2311SOL    HW1 7832   2.464   6.889   2.770
 2311SOL    HW2 7833   2.496   6.731   2.746
 2312SOL     OW 7834   2.652   6.810   3.303
 2312SOL    HW1 7835   2.583   6.824   3.232
 2312SOL    HW2 7836   2.725   6.752   3.267
 2313SOL     OW 7837   4.728   5.055   1.882
 2313SOL    HW1 7838   4.753   5.054   1.979
 2313SOL    HW2 7839   4.663   4.981   1.863
 2314SOL     OW 7840   6.345   0.454   3.414
 2314SOL    HW1 7841   6.352   0.554   3.410
 2314SOL    HW2 7842   6.376   0.423   3.504
 2315SOL     OW 7843   4.928   3.458   5.713
 2315SOL    HW1 7844   4.965   3.533   5.768
 2315SOL    HW2 7845   4.878   3.495   5.635
 2316SOL     OW 7846   2.565   1.202   5.803
 2316SOL    HW1 7847   2.507   1.139   5.751
 2316SOL    HW2 7848   2.525   1.216   5.894
 2317SOL     OW 7849   6.633   6.659   4.158
 2317SOL    HW1 7850   6.595   6.636   4.247
 2317SOL    HW2 7851   6.649   6.575   4.106
 2318SOL     OW 7852   2.121   3.640   4.460
 2318SOL    HW1 7853   2.148   3.544   4.467
 2318SOL    HW2 7854   2.128   3.683   4.550
 2319SOL     OW 7855   3.515   5.117   4.642
 2319SOL    HW1 7856   3.613   5.104   4.625
 2319SOL    HW2 7857   3.464   5.092   4.560
 2320SOL     OW 7858   1.169   2.523   5.847
 2320SOL    HW1 7859   1.239   2.569   5.901
 2320SOL    HW2 7860   1.099   2.589   5.819
 2321SOL     OW 7861   2.896   5.367   6.249
 2321SOL    HW1 7862   2.902   5.453   6.198
 2321SOL    HW2 7863   2.864   5.294   6.189
 2322SOL     OW 7864   1.956   4.483   2.181
 2322SOL    HW1 7865   1.924   4.390   2.197
 2322SOL    HW2 7866   2.044   4.497   2.226
 2323SOL     OW 7867   3.286   4.869   2.059
 2323SOL    HW1 7868   3.341   4.795   2.020
 2323SOL    HW2 7869   3.194   4.835   2.080
 2324SOL     OW 7870   0.147   6.061   1.345
 2324SOL    HW1 7871   0.192   5.974   1.324
 2324SOL    HW2 7872   0.060   6.043   1.390
 2325SOL     OW 7873   6.981   4.798   1.584
 2325SOL    HW1 7874   7.009   4.795   1.680
 2325SOL    HW2 7875   6.942   4.887   1.563
 2326SOL     OW 7876   1.982   5.983   6.531
 2326SOL    HW1 7877   1.923   6.051   6.575
 2326SOL    HW2 7878   2.062   6.028   6.493
 2327SOL     OW 7879   0.227   1.087   3.212
 2327SOL    HW1 7880   0.268   1.114   3.299
 2327SOL    HW2 7881   0.290   1.027   3.163
 2328SOL     OW 7882   1.458   2.103   2.500
 2328SOL    HW1 7883   1.498   2.194   2.493
 2328SOL    HW2 7884   1.477   2.051   2.417
 2329SOL     OW 7885   1.176   4.098   4.712
 2329SOL    HW1 7886   1.098   4.148   4.674
 2329SOL    HW2 7887   1.258   4.153   4.703
 2330SOL     OW 7888   0.287   2.758   0.271
 2330SOL    HW1 7889   0.323   2.844   0.306
 2330SOL    HW2 7890   0.219   2.722   0.335
 2331SOL     OW 7891   2.944   5.312   6.764
 2331SOL    HW1 7892   3.030   5.361   6.779
 2331SOL    HW2 7893   2.879   5.373   6.720
 2332SOL     OW 7894   6.591   0.047   5.974
 2332SOL    HW1 7895   6.679   7.022   5.974
 2332SOL    HW2 7896   6.603   0.139   6.012
 2333SOL     OW 7897   6.997   4.945   3.151
 2333SOL    HW1 7898   6.983   5.028   3.098
 2333SOL    HW2 7899   7.007   4.968   3.248
 2334SOL     OW 7900   1.247   1.675   6.527
 2334SOL    HW1 7901   1.336   1.672   6.481
 2334SOL    HW2 7902   1.201   1.762   6.507
 2335SOL     OW 7903   6.027   0.596   4.028
 2335SOL    HW1 7904   5.956   0.548   3.976
 2335SOL    HW2 7905   6.109   0.604   3.972
 2336SOL     OW 7906   2.944   1.681   3.908
 2336SOL    HW1 7907   3.042   1.703   3.904
 2336SOL    HW2 7908   2.933   1.583   3.923
 2337SOL     OW 7909   4.295   1.266   1.874
 2337SOL    HW1 7910   4.260   1.313   1.956
 2337SOL    HW2 7911   4.276   1.168   1.882
 2338SOL     OW 7912   0.631   3.127   4.375
 2338SOL    HW1 7913   0.669   3.210   4.417
 2338SOL    HW2 7914   0.656   3.048   4.431
 2339SOL     OW 7915   2.982   3.418   3.239
 2339SOL    HW1 7916   2.933   3.420   3.152
 2339SOL    HW2 7917   3.020   3.327   3.254
 2340SOL     OW 7918   0.286   4.770   0.002
 2340SOL    HW1 7919   0.330   4.706   0.065
 2340SOL    HW2 7920   0.342   4.782   6.943
 2341SOL     OW 7921   2.972   5.093   2.162
 2341SOL    HW1 7922   3.003   5.004   2.129
 2341SOL    HW2 7923   2.948   5.150   2.084
 2342SOL     OW 7924   1.776   6.979   4.941
 2342SOL    HW1 7925   1.817   0.048   4.944
 2342SOL    HW2 7926   1.816   6.927   4.866
 2343SOL     OW 7927   2.125   5.537   2.774
 2343SOL    HW1 7928   2.065   5.595   2.719
 2343SOL    HW2 7929   2.074   5.455   2.802
 2344SOL     OW 7930   0.023   6.084   6.530
 2344SOL    HW1 7931   0.043   6.021   6.605
 2344SOL    HW2 7932   6.999   6.165   6.566
 2345SOL     OW 7933   2.628   5.358   4.791
 2345SOL    HW1 7934   2.619   5.291   4.865
 2345SOL    HW2 7935   2.586   5.445   4.819
 2346SOL     OW 7936   3.906   3.352   5.852
 2346SOL    HW1 7937   3.883   3.266   5.897
 2346SOL    HW2 7938   3.873   3.429   5.907
 2347SOL     OW 7939   2.216   1.762   1.385
 2347SOL    HW1 7940   2.213   1.795   1.290
 2347SOL    HW2 7941   2.287   1.692   1.393
 2348SOL     OW 7942   1.856   6.295   4.086
 2348SOL    HW1 7943   1.876   6.199   4.067
 2348SOL    HW2 7944   1.883   6.351   4.007
 2349SOL     OW 7945   0.958   4.540   6.205
 2349SOL    HW1 7946   0.893   4.582   6.268
 2349SOL    HW2 7947   0.940   4.572   6.112
 2350SOL     OW 7948   5.984   5.093   6.097
 2350SOL    HW1 7949   6.063   5.034   6.082
 2350SOL    HW2 7950   5.995   5.177   6.042
 2351SOL     OW 7951   3.369   5.307   4.032
 2351SOL    HW1 7952   3.327   5.230   3.985
 2351SOL    HW2 7953   3.468   5.307   4.016
 2352SOL     OW 7954   0.333   2.970   2.811
 2352SOL    HW1 7955   0.298   3.023   2.888
 2352SOL    HW2 7956   0.258   2.939   2.754
 2353SOL     OW 7957   3.790   5.115   4.612
 2353SOL    HW1 7958   3.860   5.104   4.683
 2353SOL    HW2 7959   3.796   5.038   4.547
 2354SOL     OW 7960   2.093   2.098   4.476
 2354SOL    HW1 7961   2.053   2.008   4.460
 2354SOL    HW2 7962   2.192   2.091   4.477
 2355SOL     OW 7963   2.239   6.868   6.103
 2355SOL    HW1 7964   2.293   6.911   6.175
 2355SOL    HW2 7965   2.292   6.866   6.018
 2356SOL     OW 7966   1.480   2.839   6.111
 2356SOL    HW1 7967   1.497   2.819   6.207
 2356SOL    HW2 7968   1.435   2.928   6.103
 2357SOL     OW 7969   4.453   1.232   2.150
 2357SOL    HW1 7970   4.491   1.316   2.188
 2357SOL    HW2 7971   4.389   1.192   2.215
 2358SOL     OW 7972   3.007   5.388   5.467
 2358SOL    HW1 7973   2.926   5.334   5.487
 2358SOL    HW2 7974   3.055   5.349   5.388
 2359SOL     OW 7975   0.092   0.650   6.046
 2359SOL    HW1 7976   7.019   0.620   6.053
 2359SOL    HW2 7977   0.149   0.571   6.022
 2360SOL     OW 7978   6.195   3.678   0.191
 2360SOL    HW1 7979   6.098   3.694   0.205
 2360SOL    HW2 7980   6.231   3.743   0.124
 2361SOL     OW 7981   2.578   0.684   6.813
 2361SOL    HW1 7982   2.519   0.607   6.837
 2361SOL    HW2 7983   2.660   0.682   6.870
 2362SOL     OW 7984   2.556   5.788   4.395
 2362SOL    HW1 7985   2.531   5.815   4.302
 2362SOL    HW2 7986   2.635   5.726   4.392
 2363SOL     OW 7987   3.578   2.060   4.665
 2363SOL    HW1 7988   3.604   1.964   4.679
 2363SOL    HW2 7989   3.527   2.092   4.745
 2364SOL     OW 7990   1.394   2.604   2.524
 2364SOL    HW1 7991   1.319   2.621   2.460
 2364SOL    HW2 7992   1.424   2.691   2.564
 2365SOL     OW 7993   6.627   2.308   6.635
 2365SOL    HW1 7994   6.548   2.268   6.681
 2365SOL    HW2 7995   6.610   2.405   6.619
 2366SOL     OW 7996   2.115   5.754   7.012
 2366SOL    HW1 7997   2.209   5.788   7.014
 2366SOL    HW2 7998   2.052   5.830   6.997
 2367SOL     OW 7999   2.217   3.322   1.156
 2367SOL    HW1 8000   2.196   3.369   1.242
 2367SOL    HW2 8001   2.145   3.340   1.089
 2368SOL     OW 8002   5.361   6.691   4.717
 2368SOL    HW1 8003   5.282   6.697   4.778
 2368SOL    HW2 8004   5.441   6.729   4.762
 2369SOL     OW 8005   1.622   0.112   4.698
 2369SOL    HW1 8006   1.555   0.174   4.657
 2369SOL    HW2 8007   1.592   0.017   4.684
 2370SOL     OW 8008   5.659   3.279   6.977
 2370SOL    HW1 8009   5.626   3.363   6.934
 2370SOL    HW2 8010   5.594   3.248   0.023
 2371SOL     OW 8011   1.874   0.082   1.592
 2371SOL    HW1 8012   1.834   0.161   1.637
 2371SOL    HW2 8013   1.806   0.038   1.534
 2372SOL     OW 8014   6.606   2.821   2.231
 2372SOL    HW1 8015   6.589   2.882   2.309
 2372SOL    HW2 8016   6.561   2.858   2.150
 2373SOL     OW 8017   0.888   3.116   5.867
 2373SOL    HW1 8018   0.916   3.131   5.962
 2373SOL    HW2 8019   0.960   3.149   5.805
 2374SOL     OW 8020   6.121   1.593   4.378
 2374SOL    HW1 8021   6.124   1.653   4.297
 2374SOL    HW2 8022   6.098   1.500   4.350
 2375SOL     OW 8023   3.447   6.131   5.526
 2375SOL    HW1 8024   3.456   6.218   5.573
 2375SOL    HW2 8025   3.425   6.059   5.591
 2376SOL     OW 8026   6.729   3.191   4.111
 2376SOL    HW1 8027   6.630   3.207   4.110
 2376SOL    HW2 8028   6.773   3.263   4.164
 2377SOL     OW 8029   3.478   3.834   3.859
 2377SOL    HW1 8030   3.518   3.801   3.773
 2377SOL    HW2 8031   3.385   3.796   3.868
 2378SOL     OW 8032   4.998   2.126   0.048
 2378SOL    HW1 8033   4.909   2.167   0.031
 2378SOL    HW2 8034   5.032   2.157   0.137
 2379SOL     OW 8035   6.844   0.757   0.653
 2379SOL    HW1 8036   6.780   0.832   0.637
 2379SOL    HW2 8037   6.899   0.742   0.570
 2380SOL     OW 8038   0.164   2.023   6.821
 2380SOL    HW1 8039   0.218   2.069   6.892
 2380SOL    HW2 8040   0.179   2.068   6.733
 2381SOL     OW 8041   2.630   5.593   4.100
 2381SOL    HW1 8042   2.586   5.652   4.033
 2381SOL    HW2 8043   2.564   5.567   4.171
 2382SOL     OW 8044   1.895   3.671   4.307
 2382SOL    HW1 8045   1.848   3.690   4.393
 2382SOL    HW2 8046   1.989   3.643   4.326
 2383SOL     OW 8047   5.626   6.759   0.849
 2383SOL    HW1 8048   5.535   6.777   0.812
 2383SOL    HW2 8049   5.681   6.712   0.781
 2384SOL     OW 8050   5.680   0.929   2.956
 2384SOL    HW1 8051   5.630   1.015   2.967
 2384SOL    HW2 8052   5.773   0.947   2.926
 2385SOL     OW 8053   0.463   0.842   0.530
 2385SOL    HW1 8054   0.371   0.881   0.533
 2385SOL    HW2 8055   0.467   0.772   0.459
 2386SOL     OW 8056   5.242   5.799   4.923
 2386SOL    HW1 8057   5.277   5.869   4.860
 2386SOL    HW2 8058   5.152   5.769   4.893
 2387SOL     OW 8059   2.022   1.968   4.167
 2387SOL    HW1 8060   1.966   1.886   4.154
 2387SOL    HW2 8061   2.018   2.025   4.085
 2388SOL     OW 8062   6.863   2.156   3.823
 2388SOL    HW1 8063   6.798   2.081   3.837
 2388SOL    HW2 8064   6.908   2.177   3.910
 2389SOL     OW 8065   4.539   4.527   3.385
 2389SOL    HW1 8066   4.629   4.489   3.406
 2389SOL    HW2 8067   4.468   4.468   3.425
 2390SOL     OW 8068   3.649   3.146   3.992
 2390SOL    HW1 8069   3.730   3.095   4.021
 2390SOL    HW2 8070   3.664   3.182   3.899
 2391SOL     OW 8071   5.291   3.988   5.839
 2391SOL    HW1 8072   5.245   3.913   5.886
 2391SOL    HW2 8073   5.277   4.073   5.891
 2392SOL     OW 8074   3.475   6.354   5.678
 2392SOL    HW1 8075   3.379   6.373   5.700
 2392SOL    HW2 8076   3.519   6.312   5.757
 2393SOL     OW 8077   5.089   3.846   5.981
 2393SOL    HW1 8078   5.145   3.831   6.062
 2393SOL    HW2 8079   5.000   3.800   5.992
 2394SOL     OW 8080   0.916   3.802   5.005
 2394SOL    HW1 8081   0.987   3.866   4.975
 2394SOL    HW2 8082   0.958   3.712   5.021
 2395SOL     OW 8083   4.877   0.130   5.730
 2395SOL    HW1 8084   4.950   0.154   5.793
 2395SOL    HW2 8085   4.807   0.202   5.731
 2396SOL     OW 8086   3.792   4.919   0.888
 2396SOL    HW1 8087   3.827   4.918   0.981
 2396SOL    HW2 8088   3.692   4.913   0.890
 2397SOL     OW 8089   6.962   3.841   5.358
 2397SOL    HW1 8090   6.992   3.779   5.432
 2397SOL    HW2 8091   6.882   3.802   5.314
 2398SOL     OW 8092   4.582   4.249   6.439
 2398SOL    HW1 8093   4.584   4.305   6.356
 2398SOL    HW2 8094   4.492   4.258   6.483
 2399SOL     OW 8095   4.605   0.699   1.210
 2399SOL    HW1 8096   4.651   0.734   1.292
 2399SOL    HW2 8097   4.599   0.772   1.142
 2400SOL     OW 8098   2.884   4.397   1.233
 2400SOL    HW1 8099   2.788   4.411   1.255
 2400SOL    HW2 8100   2.935   4.482   1.249
 2401SOL     OW 8101   5.241   6.172   0.313
 2401SOL    HW1 8102   5.300   6.253   0.312
 2401SOL    HW2 8103   5.285   6.098   0.263
 2402SOL     OW 8104   0.424   0.262   3.807
 2402SOL    HW1 8105   0.513   0.282   3.766
 2402SOL    HW2 8106   0.434   0.188   3.874
 2403SOL     OW 8107   1.971   2.092   6.111
 2403SOL    HW1 8108   1.906   2.032   6.065
 2403SOL    HW2 8109   1.972   2.181   6.065
 2404SOL     OW 8110   2.710   0.598   1.249
 2404SOL    HW1 8111   2.641   0.650   1.200
 2404SOL    HW2 8112   2.798   0.604   1.200
 2405SOL     OW 8113   3.506   3.498   2.307
 2405SOL    HW1 8114   3.588   3.550   2.331
 2405SOL    HW2 8115   3.457   3.543   2.233
 2406SOL     OW 8116   3.573   0.106   1.563
 2406SOL    HW1 8117   3.663   0.151   1.565
 2406SOL    HW2 8118   3.579   0.024   1.506
 2407SOL     OW 8119   5.984   1.644   3.094
 2407SOL    HW1 8120   5.930   1.597   3.163
 2407SOL    HW2 8121   6.047   1.579   3.051
 2408SOL     OW 8122   4.529   4.468   2.668
 2408SOL    HW1 8123   4.579   4.509   2.744
 2408SOL    HW2 8124   4.577   4.386   2.637
 2409SOL     OW 8125   2.124   4.846   2.132
 2409SOL    HW1 8126   2.095   4.930   2.087
 2409SOL    HW2 8127   2.215   4.821   2.100
 2410SOL     OW 8128   4.025   3.076   5.209
 2410SOL    HW1 8129   4.006   2.988   5.254
 2410SOL    HW2 8130   4.070   3.137   5.273
 2411SOL     OW 8131   4.927   6.202   4.376
 2411SOL    HW1 8132   4.981   6.162   4.303
 2411SOL    HW2 8133   4.955   6.297   4.390
 2412SOL     OW 8134   5.976   4.363   1.635
 2412SOL    HW1 8135   5.943   4.302   1.708
 2412SOL    HW2 8136   5.936   4.334   1.548
 2413SOL     OW 8137   6.694   0.971   0.976
 2413SOL    HW1 8138   6.611   1.007   1.018
 2413SOL    HW2 8139   6.735   0.902   1.035
 2414SOL     OW 8140   4.798   4.002   3.235
 2414SOL    HW1 8141   4.891   4.035   3.219
 2414SOL    HW2 8142   4.801   3.905   3.260
 2415SOL     OW 8143   6.255   1.656   3.245
 2415SOL    HW1 8144   6.212   1.606   3.170
 2415SOL    HW2 8145   6.345   1.617   3.265
 2416SOL     OW 8146   4.609   2.200   5.105
 2416SOL    HW1 8147   4.694   2.161   5.142
 2416SOL    HW2 8148   4.564   2.132   5.047
 2417SOL     OW 8149   3.513   3.849   4.748
 2417SOL    HW1 8150   3.602   3.830   4.789
 2417SOL    HW2 8151   3.507   3.803   4.659
 2418SOL     OW 8152   4.090   3.244   4.594
 2418SOL    HW1 8153   4.088   3.279   4.688
 2418SOL    HW2 8154   4.155   3.299   4.541
 2419SOL     OW 8155   0.347   6.607   3.972
 2419SOL    HW1 8156   0.321   6.520   3.929
 2419SOL    HW2 8157   0.286   6.679   3.940
 2420SOL     OW 8158   3.037   0.596   3.238
 2420SOL    HW1 8159   2.969   0.557   3.176
 2420SOL    HW2 8160   3.084   0.672   3.194
 2421SOL     OW 8161   2.144   2.477   4.952
 2421SOL    HW1 8162   2.190   2.433   4.876
 2421SOL    HW2 8163   2.054   2.509   4.922
 2422SOL     OW 8164   5.159   1.893   0.333
 2422SOL    HW1 8165   5.059   1.886   0.337
 2422SOL    HW2 8166   5.190   1.864   0.242
 2423SOL     OW 8167   1.663   6.333   2.160
 2423SOL    HW1 8168   1.695   6.398   2.092
 2423SOL    HW2 8169   1.735   6.265   2.176
 2424SOL     OW 8170   6.522   6.935   0.068
 2424SOL    HW1 8171   6.577   6.893   7.018
 2424SOL    HW2 8172   6.555   6.904   0.157
 2425SOL     OW 8173   5.863   0.449   3.890
 2425SOL    HW1 8174   5.932   0.379   3.874
 2425SOL    HW2 8175   5.783   0.430   3.833
 2426SOL     OW 8176   1.446   5.390   5.519
 2426SOL    HW1 8177   1.488   5.416   5.433
 2426SOL    HW2 8178   1.494   5.312   5.558
 2427SOL     OW 8179   5.644   5.795   5.686
 2427SOL    HW1 8180   5.736   5.808   5.724
 2427SOL    HW2 8181   5.646   5.813   5.588
 2428SOL     OW 8182   0.155   0.652   1.865
 2428SOL    HW1 8183   0.157   0.632   1.767
 2428SOL    HW2 8184   0.170   0.750   1.879
 2429SOL     OW 8185   5.619   5.707   1.838
 2429SOL    HW1 8186   5.688   5.780   1.830
 2429SOL    HW2 8187   5.573   5.696   1.750
 2430SOL     OW 8188   6.027   1.177   1.787
 2430SOL    HW1 8189   6.051   1.259   1.735
 2430SOL    HW2 8190   5.932   1.183   1.816
 2431SOL     OW 8191   4.132   1.032   2.417
 2431SOL    HW1 8192   4.171   1.000   2.503
 2431SOL    HW2 8193   4.180   1.115   2.387
 2432SOL     OW 8194   4.217   6.776   2.159
 2432SOL    HW1 8195   4.207   6.750   2.255
 2432SOL    HW2 8196   4.145   6.841   2.133
 2433SOL     OW 8197   4.460   1.655   0.347
 2433SOL    HW1 8198   4.550   1.628   0.313
 2433SOL    HW2 8199   4.405   1.690   0.272
 2434SOL     OW 8200   4.118   1.169   5.937
 2434SOL    HW1 8201   4.113   1.251   5.880
 2434SOL    HW2 8202   4.100   1.088   5.881
 2435SOL     OW 8203   4.896   5.659   5.353
 2435SOL    HW1 8204   4.897   5.633   5.450
 2435SOL    HW2 8205   4.938   5.587   5.298
 2436SOL     OW 8206   1.895   5.970   6.285
 2436SOL    HW1 8207   1.914   5.962   6.383
 2436SOL    HW2 8208   1.975   5.941   6.233
 2437SOL     OW 8209   5.802   6.624   6.111
 2437SOL    HW1 8210   5.760   6.626   6.020
 2437SOL    HW2 8211   5.762   6.550   6.165
 2438SOL     OW 8212   3.240   2.306   0.750
 2438SOL    HW1 8213   3.230   2.387   0.808
 2438SOL    HW2 8214   3.337   2.280   0.746
 2439SOL     OW 8215   0.053   3.912   6.369
 2439SOL    HW1 8216   7.011   3.870   6.305
 2439SOL    HW2 8217   0.004   3.947   6.448
 2440SOL     OW 8218   4.902   5.527   5.596
 2440SOL    HW1 8219   4.957   5.512   5.679
 2440SOL    HW2 8220   4.817   5.574   5.620
 2441SOL     OW 8221   0.071   2.283   0.671
 2441SOL    HW1 8222   0.078   2.283   0.770
 2441SOL    HW2 8223   6.999   2.265   0.644
 2442SOL     OW 8224   1.225   3.681   5.314
 2442SOL    HW1 8225   1.265   3.738   5.242
 2442SOL    HW2 8226   1.280   3.598   5.325
 2443SOL     OW 8227   2.667   3.981   6.348
 2443SOL    HW1 8228   2.568   3.997   6.349
 2443SOL    HW2 8229   2.698   3.971   6.253
 2444SOL     OW 8230   2.105   4.371   5.620
 2444SOL    HW1 8231   2.179   4.312   5.588
 2444SOL    HW2 8232   2.088   4.355   5.717
 2445SOL     OW 8233   0.045   1.173   0.668
 2445SOL    HW1 8234   7.006   1.150   0.743
 2445SOL    HW2 8235   0.110   1.243   0.698
 2446SOL     OW 8236   5.940   4.018   4.597
 2446SOL    HW1 8237   5.935   3.957   4.519
 2446SOL    HW2 8238   5.983   3.970   4.674
 2447SOL     OW 8239   1.820   2.111   0.162
 2447SOL    HW1 8240   1.760   2.168   0.106
 2447SOL    HW2 8241   1.799   2.015   0.145
 2448SOL     OW 8242   0.310   0.430   4.596
 2448SOL    HW1 8243   0.283   0.338   4.623
 2448SOL    HW2 8244   0.352   0.428   4.506
 2449SOL     OW 8245   0.262   3.743   0.038
 2449SOL    HW1 8246   0.222   3.833   0.023
 2449SOL    HW2 8247   0.191   3.681   0.072
 2450SOL     OW 8248   2.756   4.686   2.803
 2450SOL    HW1 8249   2.740   4.676   2.705
 2450SOL    HW2 8250   2.670   4.676   2.852
 2451SOL     OW 8251   1.779   6.596   3.951
 2451SOL    HW1 8252   1.836   6.524   3.913
 2451SOL    HW2 8253   1.778   6.674   3.888
 2452SOL     OW 8254   0.934   2.910   2.568
 2452SOL    HW1 8255   0.862   2.845   2.547
 2452SOL    HW2 8256   0.897   2.986   2.622
 2453SOL     OW 8257   6.681   4.855   1.845
 2453SOL    HW1 8258   6.684   4.760   1.875
 2453SOL    HW2 8259   6.637   4.860   1.755
 2454SOL     OW 8260   3.294   0.347   1.898
 2454SOL    HW1 8261   3.299   0.306   1.807
 2454SOL    HW2 8262   3.222   0.417   1.898
 2455SOL     OW 8263   5.201   5.810   0.872
 2455SOL    HW1 8264   5.204   5.760   0.959
 2455SOL    HW2 8265   5.293   5.813   0.832
 2456SOL     OW 8266   4.840   6.320   2.009
 2456SOL    HW1 8267   4.888   6.239   2.043
 2456SOL    HW2 8268   4.803   6.301   1.918
 2457SOL     OW 8269   5.356   0.058   1.469
 2457SOL    HW1 8270   5.359   0.157   1.460
 2457SOL    HW2 8271   5.338   0.016   1.380
 2458SOL     OW 8272   1.860   5.618   2.600
 2458SOL    HW1 8273   1.901   5.535   2.560
 2458SOL    HW2 8274   1.761   5.618   2.582
 2459SOL     OW 8275   2.419   0.551   0.956
 2459SOL    HW1 8276   2.423   0.464   0.908
 2459SOL    HW2 8277   2.459   0.623   0.899
 2460SOL     OW 8278   3.280   5.777   1.680
 2460SOL    HW1 8279   3.274   5.775   1.580
 2460SOL    HW2 8280   3.334   5.699   1.712
 2461SOL     OW 8281   5.822   0.624   1.702
 2461SOL    HW1 8282   5.741   0.635   1.758
 2461SOL    HW2 8283   5.804   0.659   1.610
 2462SOL     OW 8284   2.467   5.332   6.576
 2462SOL    HW1 8285   2.560   5.366   6.590
 2462SOL    HW2 8286   2.424   5.314   6.665
 2463SOL     OW 8287   6.380   1.908   3.327
 2463SOL    HW1 8288   6.310   1.846   3.363
 2463SOL    HW2 8289   6.453   1.854   3.284
 2464SOL     OW 8290   0.931   3.130   0.962
 2464SOL    HW1 8291   0.901   3.047   1.010
 2464SOL    HW2 8292   0.868   3.204   0.983
 2465SOL     OW 8293   0.049   6.110   2.914
 2465SOL    HW1 8294   0.093   6.120   2.825
 2465SOL    HW2 8295   0.062   6.194   2.967
 2466SOL     OW 8296   3.898   1.707   2.207
 2466SOL    HW1 8297   3.824   1.751   2.257
 2466SOL    HW2 8298   3.945   1.775   2.151
 2467SOL     OW 8299   6.894   0.954   6.042
 2467SOL    HW1 8300   6.900   0.964   5.943
 2467SOL    HW2 8301   6.799   0.935   6.068
 2468SOL     OW 8302   6.804   5.644   1.124
 2468SOL    HW1 8303   6.872   5.703   1.081
 2468SOL    HW2 8304   6.776   5.573   1.059
 2469SOL     OW 8305   2.450   3.104   5.636
 2469SOL    HW1 8306   2.392   3.156   5.698
 2469SOL    HW2 8307   2.435   3.136   5.542
 2470SOL     OW 8308   4.844   3.279   6.921
 2470SOL    HW1 8309   4.811   3.305   7.012
 2470SOL    HW2 8310   4.904   3.200   6.928
 2471SOL     OW 8311   0.572   6.901   2.952
 2471SOL    HW1 8312   0.544   6.856   3.036
 2471SOL    HW2 8313   0.513   6.873   2.877
 2472SOL     OW 8314   5.300   2.198   4.250
 2472SOL    HW1 8315   5.391   2.228   4.222
 2472SOL    HW2 8316   5.264   2.134   4.182
 2473SOL     OW 8317   0.969   6.204   4.997
 2473SOL    HW1 8318   0.956   6.156   4.910
 2473SOL    HW2 8319   0.938   6.146   5.072
 2474SOL     OW 8320   6.631   4.331   5.520
 2474SOL    HW1 8321   6.607   4.397   5.449
 2474SOL    HW2 8322   6.638   4.240   5.479
 2475SOL     OW 8323   4.887   2.500   0.052
 2475SOL    HW1 8324   4.800   2.525   0.095
 2475SOL    HW2 8325   4.952   2.576   0.061
 2476SOL     OW 8326   1.151   2.130   3.897
 2476SOL    HW1 8327   1.234   2.083   3.869
 2476SOL    HW2 8328   1.084   2.063   3.928
 2477SOL     OW 8329   4.924   5.035   1.158
 2477SOL    HW1 8330   4.972   5.119   1.134
 2477SOL    HW2 8331   4.897   5.038   1.254
 2478SOL     OW 8332   6.291   0.024   2.954
 2478SOL    HW1 8333   6.353   6.998   2.893
 2478SOL    HW2 8334   6.215   6.986   2.980
 2479SOL     OW 8335   0.329   3.065   0.534
 2479SOL    HW1 8336   0.353   2.984   0.587
 2479SOL    HW2 8337   0.250   3.110   0.575
 2480SOL     OW 8338   0.616   3.465   1.446
 2480SOL    HW1 8339   0.587   3.525   1.372
 2480SOL    HW2 8340   0.713   3.444   1.436
 2481SOL     OW 8341   4.361   4.997   1.990
 2481SOL    HW1 8342   4.430   4.966   1.924
 2481SOL    HW2 8343   4.270   4.987   1.950
 2482SOL     OW 8344   4.657   2.803   5.246
 2482SOL    HW1 8345   4.721   2.847   5.182
 2482SOL    HW2 8346   4.647   2.707   5.222
 2483SOL     OW 8347   0.969   2.124   6.618
 2483SOL    HW1 8348   1.019   2.128   6.705
 2483SOL    HW2 8349   0.872   2.108   6.637
 2484SOL     OW 8350   3.369   2.027   6.870
 2484SOL    HW1 8351   3.335   1.933   6.861
 2484SOL    HW2 8352   3.319   2.074   6.943
 2485SOL     OW 8353   0.264   5.509   2.087
 2485SOL    HW1 8354   0.283   5.412   2.103
 2485SOL    HW2 8355   0.240   5.523   1.991
 2486SOL     OW 8356   1.490   5.378   3.172
 2486SOL    HW1 8357   1.423   5.432   3.222
 2486SOL    HW2 8358   1.547   5.327   3.236
 2487SOL     OW 8359   3.594   0.658   0.953
 2487SOL    HW1 8360   3.534   0.662   0.873
 2487SOL    HW2 8361   3.571   0.732   1.017
 2488SOL     OW 8362   3.114   5.774   1.055
 2488SOL    HW1 8363   3.198   5.789   1.004
 2488SOL    HW2 8364   3.124   5.693   1.113
 2489SOL     OW 8365   0.850   5.687   4.398
 2489SOL    HW1 8366   0.919   5.679   4.470
 2489SOL    HW2 8367   0.788   5.763   4.420
 2490SOL     OW 8368   5.291   3.278   1.407
 2490SOL    HW1 8369   5.273   3.205   1.341
 2490SOL    HW2 8370   5.239   3.359   1.382
 2491SOL     OW 8371   2.680   5.157   2.107
 2491SOL    HW1 8372   2.714   5.120   2.020
 2491SOL    HW2 8373   2.715   5.249   2.120
 2492SOL     OW 8374   4.579   3.222   6.348
 2492SOL    HW1 8375   4.527   3.156   6.294
 2492SOL    HW2 8376   4.620   3.290   6.287
 2493SOL     OW 8377   6.422   1.610   3.564
 2493SOL    HW1 8378   6.330   1.600   3.601
 2493SOL    HW2 8379   6.435   1.544   3.490
 2494SOL     OW 8380   4.871   3.424   2.309
 2494SOL    HW1 8381   4.848   3.328   2.293
 2494SOL    HW2 8382   4.816   3.481   2.247
 2495SOL     OW 8383   5.501   1.057   4.773
 2495SOL    HW1 8384   5.499   1.133   4.707
 2495SOL    HW2 8385   5.588   1.009   4.765
 2496SOL     OW 8386   1.403   6.356   0.591
 2496SOL    HW1 8387   1.478   6.321   0.534
 2496SOL    HW2 8388   1.325   6.378   0.532
 2497SOL     OW 8389   5.992   1.890   6.283
 2497SOL    HW1 8390   5.937   1.936   6.214
 2497SOL    HW2 8391   6.020   1.956   6.353
 2498SOL     OW 8392   2.185   3.541   5.142
 2498SOL    HW1 8393   2.218   3.476   5.073
 2498SOL    HW2 8394   2.161   3.627   5.099
 2499SOL     OW 8395   6.174   0.427   5.031
 2499SOL    HW1 8396   6.129   0.347   5.069
 2499SOL    HW2 8397   6.200   0.489   5.105
 2500SOL     OW 8398   4.373   3.277   6.739
 2500SOL    HW1 8399   4.309   3.317   6.673
 2500SOL    HW2 8400   4.396   3.184   6.710
 2501SOL     OW 8401   0.151   3.998   6.996
 2501SOL    HW1 8402   0.171   4.064   6.924
 2501SOL    HW2 8403   0.152   4.044   0.063
 2502SOL     OW 8404   1.846   6.301   3.318
 2502SOL    HW1 8405   1.874   6.264   3.230
 2502SOL    HW2 8406   1.772   6.367   3.305
 2503SOL     OW 8407   4.373   4.946   5.071
 2503SOL    HW1 8408   4.360   4.969   5.167
 2503SOL    HW2 8409   4.470   4.942   5.050
 2504SOL     OW 8410   1.391   4.319   4.095
 2504SOL    HW1 8411   1.359   4.294   4.003
 2504SOL    HW2 8412   1.357   4.252   4.161
 2505SOL     OW 8413   4.751   5.645   4.218
 2505SOL    HW1 8414   4.719   5.653   4.123
 2505SOL    HW2 8415   4.768   5.549   4.239
 2506SOL     OW 8416   0.223   2.179   6.606
 2506SOL    HW1 8417   0.255   2.256   6.662
 2506SOL    HW2 8418   0.206   2.211   6.513
 2507SOL     OW 8419   6.930   5.878   0.263
 2507SOL    HW1 8420   6.960   5.810   0.197
 2507SOL    HW2 8421   6.856   5.841   0.319
 2508SOL     OW 8422   2.498   2.569   2.702
 2508SOL    HW1 8423   2.477   2.583   2.799
 2508SOL    HW2 8424   2.565   2.496   2.693
 2509SOL     OW 8425   4.939   2.866   3.540
 2509SOL    HW1 8426   4.941   2.961   3.511
 2509SOL    HW2 8427   4.908   2.860   3.635
 2510SOL     OW 8428   4.016   5.667   0.655
 2510SOL    HW1 8429   3.969   5.740   0.605
 2510SOL    HW2 8430   4.109   5.657   0.619
 2511SOL     OW 8431   1.842   0.261   4.841
 2511SOL    HW1 8432   1.761   0.234   4.788
 2511SOL    HW2 8433   1.919   0.202   4.815
 2512SOL     OW 8434   5.058   3.267   4.819
 2512SOL    HW1 8435   5.027   3.303   4.907
 2512SOL    HW2 8436   5.067   3.342   4.754
 2513SOL     OW 8437   0.793   3.277   0.432
 2513SOL    HW1 8438   0.763   3.342   0.362
 2513SOL    HW2 8439   0.816   3.327   0.516
 2514SOL     OW 8440   1.859   0.992   3.638
 2514SOL    HW1 8441   1.943   0.961   3.594
 2514SOL    HW2 8442   1.798   1.032   3.569
 2515SOL     OW 8443   0.744   5.490   0.348
 2515SOL    HW1 8444   0.726   5.534   0.436
 2515SOL    HW2 8445   0.799   5.551   0.292
 2516SOL     OW 8446   5.219   6.279   4.036
 2516SOL    HW1 8447   5.150   6.208   4.029
 2516SOL    HW2 8448   5.176   6.369   4.027
 2517SOL     OW 8449   2.162   4.806   0.232
 2517SOL    HW1 8450   2.194   4.803   0.138
 2517SOL    HW2 8451   2.099   4.729   0.248
 2518SOL     OW 8452   2.393   2.176   6.632
 2518SOL    HW1 8453   2.447   2.260   6.635
 2518SOL    HW2 8454   2.396   2.132   6.722
 2519SOL     OW 8455   4.903   3.959   4.769
 2519SOL    HW1 8456   4.945   3.902   4.840
 2519SOL    HW2 8457   4.942   4.051   4.773
 2520SOL     OW 8458   2.205   4.543   2.271
 2520SOL    HW1 8459   2.253   4.593   2.199
 2520SOL    HW2 8460   2.271   4.508   2.337
 2521SOL     OW 8461   5.437   6.562   5.100
 2521SOL    HW1 8462   5.383   6.635   5.142
 2521SOL    HW2 8463   5.396   6.536   5.013
 2522SOL     OW 8464   1.392   2.783   4.615
 2522SOL    HW1 8465   1.360   2.861   4.562
 2522SOL    HW2 8466   1.474   2.744   4.573
 2523SOL     OW 8467   0.424   3.136   6.622
 2523SOL    HW1 8468   0.409   3.173   6.714
 2523SOL    HW2 8469   0.483   3.198   6.570
 2524SOL     OW 8470   0.685   0.176   4.624
 2524SOL    HW1 8471   0.674   0.272   4.650
 2524SOL    HW2 8472   0.783   0.157   4.612
 2525SOL     OW 8473   1.279   3.596   3.346
 2525SOL    HW1 8474   1.345   3.528   3.313
 2525SOL    HW2 8475   1.188   3.573   3.313
 2526SOL     OW 8476   6.605   1.043   5.214
 2526SOL    HW1 8477   6.544   1.005   5.145
 2526SOL    HW2 8478   6.555   1.056   5.299
 2527SOL     OW 8479   5.758   6.581   3.953
 2527SOL    HW1 8480   5.734   6.487   3.980
 2527SOL    HW2 8481   5.680   6.641   3.969
 2528SOL     OW 8482   6.377   5.577   0.130
 2528SOL    HW1 8483   6.305   5.623   0.078
 2528SOL    HW2 8484   6.337   5.516   0.198
 2529SOL     OW 8485   4.950   3.780   4.559
 2529SOL    HW1 8486   4.942   3.840   4.638
 2529SOL    HW2 8487   4.950   3.685   4.589
 2530SOL     OW 8488   0.071   0.919   4.397
 2530SOL    HW1 8489   0.020   1.006   4.404
 2530SOL    HW2 8490   0.166   0.935   4.424
 2531SOL     OW 8491   4.345   1.816   6.242
 2531SOL    HW1 8492   4.340   1.718   6.223
 2531SOL    HW2 8493   4.319   1.833   6.337
 2532SOL     OW 8494   1.772   4.717   6.596
 2532SOL    HW1 8495   1.805   4.660   6.521
 2532SOL    HW2 8496   1.672   4.718   6.596
 2533SOL     OW 8497   6.031   6.591   5.734
 2533SOL    HW1 8498   6.055   6.562   5.641
 2533SOL    HW2 8499   6.113   6.624   5.781
 2534SOL     OW 8500   0.840   2.323   3.807
 2534SOL    HW1 8501   0.805   2.260   3.876
 2534SOL    HW2 8502   0.927   2.361   3.837
 2535SOL     OW 8503   1.870   0.973   3.135
 2535SOL    HW1 8504   1.846   1.070   3.141
 2535SOL    HW2 8505   1.797   0.918   3.174
 2536SOL     OW 8506   5.899   1.015   3.947
 2536SOL    HW1 8507   5.814   0.978   3.908
 2536SOL    HW2 8508   5.879   1.103   3.991
 2537SOL     OW 8509   4.505   5.396   1.252
 2537SOL    HW1 8510   4.604   5.403   1.258
 2537SOL    HW2 8511   4.468   5.478   1.210
 2538SOL     OW 8512   2.465   4.622   4.817
 2538SOL    HW1 8513   2.463   4.522   4.820
 2538SOL    HW2 8514   2.374   4.659   4.833
 2539SOL     OW 8515   2.998   0.285   5.189
 2539SOL    HW1 8516   3.055   0.363   5.164
 2539SOL    HW2 8517   3.054   0.216   5.234
 2540SOL     OW 8518   5.743   2.222   2.295
 2540SOL    HW1 8519   5.814   2.284   2.264
 2540SOL    HW2 8520   5.703   2.257   2.380
 2541SOL     OW 8521   0.812   6.309   6.000
 2541SOL    HW1 8522   0.747   6.271   5.934
 2541SOL    HW2 8523   0.823   6.407   5.984
 2542SOL     OW 8524   3.777   2.113   4.186
 2542SOL    HW1 8525   3.745   2.100   4.280
 2542SOL    HW2 8526   3.840   2.191   4.183
 2543SOL     OW 8527   0.507   1.911   3.972
 2543SOL    HW1 8528   0.467   1.966   4.045
 2543SOL    HW2 8529   0.486   1.953   3.883
 2544SOL     OW 8530   6.064   5.890   1.785
 2544SOL    HW1 8531   6.001   5.817   1.758
 2544SOL    HW2 8532   6.146   5.885   1.729
 2545SOL     OW 8533   0.139   1.870   1.594
 2545SOL    HW1 8534   0.041   1.883   1.578
 2545SOL    HW2 8535   0.180   1.827   1.513
 2546SOL     OW 8536   0.038   4.457   2.760
 2546SOL    HW1 8537   7.020   4.548   2.770
 2546SOL    HW2 8538   0.054   4.418   2.851
 2547SOL     OW 8539   5.792   3.607   0.999
 2547SOL    HW1 8540   5.886   3.590   0.972
 2547SOL    HW2 8541   5.774   3.560   1.086
 2548SOL     OW 8542   7.017   6.618   5.458
 2548SOL    HW1 8543   6.984   6.617   5.552
 2548SOL    HW2 8544   0.077   6.674   5.452
 2549SOL     OW 8545   2.530   2.358   0.585
 2549SOL    HW1 8546   2.520   2.308   0.671
 2549SOL    HW2 8547   2.579   2.301   0.519
 2550SOL     OW 8548   4.051   6.690   6.003
 2550SOL    HW1 8549   4.083   6.687   6.098
 2550SOL    HW2 8550   3.952   6.707   6.002
 2551SOL     OW 8551   3.622   5.127   0.353
 2551SOL    HW1 8552   3.687   5.198   0.327
 2551SOL    HW2 8553   3.639   5.101   0.449
 2552SOL     OW 8554   2.508   6.187   1.056
 2552SOL    HW1 8555   2.491   6.089   1.068
 2552SOL    HW2 8556   2.445   6.239   1.114
 2553SOL     OW 8557   4.715   1.121   6.818
 2553SOL    HW1 8558   4.733   1.219   6.811
 2553SOL    HW2 8559   4.687   1.086   6.729
 2554SOL     OW 8560   1.811   6.142   1.612
 2554SOL    HW1 8561   1.858   6.148   1.524
 2554SOL    HW2 8562   1.740   6.213   1.617
 2555SOL     OW 8563   5.329   6.222   5.078
 2555SOL    HW1 8564   5.240   6.264   5.098
 2555SOL    HW2 8565   5.315   6.128   5.049
 2556SOL     OW 8566   4.024   0.566   0.898
 2556SOL    HW1 8567   4.121   0.547   0.882
 2556SOL    HW2 8568   4.015   0.643   0.961
 2557SOL     OW 8569   3.240   0.310   6.911
 2557SOL    HW1 8570   3.194   0.365   6.981
 2557SOL    HW2 8571   3.224   0.213   6.929
 2558SOL     OW 8572   5.633   3.849   6.433
 2558SOL    HW1 8573   5.602   3.936   6.395
 2558SOL    HW2 8574   5.688   3.800   6.365
 2559SOL     OW 8575   0.890   4.413   4.950
 2559SOL    HW1 8576   0.904   4.321   4.986
 2559SOL    HW2 8577   0.979   4.455   4.930
 2560SOL     OW 8578   5.161   2.339   3.019
 2560SOL    HW1 8579   5.214   2.383   3.092
 2560SOL    HW2 8580   5.104   2.408   2.973
 2561SOL     OW 8581   3.414   0.521   4.213
 2561SOL    HW1 8582   3.404   0.600   4.153
 2561SOL    HW2 8583   3.501   0.476   4.194
 2562SOL     OW 8584   3.919   6.789   3.422
 2562SOL    HW1 8585   4.015   6.817   3.416
 2562SOL    HW2 8586   3.865   6.841   3.355
 2563SOL     OW 8587   3.544   1.305   0.034
 2563SOL    HW1 8588   3.635   1.344   0.026
 2563SOL    HW2 8589   3.545   1.210   0.003
 2564SOL     OW 8590   1.970   1.688   0.607
 2564SOL    HW1 8591   1.911   1.608   0.612
 2564SOL    HW2 8592   1.982   1.726   0.698
 2565SOL     OW 8593   1.400   2.067   0.004
 2565SOL    HW1 8594   1.354   2.145   0.046
 2565SOL    HW2 8595   1.462   2.025   0.070
 2566SOL     OW 8596   2.501   0.766   1.142
 2566SOL    HW1 8597   2.455   0.692   1.093
 2566SOL    HW2 8598   2.525   0.839   1.078
 2567SOL     OW 8599   1.956   0.318   0.477
 2567SOL    HW1 8600   1.956   0.294   0.380
 2567SOL    HW2 8601   1.879   0.275   0.523
 2568SOL     OW 8602   2.993   6.329   1.008
 2568SOL    HW1 8603   3.013   6.270   0.929
 2568SOL    HW2 8604   3.062   6.401   1.014
 2569SOL     OW 8605   0.917   0.214   1.316
 2569SOL    HW1 8606   0.872   0.139   1.364
 2569SOL    HW2 8607   0.991   0.177   1.259
 2570SOL     OW 8608   6.269   6.692   5.855
 2570SOL    HW1 8609   6.297   6.742   5.773
 2570SOL    HW2 8610   6.251   6.756   5.929
 2571SOL     OW 8611   3.650   3.335   4.435
 2571SOL    HW1 8612   3.645   3.322   4.336
 2571SOL    HW2 8613   3.740   3.372   4.458
 2572SOL     OW 8614   1.836   6.753   1.940
 2572SOL    HW1 8615   1.902   6.733   1.867
 2572SOL    HW2 8616   1.799   6.845   1.927
 2573SOL     OW 8617   0.112   2.420   4.313
 2573SOL    HW1 8618   0.090   2.325   4.333
 2573SOL    HW2 8619   0.029   2.475   4.316
 2574SOL     OW 8620   0.805   3.588   1.818
 2574SOL    HW1 8621   0.873   3.621   1.751
 2574SOL    HW2 8622   0.775   3.664   1.875
 2575SOL     OW 8623   6.471   3.883   0.182
 2575SOL    HW1 8624   6.496   3.787   0.177
 2575SOL    HW2 8625   6.424   3.909   0.097
 2576SOL     OW 8626   1.655   7.013   3.615
 2576SOL    HW1 8627   1.712   0.003   3.534
 2576SOL    HW2 8628   1.594   0.070   3.626
 2577SOL     OW 8629   2.212   6.375   2.342
 2577SOL    HW1 8630   2.274   6.331   2.276
 2577SOL    HW2 8631   2.213   6.474   2.327
 2578SOL     OW 8632   4.834   2.308   4.266
 2578SOL    HW1 8633   4.801   2.252   4.342
 2578SOL    HW2 8634   4.929   2.334   4.283
 2579SOL     OW 8635   6.820   2.519   6.486
 2579SOL    HW1 8636   6.892   2.450   6.488
 2579SOL    HW2 8637   6.747   2.494   6.549
 2580SOL     OW 8638   1.703   2.532   6.216
 2580SOL    HW1 8639   1.732   2.510   6.123
 2580SOL    HW2 8640   1.625   2.475   6.241
 2581SOL     OW 8641   6.351   6.687   3.705
 2581SOL    HW1 8642   6.277   6.726   3.760
 2581SOL    HW2 8643   6.432   6.746   3.711
 2582SOL     OW 8644   0.816   5.352   2.492
 2582SOL    HW1 8645   0.787   5.372   2.585
 2582SOL    HW2 8646   0.916   5.355   2.487
 2583SOL     OW 8647   1.719   0.202   0.508
 2583SOL    HW1 8648   1.645   0.269   0.510
 2583SOL    HW2 8649   1.715   0.145   0.590
 2584SOL     OW 8650   4.446   6.893   2.026
 2584SOL    HW1 8651   4.482   6.979   2.063
 2584SOL    HW2 8652   4.365   6.866   2.078
 2585SOL     OW 8653   3.991   0.734   1.517
 2585SOL    HW1 8654   4.036   0.722   1.605
 2585SOL    HW2 8655   3.900   0.774   1.532
 2586SOL     OW 8656   6.567   2.392   3.988
 2586SOL    HW1 8657   6.578   2.293   3.994
 2586SOL    HW2 8658   6.591   2.424   3.896
 2587SOL     OW 8659   5.693   6.263   3.203
 2587SOL    HW1 8660   5.675   6.225   3.294
 2587SOL    HW2 8661   5.788   6.243   3.178
 2588SOL     OW 8662   5.565   1.219   1.189
 2588SOL    HW1 8663   5.591   1.192   1.096
 2588SOL    HW2 8664   5.522   1.309   1.187
 2589SOL     OW 8665   6.734   6.572   6.707
 2589SOL    HW1 8666   6.797   6.635   6.663
 2589SOL    HW2 8667   6.656   6.555   6.646
 2590SOL     OW 8668   4.235   7.022   2.425
 2590SOL    HW1 8669   4.327   7.003   2.459
 2590SOL    HW2 8670   4.202   0.086   2.463
 2591SOL     OW 8671   5.678   6.667   1.279
 2591SOL    HW1 8672   5.593   6.623   1.306
 2591SOL    HW2 8673   5.754   6.602   1.285
 2592SOL     OW 8674   3.861   5.673   1.675
 2592SOL    HW1 8675   3.927   5.744   1.650
 2592SOL    HW2 8676   3.897   5.620   1.752
 2593SOL     OW 8677   2.955   6.300   2.182
 2593SOL    HW1 8678   2.969   6.208   2.220
 2593SOL    HW2 8679   2.943   6.365   2.256
 2594SOL     OW 8680   1.283   6.645   6.158
 2594SOL    HW1 8681   1.198   6.628   6.208
 2594SOL    HW2 8682   1.330   6.559   6.141
 2595SOL     OW 8683   6.197   3.765   4.074
 2595SOL    HW1 8684   6.120   3.796   4.019
 2595SOL    HW2 8685   6.278   3.819   4.051
 2596SOL     OW 8686   3.923   2.128   2.056
 2596SOL    HW1 8687   3.975   2.180   1.987
 2596SOL    HW2 8688   3.830   2.162   2.060
 2597SOL     OW 8689   2.203   3.131   6.901
 2597SOL    HW1 8690   2.230   3.044   6.859
 2597SOL    HW2 8691   2.121   3.117   6.957
 2598SOL     OW 8692   6.543   3.210   3.408
 2598SOL    HW1 8693   6.487   3.209   3.491
 2598SOL    HW2 8694   6.616   3.278   3.418
 2599SOL     OW 8695   3.920   5.517   0.110
 2599SOL    HW1 8696   3.873   5.496   0.024
 2599SOL    HW2 8697   3.902   5.613   0.134
 2600SOL     OW 8698   6.313   3.780   3.438
 2600SOL    HW1 8699   6.350   3.858   3.488
 2600SOL    HW2 8700   6.339   3.695   3.484
 2601SOL     OW 8701   4.154   3.038   5.945
 2601SOL    HW1 8702   4.068   3.078   5.974
 2601SOL    HW2 8703   4.174   3.066   5.851
 2602SOL     OW 8704   6.114   5.282   3.691
 2602SOL    HW1 8705   6.200   5.320   3.658
 2602SOL    HW2 8706   6.046   5.285   3.618
 2603SOL     OW 8707   3.493   2.260   0.989
 2603SOL    HW1 8708   3.434   2.180   0.983
 2603SOL    HW2 8709   3.461   2.321   1.062
 2604SOL     OW 8710   6.022   0.264   1.171
 2604SOL    HW1 8711   6.017   0.263   1.071
 2604SOL    HW2 8712   6.086   0.336   1.199
 2605SOL     OW 8713   4.546   4.993   4.434
 2605SOL    HW1 8714   4.451   5.022   4.450
 2605SOL    HW2 8715   4.548   4.921   4.365
 2606SOL     OW 8716   0.414   4.574   0.218
 2606SOL    HW1 8717   0.359   4.506   0.170
 2606SOL    HW2 8718   0.504   4.536   0.240
 2607SOL     OW 8719   0.522   0.854   3.914
 2607SOL    HW1 8720   0.602   0.836   3.971
 2607SOL    HW2 8721   0.551   0.891   3.826
 2608SOL     OW 8722   4.933   0.470   1.510
 2608SOL    HW1 8723   4.983   0.556   1.523
 2608SOL    HW2 8724   4.855   0.487   1.449
 2609SOL     OW 8725   0.913   2.124   2.737
 2609SOL    HW1 8726   0.959   2.207   2.702
 2609SOL    HW2 8727   0.963   2.044   2.706
 2610SOL     OW 8728   5.938   6.260   4.731
 2610SOL    HW1 8729   5.903   6.234   4.821
 2610SOL    HW2 8730   5.930   6.182   4.668
 2611SOL     OW 8731   4.272   6.531   1.459
 2611SOL    HW1 8732   4.296   6.623   1.490
 2611SOL    HW2 8733   4.231   6.481   1.535
 2612SOL     OW 8734   6.073   6.502   3.257
 2612SOL    HW1 8735   6.131   6.527   3.334
 2612SOL    HW2 8736   6.019   6.582   3.230
 2613SOL     OW 8737   4.110   0.645   1.768
 2613SOL    HW1 8738   4.095   0.681   1.860
 2613SOL    HW2 8739   4.191   0.689   1.728
 2614SOL     OW 8740   6.912   6.322   6.630
 2614SOL    HW1 8741   6.825   6.323   6.680
 2614SOL    HW2 8742   6.901   6.369   6.542
 2615SOL     OW 8743   5.230   5.745   2.500
 2615SOL    HW1 8744   5.195   5.683   2.570
 2615SOL    HW2 8745   5.327   5.727   2.485
 2616SOL     OW 8746   4.114   3.336   3.255
 2616SOL    HW1 8747   4.147   3.252   3.299
 2616SOL    HW2 8748   4.047   3.312   3.184
 2617SOL     OW 8749   4.353   6.900   1.313
 2617SOL    HW1 8750   4.429   6.960   1.289
 2617SOL    HW2 8751   4.267   6.951   1.307
 2618SOL     OW 8752   1.033   0.667   0.634
 2618SOL    HW1 8753   1.088   0.744   0.600
 2618SOL    HW2 8754   0.936   0.687   0.620
 2619SOL     OW 8755   4.282   2.220   1.662
 2619SOL    HW1 8756   4.342   2.255   1.733
 2619SOL    HW2 8757   4.332   2.157   1.603
 2620SOL     OW 8758   1.245   4.247   4.341
 2620SOL    HW1 8759   1.149   4.257   4.314
 2620SOL    HW2 8760   1.293   4.333   4.326
 2621SOL     OW 8761   0.905   5.350   3.433
 2621SOL    HW1 8762   0.832   5.297   3.476
 2621SOL    HW2 8763   0.988   5.295   3.426
 2622SOL     OW 8764   2.462   2.679   6.830
 2622SOL    HW1 8765   2.421   2.593   6.800
 2622SOL    HW2 8766   2.549   2.693   6.784
 2623SOL     OW 8767   2.935   0.711   5.539
 2623SOL    HW1 8768   3.021   0.729   5.491
 2623SOL    HW2 8769   2.859   0.718   5.474
 2624SOL     OW 8770   5.915   2.122   3.735
 2624SOL    HW1 8771   5.948   2.095   3.825
 2624SOL    HW2 8772   5.934   2.220   3.721
 2625SOL     OW 8773   2.991   1.982   5.966
 2625SOL    HW1 8774   2.992   1.963   6.064
 2625SOL    HW2 8775   2.905   1.949   5.926
 2626SOL     OW 8776   2.066   6.628   3.262
 2626SOL    HW1 8777   2.027   6.593   3.176
 2626SOL    HW2 8778   2.099   6.721   3.247
 2627SOL     OW 8779   6.324   0.338   4.534
 2627SOL    HW1 8780   6.354   0.301   4.446
 2627SOL    HW2 8781   6.355   0.279   4.608
 2628SOL     OW 8782   3.940   6.245   6.979
 2628SOL    HW1 8783   4.027   6.251   6.931
 2628SOL    HW2 8784   3.896   6.335   6.982
 2629SOL     OW 8785   3.237   4.132   1.271
 2629SOL    HW1 8786   3.148   4.141   1.316
 2629SOL    HW2 8787   3.284   4.220   1.273
 2630SOL     OW 8788   2.829   2.201   2.386
 2630SOL    HW1 8789   2.847   2.211   2.288
 2630SOL    HW2 8790   2.783   2.283   2.420
 2631SOL     OW 8791   4.307   6.529   3.999
 2631SOL    HW1 8792   4.304   6.603   4.067
 2631SOL    HW2 8793   4.352   6.562   3.916
 2632SOL     OW 8794   3.855   2.337   0.268
 2632SOL    HW1 8795   3.767   2.299   0.240
 2632SOL    HW2 8796   3.852   2.436   0.262
 2633SOL     OW 8797   5.645   2.456   6.541
 2633SOL    HW1 8798   5.598   2.371   6.517
 2633SOL    HW2 8799   5.720   2.437   6.604
 2634SOL     OW 8800   1.835   4.424   1.056
 2634SOL    HW1 8801   1.855   4.396   0.962
 2634SOL    HW2 8802   1.919   4.419   1.111
 2635SOL     OW 8803   5.728   4.895   5.157
 2635SOL    HW1 8804   5.819   4.873   5.193
 2635SOL    HW2 8805   5.730   4.887   5.057
 2636SOL     OW 8806   5.026   0.351   5.340
 2636SOL    HW1 8807   4.956   0.352   5.269
 2636SOL    HW2 8808   5.012   0.428   5.402
 2637SOL     OW 8809   5.454   6.723   2.869
 2637SOL    HW1 8810   5.465   6.735   2.770
 2637SOL    HW2 8811   5.417   6.632   2.888
 2638SOL     OW 8812   5.781   6.161   0.668
 2638SOL    HW1 8813   5.682   6.143   0.667
 2638SOL    HW2 8814   5.798   6.255   0.697
 2639SOL     OW 8815   6.300   5.922   0.736
 2639SOL    HW1 8816   6.302   5.908   0.835
 2639SOL    HW2 8817   6.209   5.899   0.701
 2640SOL     OW 8818   6.964   6.166   5.303
 2640SOL    HW1 8819   6.872   6.165   5.263
 2640SOL    HW2 8820   6.997   6.261   5.307
 2641SOL     OW 8821   5.044   4.510   0.274
 2641SOL    HW1 8822   5.086   4.578   0.333
 2641SOL    HW2 8823   5.114   4.445   0.243
 2642SOL     OW 8824   4.965   0.325   3.818
 2642SOL    HW1 8825   4.867   0.319   3.837
 2642SOL    HW2 8826   4.994   0.421   3.826
 2643SOL     OW 8827   0.271   0.511   2.868
 2643SOL    HW1 8828   0.357   0.475   2.902
 2643SOL    HW2 8829   0.276   0.611   2.863
 2644SOL     OW 8830   0.101   4.172   6.191
 2644SOL    HW1 8831   0.055   4.154   6.104
 2644SOL    HW2 8832   0.096   4.091   6.249
 2645SOL     OW 8833   5.648   5.802   6.504
 2645SOL    HW1 8834   5.618   5.720   6.552
 2645SOL    HW2 8835   5.720   5.777   6.439
 2646SOL     OW 8836   6.361   6.741   6.689
 2646SOL    HW1 8837   6.370   6.644   6.714
 2646SOL    HW2 8838   6.452   6.783   6.687
 2647SOL     OW 8839   4.233   2.239   1.311
 2647SOL    HW1 8840   4.252   2.142   1.298
 2647SOL    HW2 8841   4.140   2.250   1.346
 2648SOL     OW 8842   5.676   0.370   2.299
 2648SOL    HW1 8843   5.639   0.422   2.376
 2648SOL    HW2 8844   5.600   0.332   2.245
 2649SOL     OW 8845   3.527   1.626   6.347
 2649SOL    HW1 8846   3.572   1.678   6.420
 2649SOL    HW2 8847   3.429   1.621   6.365
 2650SOL     OW 8848   0.362   6.211   2.832
 2650SOL    HW1 8849   0.446   6.223   2.780
 2650SOL    HW2 8850   0.285   6.198   2.769
 2651SOL     OW 8851   6.591   1.154   2.398
 2651SOL    HW1 8852   6.505   1.158   2.347
 2651SOL    HW2 8853   6.642   1.073   2.371
 2652SOL     OW 8854   3.546   3.122   2.876
 2652SOL    HW1 8855   3.537   3.150   2.781
 2652SOL    HW2 8856   3.541   3.201   2.936
 2653SOL     OW 8857   6.608   6.739   6.097
 2653SOL    HW1 8858   6.671   6.739   6.175
 2653SOL    HW2 8859   6.540   6.811   6.110
 2654SOL     OW 8860   5.488   2.712   5.566
 2654SOL    HW1 8861   5.460   2.801   5.602
 2654SOL    HW2 8862   5.570   2.681   5.615
 2655SOL     OW 8863   4.706   6.319   4.249
 2655SOL    HW1 8864   4.791   6.283   4.287
 2655SOL    HW2 8865   4.628   6.276   4.296
 2656SOL     OW 8866   5.335   3.725   3.573
 2656SOL    HW1 8867   5.387   3.797   3.528
 2656SOL    HW2 8868   5.323   3.747   3.669
 2657SOL     OW 8869   1.922   4.094   6.719
 2657SOL    HW1 8870   1.868   4.048   6.789
 2657SOL    HW2 8871   1.904   4.051   6.630
 2658SOL     OW 8872   6.174   3.874   5.949
 2658SOL    HW1 8873   6.210   3.804   6.011
 2658SOL    HW2 8874   6.206   3.964   5.978
 2659SOL     OW 8875   6.883   2.533   4.373
 2659SOL    HW1 8876   6.816   2.581   4.429
 2659SOL    HW2 8877   6.843   2.512   4.283
 2660SOL     OW 8878   6.579   2.401   2.655
 2660SOL    HW1 8879   6.577   2.500   2.669
 2660SOL    HW2 8880   6.637   2.380   2.576
 2661SOL     OW 8881   3.606   6.269   1.227
 2661SOL    HW1 8882   3.576   6.183   1.188
 2661SOL    HW2 8883   3.538   6.300   1.294
 2662SOL     OW 8884   3.947   6.692   4.087
 2662SOL    HW1 8885   3.975   6.628   4.158
 2662SOL    HW2 8886   3.851   6.715   4.099
 2663SOL     OW 8887   1.832   4.240   2.535
 2663SOL    HW1 8888   1.924   4.276   2.548
 2663SOL    HW2 8889   1.765   4.313   2.552
 2664SOL     OW 8890   4.125   3.530   2.696
 2664SOL    HW1 8891   4.126   3.578   2.784
 2664SOL    HW2 8892   4.123   3.431   2.712
 2665SOL     OW 8893   3.492   1.303   4.567
 2665SOL    HW1 8894   3.462   1.363   4.642
 2665SOL    HW2 8895   3.449   1.332   4.482
 2666SOL     OW 8896   5.536   4.411   1.104
 2666SOL    HW1 8897   5.542   4.341   1.175
 2666SOL    HW2 8898   5.477   4.485   1.134
 2667SOL     OW 8899   2.462   5.597   4.833
 2667SOL    HW1 8900   2.539   5.647   4.874
 2667SOL    HW2 8901   2.376   5.639   4.863
 2668SOL     OW 8902   0.025   2.925   5.341
 2668SOL    HW1 8903   7.000   2.858   5.399
 2668SOL    HW2 8904   0.119   2.937   5.374
 2669SOL     OW 8905   4.348   4.787   5.463
 2669SOL    HW1 8906   4.284   4.729   5.412
 2669SOL    HW2 8907   4.298   4.844   5.527
 2670SOL     OW 8908   1.128   1.410   7.009
 2670SOL    HW1 8909   1.057   1.447   6.949
 2670SOL    HW2 8910   1.099   1.419   0.082
 2671SOL     OW 8911   2.354   3.376   6.100
 2671SOL    HW1 8912   2.446   3.400   6.132
 2671SOL    HW2 8913   2.325   3.291   6.143
 2672SOL     OW 8914   1.678   5.761   0.817
 2672SOL    HW1 8915   1.681   5.781   0.719
 2672SOL    HW2 8916   1.699   5.843   0.869
 2673SOL     OW 8917   4.103   2.098   3.062
 2673SOL    HW1 8918   4.149   2.068   3.145
 2673SOL    HW2 8919   4.014   2.054   3.055
 2674SOL     OW 8920   6.409   4.861   4.946
 2674SOL    HW1 8921   6.361   4.791   4.893
 2674SOL    HW2 8922   6.396   4.844   5.044
 2675SOL     OW 8923   0.429   4.675   5.938
 2675SOL    HW1 8924   0.378   4.593   5.965
 2675SOL    HW2 8925   0.434   4.681   5.839
 2676SOL     OW 8926   4.698   1.472   1.384
 2676SOL    HW1 8927   4.751   1.394   1.353
 2676SOL    HW2 8928   4.640   1.505   1.310
 2677SOL     OW 8929   2.390   4.929   1.784
 2677SOL    HW1 8930   2.376   4.975   1.872
 2677SOL    HW2 8931   2.333   4.847   1.780
 2678SOL     OW 8932   0.739   4.962   6.527
 2678SOL    HW1 8933   0.783   5.026   6.590
 2678SOL    HW2 8934   0.641   4.982   6.523
 2679SOL     OW 8935   3.262   5.342   0.857
 2679SOL    HW1 8936   3.245   5.343   0.758
 2679SOL    HW2 8937   3.307   5.427   0.884
 2680SOL     OW 8938   1.669   1.235   1.626
 2680SOL    HW1 8939   1.684   1.332   1.611
 2680SOL    HW2 8940   1.621   1.196   1.548
 2681SOL     OW 8941   1.604   2.752   3.106
 2681SOL    HW1 8942   1.577   2.663   3.070
 2681SOL    HW2 8943   1.703   2.753   3.120
 2682SOL     OW 8944   5.500   2.852   2.667
 2682SOL    HW1 8945   5.455   2.870   2.580
 2682SOL    HW2 8946   5.565   2.777   2.656
 2683SOL     OW 8947   1.070   5.615   0.965
 2683SOL    HW1 8948   1.144   5.567   0.918
 2683SOL    HW2 8949   1.109   5.679   1.032
 2684SOL     OW 8950   2.153   6.126   3.138
 2684SOL    HW1 8951   2.168   6.217   3.097
 2684SOL    HW2 8952   2.059   6.098   3.121
 2685SOL     OW 8953   4.805   6.283   5.073
 2685SOL    HW1 8954   4.830   6.369   5.118
 2685SOL    HW2 8955   4.863   6.209   5.106
 2686SOL     OW 8956   2.214   3.104   4.413
 2686SOL    HW1 8957   2.129   3.144   4.448
 2686SOL    HW2 8958   2.242   3.028   4.472
 2687SOL     OW 8959   3.918   5.433   2.224
 2687SOL    HW1 8960   3.822   5.462   2.219
 2687SOL    HW2 8961   3.923   5.340   2.260
 2688SOL     OW 8962   4.271   4.580   6.768
 2688SOL    HW1 8963   4.358   4.534   6.748
 2688SOL    HW2 8964   4.283   4.679   6.764
 2689SOL     OW 8965   0.533   3.228   4.153
 2689SOL    HW1 8966   0.556   3.192   4.243
 2689SOL    HW2 8967   0.587   3.181   4.083
 2690SOL     OW 8968   4.052   3.796   3.883
 2690SOL    HW1 8969   4.042   3.702   3.917
 2690SOL    HW2 8970   4.035   3.797   3.785
 2691SOL     OW 8971   1.505   5.961   2.263
 2691SOL    HW1 8972   1.587   5.973   2.207
 2691SOL    HW2 8973   1.448   5.889   2.224
 2692SOL     OW 8974   7.008   6.466   3.518
 2692SOL    HW1 8975   6.943   6.391   3.507
 2692SOL    HW2 8976   6.974   6.529   3.588
 2693SOL     OW 8977   1.764   3.689   3.505
 2693SOL    HW1 8978   1.858   3.708   3.477
 2693SOL    HW2 8979   1.764   3.649   3.596
 2694SOL     OW 8980   1.480   6.770   3.510
 2694SOL    HW1 8981   1.471   6.704   3.585
 2694SOL    HW2 8982   1.523   6.853   3.544
 2695SOL     OW 8983   4.445   2.312   2.649
 2695SOL    HW1 8984   4.478   2.394   2.604
 2695SOL    HW2 8985   4.419   2.244   2.580
 2696SOL     OW 8986   3.887   3.840   5.377
 2696SOL    HW1 8987   3.897   3.851   5.278
 2696SOL    HW2 8988   3.949   3.902   5.424
 2697SOL     OW 8989   3.092   1.966   4.370
 2697SOL    HW1 8990   3.111   1.988   4.466
 2697SOL    HW2 8991   2.993   1.954   4.358
 2698SOL     OW 8992   1.526   4.168   0.526
 2698SOL    HW1 8993   1.608   4.219   0.552
 2698SOL    HW2 8994   1.481   4.132   0.608
 2699SOL     OW 8995   3.432   6.329   1.472
 2699SOL    HW1 8996   3.337   6.305   1.456
 2699SOL    HW2 8997   3.447   6.426   1.449
 2700SOL     OW 8998   1.751   3.366   2.847
 2700SOL    HW1 8999   1.667   3.401   2.805
 2700SOL    HW2 9000   1.734   3.275   2.884
 2701SOL     OW 9001   3.690   6.996   6.616
 2701SOL    HW1 9002   3.706   6.898   6.602
 2701SOL    HW2 9003   3.760   0.010   6.678
 2702SOL     OW 9004   7.009   1.276   3.835
 2702SOL    HW1 9005   0.031   1.299   3.922
 2702SOL    HW2 9006   0.022   1.189   3.802
 2703SOL     OW 9007   1.768   1.810   2.200
 2703SOL    HW1 9008   1.833   1.776   2.268
 2703SOL    HW2 9009   1.711   1.735   2.168
 2704SOL     OW 9010   2.470   5.506   1.705
 2704SOL    HW1 9011   2.553   5.552   1.737
 2704SOL    HW2 9012   2.414   5.479   1.784
 2705SOL     OW 9013   6.467   5.669   3.479
 2705SOL    HW1 9014   6.467   5.621   3.567
 2705SOL    HW2 9015   6.441   5.605   3.407
 2706SOL     OW 9016   6.511   1.549   1.738
 2706SOL    HW1 9017   6.565   1.614   1.685
 2706SOL    HW2 9018   6.426   1.592   1.768
 2707SOL     OW 9019   2.183   1.713   6.160
 2707SOL    HW1 9020   2.196   1.767   6.077
 2707SOL    HW2 9021   2.138   1.769   6.230
 2708SOL     OW 9022   1.447   2.343   1.611
 2708SOL    HW1 9023   1.525   2.344   1.548
 2708SOL    HW2 9024   1.426   2.248   1.636
 2709SOL     OW 9025   4.954   5.763   0.771
 2709SOL    HW1 9026   5.034   5.801   0.817
 2709SOL    HW2 9027   4.924   5.826   0.699
 2710SOL     OW 9028   0.274   4.079   2.503
 2710SOL    HW1 9029   0.349   4.084   2.570
 2710SOL    HW2 9030   0.221   4.163   2.506
 2711SOL     OW 9031   0.681   0.169   2.221
 2711SOL    HW1 9032   0.779   0.163   2.205
 2711SOL    HW2 9033   0.649   0.085   2.265
 2712SOL     OW 9034   2.730   4.438   0.643
 2712SOL    HW1 9035   2.754   4.535   0.640
 2712SOL    HW2 9036   2.719   4.410   0.738
 2713SOL     OW 9037   2.349   3.159   5.384
 2713SOL    HW1 9038   2.397   3.102   5.318
 2713SOL    HW2 9039   2.325   3.246   5.342
 2714SOL     OW 9040   4.600   0.495   6.094
 2714SOL    HW1 9041   4.659   0.540   6.026
 2714SOL    HW2 9042   4.590   0.555   6.174
 2715SOL     OW 9043   5.978   1.169   6.912
 2715SOL    HW1 9044   5.922   1.226   6.973
 2715SOL    HW2 9045   6.072   1.203   6.913
 2716SOL     OW 9046   0.428   5.944   2.667
 2716SOL    HW1 9047   0.349   5.884   2.657
 2716SOL    HW2 9048   0.410   6.011   2.740
 2717SOL     OW 9049   0.966   0.469   3.039
 2717SOL    HW1 9050   0.895   0.532   3.069
 2717SOL    HW2 9051   0.961   0.458   2.940
 2718SOL     OW 9052   2.340   4.284   4.136
 2718SOL    HW1 9053   2.331   4.274   4.235
 2718SOL    HW2 9054   2.411   4.352   4.116
 2719SOL     OW 9055   4.178   5.346   1.740
 2719SOL    HW1 9056   4.182   5.341   1.840
 2719SOL    HW2 9057   4.253   5.402   1.707
 2720SOL     OW 9058   1.683   6.825   3.831
 2720SOL    HW1 9059   1.662   6.865   3.920
 2720SOL    HW2 9060   1.675   6.896   3.760
 2721SOL     OW 9061   3.577   0.066   4.052
 2721SOL    HW1 9062   3.662   0.037   4.008
 2721SOL    HW2 9063   3.596   0.140   4.116
 2722SOL     OW 9064   0.967   6.347   2.735
 2722SOL    HW1 9065   1.025   6.331   2.815
 2722SOL    HW2 9066   1.020   6.394   2.665
 2723SOL     OW 9067   1.752   0.878   5.688
 2723SOL    HW1 9068   1.678   0.888   5.755
 2723SOL    HW2 9069   1.824   0.820   5.725
 2724SOL     OW 9070   4.002   5.599   6.150
 2724SOL    HW1 9071   4.027   5.507   6.179
 2724SOL    HW2 9072   3.953   5.645   6.224
 2725SOL     OW 9073   3.958   4.838   3.890
 2725SOL    HW1 9074   3.868   4.866   3.923
 2725SOL    HW2 9075   3.955   4.828   3.790
 2726SOL     OW 9076   4.853   5.652   2.220
 2726SOL    HW1 9077   4.950   5.669   2.233
 2726SOL    HW2 9078   4.819   5.706   2.143
 2727SOL     OW 9079   1.057   5.548   2.672
 2727SOL    HW1 9080   1.122   5.574   2.743
 2727SOL    HW2 9081   0.966   5.579   2.698
 2728SOL     OW 9082   2.619   6.486   5.360
 2728SOL    HW1 9083   2.677   6.405   5.366
 2728SOL    HW2 9084   2.601   6.508   5.264
 2729SOL     OW 9085   5.839   5.158   2.842
 2729SOL    HW1 9086   5.897   5.077   2.831
 2729SOL    HW2 9087   5.894   5.235   2.872
 2730SOL     OW 9088   1.426   0.334   0.835
 2730SOL    HW1 9089   1.380   0.381   0.910
 2730SOL    HW2 9090   1.369   0.257   0.804
 2731SOL     OW 9091   2.942   3.832   1.792
 2731SOL    HW1 9092   2.979   3.911   1.841
 2731SOL    HW2 9093   2.982   3.748   1.829
 2732SOL     OW 9094   5.829   1.779   2.649
 2732SOL    HW1 9095   5.773   1.828   2.717
 2732SOL    HW2 9096   5.804   1.810   2.557
 2733SOL     OW 9097   1.116   6.703   5.886
 2733SOL    HW1 9098   1.165   6.676   5.969
 2733SOL    HW2 9099   1.158   6.786   5.848
 2734SOL     OW 9100   1.937   6.015   4.065
 2734SOL    HW1 9101   1.893   5.958   4.134
 2734SOL    HW2 9102   1.957   5.960   3.984
 2735SOL     OW 9103   1.636   5.155   2.673
 2735SOL    HW1 9104   1.704   5.085   2.697
 2735SOL    HW2 9105   1.662   5.243   2.713
 2736SOL     OW 9106   4.241   0.431   5.019
 2736SOL    HW1 9107   4.160   0.490   5.023
 2736SOL    HW2 9108   4.245   0.376   5.102
 2737SOL     OW 9109   4.538   3.557   6.318
 2737SOL    HW1 9110   4.613   3.502   6.354
 2737SOL    HW2 9111   4.522   3.636   6.377
 2738SOL     OW 9112   5.728   5.339   4.774
 2738SOL    HW1 9113   5.693   5.422   4.730
 2738SOL    HW2 9114   5.651   5.281   4.801
 2739SOL     OW 9115   5.318   3.737   1.257
 2739SOL    HW1 9116   5.242   3.726   1.192
 2739SOL    HW2 9117   5.396   3.777   1.209
 2740SOL     OW 9118   6.051   2.104   3.498
 2740SOL    HW1 9119   5.988   2.118   3.574
 2740SOL    HW2 9120   6.049   2.184   3.438
 2741SOL     OW 9121   0.750   2.400   5.709
 2741SOL    HW1 9122   0.827   2.345   5.741
 2741SOL    HW2 9123   0.776   2.497   5.711
 2742SOL     OW 9124   2.040   6.948   6.873
 2742SOL    HW1 9125   2.110   6.894   6.919
 2742SOL    HW2 9126   2.005   6.897   6.795
 2743SOL     OW 9127   5.260   5.047   1.320
 2743SOL    HW1 9128   5.273   5.091   1.231
 2743SOL    HW2 9129   5.257   5.116   1.391
 2744SOL     OW 9130   4.366   2.403   5.923
 2744SOL    HW1 9131   4.448   2.346   5.928
 2744SOL    HW2 9132   4.327   2.412   6.015
 2745SOL     OW 9133   2.718   6.772   1.195
 2745SOL    HW1 9134   2.734   6.686   1.146
 2745SOL    HW2 9135   2.776   6.776   1.276
 2746SOL     OW 9136   2.009   1.906   6.313
 2746SOL    HW1 9137   2.069   1.936   6.388
 2746SOL    HW2 9138   1.986   1.985   6.256
 2747SOL     OW 9139   5.058   6.501   3.962
 2747SOL    HW1 9140   5.000   6.523   3.884
 2747SOL    HW2 9141   5.107   6.583   3.991
 2748SOL     OW 9142   3.826   1.274   2.876
 2748SOL    HW1 9143   3.873   1.262   2.964
 2748SOL    HW2 9144   3.851   1.200   2.815
 2749SOL     OW 9145   4.724   5.246   3.727
 2749SOL    HW1 9146   4.629   5.235   3.757
 2749SOL    HW2 9147   4.747   5.343   3.724
 2750SOL     OW 9148   0.615   5.734   2.661
 2750SOL    HW1 9149   0.714   5.743   2.669
 2750SOL    HW2 9150   0.573   5.825   2.665
 2751SOL     OW 9151   1.764   6.990   6.817
 2751SOL    HW1 9152   1.769   6.963   6.721
 2751SOL    HW2 9153   1.856   6.992   6.856
 2752SOL     OW 9154   5.967   6.305   5.791
 2752SOL    HW1 9155   5.968   6.404   5.807
 2752SOL    HW2 9156   5.940   6.258   5.874
 2753SOL     OW 9157   3.509   5.342   6.006
 2753SOL    HW1 9158   3.529   5.265   5.945
 2753SOL    HW2 9159   3.431   5.394   5.971
 2754SOL     OW 9160   0.749   0.827   4.683
 2754SOL    HW1 9161   0.829   0.886   4.669
 2754SOL    HW2 9162   0.679   0.849   4.614
 2755SOL     OW 9163   3.083   6.519   1.958
 2755SOL    HW1 9164   3.012   6.588   1.953
 2755SOL    HW2 9165   3.044   6.433   1.990
 2756SOL     OW 9166   6.978   2.785   5.756
 2756SOL    HW1 9167   6.965   2.883   5.772
 2756SOL    HW2 9168   0.001   2.771   5.668
 2757SOL     OW 9169   4.671   3.175   6.690
 2757SOL    HW1 9170   4.699   3.251   6.749
 2757SOL    HW2 9171   4.622   3.107   6.744
 2758SOL     OW 9172   6.028   6.202   2.538
 2758SOL    HW1 9173   6.057   6.164   2.626
 2758SOL    HW2 9174   6.084   6.165   2.465
 2759SOL     OW 9175   3.437   4.347   6.305
 2759SOL    HW1 9176   3.517   4.326   6.360
 2759SOL    HW2 9177   3.465   4.384   6.216
 2760SOL     OW 9178   5.383   6.169   3.380
 2760SOL    HW1 9179   5.374   6.258   3.334
 2760SOL    HW2 9180   5.327   6.170   3.464
 2761SOL     OW 9181   1.742   3.112   2.943
 2761SOL    HW1 9182   1.732   3.045   2.870
 2761SOL    HW2 9183   1.835   3.110   2.978
 2762SOL     OW 9184   2.699   2.162   0.436
 2762SOL    HW1 9185   2.731   2.071   0.459
 2762SOL    HW2 9186   2.620   2.156   0.375
 2763SOL     OW 9187   4.844   2.060   5.156
 2763SOL    HW1 9188   4.873   2.014   5.072
 2763SOL    HW2 9189   4.922   2.070   5.217
 2764SOL     OW 9190   0.806   3.800   2.275
 2764SOL    HW1 9191   0.885   3.744   2.301
 2764SOL    HW2 9192   0.725   3.769   2.326
 2765SOL     OW 9193   0.110   6.677   6.569
 2765SOL    HW1 9194   0.122   6.725   6.483
 2765SOL    HW2 9195   0.051   6.730   6.630
 2766SOL     OW 9196   5.357   1.115   6.687
 2766SOL    HW1 9197   5.354   1.169   6.771
 2766SOL    HW2 9198   5.391   1.023   6.708
 2767SOL     OW 9199   0.021   4.950   6.198
 2767SOL    HW1 9200   6.946   4.932   6.210
 2767SOL    HW2 9201   0.074   4.868   6.221
 2768SOL     OW 9202   4.765   0.220   1.017
 2768SOL    HW1 9203   4.748   0.255   0.925
 2768SOL    HW2 9204   4.783   0.121   1.012
 2769SOL     OW 9205   1.420   4.264   5.436
 2769SOL    HW1 9206   1.480   4.343   5.445
 2769SOL    HW2 9207   1.385   4.238   5.526
 2770SOL     OW 9208   2.794   6.767   0.834
 2770SOL    HW1 9209   2.877   6.823   0.830
 2770SOL    HW2 9210   2.723   6.809   0.777
 2771SOL     OW 9211   4.639   0.364   4.454
 2771SOL    HW1 9212   4.648   0.391   4.358
 2771SOL    HW2 9213   4.570   0.421   4.499
 2772SOL     OW 9214   3.844   0.145   3.328
 2772SOL    HW1 9215   3.780   0.092   3.274
 2772SOL    HW2 9216   3.823   0.135   3.425
 2773SOL     OW 9217   6.013   2.722   4.199
 2773SOL    HW1 9218   6.029   2.705   4.102
 2773SOL    HW2 9219   6.070   2.798   4.230
 2774SOL     OW 9220   5.261   1.569   4.044
 2774SOL    HW1 9221   5.167   1.583   4.077
 2774SOL    HW2 9222   5.316   1.649   4.067
 2775SOL     OW 9223   0.592   4.032   4.386
 2775SOL    HW1 9224   0.677   3.984   4.363
 2775SOL    HW2 9225   0.614   4.121   4.425
 2776SOL     OW 9226   5.244   4.241   5.992
 2776SOL    HW1 9227   5.204   4.308   6.053
 2776SOL    HW2 9228   5.326   4.202   6.034
 2777SOL     OW 9229   2.991   1.987   6.264
 2777SOL    HW1 9230   3.063   1.962   6.330
 2777SOL    HW2 9231   2.997   2.085   6.246
 2778SOL     OW 9232   2.803   6.009   6.024
 2778SOL    HW1 9233   2.889   6.019   5.973
 2778SOL    HW2 9234   2.775   6.098   6.060
 2779SOL     OW 9235   5.858   6.902   1.265
 2779SOL    HW1 9236   5.797   6.833   1.304
 2779SOL    HW2 9237   5.831   6.993   1.297
 2780SOL     OW 9238   0.238   1.492   5.153
 2780SOL    HW1 9239   0.291   1.477   5.070
 2780SOL    HW2 9240   0.170   1.419   5.162
 2781SOL     OW 9241   6.195   0.538   2.841
 2781SOL    HW1 9242   6.120   0.604   2.834
 2781SOL    HW2 9243   6.159   0.450   2.871
 2782SOL     OW 9244   4.707   0.964   6.324
 2782SOL    HW1 9245   4.684   0.995   6.416
 2782SOL    HW2 9246   4.624   0.953   6.271
 2783SOL     OW 9247   5.642   4.335   1.726
 2783SOL    HW1 9248   5.574   4.264   1.741
 2783SOL    HW2 9249   5.603   4.424   1.748
 2784SOL     OW 9250   1.296   1.744   1.093
 2784SOL    HW1 9251   1.257   1.826   1.050
 2784SOL    HW2 9252   1.233   1.667   1.080
 2785SOL     OW 9253   5.642   2.748   1.345
 2785SOL    HW1 9254   5.590   2.829   1.319
 2785SOL    HW2 9255   5.584   2.688   1.400
 2786SOL     OW 9256   0.139   6.779   0.162
 2786SOL    HW1 9257   0.146   6.830   0.248
 2786SOL    HW2 9258   0.229   6.743   0.138
 2787SOL     OW 9259   6.506   4.831   6.302
 2787SOL    HW1 9260   6.469   4.869   6.217
 2787SOL    HW2 9261   6.511   4.904   6.371
 2788SOL     OW 9262   2.953   6.296   5.693
 2788SOL    HW1 9263   2.879   6.348   5.737
 2788SOL    HW2 9264   2.957   6.320   5.596
 2789SOL     OW 9265   1.092   2.378   5.552
 2789SOL    HW1 9266   1.181   2.342   5.523
 2789SOL    HW2 9267   1.020   2.312   5.531
 2790SOL     OW 9268   1.753   5.482   1.900
 2790SOL    HW1 9269   1.668   5.485   1.953
 2790SOL    HW2 9270   1.755   5.400   1.844
 2791SOL     OW 9271   0.447   3.324   3.061
 2791SOL    HW1 9272   0.380   3.330   3.135
 2791SOL    HW2 9273   0.401   3.331   2.973
 2792SOL     OW 9274   3.343   1.351   5.218
 2792SOL    HW1 9275   3.362   1.285   5.146
 2792SOL    HW2 9276   3.300   1.433   5.179
 2793SOL     OW 9277   3.309   4.268   1.036
 2793SOL    HW1 9278   3.261   4.325   0.970
 2793SOL    HW2 9279   3.256   4.184   1.052
 2794SOL     OW 9280   1.192   2.628   6.574
 2794SOL    HW1 9281   1.143   2.559   6.626
 2794SOL    HW2 9282   1.155   2.633   6.481
 2795SOL     OW 9283   1.154   4.747   1.355
 2795SOL    HW1 9284   1.197   4.754   1.265
 2795SOL    HW2 9285   1.206   4.802   1.421
 2796SOL     OW 9286   1.823   6.155   6.107
 2796SOL    HW1 9287   1.879   6.127   6.028
 2796SOL    HW2 9288   1.826   6.084   6.177
 2797SOL     OW 9289   5.691   7.022   3.384
 2797SOL    HW1 9290   5.630   6.985   3.455
 2797SOL    HW2 9291   5.735   6.947   3.336
 2798SOL     OW 9292   5.749   0.291   2.024
 2798SOL    HW1 9293   5.812   0.308   1.949
 2798SOL    HW2 9294   5.797   0.246   2.099
 2799SOL     OW 9295   3.196   5.869   5.517
 2799SOL    HW1 9296   3.270   5.804   5.502
 2799SOL    HW2 9297   3.109   5.820   5.530
 2800SOL     OW 9298   6.007   0.000   6.486
 2800SOL    HW1 9299   6.078   0.036   6.545
 2800SOL    HW2 9300   6.021   6.925   6.472
 2801SOL     OW 9301   0.628   4.867   5.230
 2801SOL    HW1 9302   0.598   4.831   5.319
 2801SOL    HW2 9303   0.627   4.793   5.163
 2802SOL     OW 9304   0.364   5.371   5.795
 2802SOL    HW1 9305   0.292   5.319   5.840
 2802SOL    HW2 9306   0.395   5.445   5.855
 2803SOL     OW 9307   4.315   2.555   6.762
 2803SOL    HW1 9308   4.355   2.515   6.679
 2803SOL    HW2 9309   4.215   2.542   6.760
 2804SOL     OW 9310   0.353   2.602   3.729
 2804SOL    HW1 9311   0.429   2.539   3.743
 2804SOL    HW2 9312   0.305   2.618   3.815
 2805SOL     OW 9313   4.735   3.392   1.421
 2805SOL    HW1 9314   4.828   3.414   1.452
 2805SOL    HW2 9315   4.712   3.298   1.448
 2806SOL     OW 9316   0.290   3.959   6.082
 2806SOL    HW1 9317   0.270   3.865   6.108
 2806SOL    HW2 9318   0.259   3.976   5.989
 2807SOL     OW 9319   3.371   0.432   3.586
 2807SOL    HW1 9320   3.470   0.449   3.585
 2807SOL    HW2 9321   3.350   0.354   3.527
 2808SOL     OW 9322   6.766   5.574   6.346
 2808SOL    HW1 9323   6.715   5.587   6.431
 2808SOL    HW2 9324   6.819   5.657   6.328
 2809SOL     OW 9325   6.646   4.968   2.264
 2809SOL    HW1 9326   6.626   5.021   2.181
 2809SOL    HW2 9327   6.697   4.886   2.240
 2810SOL     OW 9328   2.687   5.565   2.966
 2810SOL    HW1 9329   2.605   5.508   2.980
 2810SOL    HW2 9330   2.699   5.626   3.045
 2811SOL     OW 9331   0.863   0.698   1.586
 2811SOL    HW1 9332   0.879   0.714   1.489
 2811SOL    HW2 9333   0.799   0.766   1.621
 2812SOL     OW 9334   0.658   2.204   1.434
 2812SOL    HW1 9335   0.704   2.147   1.365
 2812SOL    HW2 9336   0.634   2.292   1.392
 2813SOL     OW 9337   0.823   2.167   1.814
 2813SOL    HW1 9338   0.884   2.239   1.847
 2813SOL    HW2 9339   0.761   2.141   1.887
 2814SOL     OW 9340   2.202   4.413   0.215
 2814SOL    HW1 9341   2.168   4.450   0.301
 2814SOL    HW2 9342   2.286   4.461   0.188
 2815SOL     OW 9343   0.284   5.055   5.457
 2815SOL    HW1 9344   0.352   5.101   5.515
 2815SOL    HW2 9345   0.263   4.965   5.495
 2816SOL     OW 9346   0.573   6.030   6.126
 2816SOL    HW1 9347   0.607   6.073   6.042
 2816SOL    HW2 9348   0.507   5.959   6.103
 2817SOL     OW 9349   4.264   0.995   1.896
 2817SOL    HW1 9350   4.279   0.932   1.819
 2817SOL    HW2 9351   4.331   0.975   1.968
 2818SOL     OW 9352   1.460   0.320   0.483
 2818SOL    HW1 9353   1.366   0.346   0.506
 2818SOL    HW2 9354   1.459   0.236   0.429
 2819SOL     OW 9355   0.577   1.016   0.357
 2819SOL    HW1 9356   0.671   1.049   0.355
 2819SOL    HW2 9357   0.565   0.955   0.436
 2820SOL     OW 9358   1.166   2.272   1.239
 2820SOL    HW1 9359   1.226   2.251   1.316
 2820SOL    HW2 9360   1.221   2.285   1.156
 2821SOL     OW 9361   2.772   3.367   6.027
 2821SOL    HW1 9362   2.832   3.440   5.996
 2821SOL    HW2 9363   2.691   3.364   5.968
 2822SOL     OW 9364   4.456   2.537   0.907
 2822SOL    HW1 9365   4.400   2.507   0.983
 2822SOL    HW2 9366   4.498   2.458   0.863
 2823SOL     OW 9367   5.589   1.973   1.412
 2823SOL    HW1 9368   5.632   2.003   1.326
 2823SOL    HW2 9369   5.656   1.922   1.466
 2824SOL     OW 9370   1.277   3.543   4.937
 2824SOL    HW1 9371   1.364   3.545   4.985
 2824SOL    HW2 9372   1.287   3.491   4.852
 2825SOL     OW 9373   5.221   1.261   6.032
 2825SOL    HW1 9374   5.192   1.233   5.940
 2825SOL    HW2 9375   5.234   1.360   6.035
 2826SOL     OW 9376   2.363   3.249   6.719
 2826SOL    HW1 9377   2.299   3.214   6.787
 2826SOL    HW2 9378   2.456   3.225   6.745
 2827SOL     OW 9379   6.391   0.611   6.446
 2827SOL    HW1 9380   6.305   0.569   6.476
 2827SOL    HW2 9381   6.457   0.609   6.521
 2828SOL     OW 9382   2.016   3.471   0.434
 2828SOL    HW1 9383   1.985   3.389   0.483
 2828SOL    HW2 9384   2.064   3.532   0.498
 2829SOL     OW 9385   3.496   4.007   2.983
 2829SOL    HW1 9386   3.545   4.067   3.047
 2829SOL    HW2 9387   3.530   4.024   2.890
 2830SOL     OW 9388   3.191   4.577   5.430
 2830SOL    HW1 9389   3.125   4.639   5.388
 2830SOL    HW2 9390   3.216   4.612   5.520
 2831SOL     OW 9391   5.819   1.653   1.316
 2831SOL    HW1 9392   5.779   1.680   1.403
 2831SOL    HW2 9393   5.757   1.590   1.269
 2832SOL     OW 9394   0.424   3.768   1.685
 2832SOL    HW1 9395   0.370   3.722   1.614
 2832SOL    HW2 9396   0.519   3.739   1.678
 2833SOL     OW 9397   2.116   2.257   2.134
 2833SOL    HW1 9398   2.199   2.217   2.173
 2833SOL    HW2 9399   2.130   2.276   2.037
 2834SOL     OW 9400   3.000   6.059   5.839
 2834SOL    HW1 9401   2.993   6.138   5.778
 2834SOL    HW2 9402   3.096   6.032   5.848
 2835SOL     OW 9403   0.131   0.308   0.678
 2835SOL    HW1 9404   0.057   0.291   0.743
 2835SOL    HW2 9405   0.139   0.231   0.615
 2836SOL     OW 9406   3.582   6.169   2.591
 2836SOL    HW1 9407   3.678   6.152   2.617
 2836SOL    HW2 9408   3.571   6.147   2.494
 2837SOL     OW 9409   4.950   4.490   2.152
 2837SOL    HW1 9410   4.892   4.519   2.228
 2837SOL    HW2 9411   4.908   4.411   2.106
 2838SOL     OW 9412   5.301   4.573   6.037
 2838SOL    HW1 9413   5.327   4.516   6.116
 2838SOL    HW2 9414   5.203   4.593   6.042
 2839SOL     OW 9415   5.821   2.863   4.886
 2839SOL    HW1 9416   5.762   2.821   4.956
 2839SOL    HW2 9417   5.873   2.938   4.927
 2840SOL     OW 9418   6.992   6.324   4.076
 2840SOL    HW1 9419   6.950   6.234   4.088
 2840SOL    HW2 9420   0.064   6.312   4.045
 2841SOL     OW 9421   6.397   3.287   2.076
 2841SOL    HW1 9422   6.330   3.361   2.083
 2841SOL    HW2 9423   6.488   3.325   2.092
 2842SOL     OW 9424   1.103   0.025   2.955
 2842SOL    HW1 9425   1.193   0.067   2.962
 2842SOL    HW2 9426   1.033   0.095   2.969
 2843SOL     OW 9427   2.143   2.827   3.297
 2843SOL    HW1 9428   2.108   2.920   3.287
 2843SOL    HW2 9429   2.129   2.796   3.391
 2844SOL     OW 9430   4.757   4.719   0.560
 2844SOL    HW1 9431   4.829   4.776   0.520
 2844SOL    HW2 9432   4.668   4.750   0.528
 2845SOL     OW 9433   3.516   2.029   3.631
 2845SOL    HW1 9434   3.511   2.078   3.545
 2845SOL    HW2 9435   3.440   2.056   3.690
 2846SOL     OW 9436   5.746   0.186   0.392
 2846SOL    HW1 9437   5.757   0.136   0.478
 2846SOL    HW2 9438   5.753   0.121   0.316
 2847SOL     OW 9439   4.685   5.368   1.982
 2847SOL    HW1 9440   4.721   5.294   1.926
 2847SOL    HW2 9441   4.751   5.443   1.984
 2848SOL     OW 9442   0.235   4.069   5.772
 2848SOL    HW1 9443   0.266   3.975   5.755
 2848SOL    HW2 9444   0.300   4.116   5.831
 2849SOL     OW 9445   4.942   0.269   2.468
 2849SOL    HW1 9446   4.992   0.310   2.391
 2849SOL    HW2 9447   4.849   0.303   2.468
 2850SOL     OW 9448   1.556   0.151   2.605
 2850SOL    HW1 9449   1.606   0.168   2.689
 2850SOL    HW2 9450   1.613   0.099   2.541
 2851SOL     OW 9451   4.115   3.522   0.555
 2851SOL    HW1 9452   4.203   3.485   0.583
 2851SOL    HW2 9453   4.060   3.542   0.636
 2852SOL     OW 9454   6.269   4.350   6.494
 2852SOL    HW1 9455   6.173   4.326   6.484
 2852SOL    HW2 9456   6.322   4.268   6.513
 2853SOL     OW 9457   0.293   3.814   6.457
 2853SOL    HW1 9458   0.199   3.839   6.434
 2853SOL    HW2 9459   0.303   3.715   6.450
 2854SOL     OW 9460   3.747   1.338   5.691
 2854SOL    HW1 9461   3.681   1.270   5.723
 2854SOL    HW2 9462   3.796   1.375   5.769
 2855SOL     OW 9463   1.911   1.102   5.687
 2855SOL    HW1 9464   1.871   1.192   5.673
 2855SOL    HW2 9465   1.839   1.032   5.680
 2856SOL     OW 9466   1.177   5.271   3.471
 2856SOL    HW1 9467   1.264   5.313   3.496
 2856SOL    HW2 9468   1.192   5.202   3.400
 2857SOL     OW 9469   0.049   3.612   0.110
 2857SOL    HW1 9470   0.017   3.522   0.079
 2857SOL    HW2 9471   0.004   3.635   0.196
 2858SOL     OW 9472   4.708   4.862   2.967
 2858SOL    HW1 9473   4.719   4.959   2.988
 2858SOL    HW2 9474   4.683   4.813   3.051
 2859SOL     OW 9475   5.048   4.488   0.872
 2859SOL    HW1 9476   5.067   4.482   0.970
 2859SOL    HW2 9477   4.983   4.563   0.856
 2860SOL     OW 9478   0.421   7.007   2.218
 2860SOL    HW1 9479   0.332   6.972   2.246
 2860SOL    HW2 9480   0.493   6.947   2.252
 2861SOL     OW 9481   4.464   5.435   6.665
 2861SOL    HW1 9482   4.553   5.475   6.687
 2861SOL    HW2 9483   4.393   5.480   6.719
 2862SOL     OW 9484   4.248   2.898   0.319
 2862SOL    HW1 9485   4.184   2.974   0.328
 2862SOL    HW2 9486   4.339   2.933   0.298
 2863SOL     OW 9487   5.385   6.742   5.422
 2863SOL    HW1 9488   5.472   6.702   5.452
 2863SOL    HW2 9489   5.312   6.676   5.434
 2864SOL     OW 9490   3.205   4.114   0.089
 2864SOL    HW1 9491   3.260   4.121   0.005
 2864SOL    HW2 9492   3.257   4.150   0.166
 2865SOL     OW 9493   5.313   5.620   4.279
 2865SOL    HW1 9494   5.234   5.569   4.244
 2865SOL    HW2 9495   5.308   5.625   4.379
 2866SOL     OW 9496   4.529   4.820   0.445
 2866SOL    HW1 9497   4.471   4.797   0.523
 2866SOL    HW2 9498   4.525   4.747   0.377
 2867SOL     OW 9499   5.049   6.108   2.077
 2867SOL    HW1 9500   5.032   6.020   2.033
 2867SOL    HW2 9501   5.121   6.157   2.028
 2868SOL     OW 9502   0.948   1.475   5.683
 2868SOL    HW1 9503   0.931   1.519   5.771
 2868SOL    HW2 9504   0.945   1.376   5.694
 2869SOL     OW 9505   5.966   5.652   4.638
 2869SOL    HW1 9506   5.917   5.674   4.554
 2869SOL    HW2 9507   5.959   5.554   4.657
 2870SOL     OW 9508   6.855   2.165   1.260
 2870SOL    HW1 9509   6.940   2.167   1.312
 2870SOL    HW2 9510   6.839   2.072   1.226
 2871SOL     OW 9511   5.505   1.726   1.159
 2871SOL    HW1 9512   5.590   1.771   1.188
 2871SOL    HW2 9513   5.435   1.739   1.230
 2872SOL     OW 9514   2.649   2.388   2.219
 2872SOL    HW1 9515   2.572   2.435   2.176
 2872SOL    HW2 9516   2.721   2.373   2.152
 2873SOL     OW 9517   1.002   5.972   1.052
 2873SOL    HW1 9518   1.088   5.931   1.082
 2873SOL    HW2 9519   0.956   5.910   0.989
 2874SOL     OW 9520   2.410   0.719   2.594
 2874SOL    HW1 9521   2.405   0.818   2.603
 2874SOL    HW2 9522   2.476   0.682   2.660
 2875SOL     OW 9523   2.953   6.633   2.689
 2875SOL    HW1 9524   2.858   6.632   2.718
 2875SOL    HW2 9525   3.010   6.671   2.762
 2876SOL     OW 9526   1.328   6.462   1.995
 2876SOL    HW1 9527   1.354   6.366   1.980
 2876SOL    HW2 9528   1.256   6.487   1.931
 2877SOL     OW 9529   1.079   1.933   6.464
 2877SOL    HW1 9530   1.007   1.865   6.475
 2877SOL    HW2 9531   1.057   2.013   6.520
 2878SOL     OW 9532   3.968   3.527   3.938
 2878SOL    HW1 9533   3.933   3.492   3.851
 2878SOL    HW2 9534   4.023   3.456   3.982
 2879SOL     OW 9535   4.275   3.840   0.150
 2879SOL    HW1 9536   4.223   3.905   0.204
 2879SOL    HW2 9537   4.263   3.748   0.187
 2880SOL     OW 9538   1.896   1.683   4.173
 2880SOL    HW1 9539   1.813   1.663   4.224
 2880SOL    HW2 9540   1.972   1.630   4.211
 2881SOL     OW 9541   4.828   6.128   6.513
 2881SOL    HW1 9542   4.779   6.161   6.433
 2881SOL    HW2 9543   4.809   6.187   6.592
 2882SOL     OW 9544   4.735   6.564   0.636
 2882SOL    HW1 9545   4.658   6.627   0.632
 2882SOL    HW2 9546   4.701   6.471   0.650
 2883SOL     OW 9547   6.158   5.888   3.805
 2883SOL    HW1 9548   6.145   5.791   3.824
 2883SOL    HW2 9549   6.254   5.906   3.786
 2884SOL     OW 9550   6.515   4.897   3.620
 2884SOL    HW1 9551   6.572   4.826   3.662
 2884SOL    HW2 9552   6.516   4.885   3.520
 2885SOL     OW 9553   1.176   2.590   2.961
 2885SOL    HW1 9554   1.171   2.635   2.872
 2885SOL    HW2 9555   1.146   2.654   3.032
 2886SOL     OW 9556   2.080   4.723   6.284
 2886SOL    HW1 9557   2.090   4.777   6.200
 2886SOL    HW2 9558   1.985   4.725   6.315
 2887SOL     OW 9559   0.819   5.480   3.752
 2887SOL    HW1 9560   0.841   5.544   3.826
 2887SOL    HW2 9561   0.903   5.458   3.702
 2888SOL     OW 9562   6.534   6.255   0.253
 2888SOL    HW1 9563   6.489   6.316   0.318
 2888SOL    HW2 9564   6.632   6.253   0.271
 2889SOL     OW 9565   3.447   6.532   2.997
 2889SOL    HW1 9566   3.465   6.435   3.014
 2889SOL    HW2 9567   3.363   6.542   2.943
 2890SOL     OW 9568   2.405   0.777   1.390
 2890SOL    HW1 9569   2.461   0.810   1.313
 2890SOL    HW2 9570   2.354   0.695   1.361
 2891SOL     OW 9571   0.676   2.009   4.250
 2891SOL    HW1 9572   0.604   2.062   4.203
 2891SOL    HW2 9573   0.764   2.054   4.237
 2892SOL     OW 9574   0.038   4.278   2.975
 2892SOL    HW1 9575   0.091   4.239   2.899
 2892SOL    HW2 9576   7.016   4.205   3.025
 2893SOL     OW 9577   6.687   5.303   4.402
 2893SOL    HW1 9578   6.749   5.352   4.464
 2893SOL    HW2 9579   6.721   5.210   4.388
 2894SOL     OW 9580   1.539   5.600   2.518
 2894SOL    HW1 9581   1.469   5.540   2.478
 2894SOL    HW2 9582   1.513   5.695   2.502
 2895SOL     OW 9583   4.111   6.723   6.272
 2895SOL    HW1 9584   4.034   6.713   6.335
 2895SOL    HW2 9585   4.196   6.697   6.318
 2896SOL     OW 9586   5.204   6.200   4.768
 2896SOL    HW1 9587   5.146   6.192   4.850
 2896SOL    HW2 9588   5.161   6.150   4.693
 2897SOL     OW 9589   3.722   4.863   3.387
 2897SOL    HW1 9590   3.806   4.816   3.360
 2897SOL    HW2 9591   3.729   4.892   3.482
 2898SOL     OW 9592   5.455   3.650   2.890
 2898SOL    HW1 9593   5.543   3.649   2.842
 2898SOL    HW2 9594   5.417   3.558   2.893
 2899SOL     OW 9595   7.005   3.307   1.072
 2899SOL    HW1 9596   0.050   3.372   1.037
 2899SOL    HW2 9597   6.971   3.338   1.161
 2900SOL     OW 9598   2.744   3.465   6.289
 2900SOL    HW1 9599   2.663   3.522   6.303
 2900SOL    HW2 9600   2.736   3.417   6.201
 2901SOL     OW 9601   0.941   3.974   3.824
 2901SOL    HW1 9602   0.928   4.055   3.881
 2901SOL    HW2 9603   0.934   3.892   3.881
 2902SOL     OW 9604   0.211   6.246   3.481
 2902SOL    HW1 9605   0.192   6.297   3.564
 2902SOL    HW2 9606   0.126   6.226   3.432
 2903SOL     OW 9607   4.378   5.369   0.514
 2903SOL    HW1 9608   4.444   5.408   0.580
 2903SOL    HW2 9609   4.349   5.441   0.451
 2904SOL     OW 9610   2.471   4.198   5.319
 2904SOL    HW1 9611   2.561   4.242   5.324
 2904SOL    HW2 9612   2.480   4.111   5.270
 2905SOL     OW 9613   0.710   5.596   1.631
 2905SOL    HW1 9614   0.634   5.607   1.567
 2905SOL    HW2 9615   0.793   5.637   1.592
 2906SOL     OW 9616   6.276   6.136   2.715
 2906SOL    HW1 9617   6.191   6.096   2.749
 2906SOL    HW2 9618   6.322   6.070   2.656
 2907SOL     OW 9619   0.271   0.949   4.001
 2907SOL    HW1 9620   0.210   0.871   4.010
 2907SOL    HW2 9621   0.351   0.922   3.948
 2908SOL     OW 9622   4.355   6.533   2.498
 2908SOL    HW1 9623   4.284   6.598   2.469
 2908SOL    HW2 9624   4.426   6.581   2.549
 2909SOL     OW 9625   0.853   6.102   2.657
 2909SOL    HW1 9626   0.840   6.108   2.558
 2909SOL    HW2 9627   0.875   6.193   2.693
 2910SOL     OW 9628   6.523   0.639   4.285
 2910SOL    HW1 9629   6.432   0.676   4.299
 2910SOL    HW2 9630   6.589   0.689   4.341
 2911SOL     OW 9631   6.506   4.037   4.961
 2911SOL    HW1 9632   6.450   4.058   5.041
 2911SOL    HW2 9633   6.465   4.080   4.880
 2912SOL     OW 9634   0.912   6.962   1.379
 2912SOL    HW1 9635   0.851   6.955   1.458
 2912SOL    HW2 9636   1.006   6.973   1.411
 2913SOL     OW 9637   2.825   6.772   1.444
 2913SOL    HW1 9638   2.888   6.733   1.511
 2913SOL    HW2 9639   2.757   6.829   1.491
 2914SOL     OW 9640   4.556   5.520   0.699
 2914SOL    HW1 9641   4.600   5.494   0.785
 2914SOL    HW2 9642   4.528   5.615   0.703
 2915SOL     OW 9643   2.519   7.014   2.648
 2915SOL    HW1 9644   2.553   6.986   2.558
 2915SOL    HW2 9645   2.541   0.088   2.663
 2916SOL     OW 9646   1.314   5.723   0.736
 2916SOL    HW1 9647   1.395   5.772   0.703
 2916SOL    HW2 9648   1.235   5.749   0.681
 2917SOL     OW 9649   2.373   6.183   4.450
 2917SOL    HW1 9650   2.333   6.261   4.400
 2917SOL    HW2 9651   2.456   6.213   4.496
 2918SOL     OW 9652   5.387   2.806   1.733
 2918SOL    HW1 9653   5.355   2.862   1.657
 2918SOL    HW2 9654   5.317   2.801   1.804
 2919SOL     OW 9655   1.135   5.420   4.343
 2919SOL    HW1 9656   1.082   5.504   4.333
 2919SOL    HW2 9657   1.142   5.375   4.254
 2920SOL     OW 9658   1.268   2.264   2.613
 2920SOL    HW1 9659   1.351   2.215   2.586
 2920SOL    HW2 9660   1.284   2.311   2.701
 2921SOL     OW 9661   1.203   0.397   4.569
 2921SOL    HW1 9662   1.182   0.467   4.637
 2921SOL    HW2 9663   1.243   0.317   4.614
 2922SOL     OW 9664   3.717   6.968   3.222
 2922SOL    HW1 9665   3.640   6.913   3.256
 2922SOL    HW2 9666   3.788   6.908   3.187
 2923SOL     OW 9667   6.246   6.160   4.642
 2923SOL    HW1 9668   6.332   6.116   4.668
 2923SOL    HW2 9669   6.257   6.260   4.646
 2924SOL     OW 9670   5.980   2.649   4.854
 2924SOL    HW1 9671   5.919   2.728   4.841
 2924SOL    HW2 9672   5.977   2.621   4.950
 2925SOL     OW 9673   4.845   0.075   6.032
 2925SOL    HW1 9674   4.920   0.130   5.996
 2925SOL    HW2 9675   4.782   0.133   6.083
 2926SOL     OW 9676   6.990   2.166   4.301
 2926SOL    HW1 9677   0.002   2.072   4.293
 2926SOL    HW2 9678   6.899   2.164   4.343
 2927SOL     OW 9679   1.024   2.391   1.841
 2927SOL    HW1 9680   1.084   2.360   1.915
 2927SOL    HW2 9681   1.080   2.428   1.766
 2928SOL     OW 9682   6.576   3.179   0.055
 2928SOL    HW1 9683   6.561   3.180   0.154
 2928SOL    HW2 9684   6.493   3.210   0.008
 2929SOL     OW 9685   2.555   2.523   4.963
 2929SOL    HW1 9686   2.474   2.577   4.986
 2929SOL    HW2 9687   2.565   2.519   4.863
 2930SOL     OW 9688   6.730   4.362   5.058
 2930SOL    HW1 9689   6.810   4.419   5.077
 2930SOL    HW2 9690   6.759   4.278   5.013
 2931SOL     OW 9691   5.400   4.509   5.302
 2931SOL    HW1 9692   5.351   4.496   5.388
 2931SOL    HW2 9693   5.457   4.591   5.307
 2932SOL     OW 9694   6.873   5.411   0.778
 2932SOL    HW1 9695   6.791   5.450   0.820
 2932SOL    HW2 9696   6.880   5.314   0.803
 2933SOL     OW 9697   1.262   0.520   1.015
 2933SOL    HW1 9698   1.168   0.520   0.980
 2933SOL    HW2 9699   1.294   0.614   1.023
 2934SOL     OW 9700   3.903   4.595   0.294
 2934SOL    HW1 9701   3.838   4.591   0.218
 2934SOL    HW2 9702   3.951   4.682   0.293
 2935SOL     OW 9703   0.086   2.252   6.113
 2935SOL    HW1 9704   0.060   2.168   6.159
 2935SOL    HW2 9705   0.138   2.310   6.176
 2936SOL     OW 9706   3.995   6.073   0.691
 2936SOL    HW1 9707   4.091   6.094   0.677
 2936SOL    HW2 9708   3.971   6.086   0.787
 2937SOL     OW 9709   4.556   4.856   2.301
 2937SOL    HW1 9710   4.511   4.824   2.217
 2937SOL    HW2 9711   4.530   4.951   2.318
 2938SOL     OW 9712   6.189   6.081   6.907
 2938SOL    HW1 9713   6.237   6.003   6.949
 2938SOL    HW2 9714   6.240   6.112   6.827
 2939SOL     OW 9715   0.317   5.825   1.704
 2939SOL    HW1 9716   0.340   5.731   1.728
 2939SOL    HW2 9717   0.267   5.868   1.779
 2940SOL     OW 9718   4.285   6.946   3.641
 2940SOL    HW1 9719   4.312   7.019   3.578
 2940SOL    HW2 9720   4.338   6.953   3.725
 2941SOL     OW 9721   1.550   4.053   3.820
 2941SOL    HW1 9722   1.600   4.026   3.903
 2941SOL    HW2 9723   1.615   4.067   3.745
 2942SOL     OW 9724   3.604   1.792   1.279
 2942SOL    HW1 9725   3.506   1.788   1.293
 2942SOL    HW2 9726   3.650   1.806   1.367
 2943SOL     OW 9727   6.066   4.053   3.475
 2943SOL    HW1 9728   6.127   4.022   3.402
 2943SOL    HW2 9729   6.070   4.153   3.481
 2944SOL     OW 9730   1.599   5.543   2.982
 2944SOL    HW1 9731   1.567   5.489   3.060
 2944SOL    HW2 9732   1.697   5.562   2.992
 2945SOL     OW 9733   5.251   4.687   1.622
 2945SOL    HW1 9734   5.202   4.732   1.547
 2945SOL    HW2 9735   5.256   4.749   1.700
 2946SOL     OW 9736   3.381   4.114   5.679
 2946SOL    HW1 9737   3.464   4.087   5.630
 2946SOL    HW2 9738   3.301   4.071   5.637
 2947SOL     OW 9739   6.472   6.699   0.453
 2947SOL    HW1 9740   6.465   6.600   0.451
 2947SOL    HW2 9741   6.397   6.739   0.400
 2948SOL     OW 9742   6.083   4.076   1.920
 2948SOL    HW1 9743   6.068   4.049   2.015
 2948SOL    HW2 9744   6.011   4.139   1.892
 2949SOL     OW 9745   0.975   0.272   0.780
 2949SOL    HW1 9746   0.959   0.198   0.845
 2949SOL    HW2 9747   0.935   0.248   0.691
 2950SOL     OW 9748   5.646   4.447   3.020
 2950SOL    HW1 9749   5.733   4.407   2.993
 2950SOL    HW2 9750   5.571   4.398   2.976
 2951SOL     OW 9751   6.527   1.297   1.521
 2951SOL    HW1 9752   6.533   1.280   1.422
 2951SOL    HW2 9753   6.613   1.336   1.553
 2952SOL     OW 9754   5.747   1.499   3.844
 2952SOL    HW1 9755   5.723   1.416   3.894
 2952SOL    HW2 9756   5.779   1.568   3.909
 2953SOL     OW 9757   0.584   5.692   3.910
 2953SOL    HW1 9758   0.651   5.762   3.888
 2953SOL    HW2 9759   0.584   5.621   3.840
 2954SOL     OW 9760   6.910   4.287   6.344
 2954SOL    HW1 9761   6.824   4.296   6.293
 2954SOL    HW2 9762   6.983   4.261   6.280
 2955SOL     OW 9763   2.232   4.817   6.536
 2955SOL    HW1 9764   2.168   4.815   6.459
 2955SOL    HW2 9765   2.263   4.911   6.552
 2956SOL     OW 9766   6.257   4.570   3.236
 2956SOL    HW1 9767   6.189   4.571   3.163
 2956SOL    HW2 9768   6.348   4.557   3.197
 2957SOL     OW 9769   2.619   5.025   0.886
 2957SOL    HW1 9770   2.719   5.025   0.883
 2957SOL    HW2 9771   2.587   5.066   0.971
 2958SOL     OW 9772   2.164   5.513   2.131
 2958SOL    HW1 9773   2.081   5.563   2.157
 2958SOL    HW2 9774   2.227   5.511   2.208
 2959SOL     OW 9775   0.020   3.294   2.939
 2959SOL    HW1 9776   0.089   3.225   2.963
 2959SOL    HW2 9777   0.012   3.299   2.839
 2960SOL     OW 9778   4.890   0.699   0.167
 2960SOL    HW1 9779   4.837   0.781   0.146
 2960SOL    HW2 9780   4.841   0.617   0.138
 2961SOL     OW 9781   5.344   4.285   2.036
 2961SOL    HW1 9782   5.273   4.316   2.100
 2961SOL    HW2 9783   5.434   4.312   2.071
 2962SOL     OW 9784   6.968   0.239   3.157
 2962SOL    HW1 9785   6.917   0.153   3.164
 2962SOL    HW2 9786   6.952   0.281   3.068
 2963SOL     OW 9787   2.152   0.899   4.850
 2963SOL    HW1 9788   2.146   0.996   4.829
 2963SOL    HW2 9789   2.192   0.886   4.941
 2964SOL     OW 9790   1.414   1.837   6.903
 2964SOL    HW1 9791   1.405   1.933   6.928
 2964SOL    HW2 9792   1.431   1.782   6.984
 2965SOL     OW 9793   0.681   0.068   5.018
 2965SOL    HW1 9794   0.620   0.132   4.971
 2965SOL    HW2 9795   0.680   0.086   5.116
 2966SOL     OW 9796   3.379   6.128   2.759
 2966SOL    HW1 9797   3.456   6.153   2.700
 2966SOL    HW2 9798   3.396   6.160   2.852
 2967SOL     OW 9799   5.471   7.001   5.449
 2967SOL    HW1 9800   5.388   0.024   5.482
 2967SOL    HW2 9801   5.446   6.913   5.407
 2968SOL     OW 9802   2.001   2.800   1.262
 2968SOL    HW1 9803   2.025   2.775   1.356
 2968SOL    HW2 9804   2.021   2.896   1.247
 2969SOL     OW 9805   5.099   3.240   4.401
 2969SOL    HW1 9806   5.017   3.272   4.449
 2969SOL    HW2 9807   5.153   3.182   4.462
 2970SOL     OW 9808   2.356   2.362   4.386
 2970SOL    HW1 9809   2.305   2.373   4.301
 2970SOL    HW2 9810   2.366   2.264   4.407
 2971SOL     OW 9811   5.566   2.661   6.376
 2971SOL    HW1 9812   5.611   2.608   6.448
 2971SOL    HW2 9813   5.602   2.633   6.287
 2972SOL     OW 9814   5.717   5.296   0.160
 2972SOL    HW1 9815   5.648   5.224   0.157
 2972SOL    HW2 9816   5.675   5.385   0.142
 2973SOL     OW 9817   4.899   1.569   2.685
 2973SOL    HW1 9818   4.992   1.603   2.701
 2973SOL    HW2 9819   4.893   1.475   2.719
 2974SOL     OW 9820   5.075   6.469   3.206
 2974SOL    HW1 9821   5.010   6.469   3.129
 2974SOL    HW2 9822   5.025   6.460   3.292
 2975SOL     OW 9823   4.722   4.226   3.652
 2975SOL    HW1 9824   4.756   4.141   3.614
 2975SOL    HW2 9825   4.710   4.216   3.751
 2976SOL     OW 9826   4.279   2.154   1.970
 2976SOL    HW1 9827   4.248   2.114   1.884
 2976SOL    HW2 9828   4.336   2.234   1.951
 2977SOL     OW 9829   1.281   1.119   1.442
 2977SOL    HW1 9830   1.364   1.131   1.387
 2977SOL    HW2 9831   1.253   1.023   1.438
 2978SOL     OW 9832   4.397   5.054   6.062
 2978SOL    HW1 9833   4.393   5.090   5.969
 2978SOL    HW2 9834   4.492   5.047   6.091
 2979SOL     OW 9835   3.160   0.563   4.058
 2979SOL    HW1 9836   3.199   0.518   4.139
 2979SOL    HW2 9837   3.163   0.500   3.981
 2980SOL     OW 9838   3.841   3.383   5.588
 2980SOL    HW1 9839   3.875   3.473   5.562
 2980SOL    HW2 9840   3.852   3.371   5.687
 2981SOL     OW 9841   1.574   1.175   1.360
 2981SOL    HW1 9842   1.627   1.223   1.291
 2981SOL    HW2 9843   1.615   1.085   1.377
 2982SOL     OW 9844   0.438   0.310   1.620
 2982SOL    HW1 9845   0.461   0.217   1.590
 2982SOL    HW2 9846   0.424   0.311   1.719
 2983SOL     OW 9847   6.274   3.168   5.605
 2983SOL    HW1 9848   6.249   3.144   5.511
 2983SOL    HW2 9849   6.210   3.237   5.640
 2984SOL     OW 9850   0.682   4.945   0.965
 2984SOL    HW1 9851   0.664   4.849   0.990
 2984SOL    HW2 9852   0.769   4.950   0.916
 2985SOL     OW 9853   0.236   6.734   5.456
 2985SOL    HW1 9854   0.250   6.741   5.357
 2985SOL    HW2 9855   0.268   6.818   5.500
 2986SOL     OW 9856   3.945   3.611   2.268
 2986SOL    HW1 9857   3.892   3.557   2.203
 2986SOL    HW2 9858   4.007   3.552   2.318
 2987SOL     OW 9859   1.968   0.511   4.781
 2987SOL    HW1 9860   1.958   0.512   4.682
 2987SOL    HW2 9861   1.906   0.443   4.821
 2988SOL     OW 9862   6.911   1.362   6.889
 2988SOL    HW1 9863   6.871   1.332   6.975
 2988SOL    HW2 9864   6.990   1.304   6.867
 2989SOL     OW 9865   5.073   3.975   4.373
 2989SOL    HW1 9866   5.067   3.881   4.406
 2989SOL    HW2 9867   5.169   4.003   4.371
 2990SOL     OW 9868   5.245   1.391   4.312
 2990SOL    HW1 9869   5.287   1.458   4.250
 2990SOL    HW2 9870   5.255   1.300   4.274
 2991SOL     OW 9871   6.940   4.247   1.235
 2991SOL    HW1 9872   6.868   4.306   1.199
 2991SOL    HW2 9873   6.957   4.269   1.331
 2992SOL     OW 9874   0.289   3.462   5.562
 2992SOL    HW1 9875   0.270   3.458   5.464
 2992SOL    HW2 9876   0.380   3.425   5.581
 2993SOL     OW 9877   1.055   4.295   0.403
 2993SOL    HW1 9878   1.057   4.240   0.319
 2993SOL    HW2 9879   1.009   4.243   0.475
 2994SOL     OW 9880   4.356   6.369   6.347
 2994SOL    HW1 9881   4.354   6.469   6.342
 2994SOL    HW2 9882   4.350   6.331   6.254
 2995SOL     OW 9883   5.451   0.623   1.414
 2995SOL    HW1 9884   5.388   0.636   1.490
 2995SOL    HW2 9885   5.447   0.528   1.383
 2996SOL     OW 9886   0.058   0.864   4.665
 2996SOL    HW1 9887   0.040   0.830   4.573
 2996SOL    HW2 9888   0.052   0.788   4.730
 2997SOL     OW 9889   5.177   6.962   3.870
 2997SOL    HW1 9890   5.170   0.018   3.809
 2997SOL    HW2 9891   5.271   6.927   3.869
 2998SOL     OW 9892   2.442   1.465   2.949
 2998SOL    HW1 9893   2.388   1.410   3.014
 2998SOL    HW2 9894   2.417   1.439   2.856
 2999SOL     OW 9895   2.177   4.302   0.692
 2999SOL    HW1 9896   2.264   4.324   0.735
 2999SOL    HW2 9897   2.177   4.206   0.664
 3000SOL     OW 9898   2.895   3.683   4.685
 3000SOL    HW1 9899   2.892   3.700   4.784
 3000SOL    HW2 9900   2.881   3.586   4.667
 3001SOL     OW 9901   5.643   0.518   5.861
 3001SOL    HW1 9902   5.635   0.564   5.950
 3001SOL    HW2 9903   5.552   0.492   5.829
 3002SOL     OW 9904   1.655   1.773   1.674
 3002SOL    HW1 9905   1.690   1.836   1.605
 3002SOL    HW2 9906   1.648   1.820   1.762
 3003SOL     OW 9907   1.747   6.246   0.708
 3003SOL    HW1 9908   1.726   6.332   0.754
 3003SOL    HW2 9909   1.708   6.247   0.615
 3004SOL     OW 9910   2.133   6.544   3.883
 3004SOL    HW1 9911   2.159   6.459   3.931
 3004SOL    HW2 9912   2.206   6.611   3.892
 3005SOL     OW 9913   0.681   2.271   5.988
 3005SOL    HW1 9914   0.749   2.317   5.931
 3005SOL    HW2 9915   0.599   2.253   5.934
 3006SOL     OW 9916   5.106   1.535   5.721
 3006SOL    HW1 9917   5.186   1.589   5.694
 3006SOL    HW2 9918   5.050   1.587   5.785
 3007SOL     OW 9919   5.524   5.504   0.106
 3007SOL    HW1 9920   5.471   5.437   0.158
 3007SOL    HW2 9921   5.494   5.596   0.129
 3008SOL     OW 9922   5.368   2.800   6.071
 3008SOL    HW1 9923   5.427   2.747   6.011
 3008SOL    HW2 9924   5.279   2.755   6.080
 3009SOL     OW 9925   6.839   3.557   2.312
 3009SOL    HW1 9926   6.904   3.485   2.340
 3009SOL    HW2 9927   6.841   3.567   2.213
 3010SOL     OW 9928   3.718   5.851   6.841
 3010SOL    HW1 9929   3.650   5.802   6.787
 3010SOL    HW2 9930   3.691   5.946   6.852
 3011SOL     OW 9931   6.617   0.017   1.026
 3011SOL    HW1 9932   6.661   0.066   1.101
 3011SOL    HW2 9933   6.648   0.055   0.939
 3012SOL     OW 9934   2.299   2.710   5.569
 3012SOL    HW1 9935   2.301   2.745   5.663
 3012SOL    HW2 9936   2.370   2.641   5.557
 3013SOL     OW 9937   0.663   4.122   5.328
 3013SOL    HW1 9938   0.616   4.180   5.395
 3013SOL    HW2 9939   0.611   4.037   5.316
 3014SOL     OW 9940   5.098   6.640   5.843
 3014SOL    HW1 9941   5.163   6.569   5.818
 3014SOL    HW2 9942   5.140   6.730   5.831
 3015SOL     OW 9943   1.524   0.930   0.044
 3015SOL    HW1 9944   1.609   0.883   0.023
 3015SOL    HW2 9945   1.446   0.871   0.021
 3016SOL     OW 9946   1.835   6.412   4.346
 3016SOL    HW1 9947   1.864   6.367   4.262
 3016SOL    HW2 9948   1.735   6.422   4.346
 3017SOL     OW 9949   0.537   5.438   0.574
 3017SOL    HW1 9950   0.486   5.514   0.614
 3017SOL    HW2 9951   0.488   5.402   0.495
 3018SOL     OW 9952   3.317   7.002   0.599
 3018SOL    HW1 9953   3.259   6.972   0.522
 3018SOL    HW2 9954   3.407   6.960   0.591
 3019SOL     OW 9955   1.909   0.601   5.584
 3019SOL    HW1 9956   1.874   0.682   5.537
 3019SOL    HW2 9957   2.009   0.601   5.579
 3020SOL     OW 9958   6.130   4.052   0.198
 3020SOL    HW1 9959   6.184   4.039   0.115
 3020SOL    HW2 9960   6.159   4.136   0.243
 3021SOL     OW 9961   4.327   6.790   4.723
 3021SOL    HW1 9962   4.354   6.757   4.632
 3021SOL    HW2 9963   4.390   6.863   4.752
 3022SOL     OW 9964   3.818   5.881   3.806
 3022SOL    HW1 9965   3.761   5.838   3.736
 3022SOL    HW2 9966   3.794   5.844   3.896
 3023SOL     OW 9967   5.187   6.247   2.967
 3023SOL    HW1 9968   5.147   6.331   2.931
 3023SOL    HW2 9969   5.219   6.262   3.061
 3024SOL     OW 9970   0.004   6.439   6.989
 3024SOL    HW1 9971   7.004   6.410   0.060
 3024SOL    HW2 9972   6.978   6.523   6.967
 3025SOL     OW 9973   3.066   5.742   0.305
 3025SOL    HW1 9974   3.026   5.655   0.277
 3025SOL    HW2 9975   3.009   5.785   0.375
 3026SOL     OW 9976   6.686   1.114   1.299
 3026SOL    HW1 9977   6.783   1.139   1.291
 3026SOL    HW2 9978   6.671   1.064   1.384
 3027SOL     OW 9979   4.801   1.143   1.439
 3027SOL    HW1 9980   4.866   1.208   1.399
 3027SOL    HW2 9981   4.744   1.104   1.366
 3028SOL     OW 9982   3.182   3.945   5.627
 3028SOL    HW1 9983   3.138   3.857   5.644
 3028SOL    HW2 9984   3.197   3.957   5.529
 3029SOL     OW 9985   0.286   2.953   4.698
 3029SOL    HW1 9986   0.338   2.952   4.612
 3029SOL    HW2 9987   0.189   2.947   4.679
 3030SOL     OW 9988   2.594   2.925   0.908
 3030SOL    HW1 9989   2.670   2.927   0.844
 3030SOL    HW2 9990   2.628   2.931   1.002
 3031SOL     OW 9991   1.179   6.470   0.964
 3031SOL    HW1 9992   1.207   6.526   1.042
 3031SOL    HW2 9993   1.245   6.395   0.951
 3032SOL     OW 9994   1.854   0.487   2.923
 3032SOL    HW1 9995   1.833   0.391   2.942
 3032SOL    HW2 9996   1.813   0.513   2.835
 3033SOL     OW 9997   6.576   2.180   4.795
 3033SOL    HW1 9998   6.607   2.159   4.887
 3033SOL    HW2 9999   6.654   2.207   4.738
 3034SOL     OW10000   6.803   5.340   3.206
 3034SOL    HW110001   6.725   5.371   3.152
 3034SOL    HW210002   6.864   5.285   3.149
 3035SOL     OW10003   1.392   2.945   7.011
 3035SOL    HW110004   1.402   2.949   6.911
 3035SOL    HW210005   1.453   3.013   0.030
 3036SOL     OW10006   3.294   2.351   6.429
 3036SOL    HW110007   3.281   2.252   6.421
 3036SOL    HW210008   3.288   2.392   6.338
 3037SOL     OW10009   0.170   5.809   6.925
 3037SOL    HW110010   0.253   5.765   6.959
 3037SOL    HW210011   0.090   5.774   6.975
 3038SOL     OW10012   5.867   4.421   6.801
 3038SOL    HW110013   5.926   4.500   6.786
 3038SOL    HW210014   5.828   4.426   6.893
 3039SOL     OW10015   6.938   4.036   6.576
 3039SOL    HW110016   6.943   3.970   6.651
 3039SOL    HW210017   6.942   4.129   6.614
 3040SOL     OW10018   5.016   4.116   5.899
 3040SOL    HW110019   5.075   4.168   5.961
 3040SOL    HW210020   5.034   4.018   5.910
 3041SOL     OW10021   1.810   4.376   5.380
 3041SOL    HW110022   1.863   4.423   5.310
 3041SOL    HW210023   1.809   4.277   5.361
 3042SOL     OW10024   6.612   5.254   3.418
 3042SOL    HW110025   6.610   5.155   3.402
 3042SOL    HW210026   6.676   5.297   3.355
 3043SOL     OW10027   2.750   4.691   0.591
 3043SOL    HW110028   2.667   4.741   0.617
 3043SOL    HW210029   2.830   4.744   0.618
 3044SOL     OW10030   3.603   3.648   4.984
 3044SOL    HW110031   3.658   3.610   5.059
 3044SOL    HW210032   3.662   3.668   4.906
 3045SOL     OW10033   4.588   1.863   1.732
 3045SOL    HW110034   4.563   1.766   1.736
 3045SOL    HW210035   4.569   1.906   1.821
 3046SOL     OW10036   5.362   6.105   0.981
 3046SOL    HW110037   5.410   6.128   0.896
 3046SOL    HW210038   5.285   6.167   0.993
 3047SOL     OW10039   5.811   1.330   5.240
 3047SOL    HW110040   5.717   1.311   5.269
 3047SOL    HW210041   5.872   1.260   5.276
 3048SOL     OW10042   3.498   4.336   0.734
 3048SOL    HW110043   3.413   4.296   0.698
 3048SOL    HW210044   3.531   4.405   0.671
 3049SOL     OW10045   1.736   1.133   3.837
 3049SOL    HW110046   1.800   1.075   3.785
 3049SOL    HW210047   1.735   1.103   3.932
 3050SOL     OW10048   3.138   2.222   1.194
 3050SOL    HW110049   3.060   2.274   1.228
 3050SOL    HW210050   3.105   2.139   1.149
 3051SOL     OW10051   1.997   5.313   5.495
 3051SOL    HW110052   2.060   5.279   5.425
 3051SOL    HW210053   2.032   5.289   5.585
 3052SOL     OW10054   6.698   6.807   2.091
 3052SOL    HW110055   6.608   6.794   2.050
 3052SOL    HW210056   6.728   6.722   2.135
 3053SOL     OW10057   1.129   4.019   6.976
 3053SOL    HW110058   1.080   4.083   0.013
 3053SOL    HW210059   1.156   4.066   6.892
 3054SOL     OW10060   5.602   1.038   2.658
 3054SOL    HW110061   5.602   0.990   2.746
 3054SOL    HW210062   5.596   1.136   2.674
 3055SOL     OW10063   5.850   6.123   6.888
 3055SOL    HW110064   5.872   6.179   6.808
 3055SOL    HW210065   5.907   6.151   6.965
 3056SOL     OW10066   4.680   1.380   5.607
 3056SOL    HW110067   4.593   1.343   5.574
 3056SOL    HW210068   4.742   1.394   5.531
 3057SOL     OW10069   5.723   4.748   3.541
 3057SOL    HW110070   5.766   4.834   3.512
 3057SOL    HW210071   5.791   4.690   3.586
 3058SOL     OW10072   0.242   4.487   6.572
 3058SOL    HW110073   0.297   4.404   6.577
 3058SOL    HW210074   0.173   4.485   6.644
 3059SOL     OW10075   1.995   2.133   3.945
 3059SOL    HW110076   1.904   2.162   3.975
 3059SOL    HW210077   1.987   2.078   3.862
 3060SOL     OW10078   5.043   5.260   5.026
 3060SOL    HW110079   5.001   5.173   5.002
 3060SOL    HW210080   5.107   5.246   5.102
 3061SOL     OW10081   5.454   5.877   5.086
 3061SOL    HW110082   5.434   5.826   5.169
 3061SOL    HW210083   5.390   5.851   5.014
 3062SOL     OW10084   4.546   4.706   1.428
 3062SOL    HW110085   4.485   4.642   1.382
 3062SOL    HW210086   4.516   4.719   1.522
 3063SOL     OW10087   0.303   4.698   1.711
 3063SOL    HW110088   0.204   4.685   1.719
 3063SOL    HW210089   0.337   4.645   1.633
 3064SOL     OW10090   4.797   1.801   6.525
 3064SOL    HW110091   4.812   1.763   6.617
 3064SOL    HW210092   4.798   1.728   6.458
 3065SOL     OW10093   6.871   0.922   6.537
 3065SOL    HW110094   6.890   0.887   6.446
 3065SOL    HW210095   6.887   1.021   6.539
 3066SOL     OW10096   5.165   6.227   5.751
 3066SOL    HW110097   5.196   6.208   5.844
 3066SOL    HW210098   5.222   6.299   5.710
 3067SOL     OW10099   1.516   1.892   6.101
 3067SOL    HW110100   1.475   1.967   6.154
 3067SOL    HW210101   1.615   1.897   6.109
 3068SOL     OW10102   0.371   1.249   0.584
 3068SOL    HW110103   0.403   1.266   0.678
 3068SOL    HW210104   0.397   1.156   0.557
 3069SOL     OW10105   5.495   0.337   2.542
 3069SOL    HW110106   5.584   0.351   2.585
 3069SOL    HW210107   5.430   0.302   2.609
 3070SOL     OW10108   2.146   0.620   1.041
 3070SOL    HW110109   2.233   0.576   1.020
 3070SOL    HW210110   2.123   0.601   1.137
 3071SOL     OW10111   6.708   3.862   4.612
 3071SOL    HW110112   6.676   3.839   4.705
 3071SOL    HW210113   6.785   3.926   4.619
 3072SOL     OW10114   2.134   0.322   6.534
 3072SOL    HW110115   2.085   0.391   6.483
 3072SOL    HW210116   2.232   0.327   6.513
 3073SOL     OW10117   6.210   4.968   1.113
 3073SOL    HW110118   6.288   4.951   1.173
 3073SOL    HW210119   6.127   4.976   1.168
 3074SOL     OW10120   1.774   3.269   1.745
 3074SOL    HW110121   1.825   3.310   1.820
 3074SOL    HW210122   1.764   3.171   1.761
 3075SOL     OW10123   3.655   5.537   2.134
 3075SOL    HW110124   3.666   5.494   2.045
 3075SOL    HW210125   3.617   5.471   2.198
 3076SOL     OW10126   0.481   0.402   5.326
 3076SOL    HW110127   0.399   0.349   5.305
 3076SOL    HW210128   0.466   0.456   5.409
 3077SOL     OW10129   6.886   3.920   2.702
 3077SOL    HW110130   6.967   3.907   2.760
 3077SOL    HW210131   6.817   3.852   2.725
 3078SOL     OW10132   6.465   3.102   1.837
 3078SOL    HW110133   6.565   3.108   1.835
 3078SOL    HW210134   6.429   3.162   1.908
 3079SOL     OW10135   2.083   3.448   5.479
 3079SOL    HW110136   2.037   3.373   5.431
 3079SOL    HW210137   2.173   3.463   5.438
 3080SOL     OW10138   4.083   4.940   0.575
 3080SOL    HW110139   4.071   4.877   0.652
 3080SOL    HW210140   4.063   4.893   0.489
 3081SOL     OW10141   1.329   3.732   0.054
 3081SOL    HW110142   1.365   3.739   6.983
 3081SOL    HW210143   1.229   3.727   0.051
 3082SOL     OW10144   4.624   5.078   4.691
 3082SOL    HW110145   4.599   5.026   4.610
 3082SOL    HW210146   4.562   5.155   4.703
 3083SOL     OW10147   3.428   5.998   1.766
 3083SOL    HW110148   3.373   5.929   1.720
 3083SOL    HW210149   3.414   5.991   1.865
 3084SOL     OW10150   0.585   3.513   4.157
 3084SOL    HW110151   0.561   3.562   4.073
 3084SOL    HW210152   0.536   3.426   4.160
 3085SOL     OW10153   5.266   4.609   0.731
 3085SOL    HW110154   5.201   4.563   0.791
 3085SOL    HW210155   5.350   4.629   0.782
 3086SOL     OW10156   5.984   6.596   6.443
 3086SOL    HW110157   6.068   6.650   6.440
 3086SOL    HW210158   5.916   6.637   6.382
 3087SOL     OW10159   3.278   6.815   2.033
 3087SOL    HW110160   3.230   6.849   2.114
 3087SOL    HW210161   3.298   6.892   1.972
 3088SOL     OW10162   1.598   2.692   5.705
 3088SOL    HW110163   1.513   2.687   5.653
 3088SOL    HW210164   1.628   2.787   5.711
 3089SOL     OW10165   4.258   6.431   4.923
 3089SOL    HW110166   4.201   6.444   4.842
 3089SOL    HW210167   4.355   6.437   4.896
 3090SOL     OW10168   1.537   2.004   2.264
 3090SOL    HW110169   1.631   1.968   2.263
 3090SOL    HW210170   1.492   1.982   2.178
 3091SOL     OW10171   1.050   2.057   1.395
 3091SOL    HW110172   1.030   2.150   1.426
 3091SOL    HW210173   1.140   2.055   1.352
 3092SOL     OW10174   6.354   1.064   2.672
 3092SOL    HW110175   6.348   1.051   2.573
 3092SOL    HW210176   6.299   1.142   2.699
 3093SOL     OW10177   5.734   5.033   0.042
 3093SOL    HW110178   5.653   5.053   0.097
 3093SOL    HW210179   5.816   5.065   0.090
 3094SOL     OW10180   2.769   1.913   6.385
 3094SOL    HW110181   2.844   1.924   6.320
 3094SOL    HW210182   2.754   2.000   6.433
 3095SOL     OW10183   1.913   3.444   5.182
 3095SOL    HW110184   2.012   3.432   5.187
 3095SOL    HW210185   1.888   3.531   5.223
 3096SOL     OW10186   0.736   3.735   4.556
 3096SOL    HW110187   0.824   3.767   4.522
 3096SOL    HW210188   0.686   3.811   4.597
 3097SOL     OW10189   5.491   2.549   5.195
 3097SOL    HW110190   5.437   2.626   5.229
 3097SOL    HW210191   5.464   2.528   5.102
 3098SOL     OW10192   1.942   2.817   2.040
 3098SOL    HW110193   1.955   2.746   1.971
 3098SOL    HW210194   2.008   2.803   2.114
 3099SOL     OW10195   0.917   6.120   4.673
 3099SOL    HW110196   0.890   6.168   4.590
 3099SOL    HW210197   0.837   6.080   4.717
 3100SOL     OW10198   6.352   5.445   2.368
 3100SOL    HW110199   6.347   5.346   2.368
 3100SOL    HW210200   6.448   5.474   2.362
 3101SOL     OW10201   3.618   6.504   5.508
 3101SOL    HW110202   3.560   6.512   5.428
 3101SOL    HW210203   3.587   6.429   5.566
 3102SOL     OW10204   0.124   5.105   0.748
 3102SOL    HW110205   0.177   5.060   0.676
 3102SOL    HW210206   0.138   5.204   0.742
 3103SOL     OW10207   3.190   1.061   1.237
 3103SOL    HW110208   3.173   0.968   1.269
 3103SOL    HW210209   3.263   1.102   1.291
 3104SOL     OW10210   4.591   1.018   5.556
 3104SOL    HW110211   4.520   0.951   5.536
 3104SOL    HW210212   4.556   1.085   5.622
 3105SOL     OW10213   6.283   3.955   0.511
 3105SOL    HW110214   6.264   3.858   0.495
 3105SOL    HW210215   6.381   3.971   0.503
 3106SOL     OW10216   6.223   0.198   5.740
 3106SOL    HW110217   6.194   0.249   5.660
 3106SOL    HW210218   6.168   0.115   5.749
 3107SOL     OW10219   3.879   1.462   5.909
 3107SOL    HW110220   3.911   1.555   5.930
 3107SOL    HW210221   3.843   1.420   5.992
 3108SOL     OW10222   2.251   4.080   3.720
 3108SOL    HW110223   2.261   4.173   3.686
 3108SOL    HW210224   2.253   4.081   3.820
 3109SOL     OW10225   6.358   5.874   4.026
 3109SOL    HW110226   6.456   5.853   4.023
 3109SOL    HW210227   6.306   5.789   4.034
 3110SOL     OW10228   0.692   4.436   3.055
 3110SOL    HW110229   0.606   4.392   3.080
 3110SOL    HW210230   0.746   4.454   3.137
 3111SOL     OW10231   5.724   4.689   4.225
 3111SOL    HW110232   5.626   4.707   4.214
 3111SOL    HW210233   5.745   4.597   4.193
 3112SOL     OW10234   4.008   2.072   6.389
 3112SOL    HW110235   3.990   2.161   6.429
 3112SOL    HW210236   4.086   2.078   6.327
 3113SOL     OW10237   2.703   5.683   3.232
 3113SOL    HW110238   2.687   5.584   3.224
 3113SOL    HW210239   2.626   5.726   3.277
 3114SOL     OW10240   4.879   1.074   6.105
 3114SOL    HW110241   4.813   1.038   6.171
 3114SOL    HW210242   4.938   1.141   6.151
 3115SOL     OW10243   4.774   5.460   5.027
 3115SOL    HW110244   4.862   5.421   5.002
 3115SOL    HW210245   4.759   5.545   4.976
 3116SOL     OW10246   0.455   1.371   0.882
 3116SOL    HW110247   0.426   1.402   0.972
 3116SOL    HW210248   0.528   1.431   0.848
 3117SOL     OW10249   5.010   1.270   5.731
 3117SOL    HW110250   4.919   1.278   5.770
 3117SOL    HW210251   5.045   1.361   5.710
 3118SOL     OW10252   1.685   0.619   3.503
 3118SOL    HW110253   1.619   0.693   3.512
 3118SOL    HW210254   1.658   0.542   3.561
 3119SOL     OW10255   4.247   4.704   5.734
 3119SOL    HW110256   4.214   4.796   5.715
 3119SOL    HW210257   4.322   4.708   5.801
 3120SOL     OW10258   1.495   6.035   5.337
 3120SOL    HW110259   1.440   6.105   5.290
 3120SOL    HW210260   1.591   6.047   5.313
 3121SOL     OW10261   4.495   1.349   4.374
 3121SOL    HW110262   4.481   1.431   4.318
 3121SOL    HW210263   4.409   1.299   4.382
 3122SOL     OW10264   4.438   5.626   4.123
 3122SOL    HW110265   4.470   5.714   4.159
 3122SOL    HW210266   4.453   5.623   4.024
 3123SOL     OW10267   2.126   1.469   3.769
 3123SOL    HW110268   2.059   1.513   3.829
 3123SOL    HW210269   2.211   1.522   3.770
 3124SOL     OW10270   4.871   6.978   3.597
 3124SOL    HW110271   4.825   0.016   3.532
 3124SOL    HW210272   4.832   6.991   3.688
 3125SOL     OW10273   1.375   1.616   5.412
 3125SOL    HW110274   1.324   1.576   5.488
 3125SOL    HW210275   1.471   1.622   5.436
 3126SOL     OW10276   5.650   5.626   5.099
 3126SOL    HW110277   5.557   5.619   5.063
 3126SOL    HW210278   5.699   5.541   5.078
 3127SOL     OW10279   0.408   0.954   5.234
 3127SOL    HW110280   0.426   1.052   5.231
 3127SOL    HW210281   0.378   0.929   5.326
 3128SOL     OW10282   4.336   0.666   0.355
 3128SOL    HW110283   4.301   0.589   0.302
 3128SOL    HW210284   4.275   0.683   0.434
 3129SOL     OW10285   4.509   3.620   0.425
 3129SOL    HW110286   4.573   3.696   0.417
 3129SOL    HW210287   4.472   3.616   0.518
 3130SOL     OW10288   1.011   4.222   2.045
 3130SOL    HW110289   1.086   4.173   2.001
 3130SOL    HW210290   0.975   4.167   2.120
 3131SOL     OW10291   6.689   4.394   3.205
 3131SOL    HW110292   6.758   4.355   3.144
 3131SOL    HW210293   6.598   4.371   3.172
 3132SOL     OW10294   4.364   4.820   6.737
 3132SOL    HW110295   4.406   4.790   6.651
 3132SOL    HW210296   4.334   4.915   6.728
 3133SOL     OW10297   3.834   0.230   4.242
 3133SOL    HW110298   3.898   0.294   4.285
 3133SOL    HW210299   3.884   0.169   4.181
 3134SOL     OW10300   4.598   5.366   3.027
 3134SOL    HW110301   4.656   5.434   3.073
 3134SOL    HW210302   4.514   5.410   2.997
 3135SOL     OW10303   5.083   6.216   6.401
 3135SOL    HW110304   5.005   6.162   6.431
 3135SOL    HW210305   5.131   6.167   6.328
 3136SOL     OW10306   6.215   1.965   2.784
 3136SOL    HW110307   6.119   1.961   2.756
 3136SOL    HW210308   6.273   1.960   2.702
 3137SOL     OW10309   5.674   6.897   6.944
 3137SOL    HW110310   5.772   6.876   6.947
 3137SOL    HW210311   5.640   6.880   6.851
 3138SOL     OW10312   5.451   5.642   3.801
 3138SOL    HW110313   5.452   5.588   3.886
 3138SOL    HW210314   5.510   5.721   3.812
 3139SOL     OW10315   2.596   4.928   1.616
 3139SOL    HW110316   2.672   4.983   1.652
 3139SOL    HW210317   2.521   4.928   1.683
 3140SOL     OW10318   0.038   0.146   6.302
 3140SOL    HW110319   0.020   0.095   6.386
 3140SOL    HW210320   6.976   0.187   6.269
 3141SOL     OW10321   6.590   2.420   6.016
 3141SOL    HW110322   6.682   2.422   6.055
 3141SOL    HW210323   6.544   2.507   6.033
 3142SOL     OW10324   5.116   1.266   2.586
 3142SOL    HW110325   5.079   1.242   2.497
 3142SOL    HW210326   5.042   1.270   2.653
 3143SOL     OW10327   6.436   0.847   0.440
 3143SOL    HW110328   6.452   0.816   0.534
 3143SOL    HW210329   6.408   0.943   0.441
 3144SOL     OW10330   3.996   3.823   6.372
 3144SOL    HW110331   4.073   3.883   6.394
 3144SOL    HW210332   4.015   3.731   6.407
 3145SOL     OW10333   0.777   6.040   1.174
 3145SOL    HW110334   0.756   5.959   1.227
 3145SOL    HW210335   0.855   6.021   1.113
 3146SOL     OW10336   0.540   0.283   4.936
 3146SOL    HW110337   0.445   0.252   4.933
 3146SOL    HW210338   0.561   0.335   4.853
 3147SOL     OW10339   3.974   4.988   6.985
 3147SOL    HW110340   3.947   4.993   0.059
 3147SOL    HW210341   4.029   4.905   6.971
 3148SOL     OW10342   6.754   5.193   2.638
 3148SOL    HW110343   6.733   5.281   2.681
 3148SOL    HW210344   6.817   5.142   2.696
 3149SOL     OW10345   3.178   1.323   0.767
 3149SOL    HW110346   3.170   1.289   0.861
 3149SOL    HW210347   3.098   1.379   0.745
 3150SOL     OW10348   6.651   5.777   4.822
 3150SOL    HW110349   6.729   5.731   4.780
 3150SOL    HW210350   6.631   5.861   4.772
 3151SOL     OW10351   6.224   1.610   5.589
 3151SOL    HW110352   6.313   1.632   5.551
 3151SOL    HW210353   6.172   1.553   5.525
 3152SOL     OW10354   1.105   3.171   6.046
 3152SOL    HW110355   1.132   3.078   6.071
 3152SOL    HW210356   1.107   3.229   6.127
 3153SOL     OW10357   6.530   5.345   1.091
 3153SOL    HW110358   6.438   5.306   1.096
 3153SOL    HW210359   6.597   5.271   1.095
 3154SOL     OW10360   5.043   1.886   6.944
 3154SOL    HW110361   5.049   1.985   6.958
 3154SOL    HW210362   5.118   1.841   6.991
 3155SOL     OW10363   0.590   5.210   0.983
 3155SOL    HW110364   0.594   5.110   0.989
 3155SOL    HW210365   0.682   5.247   0.975
 3156SOL     OW10366   3.630   4.206   1.893
 3156SOL    HW110367   3.669   4.297   1.890
 3156SOL    HW210368   3.692   4.144   1.941
 3157SOL     OW10369   0.785   1.719   5.398
 3157SOL    HW110370   0.858   1.778   5.364
 3157SOL    HW210371   0.816   1.623   5.396
 3158SOL     OW10372   2.104   1.122   5.927
 3158SOL    HW110373   2.112   1.026   5.953
 3158SOL    HW210374   2.049   1.129   5.844
 3159SOL     OW10375   6.283   6.834   0.276
 3159SOL    HW110376   6.308   6.841   0.179
 3159SOL    HW210377   6.190   6.867   0.289
 3160SOL     OW10378   1.878   0.791   6.409
 3160SOL    HW110379   1.926   0.719   6.460
 3160SOL    HW210380   1.867   0.871   6.468
 3161SOL     OW10381   2.104   2.541   2.874
 3161SOL    HW110382   2.091   2.613   2.807
 3161SOL    HW210383   2.086   2.452   2.832
 3162SOL     OW10384   1.799   5.530   0.894
 3162SOL    HW110385   1.801   5.489   0.985
 3162SOL    HW210386   1.748   5.616   0.897
 3163SOL     OW10387   3.839   3.933   0.278
 3163SOL    HW110388   3.849   3.936   0.179
 3163SOL    HW210389   3.923   3.964   0.321
 3164SOL     OW10390   2.599   6.049   3.179
 3164SOL    HW110391   2.549   5.981   3.233
 3164SOL    HW210392   2.685   6.071   3.225
 3165SOL     OW10393   1.111   6.501   6.947
 3165SOL    HW110394   1.087   6.547   6.862
 3165SOL    HW210395   1.132   6.405   6.928
 3166SOL     OW10396   4.110   0.880   5.143
 3166SOL    HW110397   4.169   0.918   5.214
 3166SOL    HW210398   4.057   0.804   5.180
 3167SOL     OW10399   5.584   3.599   0.568
 3167SOL    HW110400   5.569   3.590   0.667
 3167SOL    HW210401   5.661   3.541   0.541
 3168SOL     OW10402   5.070   1.789   0.599
 3168SOL    HW110403   4.977   1.823   0.617
 3168SOL    HW210404   5.107   1.836   0.519
 3169SOL     OW10405   1.965   4.191   1.648
 3169SOL    HW110406   2.064   4.192   1.634
 3169SOL    HW210407   1.944   4.161   1.740
 3170SOL     OW10408   3.067   5.088   3.606
 3170SOL    HW110409   3.094   5.004   3.653
 3170SOL    HW210410   3.079   5.075   3.507
 3171SOL     OW10411   5.205   3.030   3.355
 3171SOL    HW110412   5.118   3.019   3.308
 3171SOL    HW210413   5.262   2.949   3.339
 3172SOL     OW10414   0.620   4.694   1.042
 3172SOL    HW110415   0.536   4.658   1.082
 3172SOL    HW210416   0.690   4.623   1.042
 3173SOL     OW10417   3.929   2.272   0.523
 3173SOL    HW110418   3.887   2.184   0.543
 3173SOL    HW210419   3.918   2.294   0.426
 3174SOL     OW10420   2.789   3.707   5.370
 3174SOL    HW110421   2.777   3.790   5.316
 3174SOL    HW210422   2.868   3.656   5.336
 3175SOL     OW10423   6.664   0.398   4.284
 3175SOL    HW110424   6.664   0.356   4.375
 3175SOL    HW210425   6.604   0.478   4.285
 3176SOL     OW10426   1.283   4.548   5.282
 3176SOL    HW110427   1.307   4.618   5.214
 3176SOL    HW210428   1.366   4.505   5.317
 3177SOL     OW10429   5.812   3.558   3.842
 3177SOL    HW110430   5.802   3.476   3.899
 3177SOL    HW210431   5.721   3.591   3.816
 3178SOL     OW10432   6.638   0.374   1.285
 3178SOL    HW110433   6.552   0.357   1.237
 3178SOL    HW210434   6.618   0.394   1.381
 3179SOL     OW10435   0.888   1.839   2.082
 3179SOL    HW110436   0.939   1.754   2.094
 3179SOL    HW210437   0.797   1.819   2.046
 3180SOL     OW10438   6.396   5.917   7.018
 3180SOL    HW110439   6.371   5.903   0.092
 3180SOL    HW210440   6.485   5.875   7.001
 3181SOL     OW10441   0.716   0.591   5.019
 3181SOL    HW110442   0.741   0.504   5.061
 3181SOL    HW210443   0.778   0.610   4.942
 3182SOL     OW10444   3.048   0.224   0.960
 3182SOL    HW110445   3.047   0.127   0.936
 3182SOL    HW210446   3.121   0.270   0.910
 3183SOL     OW10447   4.508   4.527   1.908
 3183SOL    HW110448   4.584   4.586   1.934
 3183SOL    HW210449   4.525   4.434   1.941
 3184SOL     OW10450   0.500   1.978   5.003
 3184SOL    HW110451   0.419   1.991   4.946
 3184SOL    HW210452   0.575   2.033   4.966
 3185SOL     OW10453   0.542   5.553   6.126
 3185SOL    HW110454   0.495   5.562   6.214
 3185SOL    HW210455   0.480   5.582   6.053
 3186SOL     OW10456   0.306   1.404   6.374
 3186SOL    HW110457   0.260   1.470   6.433
 3186SOL    HW210458   0.285   1.311   6.404
 3187SOL     OW10459   4.186   5.929   2.648
 3187SOL    HW110460   4.175   6.028   2.656
 3187SOL    HW210461   4.150   5.899   2.559
 3188SOL     OW10462   1.973   4.609   5.785
 3188SOL    HW110463   2.045   4.557   5.740
 3188SOL    HW210464   1.979   4.595   5.884
 3189SOL     OW10465   3.364   1.481   6.875
 3189SOL    HW110466   3.327   1.562   6.921
 3189SOL    HW210467   3.362   1.403   6.938
 3190SOL     OW10468   6.672   5.423   4.162
 3190SOL    HW110469   6.672   5.412   4.261
 3190SOL    HW210470   6.584   5.397   4.125
 3191SOL     OW10471   4.585   5.761   2.112
 3191SOL    HW110472   4.492   5.739   2.083
 3191SOL    HW210473   4.621   5.833   2.053
 3192SOL     OW10474   6.117   2.575   2.289
 3192SOL    HW110475   6.095   2.667   2.324
 3192SOL    HW210476   6.193   2.582   2.224
 3193SOL     OW10477   3.874   0.355   5.476
 3193SOL    HW110478   3.857   0.350   5.378
 3193SOL    HW210479   3.951   0.295   5.500
 3194SOL     OW10480   1.168   1.157   6.100
 3194SOL    HW110481   1.144   1.245   6.059
 3194SOL    HW210482   1.091   1.094   6.092
 3195SOL     OW10483   0.069   1.849   1.876
 3195SOL    HW110484   0.100   1.876   1.785
 3195SOL    HW210485   0.142   1.866   1.942
 3196SOL     OW10486   6.382   0.031   4.773
 3196SOL    HW110487   6.461   0.032   4.834
 3196SOL    HW210488   6.331   0.116   4.784
 3197SOL     OW10489   2.110   1.267   6.360
 3197SOL    HW110490   2.127   1.175   6.323
 3197SOL    HW210491   2.175   1.331   6.319
 3198SOL     OW10492   6.653   2.930   3.734
 3198SOL    HW110493   6.708   2.985   3.797
 3198SOL    HW210494   6.625   2.846   3.779
 3199SOL     OW10495   5.554   4.037   3.255
 3199SOL    HW110496   5.602   4.120   3.286
 3199SOL    HW210497   5.513   4.055   3.166
 3200SOL     OW10498   5.539   3.381   4.307
 3200SOL    HW110499   5.508   3.327   4.229
 3200SOL    HW210500   5.463   3.434   4.344
 3201SOL     OW10501   5.935   4.175   2.439
 3201SOL    HW110502   5.885   4.256   2.408
 3201SOL    HW210503   6.011   4.203   2.498
 3202SOL     OW10504   1.374   4.753   0.296
 3202SOL    HW110505   1.398   4.763   0.199
 3202SOL    HW210506   1.274   4.755   0.306
 3203SOL     OW10507   3.957   6.886   1.176
 3203SOL    HW110508   4.018   6.821   1.131
 3203SOL    HW210509   4.004   6.926   1.254
 3204SOL     OW10510   2.377   1.598   3.771
 3204SOL    HW110511   2.410   1.506   3.794
 3204SOL    HW210512   2.430   1.666   3.822
 3205SOL     OW10513   5.379   3.059   5.292
 3205SOL    HW110514   5.356   3.111   5.210
 3205SOL    HW210515   5.303   3.062   5.356
 3206SOL     OW10516   2.913   3.048   1.608
 3206SOL    HW110517   2.825   3.044   1.655
 3206SOL    HW210518   2.925   2.966   1.551
 3207SOL     OW10519   1.010   6.397   5.423
 3207SOL    HW110520   1.010   6.497   5.417
 3207SOL    HW210521   0.928   6.361   5.378
 3208SOL     OW10522   6.184   5.723   5.875
 3208SOL    HW110523   6.153   5.725   5.780
 3208SOL    HW210524   6.255   5.653   5.886
 3209SOL     OW10525   5.309   6.050   6.256
 3209SOL    HW110526   5.363   6.108   6.315
 3209SOL    HW210527   5.362   5.969   6.230
 3210SOL     OW10528   6.815   5.254   1.666
 3210SOL    HW110529   6.731   5.273   1.614
 3210SOL    HW210530   6.804   5.286   1.760
 3211SOL     OW10531   1.023   5.462   6.511
 3211SOL    HW110532   1.044   5.376   6.464
 3211SOL    HW210533   1.083   5.534   6.477
 3212SOL     OW10534   2.037   6.705   2.913
 3212SOL    HW110535   2.083   6.741   2.832
 3212SOL    HW210536   2.030   6.776   2.983
 3213SOL     OW10537   1.599   0.308   6.046
 3213SOL    HW110538   1.574   0.222   6.090
 3213SOL    HW210539   1.545   0.383   6.085
 3214SOL     OW10540   3.618   1.192   3.128
 3214SOL    HW110541   3.554   1.245   3.183
 3214SOL    HW210542   3.576   1.104   3.104
 3215SOL     OW10543   1.890   2.609   0.786
 3215SOL    HW110544   1.827   2.684   0.768
 3215SOL    HW210545   1.927   2.618   0.878
 3216SOL     OW10546   5.511   4.408   0.838
 3216SOL    HW110547   5.492   4.417   0.936
 3216SOL    HW210548   5.449   4.342   0.798
 3217SOL     OW10549   0.984   5.210   2.963
 3217SOL    HW110550   0.905   5.261   2.928
 3217SOL    HW210551   0.952   5.137   3.023
 3218SOL     OW10552   6.464   1.340   3.068
 3218SOL    HW110553   6.514   1.343   2.981
 3218SOL    HW210554   6.443   1.246   3.091
 3219SOL     OW10555   5.755   0.333   5.705
 3219SOL    HW110556   5.691   0.318   5.630
 3219SOL    HW210557   5.723   0.409   5.762
 3220SOL     OW10558   6.711   4.747   6.553
 3220SOL    HW110559   6.723   4.706   6.463
 3220SOL    HW210560   6.667   4.836   6.544
 3221SOL     OW10561   3.758   0.359   1.949
 3221SOL    HW110562   3.836   0.324   2.000
 3221SOL    HW210563   3.688   0.289   1.943
 3222SOL     OW10564   2.438   1.086   2.935
 3222SOL    HW110565   2.538   1.093   2.942
 3222SOL    HW210566   2.402   1.048   3.020
 3223SOL     OW10567   1.335   0.301   1.175
 3223SOL    HW110568   1.402   0.326   1.245
 3223SOL    HW210569   1.318   0.379   1.116
 3224SOL     OW10570   4.388   2.234   4.193
 3224SOL    HW110571   4.385   2.307   4.125
 3224SOL    HW210572   4.334   2.260   4.273
 3225SOL     OW10573   3.995   0.448   4.355
 3225SOL    HW110574   3.968   0.448   4.451
 3225SOL    HW210575   4.094   0.451   4.348
 3226SOL     OW10576   0.296   6.852   1.135
 3226SOL    HW110577   0.254   6.764   1.113
 3226SOL    HW210578   0.358   6.841   1.213
 3227SOL     OW10579   4.843   3.238   5.552
 3227SOL    HW110580   4.793   3.271   5.632
 3227SOL    HW210581   4.835   3.304   5.478
 3228SOL     OW10582   1.930   4.055   0.605
 3228SOL    HW110583   1.903   4.150   0.620
 3228SOL    HW210584   2.028   4.044   0.624
 3229SOL     OW10585   1.755   1.600   0.324
 3229SOL    HW110586   1.845   1.558   0.320
 3229SOL    HW210587   1.757   1.677   0.388
 3230SOL     OW10588   2.305   5.679   5.871
 3230SOL    HW110589   2.327   5.746   5.943
 3230SOL    HW210590   2.209   5.687   5.846
 3231SOL     OW10591   2.634   1.008   1.739
 3231SOL    HW110592   2.718   1.046   1.779
 3231SOL    HW210593   2.655   0.920   1.696
 3232SOL     OW10594   4.169   6.065   4.174
 3232SOL    HW110595   4.104   6.106   4.110
 3232SOL    HW210596   4.261   6.100   4.156
 3233SOL     OW10597   0.977   2.662   0.124
 3233SOL    HW110598   0.906   2.690   0.189
 3233SOL    HW210599   1.031   2.741   0.097
 3234SOL     OW10600   2.898   2.607   0.940
 3234SOL    HW110601   2.995   2.589   0.925
 3234SOL    HW210602   2.876   2.594   1.036
 3235SOL     OW10603   7.016   6.734   2.212
 3235SOL    HW110604   6.932   6.681   2.222
 3235SOL    HW210605   0.053   6.690   2.144
 3236SOL     OW10606   3.174   3.370   0.490
 3236SOL    HW110607   3.195   3.315   0.571
 3236SOL    HW210608   3.083   3.348   0.457
 3237SOL     OW10609   5.764   0.971   5.558
 3237SOL    HW110610   5.811   0.927   5.634
 3237SOL    HW210611   5.794   0.930   5.472
 3238SOL     OW10612   6.669   5.546   1.494
 3238SOL    HW110613   6.649   5.551   1.592
 3238SOL    HW210614   6.662   5.451   1.464
 3239SOL     OW10615   6.589   0.143   4.122
 3239SOL    HW110616   6.656   0.071   4.140
 3239SOL    HW210617   6.596   0.213   4.192
 3240SOL     OW10618   0.484   0.575   6.979
 3240SOL    HW110619   0.425   0.591   6.900
 3240SOL    HW210620   0.457   0.636   0.031
 3241SOL     OW10621   5.940   1.615   6.269
 3241SOL    HW110622   5.938   1.706   6.311
 3241SOL    HW210623   5.855   1.600   6.219
 3242SOL     OW10624   5.111   4.828   5.424
 3242SOL    HW110625   5.096   4.783   5.512
 3242SOL    HW210626   5.174   4.904   5.437
 3243SOL     OW10627   4.930   5.080   5.624
 3243SOL    HW110628   4.875   5.125   5.694
 3243SOL    HW210629   5.017   5.049   5.664
 3244SOL     OW10630   5.511   6.029   0.293
 3244SOL    HW110631   5.587   6.094   0.295
 3244SOL    HW210632   5.458   6.042   0.209
 3245SOL     OW10633   3.906   1.254   4.325
 3245SOL    HW110634   3.984   1.214   4.276
 3245SOL    HW210635   3.889   1.346   4.290
 3246SOL     OW10636   6.992   0.970   2.581
 3246SOL    HW110637   7.011   0.951   2.678
 3246SOL    HW210638   7.007   1.067   2.562
 3247SOL     OW10639   0.340   3.917   3.174
 3247SOL    HW110640   0.415   3.887   3.233
 3247SOL    HW210641   0.374   3.984   3.108
 3248SOL     OW10642   4.964   2.250   3.497
 3248SOL    HW110643   5.049   2.213   3.534
 3248SOL    HW210644   4.887   2.202   3.539
 3249SOL     OW10645   3.313   3.811   3.364
 3249SOL    HW110646   3.271   3.721   3.355
 3249SOL    HW210647   3.372   3.828   3.285
 3250SOL     OW10648   5.373   5.391   2.543
 3250SOL    HW110649   5.421   5.456   2.485
 3250SOL    HW210650   5.315   5.332   2.486
 3251SOL     OW10651   2.959   1.361   3.917
 3251SOL    HW110652   2.950   1.396   4.010
 3251SOL    HW210653   3.055   1.345   3.897
 3252SOL     OW10654   2.467   1.438   4.101
 3252SOL    HW110655   2.472   1.373   4.177
 3252SOL    HW210656   2.470   1.388   4.015
 3253SOL     OW10657   6.483   3.535   1.283
 3253SOL    HW110658   6.518   3.441   1.274
 3253SOL    HW210659   6.545   3.598   1.236
 3254SOL     OW10660   5.821   0.569   0.487
 3254SOL    HW110661   5.820   0.481   0.535
 3254SOL    HW210662   5.731   0.612   0.494
 3255SOL     OW10663   5.389   4.901   0.945
 3255SOL    HW110664   5.323   4.881   1.017
 3255SOL    HW210665   5.425   4.815   0.909
 3256SOL     OW10666   4.957   2.185   0.900
 3256SOL    HW110667   4.857   2.184   0.908
 3256SOL    HW210668   4.986   2.116   0.835
 3257SOL     OW10669   2.744   2.034   3.071
 3257SOL    HW110670   2.676   1.961   3.080
 3257SOL    HW210671   2.776   2.038   2.977
 3258SOL     OW10672   2.166   5.836   3.432
 3258SOL    HW110673   2.230   5.905   3.397
 3258SOL    HW210674   2.190   5.746   3.395
 3259SOL     OW10675   4.708   4.201   3.926
 3259SOL    HW110676   4.713   4.278   3.990
 3259SOL    HW210677   4.661   4.124   3.969
 3260SOL     OW10678   1.524   3.981   1.801
 3260SOL    HW110679   1.497   4.000   1.895
 3260SOL    HW210680   1.445   3.947   1.750
 3261SOL     OW10681   4.399   0.238   3.133
 3261SOL    HW110682   4.470   0.281   3.189
 3261SOL    HW210683   4.431   0.148   3.103
 3262SOL     OW10684   3.249   2.024   2.414
 3262SOL    HW110685   3.345   2.035   2.388
 3262SOL    HW210686   3.229   1.926   2.424
 3263SOL     OW10687   1.409   1.419   2.291
 3263SOL    HW110688   1.473   1.451   2.361
 3263SOL    HW210689   1.442   1.447   2.201
 3264SOL     OW10690   2.279   5.747   0.260
 3264SOL    HW110691   2.249   5.664   0.307
 3264SOL    HW210692   2.310   5.814   0.328
 3265SOL     OW10693   6.024   4.961   5.689
 3265SOL    HW110694   6.072   5.039   5.648
 3265SOL    HW210695   5.987   4.903   5.616
 3266SOL     OW10696   3.256   4.745   0.065
 3266SOL    HW110697   3.320   4.739   7.010
 3266SOL    HW210698   3.192   4.821   0.049
 3267SOL     OW10699   4.152   0.061   0.356
 3267SOL    HW110700   4.230   0.006   0.388
 3267SOL    HW210701   4.119   0.119   0.431
 3268SOL     OW10702   6.943   4.875   1.874
 3268SOL    HW110703   6.972   4.826   1.956
 3268SOL    HW210704   6.845   4.895   1.879
 3269SOL     OW10705   1.494   4.913   2.231
 3269SOL    HW110706   1.568   4.893   2.167
 3269SOL    HW210707   1.474   5.011   2.229
 3270SOL     OW10708   0.665   2.383   5.448
 3270SOL    HW110709   0.714   2.349   5.528
 3270SOL    HW210710   0.710   2.348   5.365
 3271SOL     OW10711   0.614   3.644   2.418
 3271SOL    HW110712   0.621   3.702   2.499
 3271SOL    HW210713   0.517   3.625   2.400
 3272SOL     OW10714   4.581   6.506   0.206
 3272SOL    HW110715   4.616   6.417   0.234
 3272SOL    HW210716   4.558   6.503   0.108
 3273SOL     OW10717   4.925   2.910   6.719
 3273SOL    HW110718   4.842   2.946   6.677
 3273SOL    HW210719   4.950   2.823   6.676
 3274SOL     OW10720   5.386   0.714   0.056
 3274SOL    HW110721   5.349   0.805   0.042
 3274SOL    HW210722   5.486   0.719   0.059
 3275SOL     OW10723   5.090   0.125   1.246
 3275SOL    HW110724   5.004   0.076   1.263
 3275SOL    HW210725   5.164   0.059   1.232
 3276SOL     OW10726   4.697   6.782   0.035
 3276SOL    HW110727   4.602   6.770   0.065
 3276SOL    HW210728   4.758   6.734   0.098
 3277SOL     OW10729   3.337   1.745   2.029
 3277SOL    HW110730   3.259   1.727   2.090
 3277SOL    HW210731   3.371   1.837   2.045
 3278SOL     OW10732   6.680   0.369   6.653
 3278SOL    HW110733   6.742   0.412   6.587
 3278SOL    HW210734   6.646   0.283   6.616
 3279SOL     OW10735   3.953   6.713   0.839
 3279SOL    HW110736   4.006   6.771   0.901
 3279SOL    HW210737   3.967   6.617   0.864
 3280SOL     OW10738   5.611   3.794   4.533
 3280SOL    HW110739   5.662   3.879   4.521
 3280SOL    HW210740   5.520   3.814   4.570
 3281SOL     OW10741   6.479   4.085   1.878
 3281SOL    HW110742   6.550   4.132   1.930
 3281SOL    HW210743   6.422   4.152   1.830
 3282SOL     OW10744   0.439   4.338   5.279
 3282SOL    HW110745   0.432   4.335   5.179
 3282SOL    HW210746   0.526   4.380   5.304
 3283SOL     OW10747   3.793   1.098   1.471
 3283SOL    HW110748   3.759   1.191   1.480
 3283SOL    HW210749   3.874   1.086   1.528
 3284SOL     OW10750   1.648   5.478   4.960
 3284SOL    HW110751   1.672   5.484   4.863
 3284SOL    HW210752   1.649   5.569   5.000
 3285SOL     OW10753   5.052   1.423   4.701
 3285SOL    HW110754   5.010   1.498   4.650
 3285SOL    HW210755   5.143   1.451   4.733
 3286SOL     OW10756   3.329   1.689   1.431
 3286SOL    HW110757   3.337   1.777   1.479
 3286SOL    HW210758   3.259   1.696   1.360
 3287SOL     OW10759   2.566   6.883   6.907
 3287SOL    HW110760   2.650   6.903   6.856
 3287SOL    HW210761   2.495   6.949   6.881
 3288SOL     OW10762   1.594   6.429   0.997
 3288SOL    HW110763   1.495   6.417   0.988
 3288SOL    HW210764   1.632   6.463   0.911
 3289SOL     OW10765   3.885   1.597   6.572
 3289SOL    HW110766   3.970   1.552   6.543
 3289SOL    HW210767   3.869   1.577   6.669
 3290SOL     OW10768   6.780   4.955   0.291
 3290SOL    HW110769   6.776   4.974   0.193
 3290SOL    HW210770   6.752   4.861   0.308
 3291SOL     OW10771   4.778   0.478   5.177
 3291SOL    HW110772   4.680   0.470   5.157
 3291SOL    HW210773   4.830   0.429   5.108
 3292SOL     OW10774   0.303   1.868   1.371
 3292SOL    HW110775   0.313   1.967   1.369
 3292SOL    HW210776   0.375   1.826   1.316
 3293SOL     OW10777   6.566   5.448   3.063
 3293SOL    HW110778   6.510   5.470   3.143
 3293SOL    HW210779   6.540   5.506   2.987
 3294SOL     OW10780   5.060   2.692   5.069
 3294SOL    HW110781   4.974   2.740   5.051
 3294SOL    HW210782   5.078   2.695   5.168
 3295SOL     OW10783   1.651   2.880   1.814
 3295SOL    HW110784   1.748   2.856   1.821
 3295SOL    HW210785   1.627   2.945   1.885
 3296SOL     OW10786   0.846   0.153   6.217
 3296SOL    HW110787   0.934   0.107   6.209
 3296SOL    HW210788   0.790   0.133   6.136
 3297SOL     OW10789   3.212   1.903   4.932
 3297SOL    HW110790   3.209   1.934   5.027
 3297SOL    HW210791   3.119   1.890   4.898
 3298SOL     OW10792   5.926   4.183   5.162
 3298SOL    HW110793   5.952   4.225   5.248
 3298SOL    HW210794   5.927   4.252   5.089
 3299SOL     OW10795   3.085   4.876   4.333
 3299SOL    HW110796   3.148   4.929   4.390
 3299SOL    HW210797   3.073   4.785   4.373
 3300SOL     OW10798   1.941   6.834   5.132
 3300SOL    HW110799   1.888   6.918   5.146
 3300SOL    HW210800   1.880   6.756   5.126
 3301SOL     OW10801   2.187   2.918   2.943
 3301SOL    HW110802   2.275   2.911   2.990
 3301SOL    HW210803   2.134   2.834   2.959
 3302SOL     OW10804   2.672   4.845   5.809
 3302SOL    HW110805   2.691   4.886   5.720
 3302SOL    HW210806   2.654   4.747   5.797
 3303SOL     OW10807   3.285   3.257   0.728
 3303SOL    HW110808   3.364   3.200   0.747
 3303SOL    HW210809   3.262   3.311   0.809
 3304SOL     OW10810   2.686   4.973   6.055
 3304SOL    HW110811   2.668   4.910   5.980
 3304SOL    HW210812   2.695   4.922   6.140
 3305SOL     OW10813   3.567   0.878   1.105
 3305SOL    HW110814   3.525   0.875   1.195
 3305SOL    HW210815   3.615   0.965   1.093
 3306SOL     OW10816   2.039   0.645   0.074
 3306SOL    HW110817   1.965   0.606   0.019
 3306SOL    HW210818   2.019   0.633   0.171
 3307SOL     OW10819   0.950   0.156   4.557
 3307SOL    HW110820   0.997   0.071   4.535
 3307SOL    HW210821   0.987   0.230   4.501
 3308SOL     OW10822   3.562   4.464   1.139
 3308SOL    HW110823   3.471   4.475   1.179
 3308SOL    HW210824   3.631   4.497   1.204
 3309SOL     OW10825   5.308   4.145   3.735
 3309SOL    HW110826   5.229   4.146   3.796
 3309SOL    HW210827   5.278   4.121   3.642
 3310SOL     OW10828   6.718   5.189   5.014
 3310SOL    HW110829   6.719   5.284   4.983
 3310SOL    HW210830   6.795   5.173   5.075
 3311SOL     OW10831   3.387   3.515   0.397
 3311SOL    HW110832   3.326   3.456   0.449
 3311SOL    HW210833   3.333   3.582   0.346
 3312SOL     OW10834   5.162   2.592   5.758
 3312SOL    HW110835   5.150   2.601   5.857
 3312SOL    HW210836   5.073   2.583   5.714
 3313SOL     OW10837   1.038   1.011   3.547
 3313SOL    HW110838   0.997   0.931   3.503
 3313SOL    HW210839   1.051   0.992   3.645
 3314SOL     OW10840   1.772   6.100   2.594
 3314SOL    HW110841   1.842   6.168   2.573
 3314SOL    HW210842   1.816   6.010   2.603
 3315SOL     OW10843   0.187   4.729   5.222
 3315SOL    HW110844   0.232   4.676   5.150
 3315SOL    HW210845   0.157   4.817   5.184
 3316SOL     OW10846   3.034   1.758   6.624
 3316SOL    HW110847   2.953   1.708   6.592
 3316SOL    HW210848   3.054   1.832   6.560
 3317SOL     OW10849   5.378   2.495   2.567
 3317SOL    HW110850   5.410   2.522   2.658
 3317SOL    HW210851   5.354   2.576   2.515
 3318SOL     OW10852   3.101   2.106   0.600
 3318SOL    HW110853   3.148   2.178   0.652
 3318SOL    HW210854   3.037   2.058   0.660
 3319SOL     OW10855   6.862   6.641   3.169
 3319SOL    HW110856   6.821   6.604   3.252
 3319SOL    HW210857   6.804   6.715   3.133
 3320SOL     OW10858   5.919   0.216   0.894
 3320SOL    HW110859   5.828   0.225   0.934
 3320SOL    HW210860   5.919   0.140   0.829
 3321SOL     OW10861   5.807   1.607   0.442
 3321SOL    HW110862   5.736   1.601   0.512
 3321SOL    HW210863   5.863   1.524   0.444
 3322SOL     OW10864   6.700   3.687   1.187
 3322SOL    HW110865   6.787   3.694   1.138
 3322SOL    HW210866   6.718   3.678   1.285
 3323SOL     OW10867   1.684   1.238   2.087
 3323SOL    HW110868   1.757   1.288   2.040
 3323SOL    HW210869   1.597   1.260   2.044
 3324SOL     OW10870   5.185   5.211   5.373
 3324SOL    HW110871   5.198   5.213   5.472
 3324SOL    HW210872   5.207   5.300   5.334
 3325SOL     OW10873   1.723   3.817   6.675
 3325SOL    HW110874   1.687   3.724   6.680
 3325SOL    HW210875   1.785   3.833   6.751
 3326SOL     OW10876   5.577   1.182   3.007
 3326SOL    HW110877   5.499   1.242   2.992
 3326SOL    HW210878   5.662   1.232   2.988
 3327SOL     OW10879   1.821   5.597   1.423
 3327SOL    HW110880   1.762   5.666   1.466
 3327SOL    HW210881   1.843   5.625   1.330
 3328SOL     OW10882   4.183   2.245   0.681
 3328SOL    HW110883   4.097   2.247   0.631
 3328SOL    HW210884   4.251   2.300   0.632
 3329SOL     OW10885   5.949   5.525   5.798
 3329SOL    HW110886   5.982   5.471   5.721
 3329SOL    HW210887   5.955   5.622   5.776
 3330SOL     OW10888   5.929   3.412   2.397
 3330SOL    HW110889   5.992   3.349   2.352
 3330SOL    HW210890   5.944   3.505   2.363
 3331SOL     OW10891   1.662   2.256   1.404
 3331SOL    HW110892   1.744   2.268   1.459
 3331SOL    HW210893   1.651   2.334   1.342
 3332SOL     OW10894   5.909   4.492   0.839
 3332SOL    HW110895   5.937   4.427   0.909
 3332SOL    HW210896   5.836   4.453   0.784
 3333SOL     OW10897   4.085   5.245   6.009
 3333SOL    HW110898   4.143   5.287   5.939
 3333SOL    HW210899   4.079   5.146   5.992
 3334SOL     OW10900   2.931   3.705   1.352
 3334SOL    HW110901   2.935   3.785   1.411
 3334SOL    HW210902   2.838   3.690   1.320
 3335SOL     OW10903   5.040   4.705   5.750
 3335SOL    HW110904   5.136   4.691   5.728
 3335SOL    HW210905   5.024   4.683   5.847
 3336SOL     OW10906   3.548   5.021   6.145
 3336SOL    HW110907   3.603   5.032   6.228
 3336SOL    HW210908   3.552   5.106   6.092
 3337SOL     OW10909   3.554   2.527   1.490
 3337SOL    HW110910   3.602   2.495   1.571
 3337SOL    HW210911   3.475   2.583   1.518
 3338SOL     OW10912   0.162   4.139   0.874
 3338SOL    HW110913   0.125   4.078   0.805
 3338SOL    HW210914   0.101   4.142   0.953
 3339SOL     OW10915   6.394   5.553   6.747
 3339SOL    HW110916   6.404   5.553   6.847
 3339SOL    HW210917   6.473   5.598   6.706
 3340SOL     OW10918   3.190   6.193   2.051
 3340SOL    HW110919   3.273   6.209   2.104
 3340SOL    HW210920   3.109   6.215   2.106
 3341SOL     OW10921   0.669   0.662   2.558
 3341SOL    HW110922   0.613   0.734   2.516
 3341SOL    HW210923   0.695   0.596   2.488
 3342SOL     OW10924   1.993   6.795   3.809
 3342SOL    HW110925   1.906   6.818   3.764
 3342SOL    HW210926   2.051   6.744   3.746
 3343SOL     OW10927   5.191   3.212   0.832
 3343SOL    HW110928   5.285   3.235   0.806
 3343SOL    HW210929   5.184   3.114   0.847
 3344SOL     OW10930   5.764   3.376   6.051
 3344SOL    HW110931   5.676   3.346   6.089
 3344SOL    HW210932   5.787   3.321   5.971
 3345SOL     OW10933   3.107   3.579   5.521
 3345SOL    HW110934   3.151   3.572   5.610
 3345SOL    HW210935   3.175   3.563   5.449
 3346SOL     OW10936   0.062   0.259   1.561
 3346SOL    HW110937   0.109   0.244   1.649
 3346SOL    HW210938   0.100   0.341   1.517
 3347SOL     OW10939   5.735   3.942   5.220
 3347SOL    HW110940   5.771   4.022   5.172
 3347SOL    HW210941   5.636   3.936   5.206
 3348SOL     OW10942   3.924   3.015   4.269
 3348SOL    HW110943   3.835   2.973   4.251
 3348SOL    HW210944   3.983   2.949   4.316
 3349SOL     OW10945   6.479   3.769   4.489
 3349SOL    HW110946   6.550   3.751   4.557
 3349SOL    HW210947   6.423   3.847   4.519
 3350SOL     OW10948   1.711   1.111   0.841
 3350SOL    HW110949   1.766   1.128   0.923
 3350SOL    HW210950   1.732   1.019   0.806
 3351SOL     OW10951   5.149   1.910   1.043
 3351SOL    HW110952   5.080   1.962   1.093
 3351SOL    HW210953   5.175   1.959   0.959
 3352SOL     OW10954   0.713   3.285   1.019
 3352SOL    HW110955   0.750   3.378   1.008
 3352SOL    HW210956   0.622   3.290   1.060
 3353SOL     OW10957   2.035   0.176   6.790
 3353SOL    HW110958   2.092   0.169   6.708
 3353SOL    HW210959   2.046   0.094   6.846
 3354SOL     OW10960   6.995   2.671   3.993
 3354SOL    HW110961   6.965   2.754   3.945
 3354SOL    HW210962   6.915   2.617   4.019
 3355SOL     OW10963   6.585   1.069   2.009
 3355SOL    HW110964   6.536   0.998   2.060
 3355SOL    HW210965   6.608   1.144   2.071
 3356SOL     OW10966   2.776   3.678   0.233
 3356SOL    HW110967   2.805   3.773   0.243
 3356SOL    HW210968   2.698   3.674   0.170
 3357SOL     OW10969   3.218   5.252   2.248
 3357SOL    HW110970   3.261   5.188   2.312
 3357SOL    HW210971   3.119   5.252   2.262
 3358SOL     OW10972   4.893   6.205   2.768
 3358SOL    HW110973   4.899   6.111   2.733
 3358SOL    HW210974   4.828   6.208   2.844
 3359SOL     OW10975   1.082   0.255   2.740
 3359SOL    HW110976   1.130   0.174   2.707
 3359SOL    HW210977   1.134   0.299   2.812
 3360SOL     OW10978   0.350   0.789   0.055
 3360SOL    HW110979   0.292   0.748   7.008
 3360SOL    HW210980   0.318   0.882   0.074
 3361SOL     OW10981   5.999   6.042   2.819
 3361SOL    HW110982   5.932   6.116   2.806
 3361SOL    HW210983   5.977   5.992   2.903
 3362SOL     OW10984   2.240   1.436   5.185
 3362SOL    HW110985   2.244   1.534   5.201
 3362SOL    HW210986   2.304   1.411   5.112
 3363SOL     OW10987   0.214   1.727   6.777
 3363SOL    HW110988   0.181   1.689   6.863
 3363SOL    HW210989   0.148   1.794   6.743
 3364SOL     OW10990   2.272   5.201   5.893
 3364SOL    HW110991   2.357   5.177   5.939
 3364SOL    HW210992   2.199   5.212   5.961
 3365SOL     OW10993   6.379   3.016   4.525
 3365SOL    HW110994   6.430   2.986   4.605
 3365SOL    HW210995   6.409   3.108   4.499
 3366SOL     OW10996   5.173   0.376   5.649
 3366SOL    HW110997   5.104   0.438   5.614
 3366SOL    HW210998   5.177   0.294   5.592
 3367SOL     OW10999   1.407   2.002   2.917
 3367SOL    HW111000   1.440   2.007   3.011
 3367SOL    HW211001   1.310   1.976   2.916
 3368SOL     OW11002   6.616   5.669   6.106
 3368SOL    HW111003   6.604   5.712   6.017
 3368SOL    HW211004   6.613   5.739   6.177
 3369SOL     OW11005   3.874   0.448   6.941
 3369SOL    HW111006   3.969   0.465   6.965
 3369SOL    HW211007   3.841   0.522   6.882
 3370SOL     OW11008   6.099   6.555   5.110
 3370SOL    HW111009   6.116   6.653   5.128
 3370SOL    HW211010   6.016   6.545   5.056
 3371SOL     OW11011   0.910   5.002   2.470
 3371SOL    HW111012   1.009   4.988   2.467
 3371SOL    HW211013   0.890   5.088   2.516
 3372SOL     OW11014   1.158   0.939   2.834
 3372SOL    HW111015   1.187   1.027   2.795
 3372SOL    HW211016   1.118   0.882   2.762
 3373SOL     OW11017   6.208   1.727   5.068
 3373SOL    HW111018   6.225   1.685   4.979
 3373SOL    HW211019   6.293   1.728   5.121
 3374SOL     OW11020   2.775   5.603   5.842
 3374SOL    HW111021   2.872   5.585   5.859
 3374SOL    HW211022   2.747   5.557   5.758
 3375SOL     OW11023   4.551   4.462   5.386
 3375SOL    HW111024   4.524   4.401   5.461
 3375SOL    HW211025   4.595   4.544   5.422
 3376SOL     OW11026   3.124   3.017   2.360
 3376SOL    HW111027   3.185   3.071   2.302
 3376SOL    HW211028   3.043   3.071   2.382
 3377SOL     OW11029   1.408   0.031   5.563
 3377SOL    HW111030   1.497   0.040   5.609
 3377SOL    HW211031   1.420   0.044   5.465
 3378SOL     OW11032   0.056   1.462   1.445
 3378SOL    HW111033   0.066   1.498   1.352
 3378SOL    HW211034   0.122   1.506   1.506
 3379SOL     OW11035   0.616   4.482   6.060
 3379SOL    HW111036   0.620   4.521   5.968
 3379SOL    HW211037   0.628   4.554   6.128
 3380SOL     OW11038   6.806   4.384   6.792
 3380SOL    HW111039   6.805   4.288   6.818
 3380SOL    HW211040   6.712   4.415   6.776
 3381SOL     OW11041   3.370   2.545   0.362
 3381SOL    HW111042   3.438   2.505   0.424
 3381SOL    HW211043   3.279   2.537   0.402
 3382SOL     OW11044   0.044   1.729   0.892
 3382SOL    HW111045   6.979   1.765   0.861
 3382SOL    HW211046   0.033   1.687   0.982
 3383SOL     OW11047   6.040   4.909   2.749
 3383SOL    HW111048   6.101   4.988   2.749
 3383SOL    HW211049   6.021   4.881   2.655
 3384SOL     OW11050   3.631   2.919   4.233
 3384SOL    HW111051   3.575   2.916   4.316
 3384SOL    HW211052   3.576   2.888   4.155
 3385SOL     OW11053   6.407   3.551   3.571
 3385SOL    HW111054   6.398   3.452   3.579
 3385SOL    HW211055   6.403   3.592   3.662
 3386SOL     OW11056   6.232   4.492   4.917
 3386SOL    HW111057   6.175   4.410   4.916
 3386SOL    HW211058   6.327   4.467   4.936
 3387SOL     OW11059   2.348   2.251   3.101
 3387SOL    HW111060   2.447   2.234   3.095
 3387SOL    HW211061   2.318   2.302   3.020
 3388SOL     OW11062   5.332   2.021   1.318
 3388SOL    HW111063   5.418   2.010   1.367
 3388SOL    HW211064   5.308   1.935   1.273
 3389SOL     OW11065   4.903   4.470   3.655
 3389SOL    HW111066   4.831   4.539   3.641
 3389SOL    HW211067   4.863   4.378   3.645
 3390SOL     OW11068   5.133   2.943   5.796
 3390SOL    HW111069   5.181   3.031   5.796
 3390SOL    HW211070   5.063   2.943   5.867
 3391SOL     OW11071   3.414   1.857   5.243
 3391SOL    HW111072   3.353   1.847   5.322
 3391SOL    HW211073   3.378   1.926   5.181
 3392SOL     OW11074   2.443   0.621   4.149
 3392SOL    HW111075   2.366   0.685   4.147
 3392SOL    HW211076   2.490   0.627   4.237
 3393SOL     OW11077   6.343   6.449   6.835
 3393SOL    HW111078   6.348   6.391   6.916
 3393SOL    HW211079   6.333   6.392   6.753
 3394SOL     OW11080   6.062   2.725   1.451
 3394SOL    HW111081   5.996   2.700   1.380
 3394SOL    HW211082   6.154   2.698   1.422
 3395SOL     OW11083   0.988   3.285   4.361
 3395SOL    HW111084   0.990   3.213   4.291
 3395SOL    HW211085   0.896   3.324   4.367
 3396SOL     OW11086   0.111   3.737   3.735
 3396SOL    HW111087   0.091   3.823   3.688
 3396SOL    HW211088   0.122   3.754   3.833
 3397SOL     OW11089   3.776   6.670   6.010
 3397SOL    HW111090   3.743   6.725   6.086
 3397SOL    HW211091   3.727   6.696   5.926
 3398SOL     OW11092   1.230   0.045   4.113
 3398SOL    HW111093   1.247   0.121   4.175
 3398SOL    HW211094   1.245   6.981   4.161
 3399SOL     OW11095   5.008   5.132   4.055
 3399SOL    HW111096   4.967   5.222   4.038
 3399SOL    HW211097   4.976   5.067   3.985
 3400SOL     OW11098   4.868   2.185   6.813
 3400SOL    HW111099   4.829   2.200   6.722
 3400SOL    HW211100   4.796   2.185   6.882
 3401SOL     OW11101   6.279   3.684   0.799
 3401SOL    HW111102   6.209   3.717   0.862
 3401SOL    HW211103   6.363   3.663   0.850
 3402SOL     OW11104   5.033   5.823   1.287
 3402SOL    HW111105   5.067   5.867   1.371
 3402SOL    HW211106   4.939   5.852   1.271
 3403SOL     OW11107   3.557   0.460   5.019
 3403SOL    HW111108   3.655   0.478   5.024
 3403SOL    HW211109   3.510   0.539   4.979
 3404SOL     OW11110   4.686   1.218   0.976
 3404SOL    HW111111   4.769   1.241   0.925
 3404SOL    HW211112   4.606   1.240   0.921
 3405SOL     OW11113   6.146   3.897   6.675
 3405SOL    HW111114   6.221   3.962   6.665
 3405SOL    HW211115   6.080   3.910   6.601
 3406SOL     OW11116   2.132   4.163   2.086
 3406SOL    HW111117   2.160   4.071   2.112
 3406SOL    HW211118   2.062   4.196   2.150
 3407SOL     OW11119   1.176   5.593   1.704
 3407SOL    HW111120   1.198   5.671   1.763
 3407SOL    HW211121   1.148   5.626   1.614
 3408SOL     OW11122   5.075   4.447   2.725
 3408SOL    HW111123   5.012   4.410   2.792
 3408SOL    HW211124   5.032   4.447   2.635
 3409SOL     OW11125   3.913   6.997   5.996
 3409SOL    HW111126   3.862   0.004   5.915
 3409SOL    HW211127   3.850   6.951   6.059
 3410SOL     OW11128   6.313   6.089   0.347
 3410SOL    HW111129   6.255   6.020   0.303
 3410SOL    HW211130   6.404   6.086   0.305
 3411SOL     OW11131   4.725   2.244   2.540
 3411SOL    HW111132   4.784   2.187   2.597
 3411SOL    HW211133   4.643   2.193   2.515
 3412SOL     OW11134   3.788   3.914   6.940
 3412SOL    HW111135   3.879   3.874   6.954
 3412SOL    HW211136   3.730   3.891   7.019
 3413SOL     OW11137   3.699   1.713   3.264
 3413SOL    HW111138   3.757   1.773   3.319
 3413SOL    HW211139   3.619   1.685   3.318
 3414SOL     OW11140   2.920   2.381   5.245
 3414SOL    HW111141   2.884   2.327   5.168
 3414SOL    HW211142   3.010   2.418   5.220
 3415SOL     OW11143   0.635   4.537   4.489
 3415SOL    HW111144   0.643   4.438   4.502
 3415SOL    HW211145   0.706   4.568   4.426
 3416SOL     OW11146   0.267   4.473   5.985
 3416SOL    HW111147   0.324   4.391   5.977
 3416SOL    HW211148   0.184   4.461   5.931
 3417SOL     OW11149   0.072   6.750   2.464
 3417SOL    HW111150   0.159   6.713   2.497
 3417SOL    HW211151   0.055   6.716   2.371
 3418SOL     OW11152   2.349   1.051   5.039
 3418SOL    HW111153   2.269   1.027   5.095
 3418SOL    HW211154   2.349   1.150   5.022
 3419SOL     OW11155   4.133   4.399   0.287
 3419SOL    HW111156   4.163   4.410   0.193
 3419SOL    HW211157   4.044   4.442   0.299
 3420SOL     OW11158   4.767   2.021   4.141
 3420SOL    HW111159   4.734   2.101   4.091
 3420SOL    HW211160   4.694   1.954   4.149
 3421SOL     OW11161   0.044   6.415   5.319
 3421SOL    HW111162   0.138   6.426   5.288
 3421SOL    HW211163   0.018   6.491   5.379
 3422SOL     OW11164   3.460   0.348   1.418
 3422SOL    HW111165   3.505   0.263   1.445
 3422SOL    HW211166   3.516   0.397   1.352
 3423SOL     OW11167   2.834   0.813   0.940
 3423SOL    HW111168   2.798   0.904   0.960
 3423SOL    HW211169   2.898   0.785   1.011
 3424SOL     OW11170   4.383   1.376   2.671
 3424SOL    HW111171   4.402   1.474   2.679
 3424SOL    HW211172   4.321   1.348   2.744
 3425SOL     OW11173   4.797   4.298   2.071
 3425SOL    HW111174   4.699   4.313   2.057
 3425SOL    HW211175   4.824   4.213   2.026
 3426SOL     OW11176   4.095   3.223   0.143
 3426SOL    HW111177   4.178   3.199   0.093
 3426SOL    HW211178   4.119   3.267   0.229
 3427SOL     OW11179   6.981   0.280   0.069
 3427SOL    HW111180   0.051   0.312   0.046
 3427SOL    HW211181   6.940   0.343   0.135
 3428SOL     OW11182   4.068   4.736   2.399
 3428SOL    HW111183   4.163   4.720   2.425
 3428SOL    HW211184   4.048   4.689   2.313
 3429SOL     OW11185   1.349   3.082   6.762
 3429SOL    HW111186   1.283   3.120   6.826
 3429SOL    HW211187   1.430   3.140   6.759
 3430SOL     OW11188   1.443   0.135   0.293
 3430SOL    HW111189   1.363   0.078   0.273
 3430SOL    HW211190   1.483   0.168   0.208
 3431SOL     OW11191   1.684   6.280   1.208
 3431SOL    HW111192   1.602   6.295   1.264
 3431SOL    HW211193   1.678   6.333   1.124
 3432SOL     OW11194   3.025   1.638   5.736
 3432SOL    HW111195   3.070   1.717   5.778
 3432SOL    HW211196   2.937   1.667   5.698
 3433SOL     OW11197   3.571   1.139   5.794
 3433SOL    HW111198   3.548   1.088   5.711
 3433SOL    HW211199   3.498   1.204   5.815
 3434SOL     OW11200   4.392   2.647   1.249
 3434SOL    HW111201   4.423   2.725   1.305
 3434SOL    HW211202   4.315   2.676   1.192
 3435SOL     OW11203   6.956   2.505   2.141
 3435SOL    HW111204   6.996   2.590   2.175
 3435SOL    HW211205   6.856   2.514   2.137
 3436SOL     OW11206   4.607   0.066   4.797
 3436SOL    HW111207   4.623   0.164   4.810
 3436SOL    HW211208   4.673   0.030   4.731
 3437SOL     OW11209   4.100   0.133   5.052
 3437SOL    HW111210   4.062   0.043   5.073
 3437SOL    HW211211   4.158   0.163   5.128
 3438SOL     OW11212   1.814   2.732   6.576
 3438SOL    HW111213   1.849   2.803   6.638
 3438SOL    HW211214   1.744   2.772   6.517
 3439SOL     OW11215   2.510   6.474   4.802
 3439SOL    HW111216   2.522   6.573   4.792
 3439SOL    HW211217   2.599   6.429   4.798
 3440SOL     OW11218   4.480   3.276   1.163
 3440SOL    HW111219   4.467   3.324   1.250
 3440SOL    HW211220   4.435   3.187   1.167
 3441SOL     OW11221   4.037   6.962   4.374
 3441SOL    HW111222   3.984   6.917   4.302
 3441SOL    HW211223   4.063   6.894   4.443
 3442SOL     OW11224   2.092   5.296   3.706
 3442SOL    HW111225   2.064   5.392   3.720
 3442SOL    HW211226   2.174   5.278   3.759
 3443SOL     OW11227   5.902   1.917   3.093
 3443SOL    HW111228   5.917   1.940   3.189
 3443SOL    HW211229   5.916   1.818   3.081
 3444SOL     OW11230   5.327   5.685   6.721
 3444SOL    HW111231   5.310   5.702   6.624
 3444SOL    HW211232   5.423   5.703   6.742
 3445SOL     OW11233   6.332   4.267   4.425
 3445SOL    HW111234   6.403   4.292   4.359
 3445SOL    HW211235   6.373   4.255   4.515
 3446SOL     OW11236   4.125   0.344   3.283
 3446SOL    HW111237   4.053   0.374   3.220
 3446SOL    HW211238   4.150   0.250   3.262
 3447SOL     OW11239   5.812   5.401   0.390
 3447SOL    HW111240   5.796   5.366   0.298
 3447SOL    HW211241   5.739   5.464   0.416
 3448SOL     OW11242   3.221   0.608   1.110
 3448SOL    HW111243   3.227   0.511   1.134
 3448SOL    HW211244   3.254   0.663   1.187
 3449SOL     OW11245   6.748   0.230   1.939
 3449SOL    HW111246   6.791   0.202   2.025
 3449SOL    HW211247   6.675   0.167   1.916
 3450SOL     OW11248   1.078   1.616   1.504
 3450SOL    HW111249   1.114   1.541   1.449
 3450SOL    HW211250   1.061   1.584   1.598
 3451SOL     OW11251   1.392   5.600   3.718
 3451SOL    HW111252   1.435   5.667   3.658
 3451SOL    HW211253   1.300   5.631   3.743
 3452SOL     OW11254   6.750   0.784   6.751
 3452SOL    HW111255   6.770   0.864   6.807
 3452SOL    HW211256   6.791   0.795   6.661
 3453SOL     OW11257   4.995   5.703   4.815
 3453SOL    HW111258   4.962   5.683   4.723
 3453SOL    HW211259   5.023   5.617   4.859
 3454SOL     OW11260   1.418   1.469   1.111
 3454SOL    HW111261   1.321   1.489   1.097
 3454SOL    HW211262   1.472   1.549   1.083
 3455SOL     OW11263   1.332   3.175   4.067
 3455SOL    HW111264   1.262   3.185   3.997
 3455SOL    HW211265   1.327   3.084   4.107
 3456SOL     OW11266   5.859   6.604   1.545
 3456SOL    HW111267   5.876   6.556   1.459
 3456SOL    HW211268   5.893   6.698   1.537
 3457SOL     OW11269   2.665   5.023   3.712
 3457SOL    HW111270   2.577   5.003   3.756
 3457SOL    HW211271   2.739   4.986   3.768
 3458SOL     OW11272   5.867   6.741   0.249
 3458SOL    HW111273   5.953   6.730   0.300
 3458SOL    HW211274   5.821   6.652   0.243
 3459SOL     OW11275   0.440   3.812   3.594
 3459SOL    HW111276   0.417   3.721   3.561
 3459SOL    HW211277   0.391   3.831   3.679
 3460SOL     OW11278   2.841   2.843   6.995
 3460SOL    HW111279   2.896   2.824   0.054
 3460SOL    HW211280   2.819   2.940   6.992
 3461SOL     OW11281   3.637   5.348   4.003
 3461SOL    HW111282   3.657   5.363   3.906
 3461SOL    HW211283   3.721   5.324   4.051
 3462SOL     OW11284   5.556   3.177   3.005
 3462SOL    HW111285   5.626   3.128   3.058
 3462SOL    HW211286   5.473   3.122   3.000
 3463SOL     OW11287   1.452   2.953   1.585
 3463SOL    HW111288   1.418   3.031   1.533
 3463SOL    HW211289   1.428   2.964   1.681
 3464SOL     OW11290   5.630   2.735   6.633
 3464SOL    HW111291   5.545   2.788   6.636
 3464SOL    HW211292   5.609   2.640   6.611
 3465SOL     OW11293   2.292   3.545   1.622
 3465SOL    HW111294   2.324   3.518   1.714
 3465SOL    HW211295   2.351   3.617   1.586
 3466SOL     OW11296   5.563   4.362   5.516
 3466SOL    HW111297   5.503   4.363   5.595
 3466SOL    HW211298   5.522   4.307   5.443
 3467SOL     OW11299   3.279   2.054   0.985
 3467SOL    HW111300   3.309   2.045   0.890
 3467SOL    HW211301   3.187   2.016   0.994
 3468SOL     OW11302   4.586   1.305   1.853
 3468SOL    HW111303   4.494   1.278   1.826
 3468SOL    HW211304   4.584   1.395   1.896
 3469SOL     OW11305   4.500   0.066   6.245
 3469SOL    HW111306   4.441   0.039   6.321
 3469SOL    HW211307   4.454   0.045   6.159
 3470SOL     OW11308   0.320   2.805   0.951
 3470SOL    HW111309   0.296   2.730   0.890
 3470SOL    HW211310   0.290   2.784   1.044
 3471SOL     OW11311   4.513   4.472   3.683
 3471SOL    HW111312   4.562   4.389   3.712
 3471SOL    HW211313   4.579   4.544   3.664
 3472SOL     OW11314   4.515   2.439   2.991
 3472SOL    HW111315   4.528   2.479   3.081
 3472SOL    HW211316   4.417   2.431   2.971
 3473SOL     OW11317   0.254   3.567   3.917
 3473SOL    HW111318   0.327   3.560   3.849
 3473SOL    HW211319   0.243   3.479   3.963
 3474SOL     OW11320   0.366   3.969   4.526
 3474SOL    HW111321   0.451   3.983   4.476
 3474SOL    HW211322   0.333   3.875   4.511
 3475SOL     OW11323   6.935   4.693   4.539
 3475SOL    HW111324   0.009   4.719   4.541
 3475SOL    HW211325   6.880   4.763   4.585
 3476SOL     OW11326   2.011   1.990   3.670
 3476SOL    HW111327   2.078   1.916   3.662
 3476SOL    HW211328   2.035   2.064   3.606
 3477SOL     OW11329   0.250   3.628   1.501
 3477SOL    HW111330   0.164   3.672   1.527
 3477SOL    HW211331   0.257   3.626   1.401
 3478SOL     OW11332   2.391   6.914   0.227
 3478SOL    HW111333   2.433   7.002   0.246
 3478SOL    HW211334   2.440   6.868   0.154
 3479SOL     OW11335   0.578   3.116   3.699
 3479SOL    HW111336   0.586   3.034   3.756
 3479SOL    HW211337   0.517   3.098   3.622
 3480SOL     OW11338   0.957   5.805   6.608
 3480SOL    HW111339   0.873   5.805   6.555
 3480SOL    HW211340   1.011   5.723   6.587
 3481SOL     OW11341   5.639   0.638   0.201
 3481SOL    HW111342   5.631   0.562   0.266
 3481SOL    HW211343   5.704   0.615   0.129
 3482SOL     OW11344   6.149   2.640   3.965
 3482SOL    HW111345   6.172   2.550   3.926
 3482SOL    HW211346   6.104   2.695   3.895
 3483SOL     OW11347   4.732   2.566   3.259
 3483SOL    HW111348   4.762   2.654   3.297
 3483SOL    HW211349   4.642   2.543   3.296
 3484SOL     OW11350   1.968   3.527   6.302
 3484SOL    HW111351   1.942   3.620   6.329
 3484SOL    HW211352   2.059   3.529   6.261
 3485SOL     OW11353   0.058   1.686   5.109
 3485SOL    HW111354   7.015   1.644   5.046
 3485SOL    HW211355   0.132   1.621   5.129
 3486SOL     OW11356   1.853   6.542   4.578
 3486SOL    HW111357   1.758   6.568   4.592
 3486SOL    HW211358   1.862   6.491   4.492
 3487SOL     OW11359   6.232   1.179   6.802
 3487SOL    HW111360   6.289   1.105   6.766
 3487SOL    HW211361   6.261   1.266   6.763
 3488SOL     OW11362   5.466   0.620   4.938
 3488SOL    HW111363   5.459   0.614   4.838
 3488SOL    HW211364   5.543   0.679   4.962
 3489SOL     OW11365   3.077   6.623   0.986
 3489SOL    HW111366   3.029   6.706   0.958
 3489SOL    HW211367   3.175   6.638   0.980
 3490SOL     OW11368   3.834   4.908   1.149
 3490SOL    HW111369   3.766   4.843   1.185
 3490SOL    HW211370   3.925   4.882   1.183
 3491SOL     OW11371   5.169   3.971   0.103
 3491SOL    HW111372   5.227   3.936   0.030
 3491SOL    HW211373   5.226   4.011   0.175
 3492SOL     OW11374   6.740   3.865   2.174
 3492SOL    HW111375   6.835   3.893   2.160
 3492SOL    HW211376   6.727   3.834   2.268
 3493SOL     OW11377   6.571   3.726   4.241
 3493SOL    HW111378   6.603   3.812   4.201
 3493SOL    HW211379   6.530   3.744   4.330
 3494SOL     OW11380   3.162   1.776   2.434
 3494SOL    HW111381   3.189   1.681   2.418
 3494SOL    HW211382   3.062   1.785   2.424
 3495SOL     OW11383   0.584   4.140   2.238
 3495SOL    HW111384   0.572   4.168   2.142
 3495SOL    HW211385   0.505   4.085   2.266
 3496SOL     OW11386   6.035   4.631   0.625
 3496SOL    HW111387   6.066   4.726   0.625
 3496SOL    HW211388   5.982   4.613   0.708
 3497SOL     OW11389   3.563   0.869   3.583
 3497SOL    HW111390   3.483   0.891   3.527
 3497SOL    HW211391   3.645   0.871   3.526
 3498SOL     OW11392   2.599   1.592   2.221
 3498SOL    HW111393   2.608   1.600   2.121
 3498SOL    HW211394   2.637   1.505   2.251
 3499SOL     OW11395   6.076   6.179   5.580
 3499SOL    HW111396   6.130   6.239   5.522
 3499SOL    HW211397   6.042   6.231   5.659
 3500SOL     OW11398   1.580   1.992   4.165
 3500SOL    HW111399   1.615   1.951   4.250
 3500SOL    HW211400   1.639   1.966   4.089
 3501SOL     OW11401   2.573   6.573   6.826
 3501SOL    HW111402   2.654   6.593   6.882
 3501SOL    HW211403   2.571   6.636   6.748
 3502SOL     OW11404   5.730   3.035   1.949
 3502SOL    HW111405   5.689   3.029   1.858
 3502SOL    HW211406   5.685   2.970   2.010
 3503SOL     OW11407   0.105   5.612   5.898
 3503SOL    HW111408   0.080   5.656   5.985
 3503SOL    HW211409   0.067   5.520   5.896
 3504SOL     OW11410   2.145   0.644   2.018
 3504SOL    HW111411   2.155   0.743   2.009
 3504SOL    HW211412   2.181   0.614   2.106
 3505SOL     OW11413   5.471   5.608   5.560
 3505SOL    HW111414   5.516   5.679   5.614
 3505SOL    HW211415   5.523   5.523   5.565
 3506SOL     OW11416   6.116   4.576   5.160
 3506SOL    HW111417   6.158   4.554   5.072
 3506SOL    HW211418   6.185   4.568   5.232
 3507SOL     OW11419   2.224   0.014   0.807
 3507SOL    HW111420   2.255   0.026   0.712
 3507SOL    HW211421   2.279   0.073   0.867
 3508SOL     OW11422   3.031   2.498   6.082
 3508SOL    HW111423   3.045   2.584   6.033
 3508SOL    HW211424   3.118   2.466   6.119
 3509SOL     OW11425   5.049   6.798   0.546
 3509SOL    HW111426   4.984   6.830   0.478
 3509SOL    HW211427   5.126   6.753   0.500
 3510SOL     OW11428   2.155   1.317   1.438
 3510SOL    HW111429   2.080   1.333   1.374
 3510SOL    HW211430   2.207   1.237   1.408
 3511SOL     OW11431   2.082   4.460   1.182
 3511SOL    HW111432   2.120   4.369   1.197
 3511SOL    HW211433   2.132   4.526   1.238
 3512SOL     OW11434   0.780   3.720   0.140
 3512SOL    HW111435   0.793   3.643   0.078
 3512SOL    HW211436   0.683   3.729   0.163
 3513SOL     OW11437   6.593   2.259   1.178
 3513SOL    HW111438   6.536   2.200   1.235
 3513SOL    HW211439   6.690   2.245   1.201
 3514SOL     OW11440   5.465   0.803   2.471
 3514SOL    HW111441   5.541   0.763   2.522
 3514SOL    HW211442   5.381   0.794   2.524
 3515SOL     OW11443   5.728   6.066   3.879
 3515SOL    HW111444   5.798   6.071   3.950
 3515SOL    HW211445   5.705   6.158   3.848
 3516SOL     OW11446   5.139   7.000   0.967
 3516SOL    HW111447   5.139   0.045   0.893
 3516SOL    HW211448   5.195   0.011   1.043
 3517SOL     OW11449   0.232   0.759   1.226
 3517SOL    HW111450   0.319   0.782   1.183
 3517SOL    HW211451   0.179   0.700   1.165
 3518SOL     OW11452   5.547   2.127   4.848
 3518SOL    HW111453   5.560   2.216   4.805
 3518SOL    HW211454   5.450   2.112   4.864
 3519SOL     OW11455   2.646   1.444   6.952
 3519SOL    HW111456   2.655   1.506   6.874
 3519SOL    HW211457   2.603   1.359   6.922
 3520SOL     OW11458   3.643   5.873   6.116
 3520SOL    HW111459   3.682   5.823   6.194
 3520SOL    HW211460   3.636   5.970   6.139
 3521SOL     OW11461   3.611   2.832   6.620
 3521SOL    HW111462   3.600   2.914   6.678
 3521SOL    HW211463   3.599   2.857   6.524
 3522SOL     OW11464   6.492   5.372   6.364
 3522SOL    HW111465   6.531   5.401   6.276
 3522SOL    HW211466   6.558   5.315   6.412
 3523SOL     OW11467   1.126   4.618   5.608
 3523SOL    HW111468   1.102   4.566   5.526
 3523SOL    HW211469   1.196   4.686   5.585
 3524SOL     OW11470   5.522   1.767   2.633
 3524SOL    HW111471   5.587   1.834   2.599
 3524SOL    HW211472   5.443   1.764   2.572
 3525SOL     OW11473   6.002   3.779   3.860
 3525SOL    HW111474   6.056   3.699   3.832
 3525SOL    HW211475   5.909   3.749   3.884
 3526SOL     OW11476   1.804   6.087   3.478
 3526SOL    HW111477   1.797   6.158   3.408
 3526SOL    HW211478   1.860   6.012   3.443
 3527SOL     OW11479   5.945   3.113   5.925
 3527SOL    HW111480   6.045   3.105   5.921
 3527SOL    HW211481   5.905   3.074   5.842
 3528SOL     OW11482   2.409   6.004   5.169
 3528SOL    HW111483   2.372   5.966   5.084
 3528SOL    HW211484   2.429   5.930   5.233
 3529SOL     OW11485   4.142   6.380   6.596
 3529SOL    HW111486   4.227   6.378   6.544
 3529SOL    HW211487   4.138   6.463   6.651
 3530SOL     OW11488   6.985   5.138   1.974
 3530SOL    HW111489   6.987   5.038   1.967
 3530SOL    HW211490   0.002   5.178   1.891
 3531SOL     OW11491   5.267   2.240   1.476
 3531SOL    HW111492   5.192   2.212   1.536
 3531SOL    HW211493   5.280   2.171   1.404
 3532SOL     OW11494   2.595   0.525   1.947
 3532SOL    HW111495   2.620   0.620   1.967
 3532SOL    HW211496   2.496   0.516   1.946
 3533SOL     OW11497   0.243   1.715   2.767
 3533SOL    HW111498   0.288   1.637   2.809
 3533SOL    HW211499   0.173   1.751   2.830
 3534SOL     OW11500   1.140   2.384   2.241
 3534SOL    HW111501   1.228   2.351   2.206
 3534SOL    HW211502   1.120   2.474   2.202
 3535SOL     OW11503   2.724   5.270   5.539
 3535SOL    HW111504   2.683   5.358   5.563
 3535SOL    HW211505   2.690   5.241   5.450
 3536SOL     OW11506   3.610   1.742   3.014
 3536SOL    HW111507   3.652   1.730   3.104
 3536SOL    HW211508   3.518   1.702   3.015
 3537SOL     OW11509   1.137   5.863   2.252
 3537SOL    HW111510   1.108   5.864   2.347
 3537SOL    HW211511   1.168   5.954   2.225
 3538SOL     OW11512   3.210   5.458   5.635
 3538SOL    HW111513   3.158   5.407   5.566
 3538SOL    HW211514   3.308   5.435   5.626
 3539SOL     OW11515   3.769   3.703   4.451
 3539SOL    HW111516   3.819   3.699   4.365
 3539SOL    HW211517   3.679   3.744   4.435
 3540SOL     OW11518   2.145   2.419   4.155
 3540SOL    HW111519   2.084   2.346   4.185
 3540SOL    HW211520   2.095   2.506   4.154
 3541SOL     OW11521   2.987   2.932   5.336
 3541SOL    HW111522   2.907   2.990   5.350
 3541SOL    HW211523   3.040   2.927   5.420
 3542SOL     OW11524   1.998   4.984   3.157
 3542SOL    HW111525   2.051   5.001   3.241
 3542SOL    HW211526   1.953   5.068   3.128
 3543SOL     OW11527   5.713   3.059   4.093
 3543SOL    HW111528   5.740   3.097   4.182
 3543SOL    HW211529   5.673   2.969   4.106
 3544SOL     OW11530   1.856   4.305   6.928
 3544SOL    HW111531   1.904   4.292   7.015
 3544SOL    HW211532   1.794   4.228   6.913
 3545SOL     OW11533   3.995   6.216   6.083
 3545SOL    HW111534   3.933   6.285   6.045
 3545SOL    HW211535   4.063   6.191   6.015
 3546SOL     OW11536   0.569   5.630   3.252
 3546SOL    HW111537   0.614   5.681   3.179
 3546SOL    HW211538   0.522   5.551   3.213
 3547SOL     OW11539   4.014   5.572   3.953
 3547SOL    HW111540   4.032   5.652   3.895
 3547SOL    HW211541   4.079   5.572   4.030
 3548SOL     OW11542   5.154   2.209   5.838
 3548SOL    HW111543   5.096   2.229   5.917
 3548SOL    HW211544   5.222   2.282   5.828
 3549SOL     OW11545   6.759   4.889   4.633
 3549SOL    HW111546   6.666   4.909   4.601
 3549SOL    HW211547   6.760   4.886   4.733
 3550SOL     OW11548   5.412   2.403   3.127
 3550SOL    HW111549   5.412   2.303   3.129
 3550SOL    HW211550   5.416   2.434   3.032
 3551SOL     OW11551   3.618   6.455   3.324
 3551SOL    HW111552   3.628   6.369   3.274
 3551SOL    HW211553   3.707   6.483   3.360
 3552SOL     OW11554   4.902   5.484   2.890
 3552SOL    HW111555   4.832   5.473   2.820
 3552SOL    HW211556   4.859   5.511   2.976
 3553SOL     OW11557   5.476   2.922   2.360
 3553SOL    HW111558   5.439   3.011   2.388
 3553SOL    HW211559   5.468   2.912   2.260
 3554SOL     OW11560   4.036   3.852   7.017
 3554SOL    HW111561   4.091   3.926   6.977
 3554SOL    HW211562   4.098   3.784   0.034
 3555SOL     OW11563   0.852   3.134   2.720
 3555SOL    HW111564   0.908   3.203   2.766
 3555SOL    HW211565   0.765   3.122   2.768
 3556SOL     OW11566   3.397   0.397   5.387
 3556SOL    HW111567   3.442   0.456   5.453
 3556SOL    HW211568   3.298   0.398   5.403
 3557SOL     OW11569   1.140   0.762   4.948
 3557SOL    HW111570   1.142   0.814   4.863
 3557SOL    HW211571   1.218   0.789   5.006
 3558SOL     OW11572   0.121   5.797   1.509
 3558SOL    HW111573   0.180   5.745   1.447
 3558SOL    HW211574   0.168   5.811   1.596
 3559SOL     OW11575   0.230   0.295   4.950
 3559SOL    HW111576   0.222   0.256   4.858
 3559SOL    HW211577   0.161   0.366   4.962
 3560SOL     OW11578   1.662   5.765   1.159
 3560SOL    HW111579   1.752   5.729   1.133
 3560SOL    HW211580   1.671   5.862   1.182
 3561SOL     OW11581   5.148   4.764   6.306
 3561SOL    HW111582   5.101   4.836   6.356
 3561SOL    HW211583   5.228   4.802   6.259
 3562SOL     OW11584   5.221   0.188   3.777
 3562SOL    HW111585   5.138   0.244   3.783
 3562SOL    HW211586   5.270   0.210   3.693
 3563SOL     OW11587   5.210   1.271   1.392
 3563SOL    HW111588   5.268   1.345   1.359
 3563SOL    HW211589   5.211   1.270   1.492
 3564SOL     OW11590   0.719   4.159   4.785
 3564SOL    HW111591   0.685   4.064   4.782
 3564SOL    HW211592   0.706   4.195   4.877
 3565SOL     OW11593   2.934   6.460   4.584
 3565SOL    HW111594   2.904   6.405   4.662
 3565SOL    HW211595   2.954   6.553   4.614
 3566SOL     OW11596   6.906   3.060   5.763
 3566SOL    HW111597   6.974   3.132   5.751
 3566SOL    HW211598   6.827   3.097   5.812
 3567SOL     OW11599   0.884   2.495   0.751
 3567SOL    HW111600   0.814   2.424   0.759
 3567SOL    HW211601   0.848   2.572   0.699
 3568SOL     OW11602   4.832   5.092   2.769
 3568SOL    HW111603   4.859   5.179   2.727
 3568SOL    HW211604   4.909   5.028   2.765
 3569SOL     OW11605   3.198   2.980   4.674
 3569SOL    HW111606   3.100   2.999   4.685
 3569SOL    HW211607   3.230   2.927   4.752
 3570SOL     OW11608   6.045   1.813   5.375
 3570SOL    HW111609   6.040   1.865   5.289
 3570SOL    HW211610   5.967   1.751   5.381
 3571SOL     OW11611   1.683   0.523   5.030
 3571SOL    HW111612   1.769   0.559   5.065
 3571SOL    HW211613   1.634   0.476   5.103
 3572SOL     OW11614   5.165   4.365   2.237
 3572SOL    HW111615   5.204   4.408   2.319
 3572SOL    HW211616   5.092   4.423   2.201
 3573SOL     OW11617   6.634   4.280   2.087
 3573SOL    HW111618   6.723   4.236   2.079
 3573SOL    HW211619   6.632   4.337   2.169
 3574SOL     OW11620   2.550   3.102   6.195
 3574SOL    HW111621   2.566   3.070   6.101
 3574SOL    HW211622   2.468   3.159   6.198
 3575SOL     OW11623   4.718   6.065   0.819
 3575SOL    HW111624   4.792   6.122   0.853
 3575SOL    HW211625   4.749   6.016   0.737
 3576SOL     OW11626   0.203   3.011   6.958
 3576SOL    HW111627   0.254   2.933   6.921
 3576SOL    HW211628   0.265   3.069   7.011
 3577SOL     OW11629   2.147   2.652   5.336
 3577SOL    HW111630   2.201   2.688   5.412
 3577SOL    HW211631   2.208   2.617   5.265
 3578SOL     OW11632   3.144   2.570   0.617
 3578SOL    HW111633   3.097   2.493   0.573
 3578SOL    HW211634   3.168   2.545   0.711
 3579SOL     OW11635   0.335   3.621   2.376
 3579SOL    HW111636   0.332   3.523   2.354
 3579SOL    HW211637   0.268   3.642   2.447
 3580SOL     OW11638   0.781   2.902   0.839
 3580SOL    HW111639   0.835   2.912   0.923
 3580SOL    HW211640   0.751   2.992   0.808
 3581SOL     OW11641   0.951   0.231   3.143
 3581SOL    HW111642   0.969   0.325   3.114
 3581SOL    HW211643   0.872   0.230   3.204
 3582SOL     OW11644   3.122   4.380   5.805
 3582SOL    HW111645   3.142   4.476   5.783
 3582SOL    HW211646   3.058   4.343   5.738
 3583SOL     OW11647   0.692   4.577   0.572
 3583SOL    HW111648   0.680   4.676   0.575
 3583SOL    HW211649   0.753   4.548   0.646
 3584SOL     OW11650   5.674   4.667   5.544
 3584SOL    HW111651   5.614   4.725   5.488
 3584SOL    HW211652   5.653   4.571   5.527
 3585SOL     OW11653   2.543   2.514   4.658
 3585SOL    HW111654   2.515   2.559   4.573
 3585SOL    HW211655   2.597   2.433   4.637
 3586SOL     OW11656   6.363   2.858   3.865
 3586SOL    HW111657   6.356   2.894   3.772
 3586SOL    HW211658   6.436   2.789   3.869
 3587SOL     OW11659   3.665   6.159   6.171
 3587SOL    HW111660   3.704   6.124   6.256
 3587SOL    HW211661   3.697   6.252   6.155
 3588SOL     OW11662   6.391   4.134   4.748
 3588SOL    HW111663   6.480   4.143   4.702
 3588SOL    HW211664   6.326   4.088   4.687
 3589SOL     OW11665   0.137   6.868   5.727
 3589SOL    HW111666   0.173   6.916   5.806
 3589SOL    HW211667   0.123   6.771   5.750
 3590SOL     OW11668   0.189   4.136   0.198
 3590SOL    HW111669   0.275   4.100   0.235
 3590SOL    HW211670   0.193   4.236   0.195
 3591SOL     OW11671   5.642   2.167   6.773
 3591SOL    HW111672   5.627   2.250   6.827
 3591SOL    HW211673   5.716   2.113   6.813
 3592SOL     OW11674   0.894   0.615   2.201
 3592SOL    HW111675   0.988   0.582   2.196
 3592SOL    HW211676   0.837   0.547   2.247
 3593SOL     OW11677   6.028   3.483   5.996
 3593SOL    HW111678   6.000   3.578   5.984
 3593SOL    HW211679   5.948   3.425   6.011
 3594SOL     OW11680   3.981   5.577   5.025
 3594SOL    HW111681   3.986   5.631   4.941
 3594SOL    HW211682   4.034   5.622   5.096
 3595SOL     OW11683   5.783   5.858   6.887
 3595SOL    HW111684   5.702   5.840   6.943
 3595SOL    HW211685   5.807   5.955   6.894
 3596SOL     OW11686   4.001   1.595   3.183
 3596SOL    HW111687   3.926   1.531   3.166
 3596SOL    HW211688   3.970   1.665   3.248
 3597SOL     OW11689   1.817   3.194   5.041
 3597SOL    HW111690   1.807   3.266   4.972
 3597SOL    HW211691   1.886   3.221   5.108
 3598SOL     OW11692   1.366   5.651   5.207
 3598SOL    HW111693   1.439   5.584   5.217
 3598SOL    HW211694   1.283   5.617   5.252
 3599SOL     OW11695   4.471   1.632   5.944
 3599SOL    HW111696   4.456   1.704   5.876
 3599SOL    HW211697   4.569   1.620   5.960
 3600SOL     OW11698   3.071   3.646   0.474
 3600SOL    HW111699   3.115   3.683   0.393
 3600SOL    HW211700   3.046   3.551   0.458
 3601SOL     OW11701   4.900   1.319   5.451
 3601SOL    HW111702   4.949   1.406   5.454
 3601SOL    HW211703   4.884   1.287   5.544
 3602SOL     OW11704   1.921   2.640   1.800
 3602SOL    HW111705   1.843   2.580   1.818
 3602SOL    HW211706   2.006   2.591   1.819
 3603SOL     OW11707   3.223   0.691   5.892
 3603SOL    HW111708   3.252   0.666   5.984
 3603SOL    HW211709   3.243   0.788   5.875
 3604SOL     OW11710   0.035   0.799   3.730
 3604SOL    HW111711   7.018   0.740   3.659
 3604SOL    HW211712   6.996   0.804   3.808
 3605SOL     OW11713   1.218   5.106   3.214
 3605SOL    HW111714   1.136   5.055   3.187
 3605SOL    HW211715   1.266   5.056   3.286
 3606SOL     OW11716   1.794   6.499   1.998
 3606SOL    HW111717   1.800   6.595   1.970
 3606SOL    HW211718   1.882   6.454   1.979
 3607SOL     OW11719   5.194   2.702   2.692
 3607SOL    HW111720   5.134   2.756   2.751
 3607SOL    HW211721   5.236   2.762   2.624
 3608SOL     OW11722   4.058   2.227   4.232
 3608SOL    HW111723   4.039   2.157   4.301
 3608SOL    HW211724   4.104   2.305   4.274
 3609SOL     OW11725   2.313   6.658   4.467
 3609SOL    HW111726   2.230   6.604   4.482
 3609SOL    HW211727   2.309   6.700   4.376
 3610SOL     OW11728   2.340   6.996   5.504
 3610SOL    HW111729   2.427   6.948   5.487
 3610SOL    HW211730   2.295   7.014   5.416
 3611SOL     OW11731   4.387   4.575   3.918
 3611SOL    HW111732   4.442   4.560   4.000
 3611SOL    HW211733   4.389   4.493   3.861
 3612SOL     OW11734   5.786   0.914   6.671
 3612SOL    HW111735   5.792   0.961   6.760
 3612SOL    HW211736   5.737   0.972   6.606
 3613SOL     OW11737   3.250   5.143   1.217
 3613SOL    HW111738   3.262   5.081   1.295
 3613SOL    HW211739   3.333   5.198   1.206
 3614SOL     OW11740   3.528   4.064   6.627
 3614SOL    HW111741   3.479   4.076   6.714
 3614SOL    HW211742   3.625   4.048   6.645
 3615SOL     OW11743   6.440   2.880   5.502
 3615SOL    HW111744   6.505   2.827   5.447
 3615SOL    HW211745   6.347   2.853   5.478
 3616SOL     OW11746   2.011   1.658   6.777
 3616SOL    HW111747   1.976   1.717   6.705
 3616SOL    HW211748   1.935   1.626   6.834
 3617SOL     OW11749   4.107   0.082   5.868
 3617SOL    HW111750   4.174   0.011   5.846
 3617SOL    HW211751   4.024   0.039   5.903
 3618SOL     OW11752   1.751   4.170   5.012
 3618SOL    HW111753   1.820   4.097   5.009
 3618SOL    HW211754   1.675   4.147   4.952
 3619SOL     OW11755   5.966   2.810   0.957
 3619SOL    HW111756   5.923   2.788   0.869
 3619SOL    HW211757   5.957   2.907   0.975
 3620SOL     OW11758   6.399   6.765   4.776
 3620SOL    HW111759   6.415   6.780   4.873
 3620SOL    HW211760   6.338   6.837   4.741
 3621SOL     OW11761   3.904   3.007   3.953
 3621SOL    HW111762   3.936   3.005   4.047
 3621SOL    HW211763   3.967   3.062   3.897
 3622SOL     OW11764   0.936   6.612   0.549
 3622SOL    HW111765   0.845   6.647   0.529
 3622SOL    HW211766   0.943   6.590   0.647
 3623SOL     OW11767   1.439   5.407   5.972
 3623SOL    HW111768   1.456   5.314   6.004
 3623SOL    HW211769   1.478   5.472   6.037
 3624SOL     OW11770   3.128   0.744   1.691
 3624SOL    HW111771   3.160   0.665   1.640
 3624SOL    HW211772   3.197   0.770   1.759
 3625SOL     OW11773   6.541   2.844   6.591
 3625SOL    HW111774   6.635   2.867   6.613
 3625SOL    HW211775   6.479   2.888   6.656
 3626SOL     OW11776   0.402   2.472   5.132
 3626SOL    HW111777   0.455   2.401   5.178
 3626SOL    HW211778   0.463   2.532   5.080
 3627SOL     OW11779   4.307   3.049   1.193
 3627SOL    HW111780   4.351   3.006   1.114
 3627SOL    HW211781   4.265   3.135   1.166
 3628SOL     OW11782   0.533   0.994   1.877
 3628SOL    HW111783   0.520   1.070   1.941
 3628SOL    HW211784   0.456   0.990   1.814
 3629SOL     OW11785   1.145   1.433   4.546
 3629SOL    HW111786   1.182   1.519   4.508
 3629SOL    HW211787   1.054   1.417   4.508
 3630SOL     OW11788   6.956   2.670   3.503
 3630SOL    HW111789   6.967   2.767   3.524
 3630SOL    HW211790   0.021   2.623   3.515
 3631SOL     OW11791   1.449   6.520   2.579
 3631SOL    HW111792   1.405   6.457   2.642
 3631SOL    HW211793   1.382   6.551   2.511
 3632SOL     OW11794   4.478   3.418   0.936
 3632SOL    HW111795   4.493   3.380   1.028
 3632SOL    HW211796   4.500   3.516   0.937
 3633SOL     OW11797   3.803   2.995   6.242
 3633SOL    HW111798   3.865   3.060   6.200
 3633SOL    HW211799   3.852   2.940   6.310
 3634SOL     OW11800   3.038   5.547   5.846
 3634SOL    HW111801   3.092   5.491   5.909
 3634SOL    HW211802   3.080   5.547   5.756
 3635SOL     OW11803   3.063   0.980   1.469
 3635SOL    HW111804   3.095   1.035   1.546
 3635SOL    HW211805   3.008   0.903   1.503
 3636SOL     OW11806   1.195   5.616   6.762
 3636SOL    HW111807   1.191   5.651   6.668
 3636SOL    HW211808   1.223   5.520   6.761
 3637SOL     OW11809   0.015   2.873   6.774
 3637SOL    HW111810   0.059   2.930   6.843
 3637SOL    HW211811   0.059   2.784   6.771
 3638SOL     OW11812   6.003   4.599   2.323
 3638SOL    HW111813   5.945   4.518   2.325
 3638SOL    HW211814   6.088   4.577   2.274
 3639SOL     OW11815   3.553   4.214   4.494
 3639SOL    HW111816   3.503   4.188   4.576
 3639SOL    HW211817   3.488   4.231   4.420
 3640SOL     OW11818   5.283   2.786   0.243
 3640SOL    HW111819   5.189   2.818   0.250
 3640SOL    HW211820   5.283   2.688   0.224
 3641SOL     OW11821   6.993   4.174   1.535
 3641SOL    HW111822   6.981   4.179   1.634
 3641SOL    HW211823   6.918   4.121   1.495
 3642SOL     OW11824   6.106   2.347   6.573
 3642SOL    HW111825   6.048   2.272   6.603
 3642SOL    HW211826   6.051   2.412   6.520
 3643SOL     OW11827   4.003   5.648   5.498
 3643SOL    HW111828   3.974   5.739   5.526
 3643SOL    HW211829   3.931   5.604   5.445
 3644SOL     OW11830   3.393   0.626   1.743
 3644SOL    HW111831   3.373   0.531   1.770
 3644SOL    HW211832   3.438   0.672   1.819
 3645SOL     OW11833   1.700   4.059   4.335
 3645SOL    HW111834   1.619   4.117   4.337
 3645SOL    HW211835   1.689   3.985   4.402
 3646SOL     OW11836   2.742   4.723   4.784
 3646SOL    HW111837   2.807   4.713   4.859
 3646SOL    HW211838   2.657   4.675   4.807
 3647SOL     OW11839   2.417   0.363   0.725
 3647SOL    HW111840   2.458   0.421   0.656
 3647SOL    HW211841   2.319   0.354   0.708
 3648SOL     OW11842   4.542   5.547   3.647
 3648SOL    HW111843   4.494   5.603   3.580
 3648SOL    HW211844   4.639   5.544   3.624
 3649SOL     OW11845   5.869   3.571   0.263
 3649SOL    HW111846   5.876   3.651   0.322
 3649SOL    HW211847   5.842   3.492   0.317
 3650SOL     OW11848   4.832   4.876   0.147
 3650SOL    HW111849   4.928   4.898   0.164
 3650SOL    HW211850   4.776   4.915   0.220
 3651SOL     OW11851   0.935   2.369   5.897
 3651SOL    HW111852   0.996   2.429   5.845
 3651SOL    HW211853   0.987   2.323   5.969
 3652SOL     OW11854   4.970   1.590   1.725
 3652SOL    HW111855   4.887   1.540   1.699
 3652SOL    HW211856   5.048   1.527   1.728
 3653SOL     OW11857   0.518   1.229   1.527
 3653SOL    HW111858   0.514   1.129   1.532
 3653SOL    HW211859   0.425   1.266   1.524
 3654SOL     OW11860   5.583   0.298   0.645
 3654SOL    HW111861   5.551   0.204   0.633
 3654SOL    HW211862   5.521   0.347   0.706
 3655SOL     OW11863   1.738   1.942   4.401
 3655SOL    HW111864   1.747   2.041   4.411
 3655SOL    HW211865   1.793   1.897   4.471
 3656SOL     OW11866   0.355   5.855   1.332
 3656SOL    HW111867   0.356   5.889   1.426
 3656SOL    HW211868   0.412   5.914   1.275
 3657SOL     OW11869   4.963   6.586   4.575
 3657SOL    HW111870   4.870   6.551   4.561
 3657SOL    HW211871   5.029   6.521   4.537
 3658SOL     OW11872   1.321   5.433   6.295
 3658SOL    HW111873   1.269   5.413   6.212
 3658SOL    HW211874   1.418   5.442   6.272
 3659SOL     OW11875   6.848   2.189   6.286
 3659SOL    HW111876   6.828   2.150   6.376
 3659SOL    HW211877   6.788   2.147   6.217
 3660SOL     OW11878   6.043   5.489   6.287
 3660SOL    HW111879   6.120   5.533   6.333
 3660SOL    HW211880   6.050   5.390   6.299
 3661SOL     OW11881   6.885   1.504   4.991
 3661SOL    HW111882   6.820   1.515   4.915
 3661SOL    HW211883   6.935   1.418   4.980
 3662SOL     OW11884   3.520   0.950   5.224
 3662SOL    HW111885   3.530   1.046   5.248
 3662SOL    HW211886   3.545   0.893   5.302
 3663SOL     OW11887   2.231   2.325   6.156
 3663SOL    HW111888   2.208   2.252   6.092
 3663SOL    HW211889   2.230   2.290   6.249
 3664SOL     OW11890   4.058   1.888   2.060
 3664SOL    HW111891   4.024   1.979   2.084
 3664SOL    HW211892   4.079   1.884   1.963
 3665SOL     OW11893   0.836   5.968   5.638
 3665SOL    HW111894   0.927   5.967   5.597
 3665SOL    HW211895   0.806   5.874   5.654
 3666SOL     OW11896   2.245   1.787   5.003
 3666SOL    HW111897   2.170   1.766   5.065
 3666SOL    HW211898   2.267   1.885   5.010
 3667SOL     OW11899   2.157   0.585   2.659
 3667SOL    HW111900   2.094   0.589   2.581
 3667SOL    HW211901   2.229   0.653   2.647
 3668SOL     OW11902   0.532   0.524   1.473
 3668SOL    HW111903   0.612   0.483   1.429
 3668SOL    HW211904   0.494   0.460   1.539
 3669SOL     OW11905   6.786   1.522   3.840
 3669SOL    HW111906   6.821   1.604   3.884
 3669SOL    HW211907   6.853   1.448   3.848
 3670SOL     OW11908   3.551   5.336   1.551
 3670SOL    HW111909   3.536   5.277   1.630
 3670SOL    HW211910   3.463   5.367   1.514
 3671SOL     OW11911   0.159   0.301   3.475
 3671SOL    HW111912   0.228   0.363   3.513
 3671SOL    HW211913   0.069   0.327   3.509
 3672SOL     OW11914   4.264   0.469   3.038
 3672SOL    HW111915   4.299   0.378   3.062
 3672SOL    HW211916   4.341   0.533   3.032
 3673SOL     OW11917   4.598   6.030   1.140
 3673SOL    HW111918   4.619   6.106   1.078
 3673SOL    HW211919   4.610   6.060   1.234
 3674SOL     OW11920   1.445   5.148   6.066
 3674SOL    HW111921   1.542   5.130   6.048
 3674SOL    HW211922   1.389   5.077   6.023
 3675SOL     OW11923   0.120   1.439   4.075
 3675SOL    HW111924   0.075   1.508   4.132
 3675SOL    HW211925   0.167   1.484   3.999
 3676SOL     OW11926   4.626   1.509   3.373
 3676SOL    HW111927   4.538   1.473   3.339
 3676SOL    HW211928   4.632   1.606   3.351
 3677SOL     OW11929   2.122   0.447   3.795
 3677SOL    HW111930   2.196   0.474   3.856
 3677SOL    HW211931   2.132   0.493   3.707
 3678SOL     OW11932   1.593   0.395   3.650
 3678SOL    HW111933   1.681   0.357   3.680
 3678SOL    HW211934   1.533   0.320   3.622
 3679SOL     OW11935   4.704   1.184   2.342
 3679SOL    HW111936   4.653   1.243   2.405
 3679SOL    HW211937   4.670   1.198   2.249
 3680SOL     OW11938   4.025   1.132   4.007
 3680SOL    HW111939   4.012   1.033   4.007
 3680SOL    HW211940   4.080   1.160   4.085
 3681SOL     OW11941   1.330   6.969   4.743
 3681SOL    HW111942   1.291   0.027   4.697
 3681SOL    HW211943   1.285   6.887   4.710
 3682SOL     OW11944   5.506   2.438   1.236
 3682SOL    HW111945   5.468   2.360   1.186
 3682SOL    HW211946   5.574   2.405   1.302
 3683SOL     OW11947   6.729   0.603   6.056
 3683SOL    HW111948   6.710   0.700   6.043
 3683SOL    HW211949   6.677   0.568   6.134
 3684SOL     OW11950   1.887   6.678   5.505
 3684SOL    HW111951   1.939   6.721   5.579
 3684SOL    HW211952   1.823   6.745   5.466
 3685SOL     OW11953   2.150   6.068   5.690
 3685SOL    HW111954   2.249   6.080   5.678
 3685SOL    HW211955   2.113   6.019   5.611
 3686SOL     OW11956   0.209   4.062   3.882
 3686SOL    HW111957   0.285   4.126   3.876
 3686SOL    HW211958   0.137   4.100   3.940
 3687SOL     OW11959   4.934   5.887   3.393
 3687SOL    HW111960   4.943   5.986   3.386
 3687SOL    HW211961   4.930   5.847   3.302
 3688SOL     OW11962   5.768   3.419   0.478
 3688SOL    HW111963   5.678   3.379   0.464
 3688SOL    HW211964   5.827   3.352   0.523
 3689SOL     OW11965   1.691   0.181   5.795
 3689SOL    HW111966   1.703   0.083   5.782
 3689SOL    HW211967   1.649   0.198   5.884
 3690SOL     OW11968   4.742   5.030   0.648
 3690SOL    HW111969   4.735   4.986   0.737
 3690SOL    HW211970   4.815   4.987   0.595
 3691SOL     OW11971   2.794   2.405   0.473
 3691SOL    HW111972   2.772   2.308   0.483
 3691SOL    HW211973   2.753   2.456   0.549
 3692SOL     OW11974   1.140   3.281   6.295
 3692SOL    HW111975   1.122   3.374   6.329
 3692SOL    HW211976   1.154   3.220   6.373
 3693SOL     OW11977   0.561   1.616   2.538
 3693SOL    HW111978   0.526   1.528   2.570
 3693SOL    HW211979   0.499   1.653   2.469
 3694SOL     OW11980   6.825   0.152   1.629
 3694SOL    HW111981   6.780   0.222   1.684
 3694SOL    HW211982   6.915   0.185   1.600
 3695SOL     OW11983   6.617   2.692   2.739
 3695SOL    HW111984   6.640   2.786   2.714
 3695SOL    HW211985   6.693   2.651   2.787
 3696SOL     OW11986   5.120   0.934   4.644
 3696SOL    HW111987   5.106   1.005   4.575
 3696SOL    HW211988   5.148   0.976   4.730
 3697SOL     OW11989   6.365   6.590   3.386
 3697SOL    HW111990   6.404   6.554   3.471
 3697SOL    HW211991   6.292   6.655   3.408
 3698SOL     OW11992   2.276   0.668   2.899
 3698SOL    HW111993   2.201   0.621   2.851
 3698SOL    HW211994   2.259   0.767   2.899
 3699SOL     OW11995   2.451   2.260   3.752
 3699SOL    HW111996   2.487   2.333   3.811
 3699SOL    HW211997   2.496   2.174   3.776
 3700SOL     OW11998   0.831   5.027   5.094
 3700SOL    HW111999   0.756   4.970   5.129
 3700SOL    HW212000   0.916   5.002   5.140
 3701SOL     OW12001   1.505   0.400   2.519
 3701SOL    HW112002   1.514   0.301   2.535
 3701SOL    HW212003   1.510   0.418   2.420
 3702SOL     OW12004   5.100   4.803   3.926
 3702SOL    HW112005   5.193   4.780   3.955
 3702SOL    HW212006   5.104   4.854   3.840
 3703SOL     OW12007   1.161   1.833   4.718
 3703SOL    HW112008   1.253   1.850   4.681
 3703SOL    HW212009   1.164   1.753   4.778
 3704SOL     OW12010   0.178   2.334   0.994
 3704SOL    HW112011   0.259   2.356   1.048
 3704SOL    HW212012   0.099   2.383   1.032
 3705SOL     OW12013   4.863   4.404   3.169
 3705SOL    HW112014   4.848   4.502   3.176
 3705SOL    HW212015   4.819   4.358   3.245
 3706SOL     OW12016   0.851   3.731   0.476
 3706SOL    HW112017   0.790   3.665   0.520
 3706SOL    HW212018   0.853   3.715   0.378
 3707SOL     OW12019   1.606   4.995   3.480
 3707SOL    HW112020   1.619   5.056   3.558
 3707SOL    HW212021   1.656   4.910   3.495
 3708SOL     OW12022   3.645   6.956   0.645
 3708SOL    HW112023   3.713   7.016   0.688
 3708SOL    HW212024   3.683   6.864   0.637
 3709SOL     OW12025   1.709   0.513   2.690
 3709SOL    HW112026   1.651   0.592   2.707
 3709SOL    HW212027   1.657   0.442   2.643
 3710SOL     OW12028   6.875   5.204   5.596
 3710SOL    HW112029   6.966   5.230   5.562
 3710SOL    HW212030   6.882   5.174   5.691
 3711SOL     OW12031   1.489   5.687   4.759
 3711SOL    HW112032   1.542   5.612   4.721
 3711SOL    HW212033   1.552   5.756   4.797
 3712SOL     OW12034   1.803   5.219   5.006
 3712SOL    HW112035   1.836   5.243   4.915
 3712SOL    HW212036   1.727   5.279   5.031
 3713SOL     OW12037   6.374   6.488   4.956
 3713SOL    HW112038   6.435   6.564   4.976
 3713SOL    HW212039   6.280   6.512   4.983
 3714SOL     OW12040   0.758   4.749   0.208
 3714SOL    HW112041   0.820   4.694   0.151
 3714SOL    HW212042   0.730   4.830   0.158
 3715SOL     OW12043   6.670   5.697   3.746
 3715SOL    HW112044   6.580   5.654   3.739
 3715SOL    HW212045   6.739   5.638   3.705
 3716SOL     OW12046   5.007   5.625   3.464
 3716SOL    HW112047   5.082   5.642   3.528
 3716SOL    HW212048   4.980   5.711   3.421
 3717SOL     OW12049   4.491   1.226   1.359
 3717SOL    HW112050   4.532   1.212   1.449
 3717SOL    HW212051   4.541   1.173   1.290
 3718SOL     OW12052   6.690   6.595   6.333
 3718SOL    HW112053   6.768   6.649   6.301
 3718SOL    HW212054   6.721   6.503   6.358
 3719SOL     OW12055   4.321   3.860   6.229
 3719SOL    HW112056   4.408   3.819   6.203
 3719SOL    HW212057   4.246   3.807   6.190
 3720SOL     OW12058   0.006   2.923   1.656
 3720SOL    HW112059   7.022   2.876   1.744
 3720SOL    HW212060   7.016   2.857   1.582
 3721SOL     OW12061   6.482   4.750   6.789
 3721SOL    HW112062   6.465   4.674   6.726
 3721SOL    HW212063   6.562   4.801   6.759
 3722SOL     OW12064   4.233   6.908   2.737
 3722SOL    HW112065   4.244   7.005   2.756
 3722SOL    HW212066   4.155   6.872   2.787
 3723SOL     OW12067   4.847   4.870   6.787
 3723SOL    HW112068   4.844   4.789   6.846
 3723SOL    HW212069   4.795   4.944   6.830
 3724SOL     OW12070   1.303   4.890   5.257
 3724SOL    HW112071   1.329   4.839   5.175
 3724SOL    HW212072   1.363   4.969   5.267
 3725SOL     OW12073   0.685   6.275   6.659
 3725SOL    HW112074   0.749   6.323   6.598
 3725SOL    HW212075   0.623   6.218   6.604
 3726SOL     OW12076   5.591   3.578   3.678
 3726SOL    HW112077   5.627   3.525   3.601
 3726SOL    HW212078   5.515   3.635   3.647
 3727SOL     OW12079   0.126   3.226   4.406
 3727SOL    HW112080   0.179   3.183   4.332
 3727SOL    HW212081   0.072   3.156   4.454
 3728SOL     OW12082   3.175   3.415   0.154
 3728SOL    HW112083   3.179   3.506   0.196
 3728SOL    HW212084   3.198   3.346   0.223
 3729SOL     OW12085   0.674   0.027   5.583
 3729SOL    HW112086   0.730   0.048   5.664
 3729SOL    HW212087   0.630   6.961   5.595
 3730SOL     OW12088   3.637   5.696   5.478
 3730SOL    HW112089   3.717   5.684   5.419
 3730SOL    HW212090   3.652   5.648   5.564
 3731SOL     OW12091   0.457   2.244   6.304
 3731SOL    HW112092   0.471   2.161   6.249
 3731SOL    HW212093   0.539   2.264   6.356
 3732SOL     OW12094   2.785   1.923   0.488
 3732SOL    HW112095   2.732   1.839   0.496
 3732SOL    HW212096   2.855   1.911   0.418
 3733SOL     OW12097   1.771   1.872   3.688
 3733SOL    HW112098   1.757   1.773   3.679
 3733SOL    HW212099   1.864   1.895   3.661
 3734SOL     OW12100   3.968   0.057   0.953
 3734SOL    HW112101   3.886   0.063   0.896
 3734SOL    HW212102   3.959   7.003   1.016
 3735SOL     OW12103   4.172   6.729   2.435
 3735SOL    HW112104   4.191   6.826   2.450
 3735SOL    HW212105   4.075   6.711   2.453
 3736SOL     OW12106   6.926   1.098   0.883
 3736SOL    HW112107   6.999   1.035   0.908
 3736SOL    HW212108   6.841   1.071   0.929
 3737SOL     OW12109   0.519   2.352   3.155
 3737SOL    HW112110   0.489   2.346   3.060
 3737SOL    HW212111   0.439   2.354   3.215
 3738SOL     OW12112   6.690   6.693   0.821
 3738SOL    HW112113   6.721   6.731   0.908
 3738SOL    HW212114   6.687   6.593   0.829
 3739SOL     OW12115   2.869   5.127   0.960
 3739SOL    HW112116   2.963   5.106   0.934
 3739SOL    HW212117   2.862   5.131   1.060
 3740SOL     OW12118   5.501   5.435   6.843
 3740SOL    HW112119   5.524   5.338   6.840
 3740SOL    HW212120   5.533   5.474   6.930
 3741SOL     OW12121   5.257   3.193   0.462
 3741SOL    HW112122   5.282   3.265   0.398
 3741SOL    HW212123   5.157   3.191   0.471
 3742SOL     OW12124   3.440   5.813   7.015
 3742SOL    HW112125   3.431   5.735   6.953
 3742SOL    HW212126   3.426   5.782   0.087
 3743SOL     OW12127   4.331   3.534   1.708
 3743SOL    HW112128   4.258   3.594   1.740
 3743SOL    HW212129   4.298   3.439   1.707
 3744SOL     OW12130   0.139   6.975   2.299
 3744SOL    HW112131   0.140   6.904   2.370
 3744SOL    HW212132   0.078   6.948   2.225
 3745SOL     OW12133   4.896   4.170   2.312
 3745SOL    HW112134   4.850   4.228   2.245
 3745SOL    HW212135   4.968   4.116   2.266
 3746SOL     OW12136   6.271   0.744   4.258
 3746SOL    HW112137   6.244   0.648   4.253
 3746SOL    HW212138   6.228   0.787   4.338
 3747SOL     OW12139   3.937   6.406   5.744
 3747SOL    HW112140   3.893   6.433   5.657
 3747SOL    HW212141   4.034   6.386   5.727
 3748SOL     OW12142   5.446   1.516   2.700
 3748SOL    HW112143   5.486   1.605   2.682
 3748SOL    HW212144   5.393   1.486   2.621
 3749SOL     OW12145   0.074   6.377   3.110
 3749SOL    HW112146   7.004   6.386   3.074
 3749SOL    HW212147   0.098   6.458   3.162
 3750SOL     OW12148   5.836   4.069   0.358
 3750SOL    HW112149   5.810   4.113   0.271
 3750SOL    HW212150   5.884   4.136   0.415
 3751SOL     OW12151   2.016   3.476   1.763
 3751SOL    HW112152   1.940   3.496   1.701
 3751SOL    HW212153   2.100   3.515   1.727
 3752SOL     OW12154   1.063   6.535   6.672
 3752SOL    HW112155   1.023   6.470   6.607
 3752SOL    HW212156   1.092   6.617   6.624
 3753SOL     OW12157   6.907   6.138   4.427
 3753SOL    HW112158   6.890   6.108   4.333
 3753SOL    HW212159   7.000   6.174   4.434
 3754SOL     OW12160   6.123   6.083   1.570
 3754SOL    HW112161   6.188   6.060   1.642
 3754SOL    HW212162   6.152   6.040   1.484
 3755SOL     OW12163   4.924   3.982   3.600
 3755SOL    HW112164   4.895   3.914   3.532
 3755SOL    HW212165   5.023   3.997   3.591
 3756SOL     OW12166   2.493   1.857   6.509
 3756SOL    HW112167   2.585   1.842   6.473
 3756SOL    HW212168   2.499   1.887   6.604
 3757SOL     OW12169   2.790   5.682   6.432
 3757SOL    HW112170   2.888   5.702   6.437
 3757SOL    HW212171   2.765   5.667   6.336
 3758SOL     OW12172   2.171   1.163   4.207
 3758SOL    HW112173   2.105   1.215   4.152
 3758SOL    HW212174   2.150   1.066   4.202
 3759SOL     OW12175   5.038   4.661   6.060
 3759SOL    HW112176   5.078   4.670   6.152
 3759SOL    HW212177   4.939   4.674   6.065
 3760SOL     OW12178   1.745   2.455   4.700
 3760SOL    HW112179   1.762   2.478   4.796
 3760SOL    HW212180   1.799   2.515   4.641
 3761SOL     OW12181   0.845   6.507   4.701
 3761SOL    HW112182   0.895   6.483   4.784
 3761SOL    HW212183   0.846   6.606   4.690
 3762SOL     OW12184   0.651   3.942   0.441
 3762SOL    HW112185   0.673   4.005   0.515
 3762SOL    HW212186   0.709   3.861   0.448
 3763SOL     OW12187   6.496   2.774   6.304
 3763SOL    HW112188   6.455   2.769   6.395
 3763SOL    HW212189   6.507   2.870   6.278
 3764SOL     OW12190   2.413   6.931   3.898
 3764SOL    HW112191   2.411   6.966   3.804
 3764SOL    HW212192   2.349   6.983   3.955
 3765SOL     OW12193   5.679   0.411   3.114
 3765SOL    HW112194   5.663   0.456   3.202
 3765SOL    HW212195   5.776   0.390   3.103
 3766SOL     OW12196   0.362   0.933   4.267
 3766SOL    HW112197   0.396   0.840   4.254
 3766SOL    HW212198   0.351   0.977   4.178
 3767SOL     OW12199   1.488   5.093   0.040
 3767SOL    HW112200   1.500   5.059   0.133
 3767SOL    HW212201   1.578   5.116   0.001
 3768SOL     OW12202   5.083   6.466   0.219
 3768SOL    HW112203   5.001   6.517   0.192
 3768SOL    HW212204   5.105   6.399   0.148
 3769SOL     OW12205   5.015   6.353   5.409
 3769SOL    HW112206   5.018   6.258   5.441
 3769SOL    HW212207   4.927   6.393   5.433
 3770SOL     OW12208   2.112   1.418   6.693
 3770SOL    HW112209   2.204   1.433   6.728
 3770SOL    HW212210   2.053   1.495   6.717
 3771SOL     OW12211   5.665   1.642   6.301
 3771SOL    HW112212   5.578   1.605   6.335
 3771SOL    HW212213   5.705   1.703   6.369
 3772SOL     OW12214   5.487   0.868   1.662
 3772SOL    HW112215   5.470   0.789   1.603
 3772SOL    HW212216   5.561   0.845   1.726
 3773SOL     OW12217   6.374   2.345   6.238
 3773SOL    HW112218   6.449   2.310   6.183
 3773SOL    HW212219   6.345   2.434   6.203
 3774SOL     OW12220   0.014   0.801   6.996
 3774SOL    HW112221   0.014   0.827   6.900
 3774SOL    HW212222   6.969   0.728   7.012
 3775SOL     OW12223   6.052   3.728   3.403
 3775SOL    HW112224   6.148   3.755   3.414
 3775SOL    HW212225   6.048   3.640   3.355
 3776SOL     OW12226   2.197   2.790   1.594
 3776SOL    HW112227   2.184   2.733   1.675
 3776SOL    HW212228   2.295   2.797   1.575
 3777SOL     OW12229   2.672   5.309   3.758
 3777SOL    HW112230   2.676   5.212   3.733
 3777SOL    HW212231   2.692   5.318   3.856
 3778SOL     OW12232   2.952   5.388   1.685
 3778SOL    HW112233   2.991   5.479   1.669
 3778SOL    HW212234   2.883   5.369   1.616
 3779SOL     OW12235   2.749   4.700   0.056
 3779SOL    HW112236   2.794   4.625   0.009
 3779SOL    HW212237   2.707   4.761   7.010
 3780SOL     OW12238   3.286   6.213   5.015
 3780SOL    HW112239   3.199   6.164   5.013
 3780SOL    HW212240   3.356   6.157   4.970
 3781SOL     OW12241   3.197   6.161   4.400
 3781SOL    HW112242   3.134   6.205   4.336
 3781SOL    HW212243   3.208   6.065   4.374
 3782SOL     OW12244   2.107   1.547   4.313
 3782SOL    HW112245   2.187   1.562   4.372
 3782SOL    HW212246   2.136   1.508   4.226
 3783SOL     OW12247   5.247   6.468   4.905
 3783SOL    HW112248   5.199   6.427   4.982
 3783SOL    HW212249   5.275   6.397   4.841
 3784SOL     OW12250   5.517   0.764   3.076
 3784SOL    HW112251   5.472   0.820   3.145
 3784SOL    HW212252   5.594   0.814   3.037
 3785SOL     OW12253   2.491   2.201   1.255
 3785SOL    HW112254   2.418   2.269   1.264
 3785SOL    HW212255   2.555   2.231   1.184
 3786SOL     OW12256   3.175   5.055   2.738
 3786SOL    HW112257   3.214   5.092   2.654
 3786SOL    HW212258   3.096   5.111   2.765
 3787SOL     OW12259   4.523   1.325   3.725
 3787SOL    HW112260   4.436   1.315   3.773
 3787SOL    HW212261   4.518   1.404   3.664
 3788SOL     OW12262   5.640   3.123   2.679
 3788SOL    HW112263   5.647   3.027   2.652
 3788SOL    HW212264   5.589   3.129   2.765
 3789SOL     OW12265   1.906   4.991   4.147
 3789SOL    HW112266   1.900   4.976   4.246
 3789SOL    HW212267   1.865   4.913   4.099
 3790SOL     OW12268   1.999   3.132   4.073
 3790SOL    HW112269   2.082   3.088   4.040
 3790SOL    HW212270   1.934   3.142   3.997
 3791SOL     OW12271   5.139   6.581   1.673
 3791SOL    HW112272   5.136   6.632   1.759
 3791SOL    HW212273   5.117   6.485   1.689
 3792SOL     OW12274   6.202   6.810   5.428
 3792SOL    HW112275   6.164   6.720   5.450
 3792SOL    HW212276   6.268   6.836   5.498
 3793SOL     OW12277   2.001   1.350   2.828
 3793SOL    HW112278   2.062   1.307   2.894
 3793SOL    HW212279   1.907   1.324   2.848
 3794SOL     OW12280   4.230   6.035   2.073
 3794SOL    HW112281   4.326   6.056   2.093
 3794SOL    HW212282   4.174   6.056   2.153
 3795SOL     OW12283   5.176   0.455   6.519
 3795SOL    HW112284   5.151   0.359   6.530
 3795SOL    HW212285   5.210   0.470   6.426
 3796SOL     OW12286   1.240   1.929   1.805
 3796SOL    HW112287   1.153   1.978   1.798
 3796SOL    HW212288   1.249   1.866   1.728
 3797SOL     OW12289   1.429   4.798   2.950
 3797SOL    HW112290   1.346   4.745   2.933
 3797SOL    HW212291   1.456   4.844   2.865
 3798SOL     OW12292   2.418   4.965   2.705
 3798SOL    HW112293   2.402   4.920   2.617
 3798SOL    HW212294   2.343   4.944   2.767
 3799SOL     OW12295   1.653   1.488   5.454
 3799SOL    HW112296   1.595   1.418   5.413
 3799SOL    HW212297   1.739   1.447   5.486
 3800SOL     OW12298   4.860   2.421   4.780
 3800SOL    HW112299   4.825   2.485   4.711
 3800SOL    HW212300   4.820   2.442   4.868
 3801SOL     OW12301   6.610   6.323   6.079
 3801SOL    HW112302   6.619   6.272   5.994
 3801SOL    HW212303   6.536   6.390   6.071
 3802SOL     OW12304   1.007   2.210   5.086
 3802SOL    HW112305   1.042   2.194   4.993
 3802SOL    HW212306   1.080   2.194   5.152
 3803SOL     OW12307   3.700   0.220   1.029
 3803SOL    HW112308   3.761   0.174   1.093
 3803SOL    HW212309   3.725   0.316   1.022
 3804SOL     OW12310   4.446   2.070   4.463
 3804SOL    HW112311   4.389   2.125   4.402
 3804SOL    HW212312   4.435   2.102   4.557
 3805SOL     OW12313   2.921   4.229   1.747
 3805SOL    HW112314   2.887   4.309   1.795
 3805SOL    HW212315   2.852   4.197   1.682
 3806SOL     OW12316   2.711   2.582   0.277
 3806SOL    HW112317   2.621   2.557   0.241
 3806SOL    HW212318   2.745   2.509   0.338
 3807SOL     OW12319   0.963   0.015   3.956
 3807SOL    HW112320   0.946   0.071   3.875
 3807SOL    HW212321   1.059   0.023   3.983
 3808SOL     OW12322   3.665   6.773   1.835
 3808SOL    HW112323   3.629   6.805   1.923
 3808SOL    HW212324   3.719   6.846   1.793
 3809SOL     OW12325   5.803   1.319   0.041
 3809SOL    HW112326   5.816   1.353   0.134
 3809SOL    HW212327   5.751   1.385   7.011
 3810SOL     OW12328   3.171   3.064   5.194
 3810SOL    HW112329   3.106   2.997   5.228
 3810SOL    HW212330   3.256   3.060   5.247
 3811SOL     OW12331   0.588   4.691   4.740
 3811SOL    HW112332   0.612   4.628   4.666
 3811SOL    HW212333   0.660   4.759   4.751
 3812SOL     OW12334   5.895   1.578   5.406
 3812SOL    HW112335   5.994   1.569   5.390
 3812SOL    HW212336   5.850   1.491   5.387
 3813SOL     OW12337   2.942   5.518   0.228
 3813SOL    HW112338   2.887   5.488   0.151
 3813SOL    HW212339   3.004   5.445   0.256
 3814SOL     OW12340   7.012   6.070   2.054
 3814SOL    HW112341   6.993   5.996   1.989
 3814SOL    HW212342   6.973   6.046   2.143
 3815SOL     OW12343   5.471   2.130   1.628
 3815SOL    HW112344   5.419   2.148   1.544
 3815SOL    HW212345   5.455   2.036   1.658
 3816SOL     OW12346   0.375   0.314   1.872
 3816SOL    HW112347   0.406   0.323   1.967
 3816SOL    HW212348   0.279   0.343   1.866
 3817SOL     OW12349   4.554   1.812   4.419
 3817SOL    HW112350   4.527   1.908   4.424
 3817SOL    HW212351   4.653   1.805   4.411
 3818SOL     OW12352   4.655   6.432   2.741
 3818SOL    HW112353   4.751   6.455   2.726
 3818SOL    HW212354   4.616   6.495   2.808
 3819SOL     OW12355   4.974   5.054   0.302
 3819SOL    HW112356   5.014   5.103   0.379
 3819SOL    HW212357   4.874   5.058   0.309
 3820SOL     OW12358   5.080   6.059   3.952
 3820SOL    HW112359   4.992   6.049   3.906
 3820SOL    HW212360   5.151   6.080   3.884
 3821SOL     OW12361   1.472   3.600   1.614
 3821SOL    HW112362   1.541   3.539   1.575
 3821SOL    HW212363   1.510   3.691   1.626
 3822SOL     OW12364   2.537   5.200   1.175
 3822SOL    HW112365   2.450   5.244   1.200
 3822SOL    HW212366   2.588   5.261   1.115
 3823SOL     OW12367   3.499   2.785   5.719
 3823SOL    HW112368   3.574   2.845   5.749
 3823SOL    HW212369   3.525   2.742   5.633
 3824SOL     OW12370   6.456   1.913   6.151
 3824SOL    HW112371   6.412   1.939   6.237
 3824SOL    HW212372   6.411   1.832   6.113
 3825SOL     OW12373   0.209   6.340   5.958
 3825SOL    HW112374   0.216   6.304   6.051
 3825SOL    HW212375   0.269   6.288   5.897
 3826SOL     OW12376   6.571   3.489   1.564
 3826SOL    HW112377   6.559   3.403   1.514
 3826SOL    HW212378   6.578   3.564   1.499
 3827SOL     OW12379   4.192   3.275   0.392
 3827SOL    HW112380   4.136   3.290   0.474
 3827SOL    HW212381   4.288   3.266   0.419
 3828SOL     OW12382   5.348   2.028   2.302
 3828SOL    HW112383   5.407   2.090   2.355
 3828SOL    HW212384   5.347   2.057   2.206
 3829SOL     OW12385   2.436   5.378   3.617
 3829SOL    HW112386   2.352   5.365   3.669
 3829SOL    HW212387   2.514   5.350   3.672
 3830SOL     OW12388   2.636   0.542   4.867
 3830SOL    HW112389   2.725   0.529   4.824
 3830SOL    HW212390   2.648   0.552   4.966
 3831SOL     OW12391   4.162   1.797   2.527
 3831SOL    HW112392   4.085   1.834   2.578
 3831SOL    HW212393   4.196   1.715   2.573
 3832SOL     OW12394   6.385   0.810   1.657
 3832SOL    HW112395   6.295   0.852   1.647
 3832SOL    HW212396   6.455   0.882   1.657
 3833SOL     OW12397   0.694   4.982   0.074
 3833SOL    HW112398   0.625   5.031   0.126
 3833SOL    HW212399   0.785   5.018   0.098
 3834SOL     OW12400   3.402   1.549   0.461
 3834SOL    HW112401   3.469   1.482   0.431
 3834SOL    HW212402   3.391   1.544   0.560
 3835SOL     OW12403   3.749   5.307   5.738
 3835SOL    HW112404   3.800   5.278   5.657
 3835SOL    HW212405   3.705   5.228   5.780
 3836SOL     OW12406   1.319   3.861   6.139
 3836SOL    HW112407   1.306   3.762   6.138
 3836SOL    HW212408   1.363   3.890   6.055
 3837SOL     OW12409   3.656   3.839   0.463
 3837SOL    HW112410   3.709   3.874   0.385
 3837SOL    HW212411   3.616   3.751   0.439
 3838SOL     OW12412   6.471   2.338   4.507
 3838SOL    HW112413   6.490   2.389   4.423
 3838SOL    HW212414   6.378   2.302   4.504
 3839SOL     OW12415   5.773   6.165   5.626
 3839SOL    HW112416   5.712   6.236   5.591
 3839SOL    HW212417   5.834   6.204   5.695
 3840SOL     OW12418   1.644   1.416   3.973
 3840SOL    HW112419   1.653   1.399   3.874
 3840SOL    HW212420   1.637   1.328   4.021
 3841SOL     OW12421   0.549   3.460   5.529
 3841SOL    HW112422   0.618   3.469   5.601
 3841SOL    HW212423   0.578   3.391   5.463
 3842SOL     OW12424   0.528   4.808   6.935
 3842SOL    HW112425   0.569   4.814   6.844
 3842SOL    HW212426   0.559   4.885   6.991
 3843SOL     OW12427   5.949   3.393   0.703
 3843SOL    HW112428   5.892   3.321   0.742
 3843SOL    HW212429   6.011   3.428   0.774
 3844SOL     OW12430   2.032   5.072   6.287
 3844SOL    HW112431   2.083   5.086   6.372
 3844SOL    HW212432   1.934   5.080   6.304
 3845SOL     OW12433   3.349   4.146   3.346
 3845SOL    HW112434   3.261   4.110   3.377
 3845SOL    HW212435   3.387   4.207   3.415
 3846SOL     OW12436   0.346   5.041   4.574
 3846SOL    HW112437   0.355   4.988   4.659
 3846SOL    HW212438   0.351   5.138   4.594
 3847SOL     OW12439   0.444   0.269   6.417
 3847SOL    HW112440   0.421   0.285   6.513
 3847SOL    HW212441   0.533   0.223   6.412
 3848SOL     OW12442   2.426   4.844   1.173
 3848SOL    HW112443   2.502   4.872   1.232
 3848SOL    HW212444   2.384   4.926   1.133
 3849SOL     OW12445   1.389   1.892   5.414
 3849SOL    HW112446   1.367   1.797   5.391
 3849SOL    HW212447   1.476   1.895   5.462
 3850SOL     OW12448   3.382   4.130   1.941
 3850SOL    HW112449   3.306   4.158   1.882
 3850SOL    HW212450   3.467   4.168   1.905
 3851SOL     OW12451   2.201   3.028   2.692
 3851SOL    HW112452   2.211   2.973   2.775
 3851SOL    HW212453   2.200   3.125   2.716
 3852SOL     OW12454   4.104   0.934   4.763
 3852SOL    HW112455   4.170   1.006   4.785
 3852SOL    HW212456   4.094   0.926   4.664
 3853SOL     OW12457   0.950   3.718   1.605
 3853SOL    HW112458   0.970   3.714   1.507
 3853SOL    HW212459   1.035   3.710   1.657
 3854SOL     OW12460   1.535   3.454   4.346
 3854SOL    HW112461   1.595   3.511   4.289
 3854SOL    HW212462   1.458   3.422   4.291
 3855SOL     OW12463   6.681   3.201   5.846
 3855SOL    HW112464   6.629   3.260   5.909
 3855SOL    HW212465   6.640   3.206   5.755
 3856SOL     OW12466   0.341   6.176   5.819
 3856SOL    HW112467   0.273   6.114   5.857
 3856SOL    HW212468   0.385   6.134   5.739
 3857SOL     OW12469   0.866   6.654   5.065
 3857SOL    HW112470   0.876   6.589   4.990
 3857SOL    HW212471   0.875   6.747   5.031
 3858SOL     OW12472   2.593   5.916   6.789
 3858SOL    HW112473   2.594   5.817   6.782
 3858SOL    HW212474   2.684   5.952   6.767
 3859SOL     OW12475   0.419   3.368   2.316
 3859SOL    HW112476   0.474   3.347   2.397
 3859SOL    HW212477   0.420   3.290   2.254
 3860SOL     OW12478   2.634   0.085   5.837
 3860SOL    HW112479   2.651   0.038   5.750
 3860SOL    HW212480   2.686   0.171   5.840
 3861SOL     OW12481   4.764   4.627   0.827
 3861SOL    HW112482   4.683   4.571   0.807
 3861SOL    HW212483   4.791   4.677   0.746
 3862SOL     OW12484   1.296   5.917   5.933
 3862SOL    HW112485   1.218   5.978   5.944
 3862SOL    HW212486   1.292   5.873   5.843
 3863SOL     OW12487   3.215   3.907   1.671
 3863SOL    HW112488   3.253   3.927   1.761
 3863SOL    HW212489   3.115   3.905   1.677
 3864SOL     OW12490   3.193   2.016   0.361
 3864SOL    HW112491   3.119   1.977   0.305
 3864SOL    HW212492   3.154   2.055   0.445
 3865SOL     OW12493   4.710   0.359   2.310
 3865SOL    HW112494   4.797   0.377   2.264
 3865SOL    HW212495   4.636   0.356   2.243
 3866SOL     OW12496   3.974   6.772   6.882
 3866SOL    HW112497   3.875   6.762   6.875
 3866SOL    HW212498   3.996   6.865   6.910
 3867SOL     OW12499   1.816   3.246   3.387
 3867SOL    HW112500   1.898   3.303   3.393
 3867SOL    HW212501   1.766   3.266   3.303
 3868SOL     OW12502   1.755   5.978   2.901
 3868SOL    HW112503   1.732   5.898   2.846
 3868SOL    HW212504   1.708   6.059   2.864
 3869SOL     OW12505   0.912   2.906   3.478
 3869SOL    HW112506   0.859   2.916   3.562
 3869SOL    HW212507   0.858   2.853   3.411
 3870SOL     OW12508   2.549   4.924   6.943
 3870SOL    HW112509   2.493   4.867   6.883
 3870SOL    HW212510   2.492   4.962   7.015
 3871SOL     OW12511   2.581   0.427   3.124
 3871SOL    HW112512   2.539   0.381   3.046
 3871SOL    HW212513   2.599   0.360   3.196
 3872SOL     OW12514   3.631   4.121   0.531
 3872SOL    HW112515   3.619   4.022   0.530
 3872SOL    HW212516   3.548   4.164   0.568
 3873SOL     OW12517   5.080   4.918   2.821
 3873SOL    HW112518   5.066   4.969   2.737
 3873SOL    HW212519   5.015   4.843   2.827
 3874SOL     OW12520   4.275   0.514   6.393
 3874SOL    HW112521   4.175   0.521   6.382
 3874SOL    HW212522   4.314   0.465   6.316
 3875SOL     OW12523   1.396   4.947   1.178
 3875SOL    HW112524   1.428   5.017   1.242
 3875SOL    HW212525   1.461   4.937   1.104
 3876SOL     OW12526   5.143   3.638   3.207
 3876SOL    HW112527   5.125   3.619   3.110
 3876SOL    HW212528   5.198   3.721   3.215
 3877SOL     OW12529   5.863   1.163   2.158
 3877SOL    HW112530   5.806   1.126   2.231
 3877SOL    HW212531   5.958   1.136   2.173
 3878SOL     OW12532   3.189   6.417   5.731
 3878SOL    HW112533   3.101   6.373   5.718
 3878SOL    HW212534   3.176   6.516   5.741
 3879SOL     OW12535   3.844   6.088   1.544
 3879SOL    HW112536   3.844   6.046   1.453
 3879SOL    HW212537   3.752   6.081   1.583
 3880SOL     OW12538   5.486   3.246   4.077
 3880SOL    HW112539   5.403   3.193   4.062
 3880SOL    HW212540   5.566   3.188   4.066
 3881SOL     OW12541   1.765   3.604   0.396
 3881SOL    HW112542   1.753   3.642   0.305
 3881SOL    HW212543   1.829   3.527   0.391
 3882SOL     OW12544   0.449   0.410   6.114
 3882SOL    HW112545   0.527   0.377   6.062
 3882SOL    HW212546   0.374   0.345   6.107
 3883SOL     OW12547   3.612   0.601   5.788
 3883SOL    HW112548   3.573   0.626   5.877
 3883SOL    HW212549   3.541   0.609   5.718
 3884SOL     OW12550   1.559   4.705   6.163
 3884SOL    HW112551   1.504   4.738   6.239
 3884SOL    HW212552   1.522   4.618   6.130
 3885SOL     OW12553   6.696   1.360   4.316
 3885SOL    HW112554   6.733   1.320   4.232
 3885SOL    HW212555   6.765   1.358   4.388
 3886SOL     OW12556   6.716   5.883   5.349
 3886SOL    HW112557   6.642   5.930   5.302
 3886SOL    HW212558   6.796   5.878   5.289
 3887SOL     OW12559   4.710   2.657   5.658
 3887SOL    HW112560   4.701   2.611   5.570
 3887SOL    HW212561   4.628   2.643   5.713
 3888SOL     OW12562   6.354   2.213   0.671
 3888SOL    HW112563   6.441   2.208   0.623
 3888SOL    HW212564   6.343   2.305   0.711
 3889SOL     OW12565   0.652   5.865   6.374
 3889SOL    HW112566   0.634   5.901   6.466
 3889SOL    HW212567   0.646   5.940   6.308
 3890SOL     OW12568   5.955   3.864   2.866
 3890SOL    HW112569   5.905   3.780   2.889
 3890SOL    HW212570   5.916   3.904   2.783
 3891SOL     OW12571   5.463   4.877   5.563
 3891SOL    HW112572   5.415   4.941   5.503
 3891SOL    HW212573   5.538   4.925   5.608
 3892SOL     OW12574   5.143   6.742   3.276
 3892SOL    HW112575   5.156   6.763   3.179
 3892SOL    HW212576   5.125   6.644   3.286
 3893SOL     OW12577   2.962   6.183   3.929
 3893SOL    HW112578   2.879   6.236   3.915
 3893SOL    HW212579   2.963   6.144   4.021
 3894SOL     OW12580   5.214   4.258   0.191
 3894SOL    HW112581   5.297   4.281   0.141
 3894SOL    HW212582   5.230   4.176   0.246
 3895SOL     OW12583   2.319   2.012   5.703
 3895SOL    HW112584   2.363   1.953   5.636
 3895SOL    HW212585   2.314   2.105   5.667
 3896SOL     OW12586   6.771   2.217   5.715
 3896SOL    HW112587   6.756   2.315   5.698
 3896SOL    HW212588   6.833   2.206   5.793
 3897SOL     OW12589   3.482   6.256   2.092
 3897SOL    HW112590   3.546   6.330   2.112
 3897SOL    HW212591   3.473   6.245   1.993
 3898SOL     OW12592   3.711   4.101   4.303
 3898SOL    HW112593   3.672   4.138   4.388
 3898SOL    HW212594   3.639   4.093   4.234
 3899SOL     OW12595   4.700   1.595   4.896
 3899SOL    HW112596   4.763   1.594   4.974
 3899SOL    HW212597   4.749   1.569   4.813
 3900SOL     OW12598   6.852   2.353   3.637
 3900SOL    HW112599   6.802   2.312   3.561
 3900SOL    HW212600   6.854   2.290   3.714
 3901SOL     OW12601   2.055   5.861   5.201
 3901SOL    HW112602   2.028   5.844   5.106
 3901SOL    HW212603   2.155   5.857   5.208
 3902SOL     OW12604   4.358   5.199   1.365
 3902SOL    HW112605   4.420   5.126   1.336
 3902SOL    HW212606   4.402   5.287   1.352
 3903SOL     OW12607   3.615   3.023   6.055
 3903SOL    HW112608   3.658   3.001   5.967
 3903SOL    HW212609   3.684   3.025   6.127
 3904SOL     OW12610   2.147   6.513   0.877
 3904SOL    HW112611   2.090   6.595   0.881
 3904SOL    HW212612   2.091   6.435   0.849
 3905SOL     OW12613   0.235   0.293   5.255
 3905SOL    HW112614   0.261   0.242   5.173
 3905SOL    HW212615   0.142   0.330   5.243
 3906SOL     OW12616   0.366   5.724   5.079
 3906SOL    HW112617   0.304   5.651   5.108
 3906SOL    HW212618   0.313   5.801   5.045
 3907SOL     OW12619   0.894   0.639   4.826
 3907SOL    HW112620   0.984   0.673   4.854
 3907SOL    HW212621   0.840   0.715   4.790
 3908SOL     OW12622   1.779   0.244   4.406
 3908SOL    HW112623   1.741   0.267   4.317
 3908SOL    HW212624   1.709   0.259   4.477
 3909SOL     OW12625   6.050   2.493   0.582
 3909SOL    HW112626   5.979   2.424   0.593
 3909SOL    HW212627   6.008   2.579   0.554
 3910SOL     OW12628   3.532   3.148   0.792
 3910SOL    HW112629   3.577   3.207   0.725
 3910SOL    HW212630   3.588   3.142   0.875
 3911SOL     OW12631   6.702   0.959   0.590
 3911SOL    HW112632   6.659   1.031   0.645
 3911SOL    HW212633   6.691   0.980   0.493
 3912SOL     OW12634   3.887   2.613   0.255
 3912SOL    HW112635   3.907   2.658   0.168
 3912SOL    HW212636   3.806   2.654   0.296
 3913SOL     OW12637   4.647   5.625   1.482
 3913SOL    HW112638   4.563   5.676   1.501
 3913SOL    HW212639   4.705   5.627   1.563
 3914SOL     OW12640   6.929   1.240   0.449
 3914SOL    HW112641   6.863   1.291   0.504
 3914SOL    HW212642   7.005   1.210   0.506
 3915SOL     OW12643   4.677   5.727   5.608
 3915SOL    HW112644   4.600   5.672   5.641
 3915SOL    HW212645   4.672   5.818   5.648
 3916SOL     OW12646   2.408   1.850   2.597
 3916SOL    HW112647   2.376   1.768   2.548
 3916SOL    HW212648   2.464   1.822   2.675
 3917SOL     OW12649   3.539   4.304   1.432
 3917SOL    HW112650   3.547   4.347   1.522
 3917SOL    HW212651   3.450   4.327   1.392
 3918SOL     OW12652   5.309   1.082   0.150
 3918SOL    HW112653   5.225   1.029   0.158
 3918SOL    HW212654   5.322   1.138   0.232
 3919SOL     OW12655   4.344   6.283   2.425
 3919SOL    HW112656   4.408   6.247   2.492
 3919SOL    HW212657   4.343   6.383   2.430
 3920SOL     OW12658   2.815   1.449   5.314
 3920SOL    HW112659   2.884   1.486   5.377
 3920SOL    HW212660   2.828   1.489   5.223
 3921SOL     OW12661   0.012   3.141   6.264
 3921SOL    HW112662   6.996   3.225   6.227
 3921SOL    HW212663   6.960   3.080   6.291
 3922SOL     OW12664   4.833   4.028   2.962
 3922SOL    HW112665   4.807   4.013   3.057
 3922SOL    HW212666   4.865   3.942   2.922
 3923SOL     OW12667   5.148   0.925   1.408
 3923SOL    HW112668   5.155   0.988   1.485
 3923SOL    HW212669   5.236   0.921   1.360
 3924SOL     OW12670   5.511   5.435   4.376
 3924SOL    HW112671   5.448   5.502   4.336
 3924SOL    HW212672   5.461   5.354   4.404
 3925SOL     OW12673   4.984   4.017   1.170
 3925SOL    HW112674   5.008   4.035   1.266
 3925SOL    HW212675   5.052   4.061   1.111
 3926SOL     OW12676   0.498   5.857   5.794
 3926SOL    HW112677   0.524   5.766   5.762
 3926SOL    HW212678   0.454   5.907   5.720
 3927SOL     OW12679   5.532   2.222   5.852
 3927SOL    HW112680   5.442   2.256   5.823
 3927SOL    HW212681   5.602   2.288   5.825
 3928SOL     OW12682   3.342   5.766   2.053
 3928SOL    HW112683   3.321   5.676   2.090
 3928SOL    HW212684   3.433   5.766   2.013
 3929SOL     OW12685   0.620   2.140   5.247
 3929SOL    HW112686   0.677   2.098   5.176
 3929SOL    HW212687   0.525   2.144   5.216
 3930SOL     OW12688   2.178   4.406   3.921
 3930SOL    HW112689   2.208   4.345   3.995
 3930SOL    HW212690   2.213   4.372   3.834
 3931SOL     OW12691   1.953   2.398   1.331
 3931SOL    HW112692   2.025   2.336   1.360
 3931SOL    HW212693   1.898   2.425   1.411
 3932SOL     OW12694   2.408   4.906   3.760
 3932SOL    HW112695   2.411   4.829   3.696
 3932SOL    HW212696   2.315   4.917   3.794
 3933SOL     OW12697   1.910   6.095   1.365
 3933SOL    HW112698   1.900   6.007   1.319
 3933SOL    HW212699   1.927   6.166   1.297
 3934SOL     OW12700   0.069   0.653   1.588
 3934SOL    HW112701   0.017   0.715   1.529
 3934SOL    HW212702   0.135   0.602   1.533
 3935SOL     OW12703   6.489   3.409   5.891
 3935SOL    HW112704   6.406   3.364   5.923
 3935SOL    HW212705   6.470   3.506   5.873
 3936SOL     OW12706   6.560   4.459   5.740
 3936SOL    HW112707   6.581   4.413   5.654
 3936SOL    HW212708   6.539   4.391   5.810
 3937SOL     OW12709   0.382   6.101   1.494
 3937SOL    HW112710   0.347   6.134   1.581
 3937SOL    HW212711   0.308   6.099   1.427
 3938SOL     OW12712   1.079   3.457   1.787
 3938SOL    HW112713   1.030   3.370   1.791
 3938SOL    HW212714   1.120   3.467   1.696
 3939SOL     OW12715   0.955   1.013   3.103
 3939SOL    HW112716   0.996   1.027   3.193
 3939SOL    HW212717   1.025   0.983   3.038
 3940SOL     OW12718   3.041   6.167   0.787
 3940SOL    HW112719   3.090   6.111   0.720
 3940SOL    HW212720   2.969   6.219   0.741
 3941SOL     OW12721   5.368   6.052   2.156
 3941SOL    HW112722   5.330   6.099   2.235
 3941SOL    HW212723   5.333   6.095   2.072
 3942SOL     OW12724   6.929   5.848   5.168
 3942SOL    HW112725   6.968   5.756   5.163
 3942SOL    HW212726   6.962   5.901   5.090
 3943SOL     OW12727   1.390   2.832   0.500
 3943SOL    HW112728   1.426   2.842   0.407
 3943SOL    HW212729   1.302   2.784   0.496
 3944SOL     OW12730   5.319   3.251   6.877
 3944SOL    HW112731   5.372   3.167   6.882
 3944SOL    HW212732   5.298   3.272   6.782
 3945SOL     OW12733   5.723   0.648   3.472
 3945SOL    HW112734   5.655   0.654   3.399
 3945SOL    HW212735   5.725   0.735   3.522
 3946SOL     OW12736   0.824   3.107   0.073
 3946SOL    HW112737   0.804   3.106   0.171
 3946SOL    HW212738   0.814   3.014   0.037
 3947SOL     OW12739   5.893   5.616   2.137
 3947SOL    HW112740   5.885   5.711   2.165
 3947SOL    HW212741   5.810   5.567   2.163
 3948SOL     OW12742   1.637   2.972   5.630
 3948SOL    HW112743   1.666   3.022   5.712
 3948SOL    HW212744   1.618   3.037   5.556
 3949SOL     OW12745   5.832   0.366   1.507
 3949SOL    HW112746   5.803   0.451   1.462
 3949SOL    HW212747   5.925   0.378   1.542
 3950SOL     OW12748   3.217   4.452   1.619
 3950SOL    HW112749   3.191   4.361   1.654
 3950SOL    HW212750   3.135   4.502   1.593
 3951SOL     OW12751   0.650   2.547   4.466
 3951SOL    HW112752   0.578   2.574   4.529
 3951SOL    HW212753   0.709   2.479   4.509
 3952SOL     OW12754   5.712   3.807   0.124
 3952SOL    HW112755   5.792   3.843   0.076
 3952SOL    HW212756   5.739   3.778   0.216
 3953SOL     OW12757   3.291   3.689   6.740
 3953SOL    HW112758   3.288   3.612   6.676
 3953SOL    HW212759   3.234   3.669   6.819
 3954SOL     OW12760   0.434   2.407   5.804
 3954SOL    HW112761   0.408   2.460   5.722
 3954SOL    HW212762   0.486   2.327   5.776
 3955SOL     OW12763   0.165   3.663   0.549
 3955SOL    HW112764   0.105   3.696   0.476
 3955SOL    HW212765   0.212   3.741   0.591
 3956SOL     OW12766   6.792   2.925   5.547
 3956SOL    HW112767   6.852   2.995   5.586
 3956SOL    HW212768   6.740   2.881   5.620
 3957SOL     OW12769   0.935   1.450   3.303
 3957SOL    HW112770   0.903   1.403   3.221
 3957SOL    HW212771   0.931   1.388   3.381
 3958SOL     OW12772   5.720   6.205   0.316
 3958SOL    HW112773   5.801   6.251   0.354
 3958SOL    HW212774   5.649   6.273   0.300
 3959SOL     OW12775   2.803   5.679   0.830
 3959SOL    HW112776   2.758   5.665   0.743
 3959SOL    HW212777   2.808   5.777   0.850
 3960SOL     OW12778   5.067   3.350   1.061
 3960SOL    HW112779   4.971   3.370   1.078
 3960SOL    HW212780   5.080   3.325   0.965
 3961SOL     OW12781   5.546   0.410   1.883
 3961SOL    HW112782   5.628   0.384   1.934
 3961SOL    HW212783   5.466   0.405   1.943
 3962SOL     OW12784   0.844   6.634   5.624
 3962SOL    HW112785   0.767   6.576   5.597
 3962SOL    HW212786   0.890   6.594   5.703
 3963SOL     OW12787   4.421   5.687   3.434
 3963SOL    HW112788   4.450   5.782   3.434
 3963SOL    HW212789   4.445   5.644   3.347
 3964SOL     OW12790   5.689   6.426   6.313
 3964SOL    HW112791   5.638   6.349   6.274
 3964SOL    HW212792   5.779   6.396   6.343
 3965SOL     OW12793   4.220   2.782   0.062
 3965SOL    HW112794   4.234   2.832   0.148
 3965SOL    HW212795   4.123   2.762   0.050
 3966SOL     OW12796   5.971   3.525   5.281
 3966SOL    HW112797   6.042   3.503   5.214
 3966SOL    HW212798   5.922   3.441   5.306
 3967SOL     OW12799   1.738   6.598   6.594
 3967SOL    HW112800   1.706   6.618   6.686
 3967SOL    HW212801   1.750   6.499   6.584
 3968SOL     OW12802   5.585   0.151   1.287
 3968SOL    HW112803   5.520   0.197   1.348
 3968SOL    HW212804   5.674   0.144   1.333
 3969SOL     OW12805   0.484   6.158   1.999
 3969SOL    HW112806   0.532   6.085   1.951
 3969SOL    HW212807   0.509   6.156   2.096
 3970SOL     OW12808   4.794   4.487   4.356
 3970SOL    HW112809   4.875   4.450   4.402
 3970SOL    HW212810   4.770   4.575   4.396
 3971SOL     OW12811   1.634   6.000   3.897
 3971SOL    HW112812   1.649   5.947   3.981
 3971SOL    HW212813   1.599   6.090   3.920
 3972SOL     OW12814   1.189   0.398   0.488
 3972SOL    HW112815   1.177   0.428   0.393
 3972SOL    HW212816   1.136   0.457   0.549
 3973SOL     OW12817   3.766   2.956   2.706
 3973SOL    HW112818   3.737   2.918   2.618
 3973SOL    HW212819   3.690   2.954   2.770
 3974SOL     OW12820   5.985   0.645   6.040
 3974SOL    HW112821   6.056   0.717   6.041
 3974SOL    HW212822   5.895   0.687   6.047
 3975SOL     OW12823   6.816   6.110   5.536
 3975SOL    HW112824   6.876   6.123   5.458
 3975SOL    HW212825   6.742   6.177   5.533
 3976SOL     OW12826   1.388   3.007   6.314
 3976SOL    HW112827   1.397   2.967   6.405
 3976SOL    HW212828   1.439   3.092   6.309
 3977SOL     OW12829   4.293   6.313   6.044
 3977SOL    HW112830   4.277   6.403   6.004
 3977SOL    HW212831   4.277   6.243   5.975
 3978SOL     OW12832   6.055   3.743   6.862
 3978SOL    HW112833   6.098   3.801   6.793
 3978SOL    HW212834   6.102   3.654   6.865
 3979SOL     OW12835   1.067   0.072   3.335
 3979SOL    HW112836   1.040   0.132   3.260
 3979SOL    HW212837   1.017   0.098   3.418
 3980SOL     OW12838   4.897   3.537   4.747
 3980SOL    HW112839   4.995   3.533   4.766
 3980SOL    HW212840   4.847   3.556   4.832
 3981SOL     OW12841   6.178   1.944   5.580
 3981SOL    HW112842   6.149   1.879   5.510
 3981SOL    HW212843   6.118   2.024   5.579
 3982SOL     OW12844   2.961   2.007   3.962
 3982SOL    HW112845   3.001   1.961   3.883
 3982SOL    HW212846   3.026   2.071   4.001
 3983SOL     OW12847   3.711   6.796   4.162
 3983SOL    HW112848   3.673   6.708   4.190
 3983SOL    HW212849   3.641   6.850   4.115
 3984SOL     OW12850   1.414   0.264   1.625
 3984SOL    HW112851   1.338   0.317   1.585
 3984SOL    HW212852   1.402   0.259   1.724
 3985SOL     OW12853   1.424   3.511   1.881
 3985SOL    HW112854   1.365   3.432   1.899
 3985SOL    HW212855   1.416   3.538   1.785
 3986SOL     OW12856   1.114   2.617   2.040
 3986SOL    HW112857   1.031   2.578   2.000
 3986SOL    HW212858   1.177   2.643   1.967
 3987SOL     OW12859   2.215   4.474   6.333
 3987SOL    HW112860   2.174   4.562   6.310
 3987SOL    HW212861   2.312   4.476   6.311
 3988SOL     OW12862   4.601   1.935   6.884
 3988SOL    HW112863   4.590   2.032   6.906
 3988SOL    HW212864   4.690   1.922   6.839
 3989SOL     OW12865   4.138   0.907   6.650
 3989SOL    HW112866   4.214   0.845   6.632
 3989SOL    HW212867   4.170   1.002   6.641
 3990SOL     OW12868   1.285   2.557   3.321
 3990SOL    HW112869   1.193   2.517   3.329
 3990SOL    HW212870   1.332   2.550   3.409
 3991SOL     OW12871   6.891   1.362   4.507
 3991SOL    HW112872   6.906   1.373   4.605
 3991SOL    HW212873   6.968   1.401   4.457
 3992SOL     OW12874   5.205   3.842   6.239
 3992SOL    HW112875   5.195   3.939   6.261
 3992SOL    HW212876   5.168   3.786   6.313
 3993SOL     OW12877   1.712   1.613   3.408
 3993SOL    HW112878   1.769   1.539   3.374
 3993SOL    HW212879   1.734   1.631   3.504
 3994SOL     OW12880   2.425   1.989   3.948
 3994SOL    HW112881   2.354   2.053   3.975
 3994SOL    HW212882   2.514   2.035   3.947
 3995SOL     OW12883   1.432   3.894   2.061
 3995SOL    HW112884   1.530   3.877   2.072
 3995SOL    HW212885   1.383   3.807   2.064
 3996SOL     OW12886   5.824   6.707   3.433
 3996SOL    HW112887   5.834   6.615   3.470
 3996SOL    HW212888   5.730   6.739   3.448
 3997SOL     OW12889   5.634   3.805   3.109
 3997SOL    HW112890   5.585   3.853   3.037
 3997SOL    HW212891   5.626   3.856   3.195
 3998SOL     OW12892   5.471   2.581   3.317
 3998SOL    HW112893   5.475   2.542   3.409
 3998SOL    HW212894   5.440   2.511   3.252
 3999SOL     OW12895   5.017   2.663   1.419
 3999SOL    HW112896   5.104   2.614   1.408
 3999SOL    HW212897   4.953   2.633   1.348
 4000SOL     OW12898   3.338   5.171   2.516
 4000SOL    HW112899   3.356   5.100   2.449
 4000SOL    HW212900   3.423   5.222   2.535
 4001SOL     OW12901   1.526   4.819   4.435
 4001SOL    HW112902   1.602   4.862   4.486
 4001SOL    HW212903   1.541   4.830   4.337
 4002SOL     OW12904   3.551   4.200   3.567
 4002SOL    HW112905   3.614   4.131   3.533
 4002SOL    HW212906   3.603   4.280   3.599
 4003SOL     OW12907   2.540   1.114   5.530
 4003SOL    HW112908   2.461   1.054   5.543
 4003SOL    HW212909   2.516   1.186   5.465
 4004SOL     OW12910   1.057   3.856   3.399
 4004SOL    HW112911   1.095   3.895   3.315
 4004SOL    HW212912   1.122   3.869   3.474
 4005SOL     OW12913   5.155   2.967   0.924
 4005SOL    HW112914   5.198   2.919   1.000
 4005SOL    HW212915   5.152   2.907   0.844
 4006SOL     OW12916   4.755   4.999   3.277
 4006SOL    HW112917   4.785   5.056   3.201
 4006SOL    HW212918   4.835   4.959   3.322
 4007SOL     OW12919   6.785   1.030   3.271
 4007SOL    HW112920   6.882   1.010   3.286
 4007SOL    HW212921   6.774   1.074   3.182
 4008SOL     OW12922   3.274   0.646   0.847
 4008SOL    HW112923   3.248   0.663   0.942
 4008SOL    HW212924   3.264   0.549   0.826
 4009SOL     OW12925   4.605   1.965   0.678
 4009SOL    HW112926   4.508   1.946   0.663
 4009SOL    HW212927   4.620   2.063   0.677
 4010SOL     OW12928   2.861   5.003   1.723
 4010SOL    HW112929   2.888   5.058   1.803
 4010SOL    HW212930   2.908   4.915   1.726
 4011SOL     OW12931   4.976   5.828   6.988
 4011SOL    HW112932   4.877   5.843   6.998
 4011SOL    HW212933   5.006   5.860   6.898
 4012SOL     OW12934   4.409   0.350   2.329
 4012SOL    HW112935   4.429   0.379   2.423
 4012SOL    HW212936   4.372   0.257   2.329
 4013SOL     OW12937   0.514   1.248   6.422
 4013SOL    HW112938   0.450   1.303   6.368
 4013SOL    HW212939   0.463   1.180   6.475
 4014SOL     OW12940   2.925   5.354   2.476
 4014SOL    HW112941   2.832   5.383   2.501
 4014SOL    HW212942   2.922   5.258   2.447
 4015SOL     OW12943   4.085   4.656   6.096
 4015SOL    HW112944   4.008   4.706   6.135
 4015SOL    HW212945   4.052   4.583   6.036
 4016SOL     OW12946   4.282   5.350   5.533
 4016SOL    HW112947   4.332   5.358   5.447
 4016SOL    HW212948   4.280   5.439   5.578
 4017SOL     OW12949   0.645   4.880   5.978
 4017SOL    HW112950   0.662   4.886   6.076
 4017SOL    HW212951   0.565   4.821   5.961
 4018SOL     OW12952   4.528   6.366   1.994
 4018SOL    HW112953   4.479   6.279   1.998
 4018SOL    HW212954   4.620   6.353   2.030
 4019SOL     OW12955   5.138   3.494   3.592
 4019SOL    HW112956   5.141   3.452   3.682
 4019SOL    HW212957   5.203   3.570   3.589
 4020SOL     OW12958   6.426   5.047   4.021
 4020SOL    HW112959   6.443   5.021   4.116
 4020SOL    HW212960   6.345   5.106   4.016
 4021SOL     OW12961   4.169   3.727   5.970
 4021SOL    HW112962   4.188   3.793   5.897
 4021SOL    HW212963   4.247   3.665   5.979
 4022SOL     OW12964   2.298   1.093   1.363
 4022SOL    HW112965   2.308   1.004   1.318
 4022SOL    HW212966   2.377   1.151   1.343
 4023SOL     OW12967   0.369   1.452   4.907
 4023SOL    HW112968   0.330   1.530   4.859
 4023SOL    HW212969   0.455   1.426   4.863
 4024SOL     OW12970   0.444   5.664   4.664
 4024SOL    HW112971   0.398   5.587   4.709
 4024SOL    HW212972   0.527   5.632   4.620
 4025SOL     OW12973   0.402   5.825   4.065
 4025SOL    HW112974   0.391   5.822   4.165
 4025SOL    HW212975   0.474   5.762   4.038
 4026SOL     OW12976   6.487   6.440   3.656
 4026SOL    HW112977   6.446   6.348   3.651
 4026SOL    HW212978   6.423   6.502   3.701
 4027SOL     OW12979   2.772   4.203   5.855
 4027SOL    HW112980   2.807   4.234   5.766
 4027SOL    HW212981   2.717   4.121   5.842
 4028SOL     OW12982   4.768   1.820   2.809
 4028SOL    HW112983   4.790   1.742   2.750
 4028SOL    HW212984   4.700   1.791   2.877
 4029SOL     OW12985   1.979   5.386   6.450
 4029SOL    HW112986   2.074   5.384   6.418
 4029SOL    HW212987   1.964   5.467   6.506
 4030SOL     OW12988   0.119   1.348   2.756
 4030SOL    HW112989   0.050   1.315   2.693
 4030SOL    HW212990   0.077   1.366   2.845
 4031SOL     OW12991   6.210   6.333   1.381
 4031SOL    HW112992   6.166   6.415   1.417
 4031SOL    HW212993   6.227   6.269   1.456
 4032SOL     OW12994   5.738   0.851   1.527
 4032SOL    HW112995   5.792   0.889   1.602
 4032SOL    HW212996   5.650   0.898   1.522
 4033SOL     OW12997   2.050   2.735   2.635
 4033SOL    HW112998   2.136   2.725   2.584
 4033SOL    HW212999   2.028   2.832   2.645
 4034SOL     OW13000   0.160   2.903   5.106
 4034SOL    HW113001   0.114   2.852   5.033
 4034SOL    HW213002   0.093   2.934   5.173
 4035SOL     OW13003   5.296   1.698   1.391
 4035SOL    HW113004   5.338   1.705   1.481
 4035SOL    HW213005   5.205   1.740   1.392
 4036SOL     OW13006   2.497   5.388   2.979
 4036SOL    HW113007   2.495   5.329   2.899
 4036SOL    HW213008   2.444   5.471   2.961
 4037SOL     OW13009   2.366   0.833   5.890
 4037SOL    HW113010   2.425   0.842   5.970
 4037SOL    HW213011   2.274   0.865   5.913
 4038SOL     OW13012   3.351   3.779   5.782
 4038SOL    HW113013   3.365   3.703   5.719
 4038SOL    HW213014   3.317   3.859   5.731
 4039SOL     OW13015   6.046   5.204   1.767
 4039SOL    HW113016   6.020   5.121   1.816
 4039SOL    HW213017   6.085   5.270   1.831
 4040SOL     OW13018   3.437   5.465   4.977
 4040SOL    HW113019   3.370   5.423   4.916
 4040SOL    HW213020   3.529   5.440   4.947
 4041SOL     OW13021   2.817   5.981   0.808
 4041SOL    HW113022   2.723   5.985   0.775
 4041SOL    HW213023   2.859   6.071   0.801
 4042SOL     OW13024   6.267   0.581   3.889
 4042SOL    HW113025   6.316   0.668   3.876
 4042SOL    HW213026   6.222   0.555   3.803
 4043SOL     OW13027   5.169   3.704   6.501
 4043SOL    HW113028   5.121   3.756   6.572
 4043SOL    HW213029   5.267   3.702   6.522
 4044SOL     OW13030   3.991   5.112   3.562
 4044SOL    HW113031   4.080   5.104   3.519
 4044SOL    HW213032   3.981   5.203   3.602
 4045SOL     OW13033   5.211   0.083   5.564
 4045SOL    HW113034   5.168   0.040   5.643
 4045SOL    HW213035   5.143   0.095   5.491
 4046SOL     OW13036   6.764   1.816   2.456
 4046SOL    HW113037   6.681   1.785   2.410
 4046SOL    HW213038   6.818   1.737   2.485
 4047SOL     OW13039   2.685   3.330   6.802
 4047SOL    HW113040   2.723   3.339   6.894
 4047SOL    HW213041   2.658   3.235   6.786
 4048SOL     OW13042   4.453   1.545   2.103
 4048SOL    HW113043   4.377   1.565   2.041
 4048SOL    HW213044   4.540   1.569   2.059
 4049SOL     OW13045   3.856   4.690   6.631
 4049SOL    HW113046   3.762   4.654   6.635
 4049SOL    HW213047   3.867   4.741   6.545
 4050SOL     OW13048   0.339   5.343   2.752
 4050SOL    HW113049   0.312   5.319   2.659
 4050SOL    HW213050   0.374   5.261   2.798
 4051SOL     OW13051   5.082   1.081   5.296
 4051SOL    HW113052   5.157   1.119   5.351
 4051SOL    HW213053   5.000   1.072   5.353
 4052SOL     OW13054   6.219   1.858   3.727
 4052SOL    HW113055   6.317   1.838   3.728
 4052SOL    HW213056   6.204   1.950   3.691
 4053SOL     OW13057   1.216   5.762   4.568
 4053SOL    HW113058   1.216   5.832   4.496
 4053SOL    HW213059   1.309   5.744   4.598
 4054SOL     OW13060   4.924   4.297   0.718
 4054SOL    HW113061   4.903   4.339   0.629
 4054SOL    HW213062   4.964   4.367   0.778
 4055SOL     OW13063   1.039   3.766   1.345
 4055SOL    HW113064   1.108   3.712   1.297
 4055SOL    HW213065   0.980   3.812   1.279
 4056SOL     OW13066   4.742   3.257   0.899
 4056SOL    HW113067   4.808   3.184   0.914
 4056SOL    HW213068   4.735   3.313   0.981
 4057SOL     OW13069   6.598   3.344   6.462
 4057SOL    HW113070   6.543   3.286   6.401
 4057SOL    HW213071   6.584   3.315   6.557
 4058SOL     OW13072   2.724   6.418   5.782
 4058SOL    HW113073   2.710   6.359   5.861
 4058SOL    HW213074   2.646   6.409   5.720
 4059SOL     OW13075   1.114   1.852   4.256
 4059SOL    HW113076   1.090   1.801   4.174
 4059SOL    HW213077   1.205   1.893   4.245
 4060SOL     OW13078   6.217   5.889   4.988
 4060SOL    HW113079   6.316   5.884   5.001
 4060SOL    HW213080   6.176   5.937   5.066
 4061SOL     OW13081   2.232   5.211   1.558
 4061SOL    HW113082   2.306   5.265   1.519
 4061SOL    HW213083   2.146   5.262   1.550
 4062SOL     OW13084   2.140   1.846   1.883
 4062SOL    HW113085   2.062   1.906   1.900
 4062SOL    HW213086   2.109   1.751   1.878
 4063SOL     OW13087   5.575   1.807   0.407
 4063SOL    HW113088   5.553   1.734   0.472
 4063SOL    HW213089   5.650   1.862   0.444
 4064SOL     OW13090   2.023   2.060   4.993
 4064SOL    HW113091   1.958   2.002   5.041
 4064SOL    HW213092   1.976   2.139   4.954
 4065SOL     OW13093   1.976   6.982   0.636
 4065SOL    HW113094   1.911   0.019   0.683
 4065SOL    HW213095   2.066   6.991   0.678
 4066SOL     OW13096   0.208   4.102   3.428
 4066SOL    HW113097   0.234   4.047   3.349
 4066SOL    HW213098   0.128   4.158   3.405
 4067SOL     OW13099   5.234   5.185   2.417
 4067SOL    HW113100   5.263   5.122   2.489
 4067SOL    HW213101   5.149   5.151   2.376
 4068SOL     OW13102   1.658   2.800   5.391
 4068SOL    HW113103   1.717   2.731   5.351
 4068SOL    HW213104   1.705   2.844   5.468
 4069SOL     OW13105   3.967   0.054   6.991
 4069SOL    HW113106   3.942   0.077   6.897
 4069SOL    HW213107   3.886   0.024   0.019
 4070SOL     OW13108   1.533   2.901   2.862
 4070SOL    HW113109   1.502   2.839   2.935
 4070SOL    HW213110   1.471   2.979   2.855
 4071SOL     OW13111   0.726   0.592   3.950
 4071SOL    HW113112   0.797   0.606   3.881
 4071SOL    HW213113   0.637   0.581   3.904
 4072SOL     OW13114   1.614   5.528   3.430
 4072SOL    HW113115   1.692   5.560   3.377
 4072SOL    HW213116   1.560   5.606   3.462
 4073SOL     OW13117   2.992   4.796   0.285
 4073SOL    HW113118   3.041   4.863   0.228
 4073SOL    HW213119   3.038   4.708   0.280
 4074SOL     OW13120   0.873   5.806   2.712
 4074SOL    HW113121   0.944   5.808   2.782
 4074SOL    HW213122   0.868   5.895   2.667
 4075SOL     OW13123   5.447   0.042   0.715
 4075SOL    HW113124   5.357   0.080   0.695
 4075SOL    HW213125   5.465   0.047   0.813
 4076SOL     OW13126   3.178   3.760   5.167
 4076SOL    HW113127   3.190   3.783   5.070
 4076SOL    HW213128   3.106   3.692   5.177
 4077SOL     OW13129   4.096   1.969   1.776
 4077SOL    HW113130   4.030   2.040   1.751
 4077SOL    HW213131   4.155   1.950   1.698
 4078SOL     OW13132   3.186   4.870   2.928
 4078SOL    HW113133   3.262   4.806   2.938
 4078SOL    HW213134   3.208   4.937   2.857
 4079SOL     OW13135   1.066   2.654   4.194
 4079SOL    HW113136   1.132   2.633   4.266
 4079SOL    HW213137   0.976   2.671   4.235
 4080SOL     OW13138   5.533   1.213   5.019
 4080SOL    HW113139   5.486   1.136   4.975
 4080SOL    HW213140   5.485   1.238   5.103
 4081SOL     OW13141   1.476   3.420   3.224
 4081SOL    HW113142   1.554   3.479   3.241
 4081SOL    HW213143   1.506   3.338   3.175
 4082SOL     OW13144   1.146   3.167   1.127
 4082SOL    HW113145   1.221   3.150   1.063
 4082SOL    HW213146   1.059   3.168   1.077
 4083SOL     OW13147   5.782   2.495   4.403
 4083SOL    HW113148   5.793   2.550   4.321
 4083SOL    HW213149   5.852   2.520   4.470
 4084SOL     OW13150   6.523   1.823   4.077
 4084SOL    HW113151   6.515   1.804   3.980
 4084SOL    HW213152   6.472   1.755   4.130
 4085SOL     OW13153   3.512   5.952   0.354
 4085SOL    HW113154   3.530   5.971   0.450
 4085SOL    HW213155   3.559   6.019   0.297
 4086SOL     OW13156   1.776   5.278   1.108
 4086SOL    HW113157   1.683   5.253   1.083
 4086SOL    HW213158   1.783   5.290   1.207
 4087SOL     OW13159   2.201   2.046   3.275
 4087SOL    HW113160   2.241   2.098   3.199
 4087SOL    HW213161   2.271   1.985   3.313
 4088SOL     OW13162   6.475   1.946   1.009
 4088SOL    HW113163   6.419   1.912   1.084
 4088SOL    HW213164   6.572   1.943   1.036
 4089SOL     OW13165   0.998   1.099   4.105
 4089SOL    HW113166   0.983   1.192   4.071
 4089SOL    HW213167   0.921   1.072   4.163
 4090SOL     OW13168   2.320   4.129   6.278
 4090SOL    HW113169   2.295   4.180   6.196
 4090SOL    HW213170   2.255   4.149   6.351
 4091SOL     OW13171   4.889   6.090   0.208
 4091SOL    HW113172   4.833   6.010   0.191
 4091SOL    HW213173   4.936   6.080   0.296
 4092SOL     OW13174   0.511   2.741   5.280
 4092SOL    HW113175   0.466   2.817   5.232
 4092SOL    HW213176   0.444   2.691   5.333
 4093SOL     OW13177   5.656   1.286   3.464
 4093SOL    HW113178   5.755   1.278   3.452
 4093SOL    HW213179   5.609   1.228   3.398
 4094SOL     OW13180   2.053   4.298   5.202
 4094SOL    HW113181   2.083   4.263   5.114
 4094SOL    HW213182   2.079   4.394   5.211
 4095SOL     OW13183   1.165   2.864   5.845
 4095SOL    HW113184   1.140   2.955   5.814
 4095SOL    HW213185   1.182   2.866   5.944
 4096SOL     OW13186   4.627   5.135   6.386
 4096SOL    HW113187   4.713   5.187   6.383
 4096SOL    HW213188   4.594   5.121   6.293
 4097SOL     OW13189   3.328   3.505   5.670
 4097SOL    HW113190   3.365   3.508   5.577
 4097SOL    HW213191   3.320   3.409   5.699
 4098SOL     OW13192   0.515   2.752   3.118
 4098SOL    HW113193   0.559   2.817   3.181
 4098SOL    HW213194   0.432   2.716   3.160
 4099SOL     OW13195   3.136   5.925   1.934
 4099SOL    HW113196   3.198   5.850   1.958
 4099SOL    HW213197   3.166   6.008   1.980
 4100SOL     OW13198   4.532   6.150   3.577
 4100SOL    HW113199   4.501   6.066   3.532
 4100SOL    HW213200   4.629   6.141   3.600
 4101SOL     OW13201   5.816   1.642   5.849
 4101SOL    HW113202   5.780   1.711   5.913
 4101SOL    HW213203   5.863   1.570   5.901
 4102SOL     OW13204   5.959   0.779   0.613
 4102SOL    HW113205   6.054   0.761   0.589
 4102SOL    HW213206   5.907   0.694   0.613
 4103SOL     OW13207   0.348   0.893   2.289
 4103SOL    HW113208   0.268   0.833   2.285
 4103SOL    HW213209   0.408   0.874   2.211
 4104SOL     OW13210   1.905   4.566   2.714
 4104SOL    HW113211   1.964   4.590   2.636
 4104SOL    HW213212   1.827   4.513   2.681
 4105SOL     OW13213   3.860   5.503   0.478
 4105SOL    HW113214   3.813   5.570   0.420
 4105SOL    HW213215   3.936   5.548   0.525
 4106SOL     OW13216   0.161   3.903   4.746
 4106SOL    HW113217   0.186   3.866   4.657
 4106SOL    HW213218   0.244   3.926   4.797
 4107SOL     OW13219   0.356   6.524   1.585
 4107SOL    HW113220   0.332   6.598   1.649
 4107SOL    HW213221   0.451   6.535   1.557
 4108SOL     OW13222   6.489   3.584   6.370
 4108SOL    HW113223   6.556   3.655   6.391
 4108SOL    HW213224   6.521   3.496   6.406
 4109SOL     OW13225   4.048   6.476   3.924
 4109SOL    HW113226   4.140   6.482   3.963
 4109SOL    HW213227   3.994   6.554   3.954
 4110SOL     OW13228   5.172   3.088   6.167
 4110SOL    HW113229   5.240   3.055   6.233
 4110SOL    HW213230   5.155   3.185   6.183
 4111SOL     OW13231   4.377   2.574   0.001
 4111SOL    HW113232   4.309   2.644   0.024
 4111SOL    HW213233   4.379   2.561   6.924
 4112SOL     OW13234   4.093   1.545   4.168
 4112SOL    HW113235   4.002   1.506   4.158
 4112SOL    HW213236   4.086   1.644   4.178
 4113SOL     OW13237   3.394   5.245   5.140
 4113SOL    HW113238   3.483   5.217   5.174
 4113SOL    HW213239   3.400   5.336   5.100
 4114SOL     OW13240   3.180   1.544   4.181
 4114SOL    HW113241   3.085   1.527   4.154
 4114SOL    HW213242   3.182   1.607   4.258
 4115SOL     OW13243   4.831   5.775   1.871
 4115SOL    HW113244   4.798   5.863   1.907
 4115SOL    HW213245   4.919   5.789   1.826
 4116SOL     OW13246   3.741   1.883   1.935
 4116SOL    HW113247   3.812   1.925   1.992
 4116SOL    HW213248   3.696   1.954   1.881
 4117SOL     OW13249   1.120   5.064   1.082
 4117SOL    HW113250   1.085   5.157   1.096
 4117SOL    HW213251   1.211   5.056   1.122
 4118SOL     OW13252   1.269   6.855   0.858
 4118SOL    HW113253   1.262   6.842   0.957
 4118SOL    HW213254   1.338   6.793   0.821
 4119SOL     OW13255   3.499   0.717   4.033
 4119SOL    HW113256   3.421   0.730   3.972
 4119SOL    HW213257   3.584   0.723   3.980
 4120SOL     OW13258   3.851   6.935   1.719
 4120SOL    HW113259   3.900   6.864   1.669
 4120SOL    HW213260   3.911   7.014   1.733
 4121SOL     OW13261   6.732   2.707   4.518
 4121SOL    HW113262   6.653   2.727   4.460
 4121SOL    HW213263   6.719   2.748   4.608
 4122SOL     OW13264   0.490   6.693   5.333
 4122SOL    HW113265   0.494   6.769   5.268
 4122SOL    HW213266   0.519   6.726   5.424
 4123SOL     OW13267   5.729   4.369   6.012
 4123SOL    HW113268   5.637   4.330   6.000
 4123SOL    HW213269   5.733   4.457   5.966
 4124SOL     OW13270   5.469   6.600   3.963
 4124SOL    HW113271   5.492   6.506   3.939
 4124SOL    HW213272   5.385   6.601   4.016
 4125SOL     OW13273   4.691   0.750   2.007
 4125SOL    HW113274   4.641   0.832   2.033
 4125SOL    HW213275   4.757   0.727   2.080
 4126SOL     OW13276   1.694   4.270   4.614
 4126SOL    HW113277   1.602   4.244   4.585
 4126SOL    HW213278   1.745   4.305   4.535
 4127SOL     OW13279   5.550   3.208   4.866
 4127SOL    HW113280   5.610   3.281   4.832
 4127SOL    HW213281   5.556   3.129   4.805
 4128SOL     OW13282   1.707   3.575   2.514
 4128SOL    HW113283   1.714   3.611   2.607
 4128SOL    HW213284   1.610   3.565   2.489
 4129SOL     OW13285   5.741   2.332   5.718
 4129SOL    HW113286   5.705   2.239   5.712
 4129SOL    HW213287   5.819   2.342   5.656
 4130SOL     OW13288   6.434   4.099   6.436
 4130SOL    HW113289   6.500   4.072   6.505
 4130SOL    HW213290   6.377   4.019   6.412
 4131SOL     OW13291   0.237   5.568   3.810
 4131SOL    HW113292   0.274   5.511   3.883
 4131SOL    HW213293   0.281   5.543   3.723
 4132SOL     OW13294   4.867   3.377   3.424
 4132SOL    HW113295   4.814   3.454   3.387
 4132SOL    HW213296   4.964   3.402   3.427
 4133SOL     OW13297   2.692   0.963   1.315
 4133SOL    HW113298   2.693   0.904   1.396
 4133SOL    HW213299   2.786   0.977   1.284
 4134SOL     OW13300   2.398   1.761   0.713
 4134SOL    HW113301   2.458   1.753   0.793
 4134SOL    HW213302   2.367   1.670   0.686
 4135SOL     OW13303   1.633   0.725   2.892
 4135SOL    HW113304   1.665   0.690   2.981
 4135SOL    HW213305   1.538   0.754   2.900
 4136SOL     OW13306   0.179   2.363   3.928
 4136SOL    HW113307   0.171   2.463   3.924
 4136SOL    HW213308   0.249   2.337   3.994
 4137SOL     OW13309   3.365   4.069   6.429
 4137SOL    HW113310   3.422   4.067   6.511
 4137SOL    HW213311   3.412   4.121   6.357
 4138SOL     OW13312   4.266   4.700   4.260
 4138SOL    HW113313   4.246   4.607   4.289
 4138SOL    HW213314   4.269   4.704   4.160
 4139SOL     OW13315   1.804   1.879   6.022
 4139SOL    HW113316   1.816   1.784   6.053
 4139SOL    HW213317   1.833   1.887   5.927
 4140SOL     OW13318   3.832   1.125   5.267
 4140SOL    HW113319   3.902   1.103   5.200
 4140SOL    HW213320   3.761   1.181   5.223
 4141SOL     OW13321   5.352   5.139   0.817
 4141SOL    HW113322   5.365   5.049   0.858
 4141SOL    HW213323   5.439   5.187   0.811
 4142SOL     OW13324   6.866   4.582   0.799
 4142SOL    HW113325   6.797   4.645   0.835
 4142SOL    HW213326   6.939   4.571   0.867
 4143SOL     OW13327   6.363   2.873   0.841
 4143SOL    HW113328   6.418   2.802   0.797
 4143SOL    HW213329   6.300   2.831   0.906
 4144SOL     OW13330   5.406   1.509   1.760
 4144SOL    HW113331   5.410   1.595   1.811
 4144SOL    HW213332   5.473   1.512   1.686
 4145SOL     OW13333   1.384   7.016   1.549
 4145SOL    HW113334   1.424   0.060   1.611
 4145SOL    HW213335   1.285   0.006   1.546
 4146SOL     OW13336   5.240   0.160   6.277
 4146SOL    HW113337   5.231   0.124   6.184
 4146SOL    HW213338   5.319   0.220   6.282
 4147SOL     OW13339   3.578   2.242   5.955
 4147SOL    HW113340   3.586   2.336   5.923
 4147SOL    HW213341   3.482   2.222   5.976
 4148SOL     OW13342   6.763   0.475   3.963
 4148SOL    HW113343   6.856   0.461   3.930
 4148SOL    HW213344   6.699   0.465   3.886
 4149SOL     OW13345   6.349   3.354   0.948
 4149SOL    HW113346   6.391   3.444   0.935
 4149SOL    HW213347   6.373   3.319   1.039
 4150SOL     OW13348   5.388   0.517   6.321
 4150SOL    HW113349   5.455   0.547   6.389
 4150SOL    HW213350   5.368   0.593   6.259
 4151SOL     OW13351   6.980   6.222   0.712
 4151SOL    HW113352   0.051   6.206   0.745
 4151SOL    HW213353   6.958   6.155   0.640
 4152SOL     OW13354   4.429   4.756   2.101
 4152SOL    HW113355   4.416   4.843   2.053
 4152SOL    HW213356   4.356   4.693   2.075
 4153SOL     OW13357   6.031   5.224   6.391
 4153SOL    HW113358   6.041   5.217   6.491
 4153SOL    HW213359   6.007   5.135   6.354
 4154SOL     OW13360   5.959   3.299   4.827
 4154SOL    HW113361   5.868   3.339   4.814
 4154SOL    HW213362   5.951   3.201   4.843
 4155SOL     OW13363   1.062   3.660   2.357
 4155SOL    HW113364   0.981   3.602   2.345
 4155SOL    HW213365   1.052   3.714   2.441
 4156SOL     OW13366   5.615   6.683   5.541
 4156SOL    HW113367   5.675   6.762   5.555
 4156SOL    HW213368   5.665   6.613   5.489
 4157SOL     OW13369   4.357   0.924   3.740
 4157SOL    HW113370   4.333   0.827   3.747
 4157SOL    HW213371   4.355   0.966   3.831
 4158SOL     OW13372   0.635   5.061   3.216
 4158SOL    HW113373   0.654   5.148   3.171
 4158SOL    HW213374   0.537   5.041   3.211
 4159SOL     OW13375   0.986   3.059   4.168
 4159SOL    HW113376   1.055   2.994   4.134
 4159SOL    HW213377   0.916   3.071   4.098
 4160SOL     OW13378   6.301   0.339   0.826
 4160SOL    HW113379   6.274   0.260   0.769
 4160SOL    HW213380   6.392   0.369   0.799
 4161SOL     OW13381   1.417   1.073   6.784
 4161SOL    HW113382   1.359   1.112   6.855
 4161SOL    HW213383   1.483   1.142   6.753
 4162SOL     OW13384   6.037   6.714   4.507
 4162SOL    HW113385   6.050   6.790   4.572
 4162SOL    HW213386   6.058   6.628   4.553
 4163SOL     OW13387   5.554   1.536   3.448
 4163SOL    HW113388   5.593   1.446   3.430
 4163SOL    HW213389   5.537   1.546   3.546
 4164SOL     OW13390   2.017   0.909   6.854
 4164SOL    HW113391   2.053   0.903   6.947
 4164SOL    HW213392   2.092   0.923   6.790
 4165SOL     OW13393   3.989   6.442   0.887
 4165SOL    HW113394   4.069   6.425   0.945
 4165SOL    HW213395   3.999   6.393   0.801
 4166SOL     OW13396   4.225   2.997   0.688
 4166SOL    HW113397   4.302   3.055   0.715
 4166SOL    HW213398   4.251   2.901   0.697
 4167SOL     OW13399   2.178   2.546   1.808
 4167SOL    HW113400   2.262   2.569   1.858
 4167SOL    HW213401   2.186   2.455   1.769
 4168SOL     OW13402   0.339   5.446   1.580
 4168SOL    HW113403   0.380   5.382   1.515
 4168SOL    HW213404   0.239   5.441   1.573
 4169SOL     OW13405   4.869   3.806   3.829
 4169SOL    HW113406   4.873   3.820   3.928
 4169SOL    HW213407   4.864   3.894   3.783
 4170SOL     OW13408   3.877   2.722   5.841
 4170SOL    HW113409   3.864   2.677   5.753
 4170SOL    HW213410   3.932   2.665   5.901
 4171SOL     OW13411   4.972   4.058   1.438
 4171SOL    HW113412   4.925   3.975   1.472
 4171SOL    HW213413   4.918   4.138   1.463
 4172SOL     OW13414   0.502   1.998   0.874
 4172SOL    HW113415   0.417   2.001   0.926
 4172SOL    HW213416   0.566   1.935   0.919
 4173SOL     OW13417   5.407   2.941   4.794
 4173SOL    HW113418   5.498   2.920   4.759
 4173SOL    HW213419   5.396   2.900   4.884
 4174SOL     OW13420   4.767   0.881   3.551
 4174SOL    HW113421   4.822   0.862   3.633
 4174SOL    HW213422   4.745   0.978   3.548
 4175SOL     OW13423   3.439   0.122   3.532
 4175SOL    HW113424   3.380   0.145   3.454
 4175SOL    HW213425   3.411   0.034   3.570
 4176SOL     OW13426   4.647   0.151   2.754
 4176SOL    HW113427   4.669   0.209   2.675
 4176SOL    HW213428   4.731   0.131   2.805
 4177SOL     OW13429   0.238   6.377   3.833
 4177SOL    HW113430   0.149   6.381   3.787
 4177SOL    HW213431   0.233   6.315   3.911
 4178SOL     OW13432   3.406   1.811   5.982
 4178SOL    HW113433   3.412   1.879   6.055
 4178SOL    HW213434   3.495   1.804   5.937
 4179SOL     OW13435   5.109   3.579   5.430
 4179SOL    HW113436   5.050   3.612   5.503
 4179SOL    HW213437   5.078   3.489   5.400
 4180SOL     OW13438   5.113   4.561   1.161
 4180SOL    HW113439   5.047   4.618   1.210
 4180SOL    HW213440   5.155   4.495   1.224
 4181SOL     OW13441   0.854   1.769   6.520
 4181SOL    HW113442   0.757   1.744   6.524
 4181SOL    HW213443   0.896   1.756   6.609
 4182SOL     OW13444   6.441   0.363   2.383
 4182SOL    HW113445   6.372   0.424   2.343
 4182SOL    HW213446   6.532   0.390   2.351
 4183SOL     OW13447   2.490   1.396   1.857
 4183SOL    HW113448   2.449   1.319   1.808
 4183SOL    HW213449   2.428   1.424   1.931
 4184SOL     OW13450   3.525   5.562   0.609
 4184SOL    HW113451   3.432   5.598   0.602
 4184SOL    HW213452   3.575   5.582   0.525
 4185SOL     OW13453   0.280   0.042   3.472
 4185SOL    HW113454   0.251   0.138   3.463
 4185SOL    HW213455   0.297   0.004   3.381
 4186SOL     OW13456   2.550   3.624   0.907
 4186SOL    HW113457   2.510   3.574   0.984
 4186SOL    HW213458   2.641   3.586   0.888
 4187SOL     OW13459   3.670   3.486   6.501
 4187SOL    HW113460   3.651   3.543   6.421
 4187SOL    HW213461   3.728   3.409   6.474
 4188SOL     OW13462   4.661   0.664   4.216
 4188SOL    HW113463   4.635   0.578   4.172
 4188SOL    HW213464   4.688   0.647   4.310
 4189SOL     OW13465   2.265   1.509   4.561
 4189SOL    HW113466   2.268   1.524   4.660
 4189SOL    HW213467   2.290   1.594   4.514
 4190SOL     OW13468   3.152   1.137   6.815
 4190SOL    HW113469   3.168   1.224   6.861
 4190SOL    HW213470   3.214   1.068   6.851
 4191SOL     OW13471   6.195   2.695   3.005
 4191SOL    HW113472   6.097   2.710   2.994
 4191SOL    HW213473   6.213   2.596   3.005
 4192SOL     OW13474   5.846   0.866   3.217
 4192SOL    HW113475   5.789   0.942   3.247
 4192SOL    HW213476   5.866   0.807   3.295
 4193SOL     OW13477   2.093   6.996   2.715
 4193SOL    HW113478   2.012   6.962   2.668
 4193SOL    HW213479   2.145   0.033   2.653
 4194SOL     OW13480   6.951   1.693   4.003
 4194SOL    HW113481   0.001   1.718   3.938
 4194SOL    HW213482   6.941   1.765   4.071
 4195SOL     OW13483   5.777   0.601   1.431
 4195SOL    HW113484   5.749   0.695   1.447
 4195SOL    HW213485   5.828   0.596   1.345
 4196SOL     OW13486   5.138   2.680   4.317
 4196SOL    HW113487   5.059   2.737   4.296
 4196SOL    HW213488   5.163   2.692   4.414
 4197SOL     OW13489   5.086   4.465   5.019
 4197SOL    HW113490   5.045   4.493   5.106
 4197SOL    HW213491   5.180   4.435   5.035
 4198SOL     OW13492   5.936   3.898   0.024
 4198SOL    HW113493   5.991   3.940   0.096
 4198SOL    HW213494   5.995   3.851   6.982
 4199SOL     OW13495   3.137   3.666   4.888
 4199SOL    HW113496   3.045   3.701   4.904
 4199SOL    HW213497   3.141   3.622   4.799
 4200SOL     OW13498   1.938   0.439   6.893
 4200SOL    HW113499   1.947   0.346   6.856
 4200SOL    HW213500   1.936   0.504   6.817
 4201SOL     OW13501   5.691   0.131   3.789
 4201SOL    HW113502   5.629   0.100   3.717
 4201SOL    HW213503   5.702   0.058   3.857
 4202SOL     OW13504   5.371   4.998   5.317
 4202SOL    HW113505   5.455   5.043   5.287
 4202SOL    HW213506   5.298   5.065   5.327
 4203SOL     OW13507   5.133   5.593   3.085
 4203SOL    HW113508   5.211   5.569   3.143
 4203SOL    HW213509   5.091   5.510   3.050
 4204SOL     OW13510   3.499   3.094   1.291
 4204SOL    HW113511   3.411   3.140   1.280
 4204SOL    HW213512   3.508   3.062   1.386
 4205SOL     OW13513   3.354   5.333   4.307
 4205SOL    HW113514   3.369   5.421   4.353
 4205SOL    HW213515   3.361   5.346   4.208
 4206SOL     OW13516   4.673   0.335   4.862
 4206SOL    HW113517   4.772   0.351   4.857
 4206SOL    HW213518   4.627   0.393   4.795
 4207SOL     OW13519   1.375   0.783   1.857
 4207SOL    HW113520   1.418   0.841   1.787
 4207SOL    HW213521   1.309   0.722   1.814
 4208SOL     OW13522   1.219   3.028   0.678
 4208SOL    HW113523   1.280   3.049   0.601
 4208SOL    HW213524   1.134   3.079   0.668
 4209SOL     OW13525   2.499   7.011   5.230
 4209SOL    HW113526   2.474   0.047   5.153
 4209SOL    HW213527   2.468   6.917   5.212
 4210SOL     OW13528   4.208   3.273   0.983
 4210SOL    HW113529   4.128   3.239   0.933
 4210SOL    HW213530   4.250   3.348   0.931
 4211SOL     OW13531   4.219   4.785   3.953
 4211SOL    HW113532   4.250   4.704   3.904
 4211SOL    HW213533   4.136   4.821   3.910
 4212SOL     OW13534   6.395   1.068   3.108
 4212SOL    HW113535   6.412   1.008   3.186
 4212SOL    HW213536   6.430   1.025   3.024
 4213SOL     OW13537   1.712   1.166   2.377
 4213SOL    HW113538   1.752   1.074   2.376
 4213SOL    HW213539   1.699   1.198   2.283
 4214SOL     OW13540   0.857   3.302   5.218
 4214SOL    HW113541   0.905   3.381   5.179
 4214SOL    HW213542   0.923   3.242   5.264
 4215SOL     OW13543   0.704   5.207   4.920
 4215SOL    HW113544   0.757   5.178   4.999
 4215SOL    HW213545   0.698   5.131   4.854
 4216SOL     OW13546   0.623   2.867   4.510
 4216SOL    HW113547   0.624   2.773   4.546
 4216SOL    HW213548   0.717   2.901   4.506
 4217SOL     OW13549   0.005   0.934   3.346
 4217SOL    HW113550   0.001   0.839   3.315
 4217SOL    HW213551   0.100   0.965   3.346
 4218SOL     OW13552   4.125   0.034   1.865
 4218SOL    HW113553   4.222   0.015   1.852
 4218SOL    HW213554   4.082   0.055   1.777
 4219SOL     OW13555   4.561   5.841   4.286
 4219SOL    HW113556   4.578   5.859   4.382
 4219SOL    HW213557   4.637   5.787   4.248
 4220SOL     OW13558   6.583   3.417   4.355
 4220SOL    HW113559   6.571   3.505   4.308
 4220SOL    HW213560   6.666   3.421   4.411
 4221SOL     OW13561   5.223   5.770   6.406
 4221SOL    HW113562   5.296   5.797   6.343
 4221SOL    HW213563   5.134   5.790   6.364
 4222SOL     OW13564   5.009   2.913   1.534
 4222SOL    HW113565   4.944   2.928   1.608
 4222SOL    HW213566   5.008   2.816   1.507
 4223SOL     OW13567   3.320   4.027   2.204
 4223SOL    HW113568   3.381   4.053   2.130
 4223SOL    HW213569   3.228   4.062   2.186
 4224SOL     OW13570   4.377   2.410   4.816
 4224SOL    HW113571   4.451   2.477   4.815
 4224SOL    HW213572   4.318   2.428   4.895
 4225SOL     OW13573   5.944   0.066   4.765
 4225SOL    HW113574   5.907   0.159   4.763
 4225SOL    HW213575   6.003   0.055   4.845
 4226SOL     OW13576   0.260   1.580   3.899
 4226SOL    HW113577   0.308   1.667   3.888
 4226SOL    HW213578   0.254   1.534   3.810
 4227SOL     OW13579   4.577   4.588   0.252
 4227SOL    HW113580   4.496   4.582   0.194
 4227SOL    HW213581   4.657   4.556   0.201
 4228SOL     OW13582   6.324   5.242   3.393
 4228SOL    HW113583   6.411   5.284   3.420
 4228SOL    HW213584   6.262   5.312   3.359
 4229SOL     OW13585   4.622   4.878   5.787
 4229SOL    HW113586   4.708   4.904   5.830
 4229SOL    HW213587   4.617   4.915   5.695
 4230SOL     OW13588   3.743   0.606   4.783
 4230SOL    HW113589   3.815   0.668   4.750
 4230SOL    HW213590   3.661   0.617   4.726
 4231SOL     OW13591   4.448   7.000   5.206
 4231SOL    HW113592   4.532   7.014   5.154
 4231SOL    HW213593   4.376   6.968   5.144
 4232SOL     OW13594   2.210   4.872   2.896
 4232SOL    HW113595   2.168   4.783   2.911
 4232SOL    HW213596   2.239   4.910   2.984
 4233SOL     OW13597   6.772   6.518   0.105
 4233SOL    HW113598   6.707   6.581   0.062
 4233SOL    HW213599   6.830   6.569   0.168
 4234SOL     OW13600   3.035   4.795   6.292
 4234SOL    HW113601   3.106   4.738   6.252
 4234SOL    HW213602   2.948   4.779   6.246
 4235SOL     OW13603   6.083   3.328   5.719
 4235SOL    HW113604   6.067   3.389   5.797
 4235SOL    HW213605   6.086   3.382   5.635
 4236SOL     OW13606   1.385   3.019   4.463
 4236SOL    HW113607   1.474   3.018   4.417
 4236SOL    HW213608   1.352   3.113   4.470
 4237SOL     OW13609   5.185   3.539   4.724
 4237SOL    HW113610   5.198   3.638   4.720
 4237SOL    HW213611   5.270   3.493   4.700
 4238SOL     OW13612   4.079   5.767   3.769
 4238SOL    HW113613   3.991   5.815   3.775
 4238SOL    HW213614   4.148   5.829   3.732
 4239SOL     OW13615   5.023   5.883   5.891
 4239SOL    HW113616   5.075   5.807   5.930
 4239SOL    HW213617   5.010   5.868   5.793
 4240SOL     OW13618   2.631   4.712   6.549
 4240SOL    HW113619   2.541   4.747   6.575
 4240SOL    HW213620   2.631   4.612   6.552
 4241SOL     OW13621   4.397   0.417   0.683
 4241SOL    HW113622   4.327   0.475   0.725
 4241SOL    HW213623   4.423   0.345   0.747
 4242SOL     OW13624   1.975   0.584   3.172
 4242SOL    HW113625   1.936   0.559   3.083
 4242SOL    HW213626   1.913   0.648   3.217
 4243SOL     OW13627   1.228   3.418   2.258
 4243SOL    HW113628   1.197   3.509   2.285
 4243SOL    HW213629   1.325   3.408   2.279
 4244SOL     OW13630   4.821   6.975   1.015
 4244SOL    HW113631   4.766   6.909   0.963
 4244SOL    HW213632   4.918   6.958   1.000
 4245SOL     OW13633   6.686   3.201   1.032
 4245SOL    HW113634   6.780   3.234   1.035
 4245SOL    HW213635   6.672   3.146   0.950
 4246SOL     OW13636   5.344   1.874   2.895
 4246SOL    HW113637   5.280   1.950   2.891
 4246SOL    HW213638   5.392   1.864   2.808
 4247SOL     OW13639   1.862   4.801   5.423
 4247SOL    HW113640   1.880   4.898   5.441
 4247SOL    HW213641   1.830   4.757   5.507
 4248SOL     OW13642   1.849   0.757   3.363
 4248SOL    HW113643   1.797   0.695   3.422
 4248SOL    HW213644   1.892   0.827   3.419
 4249SOL     OW13645   6.666   0.113   5.205
 4249SOL    HW113646   6.660   0.021   5.244
 4249SOL    HW213647   6.661   0.181   5.277
 4250SOL     OW13648   0.174   5.763   4.311
 4250SOL    HW113649   0.265   5.779   4.349
 4250SOL    HW213650   0.169   5.673   4.269
 4251SOL     OW13651   5.817   1.769   5.619
 4251SOL    HW113652   5.816   1.727   5.710
 4251SOL    HW213653   5.872   1.712   5.557
 4252SOL     OW13654   6.679   6.752   6.930
 4252SOL    HW113655   6.775   6.774   6.947
 4252SOL    HW213656   6.667   6.729   6.834
 4253SOL     OW13657   4.443   5.346   2.601
 4253SOL    HW113658   4.405   5.424   2.651
 4253SOL    HW213659   4.369   5.298   2.553
 4254SOL     OW13660   1.717   3.163   6.932
 4254SOL    HW113661   1.651   3.194   6.863
 4254SOL    HW213662   1.670   3.146   7.018
 4255SOL     OW13663   0.858   3.566   2.811
 4255SOL    HW113664   0.885   3.471   2.826
 4255SOL    HW213665   0.812   3.600   2.893
 4256SOL     OW13666   0.594   5.375   1.743
 4256SOL    HW113667   0.578   5.319   1.662
 4256SOL    HW213668   0.636   5.462   1.715
 4257SOL     OW13669   5.689   0.581   5.266
 4257SOL    HW113670   5.648   0.517   5.201
 4257SOL    HW213671   5.665   0.555   5.359
 4258SOL     OW13672   3.832   5.780   0.071
 4258SOL    HW113673   3.797   5.779   7.000
 4258SOL    HW213674   3.902   5.851   0.079
 4259SOL     OW13675   0.862   7.010   2.366
 4259SOL    HW113676   0.894   6.932   2.420
 4259SOL    HW213677   0.862   0.070   2.422
 4260SOL     OW13678   5.049   0.590   4.430
 4260SOL    HW113679   5.052   0.541   4.343
 4260SOL    HW213680   5.135   0.639   4.444
 4261SOL     OW13681   2.077   0.027   4.000
 4261SOL    HW113682   2.120   0.055   3.914
 4261SOL    HW213683   2.049   6.953   3.994
 4262SOL     OW13684   1.546   4.162   6.796
 4262SOL    HW113685   1.534   4.123   6.705
 4262SOL    HW213686   1.502   4.104   6.864
 4263SOL     OW13687   2.595   2.525   4.143
 4263SOL    HW113688   2.568   2.554   4.235
 4263SOL    HW213689   2.516   2.487   4.096
 4264SOL     OW13690   5.456   1.274   4.561
 4264SOL    HW113691   5.423   1.317   4.645
 4264SOL    HW213692   5.392   1.295   4.486
 4265SOL     OW13693   3.691   1.128   0.575
 4265SOL    HW113694   3.686   1.112   0.673
 4265SOL    HW213695   3.654   1.049   0.526
 4266SOL     OW13696   1.718   6.548   0.772
 4266SOL    HW113697   1.804   6.547   0.721
 4266SOL    HW213698   1.708   6.636   0.819
 4267SOL     OW13699   1.804   4.391   4.854
 4267SOL    HW113700   1.776   4.361   4.763
 4267SOL    HW213701   1.779   4.321   4.921
 4268SOL     OW13702   1.160   4.174   6.373
 4268SOL    HW113703   1.233   4.235   6.343
 4268SOL    HW213704   1.073   4.224   6.376
 4269SOL     OW13705   2.749   1.522   4.544
 4269SOL    HW113706   2.757   1.608   4.492
 4269SOL    HW213707   2.665   1.475   4.517
 4270SOL     OW13708   3.897   2.583   0.551
 4270SOL    HW113709   3.863   2.490   0.541
 4270SOL    HW213710   3.970   2.600   0.485
 4271SOL     OW13711   6.893   0.786   1.103
 4271SOL    HW113712   6.962   0.827   1.043
 4271SOL    HW213713   6.932   0.705   1.147
 4272SOL     OW13714   6.720   1.230   6.143
 4272SOL    HW113715   6.638   1.187   6.181
 4272SOL    HW213716   6.698   1.269   6.054
 4273SOL     OW13717   3.701   5.543   4.618
 4273SOL    HW113718   3.603   5.524   4.612
 4273SOL    HW213719   3.740   5.550   4.526
 4274SOL     OW13720   6.799   1.238   1.877
 4274SOL    HW113721   6.877   1.241   1.939
 4274SOL    HW213722   6.747   1.153   1.892
 4275SOL     OW13723   0.227   2.764   3.532
 4275SOL    HW113724   0.178   2.811   3.605
 4275SOL    HW213725   0.275   2.684   3.570
 4276SOL     OW13726   2.125   5.742   4.333
 4276SOL    HW113727   2.189   5.817   4.349
 4276SOL    HW213728   2.173   5.664   4.293
 4277SOL     OW13729   6.102   5.472   3.409
 4277SOL    HW113730   6.127   5.550   3.466
 4277SOL    HW213731   6.029   5.499   3.346
 4278SOL     OW13732   1.131   6.738   2.098
 4278SOL    HW113733   1.065   6.811   2.085
 4278SOL    HW213734   1.142   6.688   2.012
 4279SOL     OW13735   1.972   1.905   3.269
 4279SOL    HW113736   1.903   1.950   3.326
 4279SOL    HW213737   2.053   1.963   3.263
 4280SOL     OW13738   0.910   6.777   6.143
 4280SOL    HW113739   0.855   6.802   6.223
 4280SOL    HW213740   0.850   6.742   6.071
 4281SOL     OW13741   4.292   6.218   3.398
 4281SOL    HW113742   4.369   6.224   3.462
 4281SOL    HW213743   4.244   6.131   3.411
 4282SOL     OW13744   3.551   4.135   1.164
 4282SOL    HW113745   3.521   4.189   1.242
 4282SOL    HW213746   3.512   4.043   1.170
 4283SOL     OW13747   5.129   1.365   3.860
 4283SOL    HW113748   5.157   1.273   3.834
 4283SOL    HW213749   5.197   1.405   3.921
 4284SOL     OW13750   4.704   5.695   6.026
 4284SOL    HW113751   4.720   5.775   5.969
 4284SOL    HW213752   4.790   5.646   6.040
 4285SOL     OW13753   3.077   0.037   5.543
 4285SOL    HW113754   3.048   0.112   5.602
 4285SOL    HW213755   3.014   6.983   5.552
 4286SOL     OW13756   5.627   0.796   6.350
 4286SOL    HW113757   5.643   0.720   6.287
 4286SOL    HW213758   5.530   0.798   6.375
 4287SOL     OW13759   4.598   0.657   0.239
 4287SOL    HW113760   4.662   0.719   0.285
 4287SOL    HW213761   4.507   0.667   0.279
 4288SOL     OW13762   6.703   6.599   2.566
 4288SOL    HW113763   6.724   6.649   2.650
 4288SOL    HW213764   6.743   6.508   2.570
 4289SOL     OW13765   0.680   3.376   4.567
 4289SOL    HW113766   0.602   3.407   4.622
 4289SOL    HW213767   0.764   3.419   4.600
 4290SOL     OW13768   0.307   1.068   3.521
 4290SOL    HW113769   0.265   1.108   3.603
 4290SOL    HW213770   0.273   0.975   3.508
 4291SOL     OW13771   5.274   3.254   6.600
 4291SOL    HW113772   5.241   3.168   6.560
 4291SOL    HW213773   5.220   3.330   6.565
 4292SOL     OW13774   5.846   2.219   0.922
 4292SOL    HW113775   5.923   2.159   0.946
 4292SOL    HW213776   5.869   2.313   0.946
 4293SOL     OW13777   3.462   4.456   0.086
 4293SOL    HW113778   3.423   4.452   7.016
 4293SOL    HW213779   3.554   4.495   0.081
 4294SOL     OW13780   2.430   2.099   6.343
 4294SOL    HW113781   2.346   2.148   6.366
 4294SOL    HW213782   2.444   2.024   6.407
 4295SOL     OW13783   3.880   6.182   2.923
 4295SOL    HW113784   3.900   6.152   2.829
 4295SOL    HW213785   3.826   6.266   2.920
 4296SOL     OW13786   2.782   6.187   2.009
 4296SOL    HW113787   2.707   6.252   1.997
 4296SOL    HW213788   2.845   6.220   2.079
 4297SOL     OW13789   5.780   4.850   0.799
 4297SOL    HW113790   5.878   4.827   0.799
 4297SOL    HW213791   5.763   4.919   0.728
 4298SOL     OW13792   3.184   6.655   0.289
 4298SOL    HW113793   3.169   6.578   0.350
 4298SOL    HW213794   3.207   6.620   0.198
 4299SOL     OW13795   1.117   2.915   0.027
 4299SOL    HW113796   1.079   2.911   6.956
 4299SOL    HW213797   1.216   2.923   0.022
 4300SOL     OW13798   3.199   1.268   1.030
 4300SOL    HW113799   3.157   1.354   1.061
 4300SOL    HW213800   3.179   1.196   1.096
 4301SOL     OW13801   3.026   6.724   1.636
 4301SOL    HW113802   3.062   6.802   1.686
 4301SOL    HW213803   3.095   6.652   1.632
 4302SOL     OW13804   1.814   5.596   5.877
 4302SOL    HW113805   1.793   5.662   5.948
 4302SOL    HW213806   1.801   5.503   5.913
 4303SOL     OW13807   6.086   4.334   3.442
 4303SOL    HW113808   6.014   4.403   3.449
 4303SOL    HW213809   6.172   4.371   3.478
 4304SOL     OW13810   3.549   3.573   1.334
 4304SOL    HW113811   3.542   3.644   1.404
 4304SOL    HW213812   3.478   3.588   1.265
 4305SOL     OW13813   1.661   0.372   5.266
 4305SOL    HW113814   1.635   0.293   5.210
 4305SOL    HW213815   1.725   0.343   5.337
 4306SOL     OW13816   5.319   3.197   5.057
 4306SOL    HW113817   5.398   3.175   5.000
 4306SOL    HW213818   5.236   3.163   5.013
 4307SOL     OW13819   6.708   1.579   5.273
 4307SOL    HW113820   6.762   1.521   5.333
 4307SOL    HW213821   6.768   1.626   5.208
 4308SOL     OW13822   4.878   5.224   0.070
 4308SOL    HW113823   4.912   5.169   0.146
 4308SOL    HW213824   4.849   5.314   0.104
 4309SOL     OW13825   1.447   3.095   0.530
 4309SOL    HW113826   1.513   3.141   0.590
 4309SOL    HW213827   1.443   2.998   0.553
 4310SOL     OW13828   6.804   1.677   2.806
 4310SOL    HW113829   6.751   1.748   2.853
 4310SOL    HW213830   6.877   1.720   2.753
 4311SOL     OW13831   0.965   0.455   2.568
 4311SOL    HW113832   1.034   0.409   2.625
 4311SOL    HW213833   0.999   0.544   2.539
 4312SOL     OW13834   0.454   4.716   2.610
 4312SOL    HW113835   0.533   4.736   2.552
 4312SOL    HW213836   0.415   4.802   2.645
 4313SOL     OW13837   6.166   1.976   0.333
 4313SOL    HW113838   6.105   1.954   0.257
 4313SOL    HW213839   6.114   2.021   0.406
 4314SOL     OW13840   6.519   2.172   5.247
 4314SOL    HW113841   6.519   2.137   5.340
 4314SOL    HW213842   6.446   2.129   5.195
 4315SOL     OW13843   2.726   1.737   4.407
 4315SOL    HW113844   2.776   1.824   4.416
 4315SOL    HW213845   2.702   1.724   4.311
 4316SOL     OW13846   5.328   6.928   1.709
 4316SOL    HW113847   5.251   6.972   1.754
 4316SOL    HW213848   5.342   6.969   1.619
 4317SOL     OW13849   4.469   0.924   6.182
 4317SOL    HW113850   4.397   0.889   6.241
 4317SOL    HW213851   4.429   0.979   6.109
 4318SOL     OW13852   0.336   1.250   4.316
 4318SOL    HW113853   0.405   1.180   4.298
 4318SOL    HW213854   0.248   1.219   4.282
 4319SOL     OW13855   1.203   4.671   2.506
 4319SOL    HW113856   1.212   4.591   2.565
 4319SOL    HW213857   1.145   4.648   2.427
 4320SOL     OW13858   3.351   5.908   0.734
 4320SOL    HW113859   3.332   6.003   0.758
 4320SOL    HW213860   3.269   5.866   0.697
 4321SOL     OW13861   6.496   6.602   2.416
 4321SOL    HW113862   6.577   6.612   2.475
 4321SOL    HW213863   6.449   6.690   2.410
 4322SOL     OW13864   0.682   2.983   5.409
 4322SOL    HW113865   0.664   2.923   5.331
 4322SOL    HW213866   0.778   2.973   5.437
 4323SOL     OW13867   3.986   5.363   6.660
 4323SOL    HW113868   4.061   5.306   6.694
 4323SOL    HW213869   4.011   5.459   6.667
 4324SOL     OW13870   6.751   4.243   5.917
 4324SOL    HW113871   6.653   4.262   5.914
 4324SOL    HW213872   6.789   4.246   5.825
 4325SOL     OW13873   2.853   0.458   2.520
 4325SOL    HW113874   2.758   0.479   2.543
 4325SOL    HW213875   2.900   0.426   2.602
 4326SOL     OW13876   4.563   2.642   2.691
 4326SOL    HW113877   4.493   2.616   2.757
 4326SOL    HW213878   4.532   2.618   2.599
 4327SOL     OW13879   3.246   5.902   4.283
 4327SOL    HW113880   3.326   5.844   4.297
 4327SOL    HW213881   3.266   5.969   4.212
 4328SOL     OW13882   5.568   6.275   4.940
 4328SOL    HW113883   5.470   6.265   4.957
 4328SOL    HW213884   5.588   6.371   4.919
 4329SOL     OW13885   6.579   2.020   5.839
 4329SOL    HW113886   6.616   2.062   5.922
 4329SOL    HW213887   6.479   2.025   5.840
 4330SOL     OW13888   2.872   4.902   5.149
 4330SOL    HW113889   2.933   4.863   5.218
 4330SOL    HW213890   2.874   4.844   5.067
 4331SOL     OW13891   6.243   0.781   1.986
 4331SOL    HW113892   6.144   0.779   2.002
 4331SOL    HW213893   6.273   0.693   1.950
 4332SOL     OW13894   0.354   5.008   2.667
 4332SOL    HW113895   0.272   5.010   2.611
 4332SOL    HW213896   0.405   5.094   2.655
 4333SOL     OW13897   3.606   2.132   5.684
 4333SOL    HW113898   3.543   2.055   5.671
 4333SOL    HW213899   3.623   2.144   5.782
 4334SOL     OW13900   0.325   2.514   4.149
 4334SOL    HW113901   0.241   2.508   4.203
 4334SOL    HW213902   0.319   2.591   4.086
 4335SOL     OW13903   2.533   3.449   1.149
 4335SOL    HW113904   2.465   3.462   1.220
 4335SOL    HW213905   2.537   3.352   1.124
 4336SOL     OW13906   3.178   5.133   5.585
 4336SOL    HW113907   3.241   5.151   5.509
 4336SOL    HW213908   3.141   5.220   5.618
 4337SOL     OW13909   1.670   5.427   3.815
 4337SOL    HW113910   1.766   5.427   3.843
 4337SOL    HW213911   1.650   5.343   3.765
 4338SOL     OW13912   4.256   0.817   6.330
 4338SOL    HW113913   4.183   0.761   6.293
 4338SOL    HW213914   4.315   0.762   6.389
 4339SOL     OW13915   3.935   3.176   6.104
 4339SOL    HW113916   3.866   3.248   6.113
 4339SOL    HW213917   4.026   3.214   6.120
 4340SOL     OW13918   0.187   3.466   0.973
 4340SOL    HW113919   0.251   3.426   0.909
 4340SOL    HW213920   0.125   3.528   0.925
 4341SOL     OW13921   6.961   6.879   2.665
 4341SOL    HW113922   7.017   6.886   2.747
 4341SOL    HW213923   7.011   6.829   2.594
 4342SOL     OW13924   5.605   4.156   2.635
 4342SOL    HW113925   5.652   4.234   2.677
 4342SOL    HW213926   5.519   4.140   2.683
 4343SOL     OW13927   4.335   0.449   6.133
 4343SOL    HW113928   4.281   0.405   6.061
 4343SOL    HW213929   4.432   0.432   6.117
 4344SOL     OW13930   0.460   3.367   3.747
 4344SOL    HW113931   0.510   3.281   3.734
 4344SOL    HW213932   0.511   3.425   3.811
 4345SOL     OW13933   2.920   3.465   2.251
 4345SOL    HW113934   2.999   3.511   2.210
 4345SOL    HW213935   2.850   3.449   2.181
 4346SOL     OW13936   1.022   3.589   2.050
 4346SOL    HW113937   1.033   3.578   1.951
 4346SOL    HW213938   0.946   3.532   2.082
 4347SOL     OW13939   5.958   5.036   1.253
 4347SOL    HW113940   5.957   4.992   1.343
 4347SOL    HW213941   6.014   5.119   1.257
 4348SOL     OW13942   5.438   5.830   4.159
 4348SOL    HW113943   5.399   5.759   4.218
 4348SOL    HW213944   5.386   5.914   4.169
 4349SOL     OW13945   0.069   3.354   4.849
 4349SOL    HW113946   7.017   3.318   4.905
 4349SOL    HW213947   0.148   3.294   4.856
 4350SOL     OW13948   4.471   1.480   4.769
 4350SOL    HW113949   4.501   1.458   4.676
 4350SOL    HW213950   4.541   1.536   4.814
 4351SOL     OW13951   0.962   6.441   0.304
 4351SOL    HW113952   0.899   6.364   0.312
 4351SOL    HW213953   0.923   6.521   0.349
 4352SOL     OW13954   3.590   3.824   1.066
 4352SOL    HW113955   3.640   3.889   1.008
 4352SOL    HW213956   3.509   3.869   1.104
 4353SOL     OW13957   3.162   2.817   0.901
 4353SOL    HW113958   3.252   2.846   0.932
 4353SOL    HW213959   3.108   2.896   0.872
 4354SOL     OW13960   5.506   6.974   3.614
 4354SOL    HW113961   5.452   6.923   3.681
 4354SOL    HW213962   5.449   6.997   3.535
 4355SOL     OW13963   1.168   6.261   3.285
 4355SOL    HW113964   1.148   6.169   3.250
 4355SOL    HW213965   1.083   6.307   3.307
 4356SOL     OW13966   5.744   2.610   5.690
 4356SOL    HW113967   5.820   2.628   5.628
 4356SOL    HW213968   5.721   2.513   5.687
 4357SOL     OW13969   6.624   0.814   2.685
 4357SOL    HW113970   6.605   0.723   2.646
 4357SOL    HW213971   6.662   0.873   2.614
 4358SOL     OW13972   1.440   6.844   6.689
 4358SOL    HW113973   1.457   6.900   6.771
 4358SOL    HW213974   1.478   6.891   6.609
 4359SOL     OW13975   1.834   1.537   6.984
 4359SOL    HW113976   1.762   1.545   0.031
 4359SOL    HW213977   1.905   1.474   7.016
 4360SOL     OW13978   1.393   3.197   3.383
 4360SOL    HW113979   1.439   3.112   3.360
 4360SOL    HW213980   1.395   3.259   3.304
 4361SOL     OW13981   0.184   1.401   0.765
 4361SOL    HW113982   0.139   1.478   0.720
 4361SOL    HW213983   0.272   1.383   0.721
 4362SOL     OW13984   1.233   5.920   3.677
 4362SOL    HW113985   1.215   5.851   3.747
 4362SOL    HW213986   1.322   5.963   3.694
 4363SOL     OW13987   4.690   1.575   1.973
 4363SOL    HW113988   4.737   1.593   1.887
 4363SOL    HW213989   4.740   1.618   2.048
 4364SOL     OW13990   4.058   3.746   2.530
 4364SOL    HW113991   4.068   3.719   2.434
 4364SOL    HW213992   4.092   3.672   2.589
 4365SOL     OW13993   3.171   1.998   1.752
 4365SOL    HW113994   3.248   1.942   1.721
 4365SOL    HW213995   3.202   2.057   1.827
 4366SOL     OW13996   4.137   6.229   5.114
 4366SOL    HW113997   4.171   6.309   5.064
 4366SOL    HW213998   4.046   6.205   5.079
 4367SOL     OW13999   2.029   5.496   3.418
 4367SOL    HW114000   2.101   5.540   3.364
 4367SOL    HW214001   2.066   5.469   3.507
 4368SOL     OW14002   4.914   4.348   2.902
 4368SOL    HW114003   4.884   4.389   2.988
 4368SOL    HW214004   4.881   4.254   2.896
 4369SOL     OW14005   4.035   4.791   3.001
 4369SOL    HW114006   4.091   4.724   3.048
 4369SOL    HW214007   4.072   4.808   2.910
 4370SOL     OW14008   3.924   4.362   1.569
 4370SOL    HW114009   3.874   4.275   1.563
 4370SOL    HW214010   4.015   4.351   1.530
 4371SOL     OW14011   3.399   1.206   1.397
 4371SOL    HW114012   3.450   1.121   1.395
 4371SOL    HW214013   3.402   1.244   1.490
 4372SOL     OW14014   1.972   3.100   4.558
 4372SOL    HW114015   2.009   3.107   4.651
 4372SOL    HW214016   1.877   3.070   4.563
 4373SOL     OW14017   4.404   1.392   5.498
 4373SOL    HW114018   4.416   1.424   5.404
 4373SOL    HW214019   4.307   1.371   5.514
 4374SOL     OW14020   2.123   1.429   1.687
 4374SOL    HW114021   2.186   1.476   1.748
 4374SOL    HW214022   2.175   1.380   1.617
 4375SOL     OW14023   4.501   0.859   3.511
 4375SOL    HW114024   4.593   0.899   3.515
 4375SOL    HW214025   4.438   0.913   3.567
 4376SOL     OW14026   0.121   6.644   1.373
 4376SOL    HW114027   0.176   6.650   1.456
 4376SOL    HW214028   0.038   6.699   1.385
 4377SOL     OW14029   5.764   6.851   6.413
 4377SOL    HW114030   5.738   6.940   6.451
 4377SOL    HW214031   5.685   6.789   6.417
 4378SOL     OW14032   1.991   5.311   2.873
 4378SOL    HW114033   2.021   5.219   2.847
 4378SOL    HW214034   1.901   5.329   2.834
 4379SOL     OW14035   1.101   0.394   1.952
 4379SOL    HW114036   1.113   0.482   1.905
 4379SOL    HW214037   1.186   0.342   1.946
 4380SOL     OW14038   1.365   5.823   5.426
 4380SOL    HW114039   1.391   5.756   5.358
 4380SOL    HW214040   1.400   5.913   5.400
 4381SOL     OW14041   3.558   6.221   4.747
 4381SOL    HW114042   3.620   6.265   4.812
 4381SOL    HW214043   3.501   6.155   4.796
 4382SOL     OW14044   4.871   3.851   4.094
 4382SOL    HW114045   4.832   3.942   4.106
 4382SOL    HW214046   4.868   3.801   4.181
 4383SOL     OW14047   0.634   3.026   5.889
 4383SOL    HW114048   0.725   3.064   5.902
 4383SOL    HW214049   0.616   2.958   5.960
 4384SOL     OW14050   3.590   5.881   0.621
 4384SOL    HW114051   3.642   5.811   0.669
 4384SOL    HW214052   3.497   5.886   0.660
 4385SOL     OW14053   0.476   2.431   2.509
 4385SOL    HW114054   0.566   2.389   2.520
 4385SOL    HW214055   0.464   2.503   2.577
 4386SOL     OW14056   1.074   3.224   6.766
 4386SOL    HW114057   1.102   3.191   6.676
 4386SOL    HW214058   0.976   3.212   6.777
 4387SOL     OW14059   7.015   3.170   1.886
 4387SOL    HW114060   0.054   3.092   1.874
 4387SOL    HW214061   0.020   3.244   1.824
 4388SOL     OW14062   3.612   0.945   6.002
 4388SOL    HW114063   3.615   1.018   5.934
 4388SOL    HW214064   3.699   0.894   6.000
 4389SOL     OW14065   5.396   2.528   2.855
 4389SOL    HW114066   5.445   2.607   2.891
 4389SOL    HW214067   5.304   2.556   2.826
 4390SOL     OW14068   4.778   2.837   2.166
 4390SOL    HW114069   4.785   2.760   2.103
 4390SOL    HW214070   4.803   2.921   2.117
 4391SOL     OW14071   1.476   5.586   0.552
 4391SOL    HW114072   1.525   5.516   0.605
 4391SOL    HW214073   1.389   5.605   0.596
 4392SOL     OW14074   4.879   2.962   4.400
 4392SOL    HW114075   4.823   2.889   4.363
 4392SOL    HW214076   4.925   3.011   4.326
 4393SOL     OW14077   4.670   6.567   3.107
 4393SOL    HW114078   4.759   6.536   3.075
 4393SOL    HW214079   4.610   6.584   3.028
 4394SOL     OW14080   5.151   0.256   2.642
 4394SOL    HW114081   5.136   0.225   2.736
 4394SOL    HW214082   5.068   0.240   2.588
 4395SOL     OW14083   5.887   1.993   1.926
 4395SOL    HW114084   5.799   2.010   1.969
 4395SOL    HW214085   5.884   1.907   1.876
 4396SOL     OW14086   0.991   0.832   4.180
 4396SOL    HW114087   1.032   0.906   4.127
 4396SOL    HW214088   1.025   0.836   4.274
 4397SOL     OW14089   6.346   0.190   5.334
 4397SOL    HW114090   6.413   0.128   5.376
 4397SOL    HW214091   6.388   0.279   5.318
 4398SOL     OW14092   0.348   4.275   4.632
 4398SOL    HW114093   0.258   4.271   4.589
 4398SOL    HW214094   0.353   4.352   4.695
 4399SOL     OW14095   2.075   1.484   0.925
 4399SOL    HW114096   2.084   1.416   0.852
 4399SOL    HW214097   1.979   1.510   0.935
 4400SOL     OW14098   3.180   6.370   4.589
 4400SOL    HW114099   3.083   6.381   4.567
 4400SOL    HW214100   3.213   6.283   4.550
 4401SOL     OW14101   5.609   5.988   4.652
 4401SOL    HW114102   5.607   6.088   4.654
 4401SOL    HW214103   5.560   5.952   4.732
 4402SOL     OW14104   0.388   6.538   2.856
 4402SOL    HW114105   0.390   6.503   2.949
 4402SOL    HW214106   0.477   6.522   2.813
 4403SOL     OW14107   0.876   0.477   3.625
 4403SOL    HW114108   0.854   0.570   3.653
 4403SOL    HW214109   0.960   0.477   3.571
 4404SOL     OW14110   0.864   3.850   3.593
 4404SOL    HW114111   0.890   3.896   3.678
 4404SOL    HW214112   0.943   3.846   3.531
 4405SOL     OW14113   3.509   4.297   5.810
 4405SOL    HW114114   3.443   4.231   5.774
 4405SOL    HW214115   3.514   4.376   5.749
 4406SOL     OW14116   5.902   4.235   1.392
 4406SOL    HW114117   5.844   4.172   1.445
 4406SOL    HW214118   5.998   4.212   1.408
 4407SOL     OW14119   5.921   0.185   6.964
 4407SOL    HW114120   5.959   0.260   6.911
 4407SOL    HW214121   5.830   0.163   6.931
 4408SOL     OW14122   4.516   6.597   6.199
 4408SOL    HW114123   4.541   6.685   6.158
 4408SOL    HW214124   4.578   6.578   6.275
 4409SOL     OW14125   3.755   0.811   1.639
 4409SOL    HW114126   3.756   0.732   1.700
 4409SOL    HW214127   3.691   0.879   1.675
 4410SOL     OW14128   2.043   5.022   1.903
 4410SOL    HW114129   2.135   5.006   1.867
 4410SOL    HW214130   1.992   5.079   1.839
 4411SOL     OW14131   3.999   3.354   2.994
 4411SOL    HW114132   4.060   3.433   2.985
 4411SOL    HW214133   3.912   3.383   3.035
 4412SOL     OW14134   3.916   1.290   6.488
 4412SOL    HW114135   3.877   1.375   6.452
 4412SOL    HW214136   3.908   1.291   6.588
 4413SOL     OW14137   4.234   6.416   4.284
 4413SOL    HW114138   4.256   6.371   4.370
 4413SOL    HW214139   4.153   6.474   4.296
 4414SOL     OW14140   3.878   4.893   1.971
 4414SOL    HW114141   3.807   4.890   2.041
 4414SOL    HW214142   3.846   4.845   1.889
 4415SOL     OW14143   5.223   2.570   6.758
 4415SOL    HW114144   5.317   2.547   6.730
 4415SOL    HW214145   5.177   2.487   6.790
 4416SOL     OW14146   3.243   0.312   4.222
 4416SOL    HW114147   3.321   0.373   4.213
 4416SOL    HW214148   3.169   0.360   4.269
 4417SOL     OW14149   0.177   6.492   2.347
 4417SOL    HW114150   0.258   6.514   2.294
 4417SOL    HW214151   0.198   6.501   2.445
 4418SOL     OW14152   3.575   0.197   3.771
 4418SOL    HW114153   3.545   0.187   3.676
 4418SOL    HW214154   3.538   0.122   3.826
 4419SOL     OW14155   0.491   5.106   6.809
 4419SOL    HW114156   0.445   5.056   6.883
 4419SOL    HW214157   0.567   5.158   6.847
 4420SOL     OW14158   5.403   1.527   6.322
 4420SOL    HW114159   5.434   1.432   6.328
 4420SOL    HW214160   5.360   1.554   6.409
 4421SOL     OW14161   1.418   1.511   3.398
 4421SOL    HW114162   1.337   1.563   3.371
 4421SOL    HW214163   1.501   1.560   3.370
 4422SOL     OW14164   1.712   4.208   5.900
 4422SOL    HW114165   1.763   4.235   5.818
 4422SOL    HW214166   1.743   4.118   5.931
 4423SOL     OW14167   1.451   2.088   6.326
 4423SOL    HW114168   1.358   2.058   6.306
 4423SOL    HW214169   1.469   2.076   6.424
 4424SOL     OW14170   6.731   0.146   2.881
 4424SOL    HW114171   6.781   0.203   2.816
 4424SOL    HW214172   6.652   0.196   2.916
 4425SOL     OW14173   4.415   4.714   6.473
 4425SOL    HW114174   4.330   4.662   6.476
 4425SOL    HW214175   4.454   4.709   6.381
 4426SOL     OW14176   0.359   0.456   5.810
 4426SOL    HW114177   0.417   0.421   5.884
 4426SOL    HW214178   0.279   0.397   5.800
 4427SOL     OW14179   1.286   0.440   3.323
 4427SOL    HW114180   1.265   0.451   3.420
 4427SOL    HW214181   1.320   0.348   3.306
 4428SOL     OW14182   2.433   5.779   3.948
 4428SOL    HW114183   2.353   5.719   3.949
 4428SOL    HW214184   2.404   5.874   3.962
 4429SOL     OW14185   3.461   6.874   3.341
 4429SOL    HW114186   3.443   6.779   3.314
 4429SOL    HW214187   3.440   6.885   3.438
 4430SOL     OW14188   2.595   0.536   2.331
 4430SOL    HW114189   2.613   0.633   2.318
 4430SOL    HW214190   2.677   0.483   2.310
 4431SOL     OW14191   2.626   1.951   3.331
 4431SOL    HW114192   2.668   2.006   3.259
 4431SOL    HW214193   2.650   1.989   3.420
 4432SOL     OW14194   2.997   3.763   2.916
 4432SOL    HW114195   3.096   3.754   2.906
 4432SOL    HW214196   2.976   3.795   3.009
 4433SOL     OW14197   6.078   6.961   2.347
 4433SOL    HW114198   6.146   6.906   2.395
 4433SOL    HW214199   6.067   0.026   2.394
 4434SOL     OW14200   6.347   2.722   4.157
 4434SOL    HW114201   6.313   2.815   4.172
 4434SOL    HW214202   6.295   2.679   4.084
 4435SOL     OW14203   3.608   2.912   1.511
 4435SOL    HW114204   3.565   2.983   1.566
 4435SOL    HW214205   3.693   2.883   1.554
 4436SOL     OW14206   4.841   1.784   6.808
 4436SOL    HW114207   4.838   1.697   6.856
 4436SOL    HW214208   4.901   1.847   6.857
 4437SOL     OW14209   3.414   1.021   4.579
 4437SOL    HW114210   3.336   1.031   4.517
 4437SOL    HW214211   3.450   1.111   4.601
 4438SOL     OW14212   4.544   3.045   6.920
 4438SOL    HW114213   4.536   3.132   6.970
 4438SOL    HW214214   4.453   3.015   6.891
 4439SOL     OW14215   1.990   5.984   2.360
 4439SOL    HW114216   2.000   6.081   2.380
 4439SOL    HW214217   1.986   5.932   2.445
 4440SOL     OW14218   1.034   0.002   6.638
 4440SOL    HW114219   1.078   0.007   6.727
 4440SOL    HW214220   0.985   0.088   6.621
 4441SOL     OW14221   5.650   2.679   3.111
 4441SOL    HW114222   5.596   2.636   3.184
 4441SOL    HW214223   5.590   2.701   3.034
 4442SOL     OW14224   3.154   6.120   3.466
 4442SOL    HW114225   3.091   6.108   3.543
 4442SOL    HW214226   3.185   6.031   3.433
 4443SOL     OW14227   2.589   1.653   5.739
 4443SOL    HW114228   2.629   1.723   5.798
 4443SOL    HW214229   2.529   1.594   5.793
 4444SOL     OW14230   5.679   0.284   1.039
 4444SOL    HW114231   5.653   0.275   1.135
 4444SOL    HW214232   5.613   0.235   0.982
 4445SOL     OW14233   1.190   0.793   6.228
 4445SOL    HW114234   1.136   0.859   6.176
 4445SOL    HW214235   1.184   0.814   6.326
 4446SOL     OW14236   6.615   0.213   2.544
 4446SOL    HW114237   6.705   0.244   2.516
 4446SOL    HW214238   6.545   0.268   2.498
 4447SOL     OW14239   5.507   2.349   5.493
 4447SOL    HW114240   5.595   2.304   5.478
 4447SOL    HW214241   5.495   2.422   5.426
 4448SOL     OW14242   2.313   3.802   6.880
 4448SOL    HW114243   2.268   3.713   6.882
 4448SOL    HW214244   2.395   3.796   6.823
 4449SOL     OW14245   1.467   1.626   5.153
 4449SOL    HW114246   1.422   1.623   5.242
 4449SOL    HW214247   1.471   1.720   5.121
 4450SOL     OW14248   3.788   3.303   3.443
 4450SOL    HW114249   3.864   3.243   3.417
 4450SOL    HW214250   3.704   3.249   3.450
 4451SOL     OW14251   6.813   4.747   2.222
 4451SOL    HW114252   6.897   4.729   2.172
 4451SOL    HW214253   6.830   4.737   2.320
 4452SOL     OW14254   6.148   6.297   6.498
 4452SOL    HW114255   6.184   6.363   6.432
 4452SOL    HW214256   6.217   6.226   6.515
 4453SOL     OW14257   5.289   2.554   1.071
 4453SOL    HW114258   5.305   2.509   1.158
 4453SOL    HW214259   5.255   2.487   1.005
 4454SOL     OW14260   5.524   3.197   1.500
 4454SOL    HW114261   5.555   3.201   1.405
 4454SOL    HW214262   5.436   3.243   1.508
 4455SOL     OW14263   4.085   1.506   2.413
 4455SOL    HW114264   4.056   1.572   2.344
 4455SOL    HW214265   4.175   1.532   2.448
 4456SOL     OW14266   1.325   4.971   3.413
 4456SOL    HW114267   1.287   4.897   3.469
 4456SOL    HW214268   1.424   4.974   3.426
 4457SOL     OW14269   5.359   1.959   6.078
 4457SOL    HW114270   5.333   1.907   5.997
 4457SOL    HW214271   5.280   2.009   6.112
 4458SOL     OW14272   3.820   2.611   6.300
 4458SOL    HW114273   3.765   2.655   6.230
 4458SOL    HW214274   3.787   2.639   6.391
 4459SOL     OW14275   5.028   6.812   4.393
 4459SOL    HW114276   4.937   6.839   4.361
 4459SOL    HW214277   5.019   6.736   4.458
 4460SOL     OW14278   2.943   2.282   6.210
 4460SOL    HW114279   2.899   2.355   6.262
 4460SOL    HW214280   3.006   2.321   6.143
 4461SOL     OW14281   2.161   0.182   2.553
 4461SOL    HW114282   2.128   0.259   2.608
 4461SOL    HW214283   2.213   0.216   2.475
 4462SOL     OW14284   6.974   5.103   1.297
 4462SOL    HW114285   0.014   5.173   1.264
 4462SOL    HW214286   6.986   5.020   1.243
 4463SOL     OW14287   1.621   3.654   5.999
 4463SOL    HW114288   1.685   3.577   5.989
 4463SOL    HW214289   1.655   3.716   6.071
 4464SOL     OW14290   5.440   3.676   6.531
 4464SOL    HW114291   5.479   3.607   6.593
 4464SOL    HW214292   5.507   3.749   6.517
 4465SOL     OW14293   1.456   6.176   1.765
 4465SOL    HW114294   1.484   6.214   1.853
 4465SOL    HW214295   1.464   6.076   1.767
 4466SOL     OW14296   0.899   1.901   3.073
 4466SOL    HW114297   0.958   1.906   3.154
 4466SOL    HW214298   0.813   1.949   3.091
 4467SOL     OW14299   1.210   6.552   3.827
 4467SOL    HW114300   1.156   6.636   3.831
 4467SOL    HW214301   1.307   6.574   3.832
 4468SOL     OW14302   0.993   2.910   0.474
 4468SOL    HW114303   0.991   2.956   0.563
 4468SOL    HW214304   1.000   2.978   0.401
 4469SOL     OW14305   4.058   0.229   0.539
 4469SOL    HW114306   3.984   0.208   0.475
 4469SOL    HW214307   4.048   0.322   0.572
 4470SOL     OW14308   4.790   3.702   1.092
 4470SOL    HW114309   4.789   3.776   1.024
 4470SOL    HW214310   4.747   3.735   1.177
 4471SOL     OW14311   6.587   2.910   1.157
 4471SOL    HW114312   6.555   3.004   1.149
 4471SOL    HW214313   6.656   2.905   1.230
 4472SOL     OW14314   1.913   4.236   2.264
 4472SOL    HW114315   1.853   4.166   2.225
 4472SOL    HW214316   1.891   4.248   2.361
 4473SOL     OW14317   6.655   0.019   4.460
 4473SOL    HW114318   6.588   6.998   4.521
 4473SOL    HW214319   6.654   6.995   4.372
 4474SOL     OW14320   4.420   0.516   2.577
 4474SOL    HW114321   4.433   0.610   2.546
 4474SOL    HW214322   4.333   0.509   2.626
 4475SOL     OW14323   1.911   4.077   0.311
 4475SOL    HW114324   1.880   4.069   0.406
 4475SOL    HW214325   1.999   4.031   0.301
 4476SOL     OW14326   4.899   6.582   2.161
 4476SOL    HW114327   4.861   6.637   2.236
 4476SOL    HW214328   4.855   6.492   2.160
 4477SOL     OW14329   1.475   1.469   0.623
 4477SOL    HW114330   1.467   1.555   0.672
 4477SOL    HW214331   1.406   1.466   0.550
 4478SOL     OW14332   2.083   6.660   2.426
 4478SOL    HW114333   2.046   6.658   2.333
 4478SOL    HW214334   2.034   6.728   2.480
 4479SOL     OW14335   1.161   0.122   5.604
 4479SOL    HW114336   1.261   0.116   5.594
 4479SOL    HW214337   1.118   0.095   5.518
 4480SOL     OW14338   1.044   4.719   4.485
 4480SOL    HW114339   1.140   4.741   4.506
 4480SOL    HW214340   1.022   4.628   4.520
 4481SOL     OW14341   1.286   6.375   4.372
 4481SOL    HW114342   1.238   6.373   4.460
 4481SOL    HW214343   1.320   6.283   4.350
 4482SOL     OW14344   0.394   4.743   3.925
 4482SOL    HW114345   0.387   4.661   3.982
 4482SOL    HW214346   0.396   4.824   3.984
 4483SOL     OW14347   5.397   3.123   1.944
 4483SOL    HW114348   5.324   3.142   1.879
 4483SOL    HW214349   5.484   3.157   1.908
 4484SOL     OW14350   3.922   2.639   5.573
 4484SOL    HW114351   3.950   2.545   5.593
 4484SOL    HW214352   3.977   2.674   5.497
 4485SOL     OW14353   5.242   1.676   6.562
 4485SOL    HW114354   5.221   1.614   6.638
 4485SOL    HW214355   5.268   1.766   6.598
 4486SOL     OW14356   6.308   3.265   4.381
 4486SOL    HW114357   6.226   3.259   4.324
 4486SOL    HW214358   6.317   3.357   4.417
 4487SOL     OW14359   3.022   3.345   6.357
 4487SOL    HW114360   2.938   3.354   6.411
 4487SOL    HW214361   3.027   3.419   6.290
 4488SOL     OW14362   6.622   1.649   4.563
 4488SOL    HW114363   6.541   1.707   4.565
 4488SOL    HW214364   6.625   1.598   4.477
 4489SOL     OW14365   5.770   6.718   4.389
 4489SOL    HW114366   5.762   6.780   4.467
 4489SOL    HW214367   5.858   6.732   4.344
 4490SOL     OW14368   6.442   1.870   2.938
 4490SOL    HW114369   6.448   1.772   2.952
 4490SOL    HW214370   6.353   1.892   2.896
 4491SOL     OW14371   0.894   3.740   2.602
 4491SOL    HW114372   0.902   3.671   2.673
 4491SOL    HW214373   0.803   3.781   2.605
 4492SOL     OW14374   5.014   2.950   0.255
 4492SOL    HW114375   5.084   3.013   0.222
 4492SOL    HW214376   4.956   2.923   0.178
 4493SOL     OW14377   5.869   5.667   4.354
 4493SOL    HW114378   5.846   5.572   4.370
 4493SOL    HW214379   5.813   5.704   4.280
 4494SOL     OW14380   6.689   4.154   5.307
 4494SOL    HW114381   6.769   4.117   5.354
 4494SOL    HW214382   6.714   4.181   5.214
 4495SOL     OW14383   4.742   6.244   1.758
 4495SOL    HW114384   4.818   6.235   1.694
 4495SOL    HW214385   4.657   6.257   1.707
 4496SOL     OW14386   4.794   3.557   5.475
 4496SOL    HW114387   4.847   3.620   5.418
 4496SOL    HW214388   4.741   3.495   5.418
 4497SOL     OW14389   6.311   5.123   0.237
 4497SOL    HW114390   6.312   5.053   0.166
 4497SOL    HW214391   6.299   5.080   0.326
 4498SOL     OW14392   0.051   3.305   0.103
 4498SOL    HW114393   0.103   3.344   0.027
 4498SOL    HW214394   0.106   3.236   0.150
 4499SOL     OW14395   0.034   2.884   6.116
 4499SOL    HW114396   0.055   2.964   6.172
 4499SOL    HW214397   6.964   2.894   6.079
 4500SOL     OW14398   2.931   3.708   4.381
 4500SOL    HW114399   2.845   3.738   4.422
 4500SOL    HW214400   2.988   3.666   4.452
 4501SOL     OW14401   6.899   4.591   5.847
 4501SOL    HW114402   6.807   4.580   5.886
 4501SOL    HW214403   6.945   4.502   5.846
 4502SOL     OW14404   0.890   2.451   6.943
 4502SOL    HW114405   0.838   2.537   6.944
 4502SOL    HW214406   0.983   2.468   6.978
 4503SOL     OW14407   1.291   1.611   3.647
 4503SOL    HW114408   1.224   1.537   3.655
 4503SOL    HW214409   1.356   1.589   3.575
 4504SOL     OW14410   5.565   2.340   4.420
 4504SOL    HW114411   5.646   2.396   4.432
 4504SOL    HW214412   5.556   2.312   4.325
 4505SOL     OW14413   1.630   6.468   5.290
 4505SOL    HW114414   1.623   6.516   5.378
 4505SOL    HW214415   1.660   6.533   5.220
 4506SOL     OW14416   3.813   0.272   5.222
 4506SOL    HW114417   3.798   0.327   5.140
 4506SOL    HW214418   3.783   0.178   5.206
 4507SOL     OW14419   5.714   4.315   0.666
 4507SOL    HW114420   5.637   4.338   0.725
 4507SOL    HW214421   5.710   4.370   0.582
 4508SOL     OW14422   1.106   3.660   6.758
 4508SOL    HW114423   1.133   3.668   6.854
 4508SOL    HW214424   1.116   3.749   6.713
 4509SOL     OW14425   2.965   1.762   4.593
 4509SOL    HW114426   2.946   1.696   4.665
 4509SOL    HW214427   3.037   1.727   4.533
 4510SOL     OW14428   4.876   0.191   5.066
 4510SOL    HW114429   4.815   0.115   5.087
 4510SOL    HW214430   4.960   0.156   5.024
 4511SOL     OW14431   6.474   2.660   0.707
 4511SOL    HW114432   6.556   2.614   0.743
 4511SOL    HW214433   6.399   2.595   0.701
 4512SOL     OW14434   2.832   5.776   6.947
 4512SOL    HW114435   2.801   5.830   6.869
 4512SOL    HW214436   2.861   5.838   7.020
 4513SOL     OW14437   4.983   0.511   1.824
 4513SOL    HW114438   5.019   0.603   1.812
 4513SOL    HW214439   5.030   0.447   1.763
 4514SOL     OW14440   2.818   1.053   5.297
 4514SOL    HW114441   2.746   1.121   5.287
 4514SOL    HW214442   2.859   1.061   5.388
 4515SOL     OW14443   0.572   5.209   0.699
 4515SOL    HW114444   0.603   5.215   0.794
 4515SOL    HW214445   0.514   5.288   0.677
 4516SOL     OW14446   0.818   1.105   5.155
 4516SOL    HW114447   0.770   1.192   5.147
 4516SOL    HW214448   0.765   1.033   5.110
 4517SOL     OW14449   3.643   6.767   5.724
 4517SOL    HW114450   3.689   6.795   5.639
 4517SOL    HW214451   3.588   6.686   5.706
 4518SOL     OW14452   0.858   2.349   3.541
 4518SOL    HW114453   0.846   2.310   3.632
 4518SOL    HW214454   0.844   2.279   3.472
 4519SOL     OW14455   0.179   2.921   3.727
 4519SOL    HW114456   0.228   3.008   3.724
 4519SOL    HW214457   0.087   2.933   3.691
 4520SOL     OW14458   6.852   4.851   3.485
 4520SOL    HW114459   6.944   4.890   3.489
 4520SOL    HW214460   6.858   4.755   3.459
 4521SOL     OW14461   5.406   2.988   6.883
 4521SOL    HW114462   5.376   2.950   6.796
 4521SOL    HW214463   5.506   2.998   6.883
 4522SOL     OW14464   6.350   6.863   4.033
 4522SOL    HW114465   6.312   6.901   3.948
 4522SOL    HW214466   6.349   6.933   4.104
 4523SOL     OW14467   3.149   4.235   6.678
 4523SOL    HW114468   3.096   4.284   6.608
 4523SOL    HW214469   3.174   4.145   6.642
 4524SOL     OW14470   4.933   0.449   4.864
 4524SOL    HW114471   4.977   0.518   4.921
 4524SOL    HW214472   4.919   0.485   4.772
 4525SOL     OW14473   6.269   1.647   4.804
 4525SOL    HW114474   6.351   1.607   4.844
 4525SOL    HW214475   6.286   1.743   4.782
 4526SOL     OW14476   4.916   6.734   0.768
 4526SOL    HW114477   4.973   6.786   0.704
 4526SOL    HW214478   4.870   6.660   0.718
 4527SOL     OW14479   5.120   0.357   2.252
 4527SOL    HW114480   5.049   0.375   2.183
 4527SOL    HW214481   5.175   0.279   2.224
 4528SOL     OW14482   5.873   0.003   0.731
 4528SOL    HW114483   5.932   6.978   0.665
 4528SOL    HW214484   5.880   6.981   0.820
 4529SOL     OW14485   3.120   0.143   2.969
 4529SOL    HW114486   3.100   0.068   3.032
 4529SOL    HW214487   3.039   0.200   2.958
 4530SOL     OW14488   0.282   3.105   5.930
 4530SOL    HW114489   0.269   3.126   5.833
 4530SOL    HW214490   0.266   3.007   5.945
 4531SOL     OW14491   0.305   3.312   4.033
 4531SOL    HW114492   0.401   3.296   4.058
 4531SOL    HW214493   0.252   3.229   4.048
 4532SOL     OW14494   6.348   1.198   0.799
 4532SOL    HW114495   6.430   1.238   0.757
 4532SOL    HW214496   6.370   1.169   0.892
 4533SOL     OW14497   1.877   5.592   3.034
 4533SOL    HW114498   1.919   5.683   3.032
 4533SOL    HW214499   1.945   5.524   3.007
 4534SOL     OW14500   5.968   3.775   5.188
 4534SOL    HW114501   5.898   3.844   5.207
 4534SOL    HW214502   5.954   3.695   5.247
 4535SOL     OW14503   4.857   3.157   2.280
 4535SOL    HW114504   4.846   3.082   2.346
 4535SOL    HW214505   4.833   3.123   2.189
 4536SOL     OW14506   6.070   1.026   4.726
 4536SOL    HW114507   6.069   1.009   4.824
 4536SOL    HW214508   6.024   1.112   4.706
 4537SOL     OW14509   3.949   2.751   0.034
 4537SOL    HW114510   3.923   2.713   6.967
 4537SOL    HW214511   3.918   2.846   0.039
 4538SOL     OW14512   3.322   1.436   3.142
 4538SOL    HW114513   3.256   1.362   3.130
 4538SOL    HW214514   3.370   1.425   3.229
 4539SOL     OW14515   2.214   1.976   2.774
 4539SOL    HW114516   2.268   2.054   2.805
 4539SOL    HW214517   2.261   1.930   2.699
 4540SOL     OW14518   3.863   3.449   4.534
 4540SOL    HW114519   3.849   3.548   4.526
 4540SOL    HW214520   3.960   3.431   4.552
 4541SOL     OW14521   4.988   2.027   1.209
 4541SOL    HW114522   4.951   2.096   1.272
 4541SOL    HW214523   5.016   1.947   1.261
 4542SOL     OW14524   5.772   6.647   2.581
 4542SOL    HW114525   5.861   6.613   2.550
 4542SOL    HW214526   5.780   6.745   2.602
 4543SOL     OW14527   5.828   1.463   1.106
 4543SOL    HW114528   5.862   1.549   1.068
 4543SOL    HW214529   5.900   1.394   1.103
 4544SOL     OW14530   3.365   5.581   6.869
 4544SOL    HW114531   3.295   5.583   6.941
 4544SOL    HW214532   3.338   5.515   6.799
 4545SOL     OW14533   3.879   2.257   5.614
 4545SOL    HW114534   3.962   2.302   5.646
 4545SOL    HW214535   3.799   2.304   5.652
 4546SOL     OW14536   0.887   6.377   6.513
 4546SOL    HW114537   0.942   6.294   6.501
 4546SOL    HW214538   0.866   6.416   6.424
 4547SOL     OW14539   5.435   2.601   1.512
 4547SOL    HW114540   5.434   2.604   1.611
 4547SOL    HW214541   5.472   2.512   1.482
 4548SOL     OW14542   0.629   4.029   3.643
 4548SOL    HW114543   0.709   3.969   3.636
 4548SOL    HW214544   0.553   3.988   3.593
 4549SOL     OW14545   6.753   2.915   2.925
 4549SOL    HW114546   6.749   2.903   3.024
 4549SOL    HW214547   6.842   2.886   2.891
 4550SOL     OW14548   1.078   5.501   3.642
 4550SOL    HW114549   1.092   5.441   3.563
 4550SOL    HW214550   1.064   5.595   3.611
 4551SOL     OW14551   0.906   2.737   5.578
 4551SOL    HW114552   0.994   2.773   5.547
 4551SOL    HW214553   0.857   2.697   5.501
 4552SOL     OW14554   0.438   3.395   4.694
 4552SOL    HW114555   0.406   3.377   4.601
 4552SOL    HW214556   0.385   3.340   4.759
 4553SOL     OW14557   4.311   5.046   0.376
 4553SOL    HW114558   4.272   5.067   0.287
 4553SOL    HW214559   4.350   4.954   0.375
 4554SOL     OW14560   4.633   6.885   2.804
 4554SOL    HW114561   4.633   6.880   2.903
 4554SOL    HW214562   4.639   6.980   2.775
 4555SOL     OW14563   5.217   2.238   6.374
 4555SOL    HW114564   5.245   2.334   6.381
 4555SOL    HW214565   5.118   2.232   6.386
 4556SOL     OW14566   4.169   0.991   3.528
 4556SOL    HW114567   4.240   0.972   3.596
 4556SOL    HW214568   4.211   1.031   3.446
 4557SOL     OW14569   5.446   0.074   6.071
 4557SOL    HW114570   5.488   0.152   6.117
 4557SOL    HW214571   5.482   7.012   6.109
 4558SOL     OW14572   6.490   3.215   6.692
 4558SOL    HW114573   6.579   3.175   6.714
 4558SOL    HW214574   6.431   3.212   6.772
 4559SOL     OW14575   1.933   6.413   1.296
 4559SOL    HW114576   1.834   6.395   1.289
 4559SOL    HW214577   1.950   6.510   1.284
 4560SOL     OW14578   5.175   3.232   3.112
 4560SOL    HW114579   5.078   3.220   3.092
 4560SOL    HW214580   5.186   3.261   3.208
 4561SOL     OW14581   3.480   0.349   6.812
 4561SOL    HW114582   3.475   0.381   6.718
 4561SOL    HW214583   3.389   0.349   6.853
 4562SOL     OW14584   2.868   5.076   6.871
 4562SOL    HW114585   2.911   5.145   6.812
 4562SOL    HW214586   2.844   4.996   6.816
 4563SOL     OW14587   5.631   1.840   6.675
 4563SOL    HW114588   5.634   1.894   6.591
 4563SOL    HW214589   5.688   1.883   6.745
 4564SOL     OW14590   1.634   6.270   0.443
 4564SOL    HW114591   1.676   6.331   0.376
 4564SOL    HW214592   1.560   6.219   0.400
 4565SOL     OW14593   0.810   0.831   5.350
 4565SOL    HW114594   0.769   0.843   5.259
 4565SOL    HW214595   0.876   0.905   5.366
 4566SOL     OW14596   6.866   0.612   0.045
 4566SOL    HW114597   6.815   0.548   7.010
 4566SOL    HW214598   6.802   0.664   0.102
 4567SOL     OW14599   6.582   1.437   0.956
 4567SOL    HW114600   6.487   1.469   0.947
 4567SOL    HW214601   6.640   1.488   0.893
 4568SOL     OW14602   3.206   4.641   5.708
 4568SOL    HW114603   3.281   4.655   5.773
 4568SOL    HW214604   3.141   4.717   5.716
 4569SOL     OW14605   0.908   1.527   4.209
 4569SOL    HW114606   0.972   1.594   4.171
 4569SOL    HW214607   0.943   1.496   4.298
 4570SOL     OW14608   0.247   5.854   3.803
 4570SOL    HW114609   0.320   5.856   3.871
 4570SOL    HW214610   0.208   5.762   3.798
 4571SOL     OW14611   3.232   3.266   4.740
 4571SOL    HW114612   3.205   3.282   4.835
 4571SOL    HW214613   3.237   3.167   4.723
 4572SOL     OW14614   1.492   6.864   1.123
 4572SOL    HW114615   1.450   6.943   1.080
 4572SOL    HW214616   1.583   6.849   1.083
 4573SOL     OW14617   5.452   5.844   0.757
 4573SOL    HW114618   5.421   5.913   0.692
 4573SOL    HW214619   5.548   5.821   0.738
 4574SOL     OW14620   7.013   4.233   1.806
 4574SOL    HW114621   6.938   4.271   1.861
 4574SOL    HW214622   0.076   4.280   1.827
 4575SOL     OW14623   6.851   0.753   2.200
 4575SOL    HW114624   6.884   0.776   2.108
 4575SOL    HW214625   6.774   0.690   2.192
 4576SOL     OW14626   3.513   5.303   6.610
 4576SOL    HW114627   3.592   5.242   6.619
 4576SOL    HW214628   3.474   5.293   6.518
 4577SOL     OW14629   1.349   3.296   2.961
 4577SOL    HW114630   1.287   3.354   3.014
 4577SOL    HW214631   1.402   3.238   3.024
 4578SOL     OW14632   0.048   3.846   4.210
 4578SOL    HW114633   0.068   3.929   4.261
 4578SOL    HW214634   0.030   3.771   4.274
 4579SOL     OW14635   5.276   2.170   3.473
 4579SOL    HW114636   5.297   2.267   3.469
 4579SOL    HW214637   5.343   2.123   3.530
 4580SOL     OW14638   6.424   6.184   0.579
 4580SOL    HW114639   6.491   6.116   0.608
 4580SOL    HW214640   6.362   6.143   0.512
 4581SOL     OW14641   3.290   5.248   3.506
 4581SOL    HW114642   3.233   5.201   3.439
 4581SOL    HW214643   3.233   5.285   3.579
 4582SOL     OW14644   5.346   6.350   3.208
 4582SOL    HW114645   5.266   6.402   3.238
 4582SOL    HW214646   5.408   6.411   3.158
 4583SOL     OW14647   3.448   1.914   5.674
 4583SOL    HW114648   3.354   1.913   5.708
 4583SOL    HW214649   3.486   1.822   5.680
 4584SOL     OW14650   0.592   5.364   5.391
 4584SOL    HW114651   0.567   5.459   5.374
 4584SOL    HW214652   0.593   5.314   5.305
 4585SOL     OW14653   3.448   6.251   3.008
 4585SOL    HW114654   3.513   6.207   3.070
 4585SOL    HW214655   3.356   6.242   3.044
 4586SOL     OW14656   3.607   5.766   1.978
 4586SOL    HW114657   3.652   5.714   2.051
 4586SOL    HW214658   3.673   5.831   1.939
 4587SOL     OW14659   2.905   3.284   1.414
 4587SOL    HW114660   2.990   3.333   1.392
 4587SOL    HW214661   2.913   3.243   1.505
 4588SOL     OW14662   3.891   3.334   5.292
 4588SOL    HW114663   3.986   3.353   5.314
 4588SOL    HW214664   3.886   3.268   5.216
 4589SOL     OW14665   6.227   2.267   4.177
 4589SOL    HW114666   6.232   2.285   4.079
 4589SOL    HW214667   6.288   2.329   4.226
 4590SOL     OW14668   4.586   5.037   2.636
 4590SOL    HW114669   4.681   5.035   2.667
 4590SOL    HW214670   4.529   4.986   2.700
 4591SOL     OW14671   5.440   5.707   5.316
 4591SOL    HW114672   5.420   5.662   5.402
 4591SOL    HW214673   5.537   5.733   5.314
 4592SOL     OW14674   3.966   2.442   6.725
 4592SOL    HW114675   3.916   2.515   6.771
 4592SOL    HW214676   3.972   2.362   6.785
 4593SOL     OW14677   3.763   6.544   2.615
 4593SOL    HW114678   3.681   6.543   2.672
 4593SOL    HW214679   3.804   6.453   2.613
 4594SOL     OW14680   2.251   1.556   1.901
 4594SOL    HW114681   2.308   1.630   1.939
 4594SOL    HW214682   2.223   1.495   1.975
 4595SOL     OW14683   4.434   3.066   6.564
 4595SOL    HW114684   4.516   3.110   6.525
 4595SOL    HW214685   4.453   2.970   6.582
 4596SOL     OW14686   5.675   0.024   1.884
 4596SOL    HW114687   5.741   7.020   1.954
 4596SOL    HW214688   5.644   0.117   1.901
 4597SOL     OW14689   5.340   4.068   6.417
 4597SOL    HW114690   5.336   4.007   6.496
 4597SOL    HW214691   5.430   4.111   6.412
 4598SOL     OW14692   2.213   5.547   6.846
 4598SOL    HW114693   2.209   5.575   6.942
 4598SOL    HW214694   2.196   5.449   6.839
 4599SOL     OW14695   1.510   4.756   1.412
 4599SOL    HW114696   1.452   4.744   1.331
 4599SOL    HW214697   1.482   4.692   1.483
 4600SOL     OW14698   3.079   5.844   0.675
 4600SOL    HW114699   3.066   5.779   0.750
 4600SOL    HW214700   2.990   5.875   0.642
 4601SOL     OW14701   2.042   0.396   5.315
 4601SOL    HW114702   1.984   0.343   5.377
 4601SOL    HW214703   2.134   0.355   5.312
 4602SOL     OW14704   1.272   0.260   2.217
 4602SOL    HW114705   1.257   0.189   2.148
 4602SOL    HW214706   1.292   0.216   2.305
 4603SOL     OW14707   3.368   6.602   1.153
 4603SOL    HW114708   3.444   6.572   1.210
 4603SOL    HW214709   3.382   6.697   1.125
 4604SOL     OW14710   3.161   0.186   2.100
 4604SOL    HW114711   3.192   0.229   2.185
 4604SOL    HW214712   3.183   0.245   2.023
 4605SOL     OW14713   5.149   0.284   4.829
 4605SOL    HW114714   5.065   0.326   4.861
 4605SOL    HW214715   5.166   0.310   4.734
 4606SOL     OW14716   6.459   6.412   5.229
 4606SOL    HW114717   6.448   6.509   5.253
 4606SOL    HW214718   6.401   6.390   5.151
 4607SOL     OW14719   3.195   1.546   1.637
 4607SOL    HW114720   3.254   1.595   1.572
 4607SOL    HW214721   3.100   1.557   1.609
 4608SOL     OW14722   2.064   4.061   5.580
 4608SOL    HW114723   2.032   4.152   5.555
 4608SOL    HW214724   2.015   3.992   5.527
 4609SOL     OW14725   4.828   6.616   0.240
 4609SOL    HW114726   4.738   6.573   0.240
 4609SOL    HW214727   4.834   6.682   0.315
 4610SOL     OW14728   0.164   3.032   6.539
 4610SOL    HW114729   0.243   3.075   6.584
 4610SOL    HW214730   0.134   2.954   6.593
 4611SOL     OW14731   0.541   3.766   0.212
 4611SOL    HW114732   0.468   3.781   0.146
 4611SOL    HW214733   0.545   3.843   0.276
 4612SOL     OW14734   2.131   6.745   6.520
 4612SOL    HW114735   2.211   6.704   6.563
 4612SOL    HW214736   2.123   6.711   6.426
 4613SOL     OW14737   3.182   5.461   2.517
 4613SOL    HW114738   3.226   5.373   2.504
 4613SOL    HW214739   3.083   5.450   2.511
 4614SOL     OW14740   1.652   5.564   0.175
 4614SOL    HW114741   1.595   5.493   0.133
 4614SOL    HW214742   1.742   5.526   0.197
 4615SOL     OW14743   1.321   2.299   0.132
 4615SOL    HW114744   1.347   2.347   0.049
 4615SOL    HW214745   1.311   2.364   0.207
 4616SOL     OW14746   5.668   1.064   6.435
 4616SOL    HW114747   5.657   0.968   6.412
 4616SOL    HW214748   5.579   1.108   6.441
 4617SOL     OW14749   0.379   2.452   1.605
 4617SOL    HW114750   0.445   2.403   1.662
 4617SOL    HW214751   0.287   2.440   1.641
 4618SOL     OW14752   0.949   2.225   6.148
 4618SOL    HW114753   0.880   2.294   6.170
 4618SOL    HW214754   1.026   2.233   6.212
 4619SOL     OW14755   4.120   0.726   3.316
 4619SOL    HW114756   4.111   0.788   3.394
 4619SOL    HW214757   4.031   0.715   3.271
 4620SOL     OW14758   2.662   4.441   6.480
 4620SOL    HW114759   2.597   4.433   6.404
 4620SOL    HW214760   2.717   4.357   6.485
 4621SOL     OW14761   0.700   0.352   5.160
 4621SOL    HW114762   0.619   0.380   5.212
 4621SOL    HW214763   0.672   0.313   5.072
 4622SOL     OW14764   1.586   3.849   0.408
 4622SOL    HW114765   1.647   3.771   0.422
 4622SOL    HW214766   1.579   3.901   0.493
 4623SOL     OW14767   6.840   5.017   1.521
 4623SOL    HW114768   6.830   5.096   1.581
 4623SOL    HW214769   6.864   5.047   1.429
 4624SOL     OW14770   5.280   0.181   4.056
 4624SOL    HW114771   5.256   0.168   3.960
 4624SOL    HW214772   5.377   0.204   4.064
 4625SOL     OW14773   1.126   3.881   6.600
 4625SOL    HW114774   1.045   3.924   6.639
 4625SOL    HW214775   1.100   3.830   6.517
 4626SOL     OW14776   6.723   5.090   1.033
 4626SOL    HW114777   6.794   5.071   0.966
 4626SOL    HW214778   6.742   5.041   1.118
 4627SOL     OW14779   3.353   5.950   5.708
 4627SOL    HW114780   3.286   5.913   5.643
 4627SOL    HW214781   3.309   5.965   5.796
 4628SOL     OW14782   6.701   4.611   1.995
 4628SOL    HW114783   6.727   4.517   2.019
 4628SOL    HW214784   6.686   4.664   2.078
 4629SOL     OW14785   2.101   4.588   5.378
 4629SOL    HW114786   2.069   4.518   5.442
 4629SOL    HW214787   2.047   4.672   5.390
 4630SOL     OW14788   2.555   5.722   2.745
 4630SOL    HW114789   2.603   5.801   2.782
 4630SOL    HW214790   2.606   5.686   2.666
 4631SOL     OW14791   2.773   6.348   2.606
 4631SOL    HW114792   2.845   6.383   2.545
 4631SOL    HW214793   2.745   6.420   2.669
 4632SOL     OW14794   5.098   5.447   4.231
 4632SOL    HW114795   5.046   5.421   4.149
 4632SOL    HW214796   5.054   5.409   4.312
 4633SOL     OW14797   6.798   1.879   4.137
 4633SOL    HW114798   6.789   1.900   4.235
 4633SOL    HW214799   6.707   1.877   4.096
 4634SOL     OW14800   3.183   4.883   0.811
 4634SOL    HW114801   3.219   4.811   0.871
 4634SOL    HW214802   3.181   4.970   0.861
 4635SOL     OW14803   5.112   3.280   2.385
 4635SOL    HW114804   5.031   3.268   2.327
 4635SOL    HW214805   5.088   3.333   2.466
 4636SOL     OW14806   3.132   5.361   0.437
 4636SOL    HW114807   3.064   5.355   0.510
 4636SOL    HW214808   3.110   5.293   0.366
 4637SOL     OW14809   1.226   1.039   5.324
 4637SOL    HW114810   1.254   0.944   5.335
 4637SOL    HW214811   1.254   1.091   5.404
 4638SOL     OW14812   4.863   3.120   6.023
 4638SOL    HW114813   4.851   3.181   5.944
 4638SOL    HW214814   4.915   3.167   6.094
 4639SOL     OW14815   0.277   3.804   5.849
 4639SOL    HW114816   0.241   3.718   5.814
 4639SOL    HW214817   0.370   3.790   5.883
 4640SOL     OW14818   5.698   4.438   2.714
 4640SOL    HW114819   5.615   4.472   2.756
 4640SOL    HW214820   5.766   4.512   2.708
 4641SOL     OW14821   2.412   5.031   4.523
 4641SOL    HW114822   2.349   4.953   4.521
 4641SOL    HW214823   2.483   5.014   4.592
 4642SOL     OW14824   6.299   6.049   4.212
 4642SOL    HW114825   6.262   6.019   4.300
 4642SOL    HW214826   6.295   5.974   4.146
 4643SOL     OW14827   3.972   2.205   1.761
 4643SOL    HW114828   4.008   2.297   1.750
 4643SOL    HW214829   3.881   2.209   1.802
 4644SOL     OW14830   1.709   6.339   4.828
 4644SOL    HW114831   1.667   6.425   4.855
 4644SOL    HW214832   1.711   6.333   4.728
 4645SOL     OW14833   2.055   6.293   4.768
 4645SOL    HW114834   2.000   6.214   4.743
 4645SOL    HW214835   2.007   6.348   4.836
 4646SOL     OW14836   3.141   0.537   1.985
 4646SOL    HW114837   3.170   0.631   2.004
 4646SOL    HW214838   3.041   0.534   1.981
 4647SOL     OW14839   6.148   0.492   4.255
 4647SOL    HW114840   6.097   0.516   4.172
 4647SOL    HW214841   6.088   0.442   4.317
 4648SOL     OW14842   2.340   5.606   2.596
 4648SOL    HW114843   2.408   5.667   2.638
 4648SOL    HW214844   2.278   5.572   2.667
 4649SOL     OW14845   4.961   0.516   5.554
 4649SOL    HW114846   4.877   0.475   5.519
 4649SOL    HW214847   4.970   0.609   5.519
 4650SOL     OW14848   4.884   5.205   2.480
 4650SOL    HW114849   4.895   5.121   2.427
 4650SOL    HW214850   4.877   5.283   2.418
 4651SOL     OW14851   0.376   2.177   1.866
 4651SOL    HW114852   0.461   2.226   1.885
 4651SOL    HW214853   0.357   2.181   1.768
 4652SOL     OW14854   6.734   6.898   5.691
 4652SOL    HW114855   6.801   6.882   5.619
 4652SOL    HW214856   6.746   6.990   5.728
 4653SOL     OW14857   0.319   6.243   6.763
 4653SOL    HW114858   0.333   6.315   6.696
 4653SOL    HW214859   0.224   6.242   6.792
 4654SOL     OW14860   1.092   0.284   0.052
 4654SOL    HW114861   1.067   0.331   0.137
 4654SOL    HW214862   1.128   0.193   0.074
 4655SOL     OW14863   0.517   4.704   3.306
 4655SOL    HW114864   0.482   4.633   3.367
 4655SOL    HW214865   0.597   4.670   3.257
 4656SOL     OW14866   1.463   0.595   3.774
 4656SOL    HW114867   1.496   0.516   3.723
 4656SOL    HW214868   1.472   0.677   3.717
 4657SOL     OW14869   5.316   6.946   1.226
 4657SOL    HW114870   5.410   6.927   1.198
 4657SOL    HW214871   5.257   6.871   1.195
 4658SOL     OW14872   4.855   0.369   2.767
 4658SOL    HW114873   4.790   0.357   2.693
 4658SOL    HW214874   4.873   0.467   2.780
 4659SOL     OW14875   1.921   2.645   4.896
 4659SOL    HW114876   1.902   2.702   4.816
 4659SOL    HW214877   1.885   2.689   4.978
 4660SOL     OW14878   0.205   1.256   6.058
 4660SOL    HW114879   0.123   1.309   6.037
 4660SOL    HW214880   0.259   1.244   5.975
 4661SOL     OW14881   3.221   3.780   3.863
 4661SOL    HW114882   3.199   3.731   3.778
 4661SOL    HW214883   3.145   3.840   3.887
 4662SOL     OW14884   4.695   0.443   5.493
 4662SOL    HW114885   4.700   0.541   5.509
 4662SOL    HW214886   4.608   0.421   5.449
 4663SOL     OW14887   0.110   2.160   2.382
 4663SOL    HW114888   0.042   2.088   2.368
 4663SOL    HW214889   0.097   2.231   2.314
 4664SOL     OW14890   3.607   2.696   0.274
 4664SOL    HW114891   3.579   2.720   0.181
 4664SOL    HW214892   3.533   2.648   0.321
 4665SOL     OW14893   5.100   0.043   6.981
 4665SOL    HW114894   5.133   0.135   7.003
 4665SOL    HW214895   5.010   0.029   7.021
 4666SOL     OW14896   2.329   1.486   0.625
 4666SOL    HW114897   2.257   1.444   0.680
 4666SOL    HW214898   2.418   1.467   0.667
 4667SOL     OW14899   0.026   5.144   6.384
 4667SOL    HW114900   0.046   5.094   6.468
 4667SOL    HW214901   0.016   5.080   6.308
 4668SOL     OW14902   6.396   1.627   4.243
 4668SOL    HW114903   6.411   1.701   4.308
 4668SOL    HW214904   6.404   1.539   4.290
 4669SOL     OW14905   1.168   0.107   0.541
 4669SOL    HW114906   1.165   0.192   0.488
 4669SOL    HW214907   1.076   0.069   0.548
 4670SOL     OW14908   2.754   2.237   4.372
 4670SOL    HW114909   2.715   2.313   4.422
 4670SOL    HW214910   2.717   2.151   4.407
 4671SOL     OW14911   5.461   3.433   1.652
 4671SOL    HW114912   5.525   3.468   1.719
 4671SOL    HW214913   5.424   3.509   1.598
 4672SOL     OW14914   2.084   3.984   6.513
 4672SOL    HW114915   2.072   4.075   6.473
 4672SOL    HW214916   2.145   3.990   6.592
 4673SOL     OW14917   3.891   1.324   2.512
 4673SOL    HW114918   3.938   1.248   2.556
 4673SOL    HW214919   3.959   1.385   2.471
 4674SOL     OW14920   4.438   5.723   4.938
 4674SOL    HW114921   4.447   5.776   5.022
 4674SOL    HW214922   4.529   5.691   4.909
 4675SOL     OW14923   0.983   4.149   0.165
 4675SOL    HW114924   0.885   4.166   0.163
 4675SOL    HW214925   1.001   4.060   0.207
 4676SOL     OW14926   1.279   5.535   3.319
 4676SOL    HW114927   1.191   5.494   3.297
 4676SOL    HW214928   1.320   5.487   3.397
 4677SOL     OW14929   1.640   2.791   0.325
 4677SOL    HW114930   1.712   2.801   0.393
 4677SOL    HW214931   1.634   2.696   0.297
 4678SOL     OW14932   2.156   4.596   2.842
 4678SOL    HW114933   2.165   4.526   2.913
 4678SOL    HW214934   2.059   4.613   2.824
 4679SOL     OW14935   5.065   0.017   1.833
 4679SOL    HW114936   5.042   0.098   1.779
 4679SOL    HW214937   5.000   6.966   1.811
 4680SOL     OW14938   2.378   1.149   1.772
 4680SOL    HW114939   2.293   1.108   1.740
 4680SOL    HW214940   2.452   1.082   1.765
 4681SOL     OW14941   5.453   4.041   1.498
 4681SOL    HW114942   5.379   3.976   1.480
 4681SOL    HW214943   5.449   4.070   1.593
 4682SOL     OW14944   4.309   3.375   6.439
 4682SOL    HW114945   4.397   3.336   6.411
 4682SOL    HW214946   4.321   3.472   6.460
 4683SOL     OW14947   6.288   4.117   3.814
 4683SOL    HW114948   6.285   4.207   3.858
 4683SOL    HW214949   6.286   4.046   3.883
 4684SOL     OW14950   4.421   6.290   6.999
 4684SOL    HW114951   4.356   6.271   0.050
 4684SOL    HW214952   4.491   6.218   6.998
 4685SOL     OW14953   2.991   3.764   5.816
 4685SOL    HW114954   3.054   3.832   5.852
 4685SOL    HW214955   2.952   3.710   5.891
 4686SOL     OW14956   2.879   5.894   0.433
 4686SOL    HW114957   2.929   5.978   0.452
 4686SOL    HW214958   2.781   5.914   0.424
 4687SOL     OW14959   2.939   0.733   2.825
 4687SOL    HW114960   2.975   0.772   2.740
 4687SOL    HW214961   3.005   0.670   2.863
 4688SOL     OW14962   5.748   2.884   6.015
 4688SOL    HW114963   5.747   2.978   5.979
 4688SOL    HW214964   5.793   2.883   6.104
 4689SOL     OW14965   5.541   0.643   0.540
 4689SOL    HW114966   5.559   0.725   0.485
 4689SOL    HW214967   5.442   0.631   0.551
 4690SOL     OW14968   2.576   1.352   0.714
 4690SOL    HW114969   2.628   1.367   0.630
 4690SOL    HW214970   2.535   1.261   0.712
 4691SOL     OW14971   6.066   4.889   0.793
 4691SOL    HW114972   6.147   4.847   0.833
 4691SOL    HW214973   6.089   4.981   0.762
 4692SOL     OW14974   6.547   4.125   2.881
 4692SOL    HW114975   6.578   4.181   2.804
 4692SOL    HW214976   6.500   4.182   2.948
 4693SOL     OW14977   1.854   0.832   3.857
 4693SOL    HW114978   1.858   0.861   3.762
 4693SOL    HW214979   1.781   0.764   3.868
 4694SOL     OW14980   2.670   1.411   0.428
 4694SOL    HW114981   2.647   1.417   0.331
 4694SOL    HW214982   2.768   1.419   0.441
 4695SOL     OW14983   1.223   5.805   1.107
 4695SOL    HW114984   1.306   5.796   1.052
 4695SOL    HW214985   1.246   5.796   1.204
 4696SOL     OW14986   1.436   5.127   6.329
 4696SOL    HW114987   1.436   5.123   6.229
 4696SOL    HW214988   1.403   5.216   6.358
 4697SOL     OW14989   2.739   4.629   1.011
 4697SOL    HW114990   2.722   4.613   1.108
 4697SOL    HW214991   2.662   4.676   0.970
 4698SOL     OW14992   4.694   0.830   3.032
 4698SOL    HW114993   4.700   0.826   3.132
 4698SOL    HW214994   4.607   0.791   3.002
 4699SOL     OW14995   0.748   0.450   2.381
 4699SOL    HW114996   0.826   0.453   2.443
 4699SOL    HW214997   0.709   0.358   2.379
 4700SOL     OW14998   5.958   2.062   2.843
 4700SOL    HW114999   5.939   2.040   2.939
 4700SOL    HW215000   5.873   2.092   2.799
 4701SOL     OW15001   3.105   1.415   1.877
 4701SOL    HW115002   3.127   1.459   1.790
 4701SOL    HW215003   3.031   1.465   1.922
 4702SOL     OW15004   5.474   4.817   6.485
 4702SOL    HW115005   5.435   4.826   6.393
 4702SOL    HW215006   5.503   4.907   6.517
 4703SOL     OW15007   1.286   4.690   3.207
 4703SOL    HW115008   1.292   4.743   3.291
 4703SOL    HW215009   1.377   4.658   3.181
 4704SOL     OW15010   0.475   5.174   5.618
 4704SOL    HW115011   0.439   5.229   5.694
 4704SOL    HW215012   0.528   5.233   5.557
 4705SOL     OW15013   3.123   2.842   1.884
 4705SOL    HW115014   3.065   2.844   1.965
 4705SOL    HW215015   3.067   2.823   1.804
 4706SOL     OW15016   1.266   0.835   0.343
 4706SOL    HW115017   1.325   0.755   0.328
 4706SOL    HW215018   1.322   0.918   0.338
 4707SOL     OW15019   1.110   0.313   1.535
 4707SOL    HW115020   1.064   0.382   1.591
 4707SOL    HW215021   1.058   0.300   1.450
 4708SOL     OW15022   0.690   2.709   4.054
 4708SOL    HW115023   0.737   2.677   4.136
 4708SOL    HW215024   0.594   2.680   4.057
 4709SOL     OW15025   4.585   4.139   5.305
 4709SOL    HW115026   4.654   4.202   5.270
 4709SOL    HW215027   4.626   4.048   5.316
 4710SOL     OW15028   5.629   6.390   4.174
 4710SOL    HW115029   5.548   6.440   4.204
 4710SOL    HW215030   5.600   6.306   4.128
 4711SOL     OW15031   6.192   3.092   3.134
 4711SOL    HW115032   6.108   3.044   3.161
 4711SOL    HW215033   6.185   3.121   3.039
 4712SOL     OW15034   4.304   4.199   5.300
 4712SOL    HW115035   4.289   4.282   5.246
 4712SOL    HW215036   4.402   4.178   5.302
 4713SOL     OW15037   5.806   4.269   1.139
 4713SOL    HW115038   5.840   4.273   1.233
 4713SOL    HW215039   5.728   4.332   1.129
 4714SOL     OW15040   6.612   0.874   6.070
 4714SOL    HW115041   6.587   0.951   6.128
 4714SOL    HW215042   6.530   0.825   6.042
 4715SOL     OW15043   6.253   2.149   1.661
 4715SOL    HW115044   6.187   2.197   1.719
 4715SOL    HW215045   6.206   2.080   1.607
 4716SOL     OW15046   3.804   4.156   5.540
 4716SOL    HW115047   3.807   4.229   5.473
 4716SOL    HW215048   3.730   4.092   5.517
 4717SOL     OW15049   3.263   4.873   5.454
 4717SOL    HW115050   3.248   4.852   5.357
 4717SOL    HW215051   3.191   4.935   5.486
 4718SOL     OW15052   5.474   4.399   1.434
 4718SOL    HW115053   5.488   4.400   1.533
 4718SOL    HW215054   5.506   4.312   1.397
 4719SOL     OW15055   6.406   3.294   3.656
 4719SOL    HW115056   6.358   3.210   3.681
 4719SOL    HW215057   6.443   3.338   3.738
 4720SOL     OW15058   2.808   4.440   0.007
 4720SOL    HW115059   2.833   4.442   0.104
 4720SOL    HW215060   2.880   4.394   6.978
 4721SOL     OW15061   6.449   3.524   2.374
 4721SOL    HW115062   6.456   3.448   2.438
 4721SOL    HW215063   6.368   3.512   2.316
 4722SOL     OW15064   0.926   4.320   6.359
 4722SOL    HW115065   0.958   4.402   6.312
 4722SOL    HW215066   0.832   4.333   6.390
 4723SOL     OW15067   3.981   4.152   6.521
 4723SOL    HW115068   3.938   4.066   6.549
 4723SOL    HW215069   4.052   4.133   6.453
 4724SOL     OW15070   0.692   6.689   4.358
 4724SOL    HW115071   0.782   6.687   4.314
 4724SOL    HW215072   0.634   6.618   4.320
 4725SOL     OW15073   5.991   5.428   0.581
 4725SOL    HW115074   6.051   5.506   0.601
 4725SOL    HW215075   5.927   5.453   0.509
 4726SOL     OW15076   1.992   2.883   5.756
 4726SOL    HW115077   2.056   2.895   5.832
 4726SOL    HW215078   1.922   2.955   5.760
 4727SOL     OW15079   0.894   5.731   0.318
 4727SOL    HW115080   0.832   5.720   0.240
 4727SOL    HW215081   0.947   5.816   0.307
 4728SOL     OW15082   6.158   0.876   3.855
 4728SOL    HW115083   6.121   0.905   3.943
 4728SOL    HW215084   6.257   0.866   3.861
 4729SOL     OW15085   6.191   0.616   0.806
 4729SOL    HW115086   6.222   0.533   0.853
 4729SOL    HW215087   6.210   0.609   0.708
 4730SOL     OW15088   3.179   6.851   4.791
 4730SOL    HW115089   3.090   6.806   4.780
 4730SOL    HW215090   3.170   6.929   4.852
 4731SOL     OW15091   3.033   0.125   0.669
 4731SOL    HW115092   3.123   0.095   0.701
 4731SOL    HW215093   2.970   0.047   0.671
 4732SOL     OW15094   6.941   3.652   4.393
 4732SOL    HW115095   6.875   3.646   4.468
 4732SOL    HW215096   6.893   3.678   4.309
 4733SOL     OW15097   2.074   3.353   2.973
 4733SOL    HW115098   2.073   3.358   2.873
 4733SOL    HW215099   2.009   3.419   3.010
 4734SOL     OW15100   4.912   4.007   6.364
 4734SOL    HW115101   4.829   4.031   6.413
 4734SOL    HW215102   4.977   4.083   6.368
 4735SOL     OW15103   0.213   6.468   4.957
 4735SOL    HW115104   0.263   6.536   4.905
 4735SOL    HW215105   0.263   6.382   4.957
 4736SOL     OW15106   6.513   2.123   3.039
 4736SOL    HW115107   6.524   2.062   2.961
 4736SOL    HW215108   6.416   2.125   3.066
 4737SOL     OW15109   1.981   4.823   1.199
 4737SOL    HW115110   1.994   4.902   1.259
 4737SOL    HW215111   1.897   4.775   1.225
 4738SOL     OW15112   2.190   0.174   3.745
 4738SOL    HW115113   2.281   0.189   3.707
 4738SOL    HW215114   2.150   0.262   3.773
 4739SOL     OW15115   5.948   3.699   4.481
 4739SOL    HW115116   5.963   3.764   4.406
 4739SOL    HW215117   5.857   3.658   4.472
 4740SOL     OW15118   0.248   1.284   1.556
 4740SOL    HW115119   0.214   1.238   1.637
 4740SOL    HW215120   0.172   1.304   1.494
 4741SOL     OW15121   4.496   4.945   1.280
 4741SOL    HW115122   4.540   4.869   1.329
 4741SOL    HW215123   4.508   4.932   1.181
 4742SOL     OW15124   2.699   5.686   1.239
 4742SOL    HW115125   2.654   5.706   1.326
 4742SOL    HW215126   2.774   5.751   1.224
 4743SOL     OW15127   2.193   1.809   6.920
 4743SOL    HW115128   2.136   1.745   6.869
 4743SOL    HW215129   2.136   1.865   6.979
 4744SOL     OW15130   2.069   3.683   5.670
 4744SOL    HW115131   2.083   3.760   5.607
 4744SOL    HW215132   2.111   3.601   5.631
 4745SOL     OW15133   3.630   5.353   4.849
 4745SOL    HW115134   3.698   5.381   4.781
 4745SOL    HW215135   3.655   5.264   4.886
 4746SOL     OW15136   6.668   6.411   0.861
 4746SOL    HW115137   6.702   6.408   0.767
 4746SOL    HW215138   6.586   6.355   0.869
 4747SOL     OW15139   6.824   2.185   0.585
 4747SOL    HW115140   6.748   2.121   0.594
 4747SOL    HW215141   6.822   2.226   0.493
 4748SOL     OW15142   1.102   0.846   1.243
 4748SOL    HW115143   1.156   0.860   1.160
 4748SOL    HW215144   1.162   0.818   1.318
 4749SOL     OW15145   2.236   6.584   0.242
 4749SOL    HW115146   2.257   6.633   0.326
 4749SOL    HW215147   2.321   6.559   0.196
 4750SOL     OW15148   6.950   0.709   4.266
 4750SOL    HW115149   6.953   0.616   4.303
 4750SOL    HW215150   7.005   0.769   4.324
 4751SOL     OW15151   1.811   4.619   6.340
 4751SOL    HW115152   1.821   4.520   6.331
 4751SOL    HW215153   1.734   4.650   6.285
 4752SOL     OW15154   3.073   6.227   1.806
 4752SOL    HW115155   3.041   6.132   1.801
 4752SOL    HW215156   3.124   6.241   1.891
 4753SOL     OW15157   5.692   6.621   5.195
 4753SOL    HW115158   5.686   6.531   5.239
 4753SOL    HW215159   5.613   6.634   5.136
 4754SOL     OW15160   0.112   0.305   5.843
 4754SOL    HW115161   0.030   0.362   5.851
 4754SOL    HW215162   0.102   0.243   5.765
 4755SOL     OW15163   2.536   1.623   6.203
 4755SOL    HW115164   2.537   1.706   6.149
 4755SOL    HW215165   2.627   1.607   6.241
 4756SOL     OW15166   4.688   2.892   1.389
 4756SOL    HW115167   4.679   2.813   1.450
 4756SOL    HW215168   4.771   2.883   1.334
 4757SOL     OW15169   2.363   2.028   1.841
 4757SOL    HW115170   2.405   1.992   1.924
 4757SOL    HW215171   2.307   1.957   1.798
 4758SOL     OW15172   4.925   5.146   5.359
 4758SOL    HW115173   5.019   5.180   5.360
 4758SOL    HW215174   4.904   5.103   5.446
 4759SOL     OW15175   5.538   5.567   6.081
 4759SOL    HW115176   5.587   5.514   6.151
 4759SOL    HW215177   5.441   5.545   6.085
 4760SOL     OW15178   2.113   1.095   1.626
 4760SOL    HW115179   2.041   1.094   1.697
 4760SOL    HW215180   2.122   1.187   1.590
 4761SOL     OW15181   6.723   6.924   6.421
 4761SOL    HW115182   6.796   6.883   6.366
 4761SOL    HW215183   6.695   7.010   6.379
 4762SOL     OW15184   2.471   5.416   2.099
 4762SOL    HW115185   2.520   5.444   2.016
 4762SOL    HW215186   2.392   5.360   2.074
 4763SOL     OW15187   5.982   6.237   3.147
 4763SOL    HW115188   6.048   6.170   3.112
 4763SOL    HW215189   6.026   6.326   3.157
 4764SOL     OW15190   4.002   3.762   5.133
 4764SOL    HW115191   4.031   3.736   5.041
 4764SOL    HW215192   4.078   3.750   5.196
 4765SOL     OW15193   4.824   5.868   4.939
 4765SOL    HW115194   4.891   5.804   4.900
 4765SOL    HW215195   4.823   5.858   5.039
 4766SOL     OW15196   2.399   6.979   3.628
 4766SOL    HW115197   2.310   6.933   3.623
 4766SOL    HW215198   2.449   6.963   3.542
 4767SOL     OW15199   4.188   6.709   6.676
 4767SOL    HW115200   4.098   6.703   6.719
 4767SOL    HW215201   4.252   6.756   6.738
 4768SOL     OW15202   5.988   0.524   4.499
 4768SOL    HW115203   6.075   0.545   4.544
 4768SOL    HW215204   5.951   0.607   4.456
 4769SOL     OW15205   4.195   6.437   1.689
 4769SOL    HW115206   4.118   6.379   1.715
 4769SOL    HW215207   4.186   6.526   1.733
 4770SOL     OW15208   2.544   0.657   2.875
 4770SOL    HW115209   2.445   0.641   2.883
 4770SOL    HW215210   2.586   0.645   2.965
 4771SOL     OW15211   3.757   4.085   5.843
 4771SOL    HW115212   3.779   4.081   5.746
 4771SOL    HW215213   3.707   4.169   5.863
 4772SOL     OW15214   2.901   1.336   1.533
 4772SOL    HW115215   2.813   1.288   1.541
 4772SOL    HW215216   2.885   1.435   1.528
 4773SOL     OW15217   0.350   5.791   3.312
 4773SOL    HW115218   0.379   5.874   3.358
 4773SOL    HW215219   0.431   5.740   3.281
 4774SOL     OW15220   0.890   3.465   1.424
 4774SOL    HW115221   0.949   3.479   1.504
 4774SOL    HW215222   0.946   3.442   1.345
 4775SOL     OW15223   4.358   0.123   2.802
 4775SOL    HW115224   4.298   0.198   2.830
 4775SOL    HW215225   4.452   0.157   2.794
 4776SOL     OW15226   2.684   5.874   2.202
 4776SOL    HW115227   2.691   5.935   2.123
 4776SOL    HW215228   2.774   5.839   2.225
 4777SOL     OW15229   2.665   4.606   1.270
 4777SOL    HW115230   2.571   4.571   1.273
 4777SOL    HW215231   2.687   4.650   1.356
 4778SOL     OW15232   4.923   3.738   2.041
 4778SOL    HW115233   4.913   3.639   2.035
 4778SOL    HW215234   4.867   3.781   1.970
 4779SOL     OW15235   6.532   0.282   3.021
 4779SOL    HW115236   6.532   0.347   3.097
 4779SOL    HW215237   6.492   0.325   2.940
 4780SOL     OW15238   1.075   6.642   6.343
 4780SOL    HW115239   1.107   6.670   6.433
 4780SOL    HW215240   0.986   6.684   6.324
 4781SOL     OW15241   2.291   5.319   1.237
 4781SOL    HW115242   2.314   5.348   1.329
 4781SOL    HW215243   2.234   5.388   1.193
 4782SOL     OW15244   5.451   6.347   0.008
 4782SOL    HW115245   5.355   6.321   0.001
 4782SOL    HW215246   5.505   6.294   6.965
 4783SOL     OW15247   5.482   4.153   1.242
 4783SOL    HW115248   5.468   4.094   1.321
 4783SOL    HW215249   5.397   4.158   1.189
 4784SOL     OW15250   5.367   5.243   5.114
 4784SOL    HW115251   5.403   5.220   5.023
 4784SOL    HW215252   5.425   5.201   5.184
 4785SOL     OW15253   6.972   6.353   0.952
 4785SOL    HW115254   6.999   6.342   0.856
 4785SOL    HW215255   6.874   6.338   0.961
 4786SOL     OW15256   1.900   3.102   1.918
 4786SOL    HW115257   1.920   3.051   1.834
 4786SOL    HW215258   1.879   3.038   1.991
 4787SOL     OW15259   3.208   2.074   3.291
 4787SOL    HW115260   3.128   2.068   3.351
 4787SOL    HW215261   3.178   2.102   3.200
 4788SOL     OW15262   1.059   4.820   4.984
 4788SOL    HW115263   1.118   4.900   4.971
 4788SOL    HW215264   0.973   4.834   4.935
 4789SOL     OW15265   5.811   0.564   6.668
 4789SOL    HW115266   5.833   0.647   6.617
 4789SOL    HW215267   5.711   0.553   6.672
 4790SOL     OW15268   5.937   2.532   6.456
 4790SOL    HW115269   5.941   2.623   6.415
 4790SOL    HW215270   5.865   2.478   6.411
 4791SOL     OW15271   5.521   6.803   1.981
 4791SOL    HW115272   5.452   6.790   2.051
 4791SOL    HW215273   5.612   6.802   2.023
 4792SOL     OW15274   2.399   2.604   2.968
 4792SOL    HW115275   2.378   2.675   3.035
 4792SOL    HW215276   2.316   2.580   2.918
 4793SOL     OW15277   1.396   6.992   6.431
 4793SOL    HW115278   1.435   6.923   6.369
 4793SOL    HW215279   1.303   7.015   6.401
 4794SOL     OW15280   2.452   6.865   3.111
 4794SOL    HW115281   2.461   6.965   3.119
 4794SOL    HW215282   2.464   6.838   3.016
 4795SOL     OW15283   6.469   3.302   4.103
 4795SOL    HW115284   6.400   3.233   4.083
 4795SOL    HW215285   6.467   3.325   4.200
 4796SOL     OW15286   5.950   3.894   0.892
 4796SOL    HW115287   5.969   3.967   0.826
 4796SOL    HW215288   5.873   3.839   0.860
 4797SOL     OW15289   0.972   4.776   5.843
 4797SOL    HW115290   1.068   4.749   5.848
 4797SOL    HW215291   0.915   4.708   5.889
 4798SOL     OW15292   0.453   3.964   4.162
 4798SOL    HW115293   0.502   4.008   4.237
 4798SOL    HW215294   0.414   3.877   4.193
 4799SOL     OW15295   4.269   1.512   4.985
 4799SOL    HW115296   4.328   1.476   4.913
 4799SOL    HW215297   4.195   1.565   4.945
 4800SOL     OW15298   2.726   2.775   5.359
 4800SOL    HW115299   2.630   2.770   5.331
 4800SOL    HW215300   2.770   2.852   5.313
 4801SOL     OW15301   1.521   1.757   0.683
 4801SOL    HW115302   1.449   1.824   0.699
 4801SOL    HW215303   1.610   1.803   0.685
 4802SOL     OW15304   2.860   0.098   1.632
 4802SOL    HW115305   2.799   0.040   1.579
 4802SOL    HW215306   2.805   0.160   1.690
 4803SOL     OW15307   0.952   6.833   0.333
 4803SOL    HW115308   0.936   6.853   0.237
 4803SOL    HW215309   1.037   6.783   0.344
 4804SOL     OW15310   4.093   5.364   6.239
 4804SOL    HW115311   4.121   5.295   6.306
 4804SOL    HW215312   4.108   5.329   6.147
 4805SOL     OW15313   6.614   1.623   0.046
 4805SOL    HW115314   6.575   1.712   0.067
 4805SOL    HW215315   6.692   1.634   7.006
 4806SOL     OW15316   0.389   3.348   2.765
 4806SOL    HW115317   0.292   3.336   2.744
 4806SOL    HW215318   0.443   3.341   2.681
 4807SOL     OW15319   0.548   6.319   1.355
 4807SOL    HW115320   0.481   6.342   1.285
 4807SOL    HW215321   0.506   6.262   1.425
 4808SOL     OW15322   5.151   3.485   1.292
 4808SOL    HW115323   5.198   3.574   1.294
 4808SOL    HW215324   5.124   3.463   1.199
 4809SOL     OW15325   3.462   5.160   6.968
 4809SOL    HW115326   3.414   5.217   6.901
 4809SOL    HW215327   3.425   5.177   0.037
 4810SOL     OW15328   0.898   6.048   1.590
 4810SOL    HW115329   0.900   6.079   1.685
 4810SOL    HW215330   0.806   6.014   1.568
 4811SOL     OW15331   3.629   5.125   2.093
 4811SOL    HW115332   3.665   5.041   2.134
 4811SOL    HW215333   3.543   5.105   2.046
 4812SOL     OW15334   0.253   5.491   4.265
 4812SOL    HW115335   0.336   5.448   4.302
 4812SOL    HW215336   0.241   5.464   4.170
 4813SOL     OW15337   5.056   1.751   2.469
 4813SOL    HW115338   5.144   1.741   2.422
 4813SOL    HW215339   5.008   1.831   2.434
 4814SOL     OW15340   0.230   3.933   1.100
 4814SOL    HW115341   0.279   3.927   1.013
 4814SOL    HW215342   0.215   4.029   1.123
 4815SOL     OW15343   4.854   5.546   1.642
 4815SOL    HW115344   4.888   5.527   1.734
 4815SOL    HW215345   4.863   5.464   1.585
 4816SOL     OW15346   5.126   5.317   2.974
 4816SOL    HW115347   5.146   5.220   2.987
 4816SOL    HW215348   5.039   5.327   2.924
 4817SOL     OW15349   1.519   2.356   5.960
 4817SOL    HW115350   1.443   2.331   5.900
 4817SOL    HW215351   1.552   2.447   5.935
 4818SOL     OW15352   6.892   6.786   3.708
 4818SOL    HW115353   6.849   6.699   3.681
 4818SOL    HW215354   6.827   6.840   3.761
 4819SOL     OW15355   1.494   3.313   6.804
 4819SOL    HW115356   1.468   3.389   6.745
 4819SOL    HW215357   1.458   3.329   6.896
 4820SOL     OW15358   6.762   3.178   1.929
 4820SOL    HW115359   6.769   3.188   2.029
 4820SOL    HW215360   6.853   3.160   1.892
 4821SOL     OW15361   6.786   5.880   2.491
 4821SOL    HW115362   6.789   5.792   2.538
 4821SOL    HW215363   6.699   5.925   2.509
 4822SOL     OW15364   1.474   3.938   4.607
 4822SOL    HW115365   1.515   3.873   4.670
 4822SOL    HW215366   1.384   3.904   4.578
 4823SOL     OW15367   1.749   2.461   1.942
 4823SOL    HW115368   1.818   2.444   2.012
 4823SOL    HW215369   1.700   2.545   1.964
 4824SOL     OW15370   5.784   0.942   5.003
 4824SOL    HW115371   5.695   0.982   5.026
 4824SOL    HW215372   5.796   0.941   4.904
 4825SOL     OW15373   1.622   6.937   4.092
 4825SOL    HW115374   1.696   7.004   4.092
 4825SOL    HW215375   1.592   6.921   4.186
 4826SOL     OW15376   4.693   0.190   1.419
 4826SOL    HW115377   4.659   0.282   1.399
 4826SOL    HW215378   4.706   0.180   1.518
 4827SOL     OW15379   6.758   1.927   1.055
 4827SOL    HW115380   6.784   1.858   1.123
 4827SOL    HW215381   6.804   1.907   0.968
 4828SOL     OW15382   4.661   0.998   2.582
 4828SOL    HW115383   4.682   1.037   2.672
 4828SOL    HW215384   4.700   1.056   2.511
 4829SOL     OW15385   3.576   0.082   5.406
 4829SOL    HW115386   3.641   0.071   5.331
 4829SOL    HW215387   3.601   0.162   5.460
 4830SOL     OW15388   3.253   5.934   3.747
 4830SOL    HW115389   3.257   5.848   3.696
 4830SOL    HW215390   3.160   5.971   3.743
 4831SOL     OW15391   3.416   4.965   6.496
 4831SOL    HW115392   3.323   4.985   6.527
 4831SOL    HW215393   3.415   4.886   6.434
 4832SOL     OW15394   3.038   3.132   3.961
 4832SOL    HW115395   3.014   3.201   4.029
 4832SOL    HW215396   3.021   3.168   3.869
 4833SOL     OW15397   0.227   2.687   3.941
 4833SOL    HW115398   0.220   2.768   3.883
 4833SOL    HW215399   0.135   2.657   3.967
 4834SOL     OW15400   2.069   4.991   1.576
 4834SOL    HW115401   1.992   5.025   1.631
 4834SOL    HW215402   2.149   5.050   1.591
 4835SOL     OW15403   6.900   2.394   5.039
 4835SOL    HW115404   6.886   2.481   5.086
 4835SOL    HW215405   6.962   2.407   4.961
 4836SOL     OW15406   4.774   1.293   5.160
 4836SOL    HW115407   4.770   1.260   5.254
 4836SOL    HW215408   4.797   1.217   5.099
 4837SOL     OW15409   6.957   3.568   4.751
 4837SOL    HW115410   7.019   3.643   4.727
 4837SOL    HW215411   7.007   3.497   4.801
 4838SOL     OW15412   1.227   4.626   6.618
 4838SOL    HW115413   1.214   4.674   6.531
 4838SOL    HW215414   1.322   4.635   6.646
 4839SOL     OW15415   2.336   1.701   0.078
 4839SOL    HW115416   2.302   1.759   0.153
 4839SOL    HW215417   2.298   1.733   7.014
 4840SOL     OW15418   5.381   3.459   5.046
 4840SOL    HW115419   5.347   3.366   5.062
 4840SOL    HW215420   5.475   3.466   5.079
 4841SOL     OW15421   3.210   5.493   3.196
 4841SOL    HW115422   3.219   5.547   3.279
 4841SOL    HW215423   3.113   5.480   3.175
 4842SOL     OW15424   2.952   5.530   3.157
 4842SOL    HW115425   2.898   5.454   3.194
 4842SOL    HW215426   2.912   5.561   3.071
 4843SOL     OW15427   0.267   2.544   2.686
 4843SOL    HW115428   0.260   2.457   2.637
 4843SOL    HW215429   0.227   2.533   2.778
 4844SOL     OW15430   0.976   5.646   4.680
 4844SOL    HW115431   0.971   5.622   4.777
 4844SOL    HW215432   1.067   5.681   4.659
 4845SOL     OW15433   4.972   3.795   4.962
 4845SOL    HW115434   4.947   3.703   4.994
 4845SOL    HW215435   4.964   3.860   5.038
 4846SOL     OW15436   0.095   3.669   5.069
 4846SOL    HW115437   0.179   3.662   5.016
 4846SOL    HW215438   0.104   3.741   5.138
 4847SOL     OW15439   2.148   6.649   6.221
 4847SOL    HW115440   2.230   6.602   6.255
 4847SOL    HW215441   2.175   6.730   6.170
 4848SOL     OW15442   2.717   0.688   4.125
 4848SOL    HW115443   2.785   0.661   4.057
 4848SOL    HW215444   2.625   0.668   4.089
 4849SOL     OW15445   1.765   6.859   1.092
 4849SOL    HW115446   1.813   6.940   1.125
 4849SOL    HW215447   1.765   6.859   0.992
 4850SOL     OW15448   4.734   0.692   0.830
 4850SOL    HW115449   4.688   0.674   0.743
 4850SOL    HW215450   4.776   0.607   0.862
 4851SOL     OW15451   3.522   5.711   6.702
 4851SOL    HW115452   3.460   5.666   6.767
 4851SOL    HW215453   3.563   5.643   6.642
 4852SOL     OW15454   4.335   5.164   4.396
 4852SOL    HW115455   4.301   5.142   4.488
 4852SOL    HW215456   4.378   5.254   4.397
 4853SOL     OW15457   3.559   0.559   2.838
 4853SOL    HW115458   3.569   0.656   2.859
 4853SOL    HW215459   3.581   0.505   2.919
 4854SOL     OW15460   5.930   6.275   1.549
 4854SOL    HW115461   5.981   6.189   1.544
 4854SOL    HW215462   5.842   6.265   1.503
 4855SOL     OW15463   6.447   4.894   4.620
 4855SOL    HW115464   6.413   4.987   4.631
 4855SOL    HW215465   6.426   4.841   4.703
 4856SOL     OW15466   0.240   3.718   3.003
 4856SOL    HW115467   0.180   3.648   3.042
 4856SOL    HW215468   0.280   3.773   3.076
 4857SOL     OW15469   2.586   2.019   4.946
 4857SOL    HW115470   2.501   2.073   4.954
 4857SOL    HW215471   2.664   2.076   4.971
 4858SOL     OW15472   0.290   6.021   4.402
 4858SOL    HW115473   0.275   6.006   4.305
 4858SOL    HW215474   0.388   6.037   4.418
 4859SOL     OW15475   0.610   5.808   2.325
 4859SOL    HW115476   0.538   5.780   2.261
 4859SOL    HW215477   0.616   5.741   2.399
 4860SOL     OW15478   4.676   5.429   0.941
 4860SOL    HW115479   4.757   5.375   0.963
 4860SOL    HW215480   4.695   5.526   0.957
 4861SOL     OW15481   0.459   4.698   6.644
 4861SOL    HW115482   0.378   4.644   6.669
 4861SOL    HW215483   0.541   4.648   6.669
 4862SOL     OW15484   2.668   4.662   5.406
 4862SOL    HW115485   2.685   4.597   5.333
 4862SOL    HW215486   2.571   4.686   5.409
 4863SOL     OW15487   4.369   1.933   2.846
 4863SOL    HW115488   4.394   2.001   2.915
 4863SOL    HW215489   4.364   1.977   2.756
 4864SOL     OW15490   3.170   1.145   1.674
 4864SOL    HW115491   3.252   1.202   1.675
 4864SOL    HW215492   3.102   1.184   1.737
 4865SOL     OW15493   3.832   5.671   5.274
 4865SOL    HW115494   3.831   5.603   5.200
 4865SOL    HW215495   3.885   5.750   5.245
 4866SOL     OW15496   6.282   4.588   1.022
 4866SOL    HW115497   6.251   4.518   0.958
 4866SOL    HW215498   6.317   4.667   0.971
 4867SOL     OW15499   4.943   5.957   2.637
 4867SOL    HW115500   4.945   5.857   2.632
 4867SOL    HW215501   5.014   5.988   2.701
 4868SOL     OW15502   0.485   5.648   1.465
 4868SOL    HW115503   0.424   5.590   1.520
 4868SOL    HW215504   0.432   5.699   1.398
 4869SOL     OW15505   6.767   1.066   0.318
 4869SOL    HW115506   6.783   1.088   0.222
 4869SOL    HW215507   6.823   1.126   0.376
 4870SOL     OW15508   5.660   6.688   2.288
 4870SOL    HW115509   5.611   6.772   2.310
 4870SOL    HW215510   5.706   6.654   2.370
 4871SOL     OW15511   1.294   3.361   4.251
 4871SOL    HW115512   1.227   3.428   4.217
 4871SOL    HW215513   1.313   3.294   4.180
 4872SOL     OW15514   1.128   0.916   2.472
 4872SOL    HW115515   1.090   0.824   2.462
 4872SOL    HW215516   1.197   0.931   2.402
 4873SOL     OW15517   0.110   5.917   5.728
 4873SOL    HW115518   0.105   5.917   5.628
 4873SOL    HW215519   0.168   5.841   5.759
 4874SOL     OW15520   5.199   3.409   3.341
 4874SOL    HW115521   5.209   3.475   3.267
 4874SOL    HW215522   5.183   3.458   3.427
 4875SOL     OW15523   6.096   2.127   0.058
 4875SOL    HW115524   6.096   2.147   0.156
 4875SOL    HW215525   6.044   2.198   0.009
 4876SOL     OW15526   0.315   1.440   6.951
 4876SOL    HW115527   0.367   1.500   7.012
 4876SOL    HW215528   0.218   1.465   6.956
 4877SOL     OW15529   6.345   1.407   1.228
 4877SOL    HW115530   6.444   1.390   1.224
 4877SOL    HW215531   6.321   1.449   1.315
 4878SOL     OW15532   6.960   2.041   2.016
 4878SOL    HW115533   7.006   1.962   1.975
 4878SOL    HW215534   6.879   2.009   2.066
 4879SOL     OW15535   4.419   5.266   3.470
 4879SOL    HW115536   4.438   5.190   3.407
 4879SOL    HW215537   4.491   5.335   3.460
 4880SOL     OW15538   5.742   1.869   5.984
 4880SOL    HW115539   5.645   1.866   5.960
 4880SOL    HW215540   5.757   1.941   6.052
 4881SOL     OW15541   3.488   6.241   6.642
 4881SOL    HW115542   3.571   6.206   6.599
 4881SOL    HW215543   3.508   6.271   6.735
 4882SOL     OW15544   5.589   0.280   5.498
 4882SOL    HW115545   5.518   0.347   5.480
 4882SOL    HW215546   5.573   0.198   5.443
 4883SOL     OW15547   0.263   5.238   1.829
 4883SOL    HW115548   0.309   5.149   1.819
 4883SOL    HW215549   0.251   5.280   1.739
 4884SOL     OW15550   3.289   6.548   1.586
 4884SOL    HW115551   3.317   6.564   1.681
 4884SOL    HW215552   3.231   6.466   1.583
 4885SOL     OW15553   1.805   0.003   1.857
 4885SOL    HW115554   1.901   7.005   1.875
 4885SOL    HW215555   1.792   0.021   1.760
 4886SOL     OW15556   6.383   0.470   6.813
 4886SOL    HW115557   6.292   0.509   6.825
 4886SOL    HW215558   6.440   0.534   6.762
 4887SOL     OW15559   0.466   2.010   3.723
 4887SOL    HW115560   0.461   1.923   3.674
 4887SOL    HW215561   0.393   2.071   3.691
 4888SOL     OW15562   2.990   5.276   2.785
 4888SOL    HW115563   2.907   5.244   2.831
 4888SOL    HW215564   2.974   5.367   2.747
 4889SOL     OW15565   0.976   1.895   0.082
 4889SOL    HW115566   0.990   1.984   0.125
 4889SOL    HW215567   0.914   1.906   0.004
 4890SOL     OW15568   1.256   0.822   4.680
 4890SOL    HW115569   1.221   0.832   4.586
 4890SOL    HW215570   1.260   0.725   4.703
 4891SOL     OW15571   0.901   4.794   0.454
 4891SOL    HW115572   0.827   4.799   0.387
 4891SOL    HW215573   0.962   4.718   0.431
 4892SOL     OW15574   0.969   5.313   0.643
 4892SOL    HW115575   0.889   5.364   0.674
 4892SOL    HW215576   1.011   5.267   0.721
 4893SOL     OW15577   0.608   3.383   6.532
 4893SOL    HW115578   0.670   3.459   6.553
 4893SOL    HW215579   0.590   3.381   6.433
 4894SOL     OW15580   2.530   1.287   3.376
 4894SOL    HW115581   2.605   1.249   3.322
 4894SOL    HW215582   2.560   1.301   3.470
 4895SOL     OW15583   0.892   3.369   0.011
 4895SOL    HW115584   0.955   3.388   0.086
 4895SOL    HW215585   0.854   3.277   0.021
 4896SOL     OW15586   4.043   5.331   4.888
 4896SOL    HW115587   4.112   5.357   4.821
 4896SOL    HW215588   4.022   5.410   4.946
 4897SOL     OW15589   3.693   5.527   6.558
 4897SOL    HW115590   3.645   5.445   6.587
 4897SOL    HW215591   3.744   5.508   6.474
 4898SOL     OW15592   5.443   2.067   5.259
 4898SOL    HW115593   5.367   2.119   5.220
 4898SOL    HW215594   5.442   2.075   5.358
 4899SOL     OW15595   5.818   4.099   4.015
 4899SOL    HW115596   5.728   4.121   3.977
 4899SOL    HW215597   5.879   4.072   3.941
 4900SOL     OW15598   1.002   6.842   5.500
 4900SOL    HW115599   1.089   6.796   5.516
 4900SOL    HW215600   0.929   6.793   5.549
 4901SOL     OW15601   0.469   0.019   3.955
 4901SOL    HW115602   0.444   6.996   4.040
 4901SOL    HW215603   0.430   6.991   3.877
 4902SOL     OW15604   2.289   4.670   1.806
 4902SOL    HW115605   2.344   4.613   1.867
 4902SOL    HW215606   2.193   4.645   1.815
 4903SOL     OW15607   4.780   0.025   6.678
 4903SOL    HW115608   4.776   0.118   6.715
 4903SOL    HW215609   4.755   0.026   6.582
 4904SOL     OW15610   2.711   6.017   4.004
 4904SOL    HW115611   2.772   5.946   4.039
 4904SOL    HW215612   2.618   5.980   3.995
 4905SOL     OW15613   5.220   3.349   2.069
 4905SOL    HW115614   5.132   3.318   2.034
 4905SOL    HW215615   5.285   3.274   2.068
 4906SOL     OW15616   5.099   0.668   0.405
 4906SOL    HW115617   5.176   0.726   0.379
 4906SOL    HW215618   5.019   0.694   0.350
 4907SOL     OW15619   3.406   0.974   3.094
 4907SOL    HW115620   3.441   0.882   3.110
 4907SOL    HW215621   3.307   0.969   3.078
 4908SOL     OW15622   3.337   5.983   6.331
 4908SOL    HW115623   3.345   5.888   6.299
 4908SOL    HW215624   3.338   5.984   6.431
 4909SOL     OW15625   6.820   6.694   5.158
 4909SOL    HW115626   6.784   6.606   5.188
 4909SOL    HW215627   6.889   6.680   5.086
 4910SOL     OW15628   5.703   6.993   4.849
 4910SOL    HW115629   5.650   0.041   4.896
 4910SOL    HW215630   5.798   0.001   4.842
 4911SOL     OW15631   0.071   2.581   6.166
 4911SOL    HW115632   0.101   2.676   6.174
 4911SOL    HW215633   0.094   2.546   6.075
 4912SOL     OW15634   2.552   2.288   2.438
 4912SOL    HW115635   2.458   2.321   2.442
 4912SOL    HW215636   2.593   2.313   2.350
 4913SOL     OW15637   2.972   3.849   3.156
 4913SOL    HW115638   2.889   3.902   3.176
 4913SOL    HW215639   3.050   3.911   3.147
 4914SOL     OW15640   2.386   6.636   3.466
 4914SOL    HW115641   2.318   6.698   3.506
 4914SOL    HW215642   2.476   6.656   3.504
 4915SOL     OW15643   3.355   5.776   3.967
 4915SOL    HW115644   3.318   5.837   3.897
 4915SOL    HW215645   3.408   5.830   4.033
 4916SOL     OW15646   2.335   1.376   2.711
 4916SOL    HW115647   2.275   1.452   2.686
 4916SOL    HW215648   2.288   1.289   2.697
 4917SOL     OW15649   1.905   5.165   0.760
 4917SOL    HW115650   1.942   5.072   0.766
 4917SOL    HW215651   1.941   5.220   0.835
 4918SOL     OW15652   2.340   0.183   2.096
 4918SOL    HW115653   2.427   0.227   2.072
 4918SOL    HW215654   2.351   0.083   2.092
 4919SOL     OW15655   2.417   2.585   1.940
 4919SOL    HW115656   2.393   2.572   2.036
 4919SOL    HW215657   2.480   2.513   1.911
 4920SOL     OW15658   4.329   0.932   0.235
 4920SOL    HW115659   4.335   0.840   0.273
 4920SOL    HW215660   4.419   0.975   0.237
 4921SOL     OW15661   1.205   4.608   1.651
 4921SOL    HW115662   1.131   4.651   1.702
 4921SOL    HW215663   1.173   4.521   1.612
 4922SOL     OW15664   1.421   2.888   5.285
 4922SOL    HW115665   1.459   2.964   5.231
 4922SOL    HW215666   1.496   2.832   5.319
 4923SOL     OW15667   5.149   0.943   1.065
 4923SOL    HW115668   5.114   0.875   1.130
 4923SOL    HW215669   5.153   1.033   1.110
 4924SOL     OW15670   0.600   3.889   4.783
 4924SOL    HW115671   0.547   3.806   4.764
 4924SOL    HW215672   0.648   3.879   4.870
 4925SOL     OW15673   4.596   6.034   6.979
 4925SOL    HW115674   4.575   6.022   0.053
 4925SOL    HW215675   4.685   6.079   6.969
 4926SOL     OW15676   4.744   2.384   1.890
 4926SOL    HW115677   4.779   2.386   1.797
 4926SOL    HW215678   4.722   2.477   1.919
 4927SOL     OW15679   3.403   3.010   3.377
 4927SOL    HW115680   3.318   2.962   3.399
 4927SOL    HW215681   3.412   3.017   3.278
 4928SOL     OW15682   0.570   5.844   6.745
 4928SOL    HW115683   0.652   5.874   6.793
 4928SOL    HW215684   0.518   5.781   6.804
 4929SOL     OW15685   0.805   5.228   4.122
 4929SOL    HW115686   0.751   5.146   4.142
 4929SOL    HW215687   0.846   5.220   4.031
 4930SOL     OW15688   0.420   2.280   0.820
 4930SOL    HW115689   0.469   2.208   0.869
 4930SOL    HW215690   0.431   2.268   0.722
 4931SOL     OW15691   6.930   0.677   0.404
 4931SOL    HW115692   7.016   0.641   0.370
 4931SOL    HW215693   6.888   0.736   0.335
 4932SOL     OW15694   2.753   2.126   1.559
 4932SOL    HW115695   2.680   2.187   1.591
 4932SOL    HW215696   2.834   2.137   1.617
 4933SOL     OW15697   2.877   0.868   4.314
 4933SOL    HW115698   2.835   0.785   4.276
 4933SOL    HW215699   2.958   0.891   4.261
 4934SOL     OW15700   1.202   5.991   4.393
 4934SOL    HW115701   1.154   6.024   4.312
 4934SOL    HW215702   1.279   6.052   4.413
 4935SOL     OW15703   1.522   1.191   0.672
 4935SOL    HW115704   1.576   1.171   0.754
 4935SOL    HW215705   1.521   1.289   0.656
 4936SOL     OW15706   3.958   5.447   0.777
 4936SOL    HW115707   3.994   5.526   0.726
 4936SOL    HW215708   3.858   5.454   0.782
 4937SOL     OW15709   0.631   2.844   6.178
 4937SOL    HW115710   0.667   2.773   6.118
 4937SOL    HW215711   0.704   2.880   6.236
 4938SOL     OW15712   3.393   4.794   1.371
 4938SOL    HW115713   3.297   4.808   1.393
 4938SOL    HW215714   3.443   4.770   1.455
 4939SOL     OW15715   1.958   1.644   1.901
 4939SOL    HW115716   1.983   1.549   1.887
 4939SOL    HW215717   1.862   1.657   1.874
 4940SOL     OW15718   0.199   2.336   4.981
 4940SOL    HW115719   0.264   2.384   5.041
 4940SOL    HW215720   0.142   2.404   4.935
 4941SOL     OW15721   3.852   2.217   5.311
 4941SOL    HW115722   3.927   2.282   5.321
 4941SOL    HW215723   3.860   2.170   5.222
 4942SOL     OW15724   6.222   1.839   4.049
 4942SOL    HW115725   6.192   1.743   4.043
 4942SOL    HW215726   6.242   1.874   3.957
 4943SOL     OW15727   5.847   2.825   6.510
 4943SOL    HW115728   5.903   2.873   6.578
 4943SOL    HW215729   5.764   2.790   6.553
 4944SOL     OW15730   1.518   5.224   1.078
 4944SOL    HW115731   1.462   5.211   0.996
 4944SOL    HW215732   1.460   5.214   1.159
 4945SOL     OW15733   1.840   1.024   5.110
 4945SOL    HW115734   1.807   1.005   5.017
 4945SOL    HW215735   1.824   1.120   5.131
 4946SOL     OW15736   2.017   5.335   6.920
 4946SOL    HW115737   2.031   5.403   6.993
 4946SOL    HW215738   2.063   5.250   6.945
 4947SOL     OW15739   1.642   0.883   1.739
 4947SOL    HW115740   1.666   0.952   1.671
 4947SOL    HW215741   1.708   0.808   1.734
 4948SOL     OW15742   1.412   2.427   1.890
 4948SOL    HW115743   1.348   2.481   1.834
 4948SOL    HW215744   1.361   2.358   1.942
 4949SOL     OW15745   7.016   4.026   0.402
 4949SOL    HW115746   0.070   4.054   0.344
 4949SOL    HW215747   6.939   4.087   0.388
 4950SOL     OW15748   2.136   4.016   5.247
 4950SOL    HW115749   2.122   4.109   5.281
 4950SOL    HW215750   2.221   4.013   5.194
 4951SOL     OW15751   4.787   5.486   3.557
 4951SOL    HW115752   4.770   5.401   3.508
 4951SOL    HW215753   4.877   5.522   3.532
 4952SOL     OW15754   0.679   6.723   5.966
 4952SOL    HW115755   0.628   6.810   5.968
 4952SOL    HW215756   0.626   6.653   6.015
 4953SOL     OW15757   0.770   2.388   4.634
 4953SOL    HW115758   0.830   2.387   4.713
 4953SOL    HW215759   0.684   2.342   4.657
 4954SOL     OW15760   3.055   4.075   4.989
 4954SOL    HW115761   3.070   4.149   5.054
 4954SOL    HW215762   3.140   4.023   4.978
 4955SOL     OW15763   3.196   5.589   0.066
 4955SOL    HW115764   3.245   5.508   0.099
 4955SOL    HW215765   3.231   5.670   0.112
 4956SOL     OW15766   2.413   6.827   4.911
 4956SOL    HW115767   2.422   6.920   4.948
 4956SOL    HW215768   2.340   6.779   4.959
 4957SOL     OW15769   6.025   4.615   0.340
 4957SOL    HW115770   6.015   4.592   0.437
 4957SOL    HW215771   5.941   4.592   0.291
 4958SOL     OW15772   3.073   6.378   0.193
 4958SOL    HW115773   2.982   6.339   0.201
 4958SOL    HW215774   3.089   6.406   0.098
 4959SOL     OW15775   0.806   3.238   2.469
 4959SOL    HW115776   0.823   3.191   2.556
 4959SOL    HW215777   0.861   3.196   2.397
 4960SOL     OW15778   4.012   5.821   4.163
 4960SOL    HW115779   4.054   5.902   4.201
 4960SOL    HW215780   4.082   5.755   4.136
 4961SOL     OW15781   3.916   1.197   0.491
 4961SOL    HW115782   3.998   1.182   0.546
 4961SOL    HW215783   3.835   1.173   0.544
 4962SOL     OW15784   0.962   4.385   1.026
 4962SOL    HW115785   0.895   4.448   1.066
 4962SOL    HW215786   1.030   4.437   0.974
 4963SOL     OW15787   0.964   3.893   5.906
 4963SOL    HW115788   1.047   3.947   5.918
 4963SOL    HW215789   0.903   3.909   5.984
 4964SOL     OW15790   2.710   6.940   4.610
 4964SOL    HW115791   2.640   6.886   4.656
 4964SOL    HW215792   2.717   0.007   4.653
 4965SOL     OW15793   1.327   6.130   2.730
 4965SOL    HW115794   1.374   6.060   2.675
 4965SOL    HW215795   1.271   6.085   2.800
 4966SOL     OW15796   3.650   6.167   4.493
 4966SOL    HW115797   3.600   6.178   4.579
 4966SOL    HW215798   3.585   6.152   4.418
 4967SOL     OW15799   4.247   4.755   4.908
 4967SOL    HW115800   4.282   4.833   4.959
 4967SOL    HW215801   4.303   4.674   4.929
 4968SOL     OW15802   6.861   1.759   3.284
 4968SOL    HW115803   6.885   1.662   3.288
 4968SOL    HW215804   6.855   1.796   3.376
 4969SOL     OW15805   0.699   5.996   2.993
 4969SOL    HW115806   0.641   5.918   2.967
 4969SOL    HW215807   0.668   6.032   3.081
 4970SOL     OW15808   1.446   1.579   1.750
 4970SOL    HW115809   1.441   1.660   1.691
 4970SOL    HW215810   1.430   1.497   1.697
 4971SOL     OW15811   6.836   6.401   3.028
 4971SOL    HW115812   6.864   6.409   2.932
 4971SOL    HW215813   6.841   6.491   3.071
 4972SOL     OW15814   1.576   4.368   1.482
 4972SOL    HW115815   1.568   4.385   1.384
 4972SOL    HW215816   1.492   4.326   1.515
 4973SOL     OW15817   6.631   0.556   1.022
 4973SOL    HW115818   6.687   0.544   0.940
 4973SOL    HW215819   6.670   0.627   1.080
 4974SOL     OW15820   3.618   5.117   5.160
 4974SOL    HW115821   3.590   5.067   5.078
 4974SOL    HW215822   3.715   5.101   5.177
 4975SOL     OW15823   6.061   3.671   0.588
 4975SOL    HW115824   6.007   3.587   0.590
 4975SOL    HW215825   6.141   3.661   0.647
 4976SOL     OW15826   1.538   6.865   4.546
 4976SOL    HW115827   1.461   6.930   4.545
 4976SOL    HW215828   1.614   6.904   4.495
 4977SOL     OW15829   2.627   4.890   6.327
 4977SOL    HW115830   2.634   4.841   6.414
 4977SOL    HW215831   2.581   4.978   6.342
 4978SOL     OW15832   5.072   4.768   4.949
 4978SOL    HW115833   5.059   4.747   4.852
 4978SOL    HW215834   5.169   4.780   4.968
 4979SOL     OW15835   1.825   6.765   6.378
 4979SOL    HW115836   1.822   6.753   6.279
 4979SOL    HW215837   1.803   6.678   6.423
 4980SOL     OW15838   6.091   4.121   2.828
 4980SOL    HW115839   6.087   4.028   2.863
 4980SOL    HW215840   6.181   4.137   2.786
 4981SOL     OW15841   3.562   4.918   1.738
 4981SOL    HW115842   3.640   4.919   1.675
 4981SOL    HW215843   3.568   4.837   1.796
 4982SOL     OW15844   4.654   1.367   6.620
 4982SOL    HW115845   4.751   1.352   6.598
 4982SOL    HW215846   4.604   1.386   6.536
 4983SOL     OW15847   7.018   5.255   3.040
 4983SOL    HW115848   0.004   5.323   2.967
 4983SOL    HW215849   0.086   5.220   3.063
 4984SOL     OW15850   5.441   4.373   2.855
 4984SOL    HW115851   5.355   4.419   2.878
 4984SOL    HW215852   5.424   4.299   2.790
 4985SOL     OW15853   5.923   5.836   3.038
 4985SOL    HW115854   5.832   5.814   3.002
 4985SOL    HW215855   5.913   5.886   3.124
 4986SOL     OW15856   1.159   4.943   2.524
 4986SOL    HW115857   1.246   4.976   2.561
 4986SOL    HW215858   1.163   4.844   2.512
 4987SOL     OW15859   0.511   0.828   2.091
 4987SOL    HW115860   0.517   0.890   2.013
 4987SOL    HW215861   0.483   0.737   2.058
 4988SOL     OW15862   5.942   0.253   3.456
 4988SOL    HW115863   5.962   0.205   3.542
 4988SOL    HW215864   5.939   0.187   3.381
 4989SOL     OW15865   4.189   1.222   2.823
 4989SOL    HW115866   4.265   1.160   2.804
 4989SOL    HW215867   4.104   1.170   2.832
 4990SOL     OW15868   4.361   1.748   5.393
 4990SOL    HW115869   4.410   1.719   5.476
 4990SOL    HW215870   4.333   1.844   5.402
 4991SOL     OW15871   1.035   5.273   4.868
 4991SOL    HW115872   1.099   5.350   4.866
 4991SOL    HW215873   0.951   5.301   4.914
 4992SOL     OW15874   7.010   1.464   3.593
 4992SOL    HW115875   0.041   1.426   3.518
 4992SOL    HW215876   7.016   1.403   3.672
 4993SOL     OW15877   4.092   6.754   4.567
 4993SOL    HW115878   4.163   6.810   4.610
 4993SOL    HW215879   4.019   6.737   4.633
 4994SOL     OW15880   3.296   4.996   5.867
 4994SOL    HW115881   3.244   5.032   5.945
 4994SOL    HW215882   3.238   4.996   5.785
 4995SOL     OW15883   0.880   0.328   5.346
 4995SOL    HW115884   0.933   0.245   5.330
 4995SOL    HW215885   0.806   0.335   5.279
 4996SOL     OW15886   6.828   1.094   4.552
 4996SOL    HW115887   6.761   1.118   4.622
 4996SOL    HW215888   6.862   1.178   4.509
 4997SOL     OW15889   3.496   2.151   1.527
 4997SOL    HW115890   3.410   2.191   1.495
 4997SOL    HW215891   3.572   2.197   1.482
 4998SOL     OW15892   1.141   3.472   4.007
 4998SOL    HW115893   1.163   3.570   4.004
 4998SOL    HW215894   1.045   3.461   4.031
 4999SOL     OW15895   0.439   3.648   4.769
 4999SOL    HW115896   0.442   3.556   4.730
 4999SOL    HW215897   0.403   3.644   4.862
 5000SOL     OW15898   3.149   5.441   3.657
 5000SOL    HW115899   3.057   5.411   3.633
 5000SOL    HW215900   3.148   5.485   3.746
 5001SOL     OW15901   0.993   4.940   2.786
 5001SOL    HW115902   1.056   4.938   2.708
 5001SOL    HW215903   1.001   5.029   2.832
 5002SOL     OW15904   0.738   3.602   3.089
 5002SOL    HW115905   0.742   3.520   3.147
 5002SOL    HW215906   0.662   3.593   3.025
 5003SOL     OW15907   4.298   6.635   3.729
 5003SOL    HW115908   4.267   6.713   3.676
 5003SOL    HW215909   4.219   6.593   3.774
 5004SOL     OW15910   2.537   5.862   6.309
 5004SOL    HW115911   2.631   5.897   6.317
 5004SOL    HW215912   2.505   5.833   6.399
 5005SOL     OW15913   2.919   2.896   6.260
 5005SOL    HW115914   3.017   2.880   6.249
 5005SOL    HW215915   2.889   2.863   6.350
 5006SOL     OW15916   5.548   1.820   1.987
 5006SOL    HW115917   5.536   1.750   2.058
 5006SOL    HW215918   5.559   1.910   2.030
 5007SOL     OW15919   6.042   0.043   1.924
 5007SOL    HW115920   6.129   0.059   1.879
 5007SOL    HW215921   5.967   0.056   1.859
 5008SOL     OW15922   6.120   6.499   1.574
 5008SOL    HW115923   6.094   6.444   1.654
 5008SOL    HW215924   6.039   6.544   1.537
 5009SOL     OW15925   1.019   2.441   0.269
 5009SOL    HW115926   1.019   2.535   0.235
 5009SOL    HW215927   0.966   2.437   0.354
 5010SOL     OW15928   3.797   3.019   0.356
 5010SOL    HW115929   3.719   2.977   0.403
 5010SOL    HW215930   3.880   3.006   0.411
 5011SOL     OW15931   2.212   4.002   6.744
 5011SOL    HW115932   2.139   4.055   6.789
 5011SOL    HW215933   2.243   3.929   6.806
 5012SOL     OW15934   5.827   1.626   5.129
 5012SOL    HW115935   5.842   1.710   5.182
 5012SOL    HW215936   5.839   1.546   5.188
 5013SOL     OW15937   5.818   0.125   5.873
 5013SOL    HW115938   5.770   0.206   5.839
 5013SOL    HW215939   5.760   0.045   5.865
 5014SOL     OW15940   6.337   3.420   1.671
 5014SOL    HW115941   6.427   3.440   1.634
 5014SOL    HW215942   6.306   3.331   1.637
 5015SOL     OW15943   5.437   6.830   3.835
 5015SOL    HW115944   5.418   6.748   3.890
 5015SOL    HW215945   5.532   6.858   3.849
 5016SOL     OW15946   1.558   3.371   4.983
 5016SOL    HW115947   1.628   3.387   4.913
 5016SOL    HW215948   1.509   3.286   4.961
 5017SOL     OW15949   0.553   2.442   1.380
 5017SOL    HW115950   0.483   2.453   1.450
 5017SOL    HW215951   0.565   2.528   1.332
 5018SOL     OW15952   0.662   5.991   1.498
 5018SOL    HW115953   0.575   6.038   1.482
 5018SOL    HW215954   0.661   5.902   1.452
 5019SOL     OW15955   1.297   5.231   5.157
 5019SOL    HW115956   1.348   5.177   5.224
 5019SOL    HW215957   1.207   5.254   5.195
 5020SOL     OW15958   0.575   6.768   4.587
 5020SOL    HW115959   0.611   6.745   4.497
 5020SOL    HW215960   0.498   6.831   4.577
 5021SOL     OW15961   1.974   0.942   0.908
 5021SOL    HW115962   1.933   1.020   0.955
 5021SOL    HW215963   1.903   0.876   0.882
 5022SOL     OW15964   0.380   2.994   1.358
 5022SOL    HW115965   0.451   3.060   1.333
 5022SOL    HW215966   0.313   3.039   1.418
 5023SOL     OW15967   0.819   4.434   2.243
 5023SOL    HW115968   0.877   4.353   2.236
 5023SOL    HW215969   0.764   4.443   2.161
 5024SOL     OW15970   5.226   3.926   1.422
 5024SOL    HW115971   5.242   3.851   1.358
 5024SOL    HW215972   5.134   3.962   1.408
 5025SOL     OW15973   3.970   1.347   3.429
 5025SOL    HW115974   4.034   1.401   3.484
 5025SOL    HW215975   3.946   1.263   3.477
 5026SOL     OW15976   5.875   6.107   5.379
 5026SOL    HW115977   5.956   6.159   5.404
 5026SOL    HW215978   5.828   6.076   5.461
 5027SOL     OW15979   5.586   0.518   6.866
 5027SOL    HW115980   5.515   0.491   6.930
 5027SOL    HW215981   5.662   0.560   6.916
 5028SOL     OW15982   6.873   2.581   2.829
 5028SOL    HW115983   6.890   2.492   2.787
 5028SOL    HW215984   6.949   2.643   2.808
 5029SOL     OW15985   6.399   2.284   2.346
 5029SOL    HW115986   6.391   2.382   2.366
 5029SOL    HW215987   6.490   2.265   2.309
 5030SOL     OW15988   6.996   5.347   6.751
 5030SOL    HW115989   6.946   5.274   6.798
 5030SOL    HW215990   0.069   5.347   6.783
 5031SOL     OW15991   6.841   0.371   5.599
 5031SOL    HW115992   6.823   0.392   5.503
 5031SOL    HW215993   6.754   0.370   5.649
 5032SOL     OW15994   3.668   2.802   5.260
 5032SOL    HW115995   3.568   2.806   5.260
 5032SOL    HW215996   3.703   2.863   5.189
 5033SOL     OW15997   2.158   1.297   0.767
 5033SOL    HW115998   2.096   1.289   0.689
 5033SOL    HW215999   2.203   1.209   0.783
 5034SOL     OW16000   4.783   6.094   3.951
 5034SOL    HW116001   4.784   6.178   4.005
 5034SOL    HW216002   4.719   6.029   3.991
 5035SOL     OW16003   0.610   4.259   4.539
 5035SOL    HW116004   0.665   4.233   4.618
 5035SOL    HW216005   0.513   4.260   4.564
 5036SOL     OW16006   6.636   3.418   5.262
 5036SOL    HW116007   6.707   3.476   5.222
 5036SOL    HW216008   6.552   3.471   5.274
 5037SOL     OW16009   4.495   4.442   1.168
 5037SOL    HW116010   4.424   4.384   1.208
 5037SOL    HW216011   4.455   4.497   1.094
 5038SOL     OW16012   3.307   3.437   3.935
 5038SOL    HW116013   3.387   3.478   3.979
 5038SOL    HW216014   3.326   3.342   3.912
 5039SOL     OW16015   2.034   2.984   6.311
 5039SOL    HW116016   2.004   2.906   6.256
 5039SOL    HW216017   2.079   2.951   6.394
 5040SOL     OW16018   1.235   5.295   5.792
 5040SOL    HW116019   1.306   5.360   5.820
 5040SOL    HW216020   1.147   5.322   5.831
 5041SOL     OW16021   0.299   3.373   2.044
 5041SOL    HW116022   0.305   3.458   1.990
 5041SOL    HW216023   0.206   3.339   2.042
 5042SOL     OW16024   0.045   3.300   5.966
 5042SOL    HW116025   0.024   3.318   5.869
 5042SOL    HW216026   0.125   3.240   5.972
 5043SOL     OW16027   4.175   0.758   0.549
 5043SOL    HW116028   4.133   0.797   0.630
 5043SOL    HW216029   4.157   0.816   0.470
 5044SOL     OW16030   6.906   5.407   0.473
 5044SOL    HW116031   6.879   5.397   0.569
 5044SOL    HW216032   6.998   5.370   0.460
 5045SOL     OW16033   5.988   4.032   6.514
 5045SOL    HW116034   5.979   4.123   6.555
 5045SOL    HW216035   5.963   4.036   6.417
 5046SOL     OW16036   3.363   3.224   3.832
 5046SOL    HW116037   3.347   3.212   3.734
 5046SOL    HW216038   3.411   3.143   3.867
 5047SOL     OW16039   1.842   3.523   3.051
 5047SOL    HW116040   1.819   3.620   3.043
 5047SOL    HW216041   1.796   3.472   2.979
 5048SOL     OW16042   1.395   1.434   5.840
 5048SOL    HW116043   1.378   1.473   5.749
 5048SOL    HW216044   1.485   1.390   5.841
 5049SOL     OW16045   6.402   0.755   6.014
 5049SOL    HW116046   6.310   0.791   5.999
 5049SOL    HW216047   6.406   0.660   5.985
 5050SOL     OW16048   1.650   1.018   0.508
 5050SOL    HW116049   1.694   1.041   0.421
 5050SOL    HW216050   1.625   1.103   0.555
 5051SOL     OW16051   3.729   4.594   1.422
 5051SOL    HW116052   3.653   4.566   1.480
 5051SOL    HW216053   3.813   4.548   1.452
 5052SOL     OW16054   3.213   1.837   5.468
 5052SOL    HW116055   3.261   1.749   5.471
 5052SOL    HW216056   3.146   1.841   5.542
 5053SOL     OW16057   0.532   5.232   2.591
 5053SOL    HW116058   0.535   5.254   2.493
 5053SOL    HW216059   0.540   5.316   2.644
 5054SOL     OW16060   4.002   4.708   5.240
 5054SOL    HW116061   4.034   4.760   5.161
 5054SOL    HW216062   3.906   4.684   5.228
 5055SOL     OW16063   6.486   3.284   6.174
 5055SOL    HW116064   6.389   3.264   6.191
 5055SOL    HW216065   6.494   3.349   6.098
 5056SOL     OW16066   4.922   3.709   5.267
 5056SOL    HW116067   4.883   3.679   5.181
 5056SOL    HW216068   5.000   3.652   5.291
 5057SOL     OW16069   1.154   6.741   2.384
 5057SOL    HW116070   1.058   6.734   2.409
 5057SOL    HW216071   1.164   6.740   2.285
 5058SOL     OW16072   2.884   4.850   6.699
 5058SOL    HW116073   2.796   4.804   6.683
 5058SOL    HW216074   2.918   4.887   6.612
 5059SOL     OW16075   0.724   0.601   2.811
 5059SOL    HW116076   0.737   0.502   2.816
 5059SOL    HW216077   0.696   0.626   2.718
 5060SOL     OW16078   6.343   1.685   6.513
 5060SOL    HW116079   6.319   1.782   6.505
 5060SOL    HW216080   6.413   1.675   6.584
 5061SOL     OW16081   4.765   3.215   0.359
 5061SOL    HW116082   4.746   3.124   0.323
 5061SOL    HW216083   4.718   3.227   0.447
 5062SOL     OW16084   0.542   0.052   1.367
 5062SOL    HW116085   0.486   0.129   1.336
 5062SOL    HW216086   0.546   0.052   1.467
 5063SOL     OW16087   0.943   6.937   2.064
 5063SOL    HW116088   0.859   6.900   2.025
 5063SOL    HW216089   0.922   6.984   2.150
 5064SOL     OW16090   4.446   3.257   0.496
 5064SOL    HW116091   4.433   3.356   0.510
 5064SOL    HW216092   4.512   3.223   0.563
 5065SOL     OW16093   2.510   6.691   5.508
 5065SOL    HW116094   2.562   6.631   5.447
 5065SOL    HW216095   2.443   6.743   5.454
 5066SOL     OW16096   5.828   4.671   1.566
 5066SOL    HW116097   5.742   4.632   1.531
 5066SOL    HW216098   5.900   4.602   1.561
 5067SOL     OW16099   5.193   0.996   0.589
 5067SOL    HW116100   5.249   1.032   0.665
 5067SOL    HW216101   5.113   0.948   0.627
 5068SOL     OW16102   3.117   4.545   0.346
 5068SOL    HW116103   3.109   4.522   0.443
 5068SOL    HW216104   3.094   4.464   0.291
 5069SOL     OW16105   0.587   4.649   2.913
 5069SOL    HW116106   0.591   4.559   2.956
 5069SOL    HW216107   0.663   4.659   2.848
 5070SOL     OW16108   5.037   3.084   4.206
 5070SOL    HW116109   5.036   3.154   4.277
 5070SOL    HW216110   5.128   3.080   4.164
 5071SOL     OW16111   4.457   1.995   5.828
 5071SOL    HW116112   4.501   2.061   5.889
 5071SOL    HW216113   4.379   2.038   5.783
 5072SOL     OW16114   0.308   4.518   0.951
 5072SOL    HW116115   0.346   4.562   1.032
 5072SOL    HW216116   0.341   4.564   0.868
 5073SOL     OW16117   6.000   6.749   2.190
 5073SOL    HW116118   6.033   6.826   2.244
 5073SOL    HW216119   6.049   6.746   2.103
 5074SOL     OW16120   2.808   4.134   6.533
 5074SOL    HW116121   2.880   4.189   6.491
 5074SOL    HW216122   2.787   4.055   6.475
 5075SOL     OW16123   0.583   5.382   5.091
 5075SOL    HW116124   0.645   5.343   5.023
 5075SOL    HW216125   0.611   5.476   5.111
 5076SOL     OW16126   3.223   0.858   0.651
 5076SOL    HW116127   3.249   0.776   0.702
 5076SOL    HW216128   3.263   0.939   0.694
 5077SOL     OW16129   1.488   3.008   3.582
 5077SOL    HW116130   1.393   2.984   3.566
 5077SOL    HW216131   1.495   3.106   3.604
 5078SOL     OW16132   1.549   2.082   4.617
 5078SOL    HW116133   1.516   2.149   4.684
 5078SOL    HW216134   1.614   2.127   4.555
 5079SOL     OW16135   3.534   5.107   5.431
 5079SOL    HW116136   3.568   5.090   5.338
 5079SOL    HW216137   3.516   5.204   5.443
 5080SOL     OW16138   5.609   6.350   5.518
 5080SOL    HW116139   5.518   6.321   5.488
 5080SOL    HW216140   5.673   6.345   5.442
 5081SOL     OW16141   3.332   3.608   3.035
 5081SOL    HW116142   3.318   3.646   2.943
 5081SOL    HW216143   3.401   3.662   3.083
 5082SOL     OW16144   5.424   5.846   5.844
 5082SOL    HW116145   5.434   5.927   5.901
 5082SOL    HW216146   5.503   5.837   5.784
 5083SOL     OW16147   1.551   6.655   1.957
 5083SOL    HW116148   1.484   6.582   1.976
 5083SOL    HW216149   1.636   6.635   2.004
 5084SOL     OW16150   1.195   5.741   3.889
 5084SOL    HW116151   1.197   5.646   3.920
 5084SOL    HW216152   1.227   5.800   3.963
 5085SOL     OW16153   5.792   1.617   6.635
 5085SOL    HW116154   5.879   1.648   6.598
 5085SOL    HW216155   5.723   1.688   6.620
 5086SOL     OW16156   6.508   4.600   4.115
 5086SOL    HW116157   6.543   4.653   4.192
 5086SOL    HW216158   6.462   4.661   4.050
 5087SOL     OW16159   6.502   5.864   5.028
 5087SOL    HW116160   6.580   5.811   4.994
 5087SOL    HW216161   6.508   5.957   4.994
 5088SOL     OW16162   6.186   0.538   5.674
 5088SOL    HW116163   6.176   0.481   5.592
 5088SOL    HW216164   6.135   0.497   5.749
 5089SOL     OW16165   5.691   3.409   3.055
 5089SOL    HW116166   5.669   3.323   3.008
 5089SOL    HW216167   5.608   3.445   3.098
 5090SOL     OW16168   1.605   4.945   1.572
 5090SOL    HW116169   1.654   4.907   1.650
 5090SOL    HW216170   1.570   4.870   1.515
 5091SOL     OW16171   0.877   6.125   2.361
 5091SOL    HW116172   0.843   6.080   2.278
 5091SOL    HW216173   0.977   6.127   2.359
 5092SOL     OW16174   3.394   1.996   0.733
 5092SOL    HW116175   3.437   1.924   0.678
 5092SOL    HW216176   3.426   2.085   0.701
 5093SOL     OW16177   1.644   1.614   1.974
 5093SOL    HW116178   1.586   1.636   1.895
 5093SOL    HW216179   1.592   1.630   2.058
 5094SOL     OW16180   0.682   6.300   5.057
 5094SOL    HW116181   0.684   6.353   5.142
 5094SOL    HW216182   0.764   6.318   5.004
 5095SOL     OW16183   2.350   0.261   5.319
 5095SOL    HW116184   2.356   0.360   5.331
 5095SOL    HW216185   2.441   0.221   5.322
 5096SOL     OW16186   5.147   3.734   1.056
 5096SOL    HW116187   5.055   3.747   1.017
 5096SOL    HW216188   5.215   3.772   0.993
 5097SOL     OW16189   1.932   6.610   5.814
 5097SOL    HW116190   1.841   6.580   5.785
 5097SOL    HW216191   1.945   6.588   5.911
 5098SOL     OW16192   0.395   1.388   2.707
 5098SOL    HW116193   0.296   1.375   2.703
 5098SOL    HW216194   0.415   1.467   2.764
 5099SOL     OW16195   1.575   0.173   5.101
 5099SOL    HW116196   1.482   0.211   5.098
 5099SOL    HW216197   1.603   0.149   5.008
 5100SOL     OW16198   5.846   5.947   0.365
 5100SOL    HW116199   5.786   6.016   0.327
 5100SOL    HW216200   5.914   5.991   0.425
 5101SOL     OW16201   4.178   6.234   6.831
 5101SOL    HW116202   4.257   6.255   6.889
 5101SOL    HW216203   4.198   6.265   6.737
 5102SOL     OW16204   4.137   6.794   4.932
 5102SOL    HW116205   4.060   6.858   4.923
 5102SOL    HW216206   4.198   6.804   4.854
 5103SOL     OW16207   0.002   0.446   3.880
 5103SOL    HW116208   0.046   0.524   3.836
 5103SOL    HW216209   0.047   0.362   3.851
 5104SOL     OW16210   1.427   0.692   2.136
 5104SOL    HW116211   1.407   0.750   2.057
 5104SOL    HW216212   1.483   0.744   2.201
 5105SOL     OW16213   3.459   3.767   6.254
 5105SOL    HW116214   3.504   3.856   6.262
 5105SOL    HW216215   3.378   3.777   6.195
 5106SOL     OW16216   3.287   0.289   2.307
 5106SOL    HW116217   3.346   0.351   2.255
 5106SOL    HW216218   3.313   0.290   2.404
 5107SOL     OW16219   2.481   0.204   6.288
 5107SOL    HW116220   2.564   0.244   6.247
 5107SOL    HW216221   2.401   0.234   6.236
 5108SOL     OW16222   2.942   3.630   4.115
 5108SOL    HW116223   2.913   3.713   4.068
 5108SOL    HW216224   2.932   3.643   4.214
 5109SOL     OW16225   0.139   0.997   1.354
 5109SOL    HW116226   0.188   0.912   1.333
 5109SOL    HW216227   0.169   1.070   1.293
 5110SOL     OW16228   2.009   5.647   5.662
 5110SOL    HW116229   1.946   5.649   5.739
 5110SOL    HW216230   2.010   5.555   5.622
 5111SOL     OW16231   1.673   1.140   7.016
 5111SOL    HW116232   1.665   1.198   6.936
 5111SOL    HW216233   1.601   1.070   7.013
 5112SOL     OW16234   0.596   6.084   3.657
 5112SOL    HW116235   0.570   6.084   3.754
 5112SOL    HW216236   0.524   6.039   3.604
 5113SOL     OW16237   1.428   0.637   0.256
 5113SOL    HW116238   1.511   0.604   0.302
 5113SOL    HW216239   1.446   0.647   0.159
 5114SOL     OW16240   3.565   4.930   6.853
 5114SOL    HW116241   3.498   4.859   6.835
 5114SOL    HW216242   3.521   5.007   6.899
 5115SOL     OW16243   1.862   3.625   5.420
 5115SOL    HW116244   1.768   3.601   5.442
 5115SOL    HW216245   1.924   3.568   5.474
 5116SOL     OW16246   6.219   4.941   0.031
 5116SOL    HW116247   6.315   4.921   0.011
 5116SOL    HW216248   6.173   4.857   0.061
 5117SOL     OW16249   2.408   4.368   4.764
 5117SOL    HW116250   2.319   4.409   4.780
 5117SOL    HW216251   2.428   4.300   4.834
 5118SOL     OW16252   4.490   6.095   0.221
 5118SOL    HW116253   4.441   6.167   0.271
 5118SOL    HW216254   4.459   6.005   0.253
 5119SOL     OW16255   5.970   0.780   2.037
 5119SOL    HW116256   5.933   0.714   2.102
 5119SOL    HW216257   5.923   0.771   1.949
 5120SOL     OW16258   5.144   1.659   2.710
 5120SOL    HW116259   5.115   1.695   2.621
 5120SOL    HW216260   5.217   1.593   2.697
 5121SOL     OW16261   6.932   3.204   5.308
 5121SOL    HW116262   6.888   3.252   5.384
 5121SOL    HW216263   6.969   3.117   5.340
 5122SOL     OW16264   2.196   6.816   3.571
 5122SOL    HW116265   2.133   6.740   3.556
 5122SOL    HW216266   2.155   6.900   3.537
 5123SOL     OW16267   4.762   4.020   2.672
 5123SOL    HW116268   4.785   4.036   2.768
 5123SOL    HW216269   4.664   4.033   2.658
 5124SOL     OW16270   2.994   6.185   6.433
 5124SOL    HW116271   3.025   6.149   6.345
 5124SOL    HW216272   3.072   6.193   6.495
 5125SOL     OW16273   0.054   2.735   4.471
 5125SOL    HW116274   7.005   2.669   4.448
 5125SOL    HW216275   0.144   2.691   4.467
 5126SOL     OW16276   6.142   4.768   6.289
 5126SOL    HW116277   6.234   4.761   6.251
 5126SOL    HW216278   6.074   4.762   6.215
 5127SOL     OW16279   5.854   3.173   6.642
 5127SOL    HW116280   5.886   3.260   6.680
 5127SOL    HW216281   5.923   3.103   6.658
 5128SOL     OW16282   6.952   0.611   6.771
 5128SOL    HW116283   6.867   0.657   6.799
 5128SOL    HW216284   6.941   0.512   6.782
 5129SOL     OW16285   4.789   1.711   2.201
 5129SOL    HW116286   4.698   1.749   2.215
 5129SOL    HW216287   4.817   1.659   2.282
 5130SOL     OW16288   1.235   5.473   3.928
 5130SOL    HW116289   1.214   5.462   3.831
 5130SOL    HW216290   1.245   5.383   3.971
 5131SOL     OW16291   3.318   5.061   3.134
 5131SOL    HW116292   3.314   4.986   3.067
 5131SOL    HW216293   3.321   5.148   3.085
 5132SOL     OW16294   4.057   1.586   6.882
 5132SOL    HW116295   3.988   1.653   6.907
 5132SOL    HW216296   4.059   1.512   6.949
 5133SOL     OW16297   4.000   4.497   6.727
 5133SOL    HW116298   3.939   4.562   6.682
 5133SOL    HW216299   4.094   4.531   6.724
 5134SOL     OW16300   6.714   6.174   1.687
 5134SOL    HW116301   6.705   6.271   1.710
 5134SOL    HW216302   6.784   6.162   1.617
 5135SOL     OW16303   6.125   3.082   1.847
 5135SOL    HW116304   6.190   3.086   1.772
 5135SOL    HW216305   6.140   2.999   1.900
 5136SOL     OW16306   0.457   0.686   6.117
 5136SOL    HW116307   0.486   0.722   6.028
 5136SOL    HW216308   0.438   0.588   6.109
 5137SOL     OW16309   5.251   1.001   4.888
 5137SOL    HW116310   5.229   0.934   4.959
 5137SOL    HW216311   5.336   0.974   4.842
 5138SOL     OW16312   3.441   2.959   3.971
 5138SOL    HW116313   3.391   2.945   4.056
 5138SOL    HW216314   3.518   3.020   3.987
 5139SOL     OW16315   2.088   0.107   4.723
 5139SOL    HW116316   2.062   0.139   4.632
 5139SOL    HW216317   2.170   0.050   4.716
 5140SOL     OW16318   4.495   2.187   6.570
 5140SOL    HW116319   4.523   2.096   6.539
 5140SOL    HW216320   4.407   2.211   6.530
 5141SOL     OW16321   6.093   3.228   2.302
 5141SOL    HW116322   6.079   3.134   2.272
 5141SOL    HW216323   6.158   3.274   2.240
 5142SOL     OW16324   0.274   0.194   2.467
 5142SOL    HW116325   0.328   0.275   2.491
 5142SOL    HW216326   0.333   0.113   2.466
 5143SOL     OW16327   0.563   5.414   3.769
 5143SOL    HW116328   0.517   5.447   3.686
 5143SOL    HW216329   0.662   5.424   3.759
 5144SOL     OW16330   2.721   2.856   6.069
 5144SOL    HW116331   2.773   2.813   5.995
 5144SOL    HW216332   2.784   2.908   6.127
 5145SOL     OW16333   2.947   6.131   7.002
 5145SOL    HW116334   2.857   6.145   0.022
 5145SOL    HW216335   2.991   6.051   0.019
 5146SOL     OW16336   5.401   4.917   6.220
 5146SOL    HW116337   5.342   4.998   6.218
 5146SOL    HW216338   5.454   4.912   6.136
 5147SOL     OW16339   4.729   2.804   3.391
 5147SOL    HW116340   4.670   2.744   3.446
 5147SOL    HW216341   4.799   2.843   3.450
 5148SOL     OW16342   0.568   7.013   0.714
 5148SOL    HW116343   0.660   6.976   0.732
 5148SOL    HW216344   0.509   6.992   0.792
 5149SOL     OW16345   5.216   4.295   3.335
 5149SOL    HW116346   5.305   4.293   3.290
 5149SOL    HW216347   5.204   4.384   3.380
 5150SOL     OW16348   0.361   5.960   3.551
 5150SOL    HW116349   0.272   6.004   3.536
 5150SOL    HW216350   0.360   5.911   3.638
 5151SOL     OW16351   5.840   5.262   1.611
 5151SOL    HW116352   5.778   5.282   1.687
 5151SOL    HW216353   5.926   5.226   1.647
 5152SOL     OW16354   1.005   1.011   6.728
 5152SOL    HW116355   0.931   1.067   6.690
 5152SOL    HW216356   1.053   1.062   6.799
 5153SOL     OW16357   1.206   1.957   0.939
 5153SOL    HW116358   1.128   2.017   0.923
 5153SOL    HW216359   1.227   1.906   0.856
 5154SOL     OW16360   6.814   2.939   6.628
 5154SOL    HW116361   6.764   3.002   6.688
 5154SOL    HW216362   6.900   2.913   6.672
 5155SOL     OW16363   1.807   1.531   0.919
 5155SOL    HW116364   1.817   1.630   0.912
 5155SOL    HW216365   1.739   1.510   0.990
 5156SOL     OW16366   5.242   5.474   5.667
 5156SOL    HW116367   5.324   5.520   5.633
 5156SOL    HW216368   5.257   5.375   5.665
 5157SOL     OW16369   4.193   0.381   1.673
 5157SOL    HW116370   4.274   0.333   1.707
 5157SOL    HW216371   4.179   0.465   1.726
 5158SOL     OW16372   2.532   1.576   2.537
 5158SOL    HW116373   2.587   1.604   2.459
 5158SOL    HW216374   2.441   1.549   2.505
 5159SOL     OW16375   6.296   3.137   5.328
 5159SOL    HW116376   6.386   3.137   5.284
 5159SOL    HW216377   6.272   3.043   5.354
 5160SOL     OW16378   6.819   6.268   3.452
 5160SOL    HW116379   6.771   6.264   3.365
 5160SOL    HW216380   6.795   6.188   3.507
 5161SOL     OW16381   1.084   3.544   0.234
 5161SOL    HW116382   1.049   3.625   0.187
 5161SOL    HW216383   1.077   3.557   0.333
 5162SOL     OW16384   0.137   7.003   3.129
 5162SOL    HW116385   0.143   6.940   3.207
 5162SOL    HW216386   0.058   0.040   3.141
 5163SOL     OW16387   3.114   6.968   2.180
 5163SOL    HW116388   3.121   6.979   2.280
 5163SOL    HW216389   3.148   0.029   2.136
 5164SOL     OW16390   3.519   3.613   0.865
 5164SOL    HW116391   3.503   3.699   0.817
 5164SOL    HW216392   3.595   3.565   0.821
 5165SOL     OW16393   1.128   4.441   0.035
 5165SOL    HW116394   1.098   4.349   0.011
 5165SOL    HW216395   1.201   4.436   0.104
 5166SOL     OW16396   1.771   5.863   1.590
 5166SOL    HW116397   1.742   5.952   1.556
 5166SOL    HW216398   1.871   5.861   1.597
 5167SOL     OW16399   5.147   2.129   5.226
 5167SOL    HW116400   5.140   2.209   5.285
 5167SOL    HW216401   5.188   2.155   5.139
 5168SOL     OW16402   4.514   2.325   2.335
 5168SOL    HW116403   4.589   2.270   2.296
 5168SOL    HW216404   4.426   2.286   2.307
 5169SOL     OW16405   4.111   6.287   3.729
 5169SOL    HW116406   4.072   6.352   3.794
 5169SOL    HW216407   4.042   6.221   3.702
 5170SOL     OW16408   1.361   3.287   6.138
 5170SOL    HW116409   1.438   3.285   6.203
 5170SOL    HW216410   1.278   3.256   6.184
 5171SOL     OW16411   1.651   5.842   5.546
 5171SOL    HW116412   1.555   5.865   5.531
 5171SOL    HW216413   1.658   5.748   5.580
 5172SOL     OW16414   6.977   5.606   3.870
 5172SOL    HW116415   0.044   5.560   3.866
 5172SOL    HW216416   6.928   5.589   3.784
 5173SOL     OW16417   4.409   4.268   5.561
 5173SOL    HW116418   4.339   4.313   5.616
 5173SOL    HW216419   4.373   4.247   5.471
 5174SOL     OW16420   2.319   6.057   3.351
 5174SOL    HW116421   2.350   6.142   3.395
 5174SOL    HW216422   2.286   6.078   3.259
 5175SOL     OW16423   2.958   4.258   6.887
 5175SOL    HW116424   3.026   4.254   6.814
 5175SOL    HW216425   2.900   4.177   6.884
 5176SOL     OW16426   5.575   5.576   0.476
 5176SOL    HW116427   5.621   5.657   0.511
 5176SOL    HW216428   5.477   5.595   0.465
 5177SOL     OW16429   5.494   0.079   7.010
 5177SOL    HW116430   5.545   7.016   7.005
 5177SOL    HW216431   5.505   0.130   6.924
 5178SOL     OW16432   1.263   3.942   1.656
 5178SOL    HW116433   1.195   3.905   1.719
 5178SOL    HW216434   1.218   3.989   1.581
 5179SOL     OW16435   5.888   4.636   2.728
 5179SOL    HW116436   5.985   4.625   2.710
 5179SOL    HW216437   5.875   4.681   2.816
 5180SOL     OW16438   2.341   6.994   2.373
 5180SOL    HW116439   2.314   6.986   2.469
 5180SOL    HW216440   2.441   7.001   2.367
 5181SOL     OW16441   0.737   0.078   5.998
 5181SOL    HW116442   0.682   7.017   6.001
 5181SOL    HW216443   0.797   0.075   5.918
 5182SOL     OW16444   3.779   5.585   3.384
 5182SOL    HW116445   3.784   5.626   3.293
 5182SOL    HW216446   3.719   5.506   3.382
 5183SOL     OW16447   4.214   1.426   3.540
 5183SOL    HW116448   4.203   1.511   3.591
 5183SOL    HW216449   4.200   1.349   3.602
 5184SOL     OW16450   2.725   1.255   3.779
 5184SOL    HW116451   2.699   1.160   3.767
 5184SOL    HW216452   2.792   1.262   3.853
 5185SOL     OW16453   5.888   0.912   1.757
 5185SOL    HW116454   5.980   0.931   1.722
 5185SOL    HW216455   5.855   0.990   1.809
 5186SOL     OW16456   6.856   3.339   6.347
 5186SOL    HW116457   6.841   3.365   6.251
 5186SOL    HW216458   6.770   3.350   6.398
 5187SOL     OW16459   2.137   4.813   5.099
 5187SOL    HW116460   2.193   4.807   5.182
 5187SOL    HW216461   2.041   4.796   5.123
 5188SOL     OW16462   6.266   6.485   2.333
 5188SOL    HW116463   6.288   6.479   2.236
 5188SOL    HW216464   6.336   6.538   2.381
 5189SOL     OW16465   5.171   6.901   6.342
 5189SOL    HW116466   5.187   6.998   6.327
 5189SOL    HW216467   5.083   6.875   6.303
 5190SOL     OW16468   1.350   3.894   1.083
 5190SOL    HW116469   1.377   3.813   1.134
 5190SOL    HW216470   1.311   3.961   1.146
 5191SOL     OW16471   3.149   4.857   2.505
 5191SOL    HW116472   3.054   4.835   2.527
 5191SOL    HW216473   3.209   4.810   2.569
 5192SOL     OW16474   1.866   4.743   2.154
 5192SOL    HW116475   1.869   4.643   2.157
 5192SOL    HW216476   1.956   4.779   2.178
 5193SOL     OW16477   5.526   0.279   6.239
 5193SOL    HW116478   5.484   0.368   6.255
 5193SOL    HW216479   5.619   0.279   6.276
 5194SOL     OW16480   5.149   1.928   6.669
 5194SOL    HW116481   5.206   1.987   6.726
 5194SOL    HW216482   5.071   1.895   6.724
 5195SOL     OW16483   6.888   0.549   4.606
 5195SOL    HW116484   6.873   0.450   4.603
 5195SOL    HW216485   6.954   0.575   4.536
 5196SOL     OW16486   5.301   6.811   2.531
 5196SOL    HW116487   5.313   6.823   2.433
 5196SOL    HW216488   5.387   6.781   2.572
 5197SOL     OW16489   1.115   4.059   5.629
 5197SOL    HW116490   1.120   4.035   5.532
 5197SOL    HW216491   1.045   4.004   5.673
 5198SOL     OW16492   5.873   5.482   2.632
 5198SOL    HW116493   5.902   5.410   2.569
 5198SOL    HW216494   5.883   5.571   2.588
 5199SOL     OW16495   6.829   4.822   0.999
 5199SOL    HW116496   6.787   4.739   1.035
 5199SOL    HW216497   6.789   4.844   0.910
 5200SOL     OW16498   0.470   3.877   5.214
 5200SOL    HW116499   0.380   3.921   5.212
 5200SOL    HW216500   0.485   3.837   5.305
 5201SOL     OW16501   1.525   5.239   4.086
 5201SOL    HW116502   1.501   5.335   4.068
 5201SOL    HW216503   1.624   5.230   4.087
 5202SOL     OW16504   0.396   4.602   0.709
 5202SOL    HW116505   0.314   4.644   0.670
 5202SOL    HW216506   0.477   4.650   0.675
 5203SOL     OW16507   1.592   2.734   6.755
 5203SOL    HW116508   1.580   2.742   6.854
 5203SOL    HW216509   1.670   2.675   6.736
 5204SOL     OW16510   4.505   5.294   6.953
 5204SOL    HW116511   4.546   5.330   6.869
 5204SOL    HW216512   4.413   5.331   6.963
 5205SOL     OW16513   1.380   0.261   1.894
 5205SOL    HW116514   1.423   0.338   1.943
 5205SOL    HW216515   1.370   0.184   1.957
 5206SOL     OW16516   0.479   4.274   6.651
 5206SOL    HW116517   0.566   4.300   6.608
 5206SOL    HW216518   0.467   4.175   6.646
 5207SOL     OW16519   1.698   4.902   3.807
 5207SOL    HW116520   1.747   4.861   3.884
 5207SOL    HW216521   1.620   4.844   3.783
 5208SOL     OW16522   3.914   1.300   6.757
 5208SOL    HW116523   3.932   1.234   6.830
 5208SOL    HW216524   3.855   1.373   6.791
 5209SOL     OW16525   5.563   5.783   3.207
 5209SOL    HW116526   5.602   5.829   3.127
 5209SOL    HW216527   5.491   5.840   3.246
 5210SOL     OW16528   5.262   5.012   4.143
 5210SOL    HW116529   5.311   4.970   4.067
 5210SOL    HW216530   5.169   5.035   4.115
 5211SOL     OW16531   4.035   3.138   3.538
 5211SOL    HW116532   4.057   3.081   3.458
 5211SOL    HW216533   3.961   3.095   3.590
 5212SOL     OW16534   0.911   1.949   0.904
 5212SOL    HW116535   0.833   1.900   0.942
 5212SOL    HW216536   0.907   2.045   0.932
 5213SOL     OW16537   4.868   2.715   5.885
 5213SOL    HW116538   4.826   2.715   5.794
 5213SOL    HW216539   4.819   2.778   5.944
 5214SOL     OW16540   5.353   1.438   5.837
 5214SOL    HW116541   5.266   1.486   5.830
 5214SOL    HW216542   5.379   1.431   5.933
 5215SOL     OW16543   5.274   4.711   3.102
 5215SOL    HW116544   5.279   4.681   3.006
 5215SOL    HW216545   5.209   4.787   3.109
 5216SOL     OW16546   4.992   4.923   0.590
 5216SOL    HW116547   4.982   4.975   0.675
 5216SOL    HW216548   5.088   4.896   0.579
 5217SOL     OW16549   2.734   5.373   4.015
 5217SOL    HW116550   2.707   5.454   4.068
 5217SOL    HW216551   2.833   5.365   4.014
 5218SOL     OW16552   1.378   6.416   3.372
 5218SOL    HW116553   1.344   6.510   3.367
 5218SOL    HW216554   1.301   6.353   3.365
 5219SOL     OW16555   3.352   6.846   6.370
 5219SOL    HW116556   3.389   6.936   6.392
 5219SOL    HW216557   3.422   6.792   6.324
 5220SOL     OW16558   0.628   6.506   2.743
 5220SOL    HW116559   0.624   6.407   2.757
 5220SOL    HW216560   0.696   6.545   2.805
 5221SOL     OW16561   5.077   1.249   4.905
 5221SOL    HW116562   5.151   1.183   4.890
 5221SOL    HW216563   5.063   1.302   4.822
 5222SOL     OW16564   1.833   0.365   3.872
 5222SOL    HW116565   1.909   0.364   3.807
 5222SOL    HW216566   1.868   0.352   3.965
 5223SOL     OW16567   4.787   0.879   1.782
 5223SOL    HW116568   4.755   0.827   1.703
 5223SOL    HW216569   4.756   0.834   1.866
 5224SOL     OW16570   6.257   2.032   2.490
 5224SOL    HW116571   6.312   2.089   2.430
 5224SOL    HW216572   6.189   2.089   2.537
 5225SOL     OW16573   6.038   6.230   4.144
 5225SOL    HW116574   6.114   6.166   4.151
 5225SOL    HW216575   6.023   6.274   4.232
 5226SOL     OW16576   0.895   6.626   4.134
 5226SOL    HW116577   0.969   6.619   4.201
 5226SOL    HW216578   0.855   6.536   4.119
 5227SOL     OW16579   6.057   4.472   3.025
 5227SOL    HW116580   5.983   4.426   2.977
 5227SOL    HW216581   6.124   4.404   3.057
 5228SOL     OW16582   5.579   1.619   0.924
 5228SOL    HW116583   5.577   1.648   1.020
 5228SOL    HW216584   5.490   1.636   0.882
 5229SOL     OW16585   1.395   3.789   5.501
 5229SOL    HW116586   1.449   3.820   5.423
 5229SOL    HW216587   1.316   3.737   5.469
 5230SOL     OW16588   0.281   0.406   0.252
 5230SOL    HW116589   0.254   0.432   0.345
 5230SOL    HW216590   0.242   0.471   0.187
 5231SOL     OW16591   4.076   3.193   3.857
 5231SOL    HW116592   4.121   3.234   3.936
 5231SOL    HW216593   4.110   3.236   3.773
 5232SOL     OW16594   4.399   2.299   6.944
 5232SOL    HW116595   4.368   2.271   6.853
 5232SOL    HW216596   4.370   2.394   6.961
 5233SOL     OW16597   0.488   6.435   2.437
 5233SOL    HW116598   0.536   6.417   2.522
 5233SOL    HW216599   0.436   6.520   2.446
 5234SOL     OW16600   3.490   6.737   0.512
 5234SOL    HW116601   3.556   6.722   0.586
 5234SOL    HW216602   3.397   6.723   0.546
 5235SOL     OW16603   1.101   3.365   0.587
 5235SOL    HW116604   1.190   3.351   0.544
 5235SOL    HW216605   1.083   3.290   0.651
 5236SOL     OW16606   4.782   3.411   1.139
 5236SOL    HW116607   4.780   3.410   1.239
 5236SOL    HW216608   4.820   3.499   1.108
 5237SOL     OW16609   2.450   2.473   5.542
 5237SOL    HW116610   2.546   2.490   5.519
 5237SOL    HW216611   2.399   2.450   5.460
 5238SOL     OW16612   1.920   4.731   0.778
 5238SOL    HW116613   1.948   4.715   0.683
 5238SOL    HW216614   1.826   4.764   0.781
 5239SOL     OW16615   3.167   2.949   3.517
 5239SOL    HW116616   3.141   2.856   3.542
 5239SOL    HW216617   3.149   3.011   3.594
 5240SOL     OW16618   3.129   2.042   5.188
 5240SOL    HW116619   3.147   2.096   5.270
 5240SOL    HW216620   3.125   2.102   5.108
 5241SOL     OW16621   1.768   6.332   6.543
 5241SOL    HW116622   1.679   6.287   6.534
 5241SOL    HW216623   1.821   6.286   6.614
 5242SOL     OW16624   5.918   1.461   6.025
 5242SOL    HW116625   5.956   1.466   6.117
 5242SOL    HW216626   5.938   1.372   5.985
 5243SOL     OW16627   1.338   5.194   0.880
 5243SOL    HW116628   1.390   5.173   0.797
 5243SOL    HW216629   1.242   5.170   0.865
 5244SOL     OW16630   4.518   4.631   5.682
 5244SOL    HW116631   4.579   4.711   5.683
 5244SOL    HW216632   4.446   4.645   5.614
 5245SOL     OW16633   4.968   3.882   6.654
 5245SOL    HW116634   4.929   3.835   6.734
 5245SOL    HW216635   4.906   3.872   6.576
 5246SOL     OW16636   1.171   3.467   2.623
 5246SOL    HW116637   1.132   3.539   2.566
 5246SOL    HW216638   1.171   3.381   2.572
 5247SOL     OW16639   0.108   5.176   0.371
 5247SOL    HW116640   0.143   5.088   0.404
 5247SOL    HW216641   0.076   5.166   0.277
 5248SOL     OW16642   5.485   0.809   5.951
 5248SOL    HW116643   5.419   0.872   5.993
 5248SOL    HW216644   5.477   0.814   5.851
 5249SOL     OW16645   1.049   4.856   5.254
 5249SOL    HW116646   1.015   4.795   5.182
 5249SOL    HW216647   1.148   4.868   5.243
 5250SOL     OW16648   0.375   1.600   6.189
 5250SOL    HW116649   0.351   1.517   6.238
 5250SOL    HW216650   0.472   1.597   6.165
 5251SOL     OW16651   6.133   3.440   1.401
 5251SOL    HW116652   6.073   3.392   1.464
 5251SOL    HW216653   6.208   3.380   1.373
 5252SOL     OW16654   3.923   6.197   0.427
 5252SOL    HW116655   3.973   6.247   0.498
 5252SOL    HW216656   3.850   6.255   0.390
 5253SOL     OW16657   5.701   3.529   4.479
 5253SOL    HW116658   5.663   3.622   4.472
 5253SOL    HW216659   5.654   3.470   4.414
 5254SOL     OW16660   4.093   0.877   3.986
 5254SOL    HW116661   4.183   0.919   3.993
 5254SOL    HW216662   4.093   0.789   4.031
 5255SOL     OW16663   3.012   6.336   5.088
 5255SOL    HW116664   3.033   6.300   4.997
 5255SOL    HW216665   3.049   6.429   5.096
 5256SOL     OW16666   4.961   0.438   3.303
 5256SOL    HW116667   5.002   0.477   3.220
 5256SOL    HW216668   4.891   0.500   3.338
 5257SOL     OW16669   4.146   0.206   0.130
 5257SOL    HW116670   4.169   0.131   0.192
 5257SOL    HW216671   4.073   0.177   0.069
 5258SOL     OW16672   4.931   4.367   2.492
 5258SOL    HW116673   4.904   4.285   2.441
 5258SOL    HW216674   4.860   4.437   2.483
 5259SOL     OW16675   4.506   5.691   3.117
 5259SOL    HW116676   4.492   5.782   3.078
 5259SOL    HW216677   4.466   5.622   3.057
 5260SOL     OW16678   5.445   3.650   1.490
 5260SOL    HW116679   5.381   3.668   1.416
 5260SOL    HW216680   5.537   3.640   1.453
 5261SOL     OW16681   0.765   1.977   4.748
 5261SOL    HW116682   0.709   1.900   4.778
 5261SOL    HW216683   0.832   1.946   4.681
 5262SOL     OW16684   2.950   6.742   2.027
 5262SOL    HW116685   3.034   6.789   2.001
 5262SOL    HW216686   2.872   6.787   1.983
 5263SOL     OW16687   1.733   6.948   6.547
 5263SOL    HW116688   1.685   0.001   6.501
 5263SOL    HW216689   1.765   6.883   6.478
 5264SOL     OW16690   0.069   2.146   1.409
 5264SOL    HW116691   0.152   2.185   1.369
 5264SOL    HW216692   0.065   2.170   1.506
 5265SOL     OW16693   5.461   4.795   2.008
 5265SOL    HW116694   5.446   4.752   2.097
 5265SOL    HW216695   5.557   4.788   1.983
 5266SOL     OW16696   1.443   6.725   1.668
 5266SOL    HW116697   1.473   6.759   1.757
 5266SOL    HW216698   1.523   6.705   1.611
 5267SOL     OW16699   4.948   5.012   4.893
 5267SOL    HW116700   4.951   4.913   4.906
 5267SOL    HW216701   4.999   5.035   4.810
 5268SOL     OW16702   6.374   5.621   5.211
 5268SOL    HW116703   6.416   5.712   5.204
 5268SOL    HW216704   6.386   5.572   5.126
 5269SOL     OW16705   2.032   5.200   4.342
 5269SOL    HW116706   2.032   5.252   4.257
 5269SOL    HW216707   2.121   5.156   4.354
 5270SOL     OW16708   6.107   2.831   1.944
 5270SOL    HW116709   6.057   2.838   2.031
 5270SOL    HW216710   6.062   2.763   1.886
 5271SOL     OW16711   4.987   4.666   5.211
 5271SOL    HW116712   5.045   4.701   5.284
 5271SOL    HW216713   4.998   4.723   5.129
 5272SOL     OW16714   0.082   6.545   4.363
 5272SOL    HW116715   0.160   6.497   4.322
 5272SOL    HW216716   0.024   6.581   4.291
 5273SOL     OW16717   0.583   1.410   4.033
 5273SOL    HW116718   0.550   1.489   4.085
 5273SOL    HW216719   0.505   1.355   4.004
 5274SOL     OW16720   0.047   4.894   4.258
 5274SOL    HW116721   0.034   4.863   4.164
 5274SOL    HW216722   0.093   4.983   4.258
 5275SOL     OW16723   2.697   0.282   0.214
 5275SOL    HW116724   2.649   0.360   0.174
 5275SOL    HW216725   2.777   0.260   0.158
 5276SOL     OW16726   6.532   0.056   1.811
 5276SOL    HW116727   6.533   0.113   1.729
 5276SOL    HW216728   6.538   6.982   1.785
 5277SOL     OW16729   1.181   1.585   3.269
 5277SOL    HW116730   1.164   1.683   3.266
 5277SOL    HW216731   1.094   1.536   3.277
 5278SOL     OW16732   0.540   5.577   5.667
 5278SOL    HW116733   0.583   5.487   5.665
 5278SOL    HW216734   0.444   5.568   5.693
 5279SOL     OW16735   1.555   5.547   6.161
 5279SOL    HW116736   1.511   5.636   6.150
 5279SOL    HW216737   1.640   5.558   6.211
 5280SOL     OW16738   3.696   5.916   4.854
 5280SOL    HW116739   3.713   5.818   4.870
 5280SOL    HW216740   3.605   5.940   4.889
 5281SOL     OW16741   1.636   0.560   4.557
 5281SOL    HW116742   1.613   0.656   4.547
 5281SOL    HW216743   1.735   0.549   4.562
 5282SOL     OW16744   1.495   0.410   2.239
 5282SOL    HW116745   1.422   0.342   2.244
 5282SOL    HW216746   1.480   0.469   2.159
 5283SOL     OW16747   6.838   1.152   4.134
 5283SOL    HW116748   6.753   1.117   4.173
 5283SOL    HW216749   6.837   1.140   4.035
 5284SOL     OW16750   5.649   2.075   2.045
 5284SOL    HW116751   5.581   2.128   1.994
 5284SOL    HW216752   5.676   2.127   2.127
 5285SOL     OW16753   0.811   3.241   3.663
 5285SOL    HW116754   0.875   3.203   3.730
 5285SOL    HW216755   0.721   3.199   3.674
 5286SOL     OW16756   6.338   3.091   1.040
 5286SOL    HW116757   6.398   3.049   0.972
 5286SOL    HW216758   6.260   3.133   0.994
 5287SOL     OW16759   3.550   5.069   1.379
 5287SOL    HW116760   3.566   5.115   1.467
 5287SOL    HW216761   3.463   5.019   1.384
 5288SOL     OW16762   5.298   0.127   1.987
 5288SOL    HW116763   5.234   0.107   1.912
 5288SOL    HW216764   5.322   0.042   2.033
 5289SOL     OW16765   1.762   4.997   6.646
 5289SOL    HW116766   1.758   4.899   6.626
 5289SOL    HW216767   1.673   5.028   6.681
 5290SOL     OW16768   1.833   3.788   5.799
 5290SOL    HW116769   1.907   3.744   5.747
 5290SOL    HW216770   1.764   3.822   5.736
 5291SOL     OW16771   2.708   4.300   5.360
 5291SOL    HW116772   2.760   4.364   5.303
 5291SOL    HW216773   2.765   4.219   5.379
 5292SOL     OW16774   6.667   4.199   6.549
 5292SOL    HW116775   6.733   4.241   6.488
 5292SOL    HW216776   6.618   4.270   6.600
 5293SOL     OW16777   2.244   5.238   4.653
 5293SOL    HW116778   2.234   5.329   4.611
 5293SOL    HW216779   2.283   5.175   4.586
 5294SOL     OW16780   4.043   0.554   5.127
 5294SOL    HW116781   3.960   0.505   5.100
 5294SOL    HW216782   4.021   0.651   5.139
 5295SOL     OW16783   3.326   0.728   2.741
 5295SOL    HW116784   3.283   0.798   2.684
 5295SOL    HW216785   3.420   0.754   2.762
 5296SOL     OW16786   3.770   4.273   0.986
 5296SOL    HW116787   3.796   4.367   0.963
 5296SOL    HW216788   3.802   4.251   1.078
 5297SOL     OW16789   2.549   4.188   0.522
 5297SOL    HW116790   2.612   4.228   0.455
 5297SOL    HW216791   2.470   4.149   0.474
 5298SOL     OW16792   2.583   6.735   0.127
 5298SOL    HW116793   2.680   6.713   0.124
 5298SOL    HW216794   2.556   6.780   0.042
 5299SOL     OW16795   3.192   1.831   0.596
 5299SOL    HW116796   3.263   1.874   0.651
 5299SOL    HW216797   3.204   1.856   0.500
 5300SOL     OW16798   1.644   4.564   0.662
 5300SOL    HW116799   1.650   4.570   0.563
 5300SOL    HW216800   1.641   4.656   0.701
 5301SOL     OW16801   4.662   0.473   6.575
 5301SOL    HW116802   4.584   0.418   6.547
 5301SOL    HW216803   4.738   0.412   6.599
 5302SOL     OW16804   4.661   5.879   3.405
 5302SOL    HW116805   4.761   5.890   3.410
 5302SOL    HW216806   4.623   5.946   3.341
 5303SOL     OW16807   6.760   4.969   6.181
 5303SOL    HW116808   6.746   5.030   6.102
 5303SOL    HW216809   6.677   4.916   6.198
 5304SOL     OW16810   6.191   1.417   0.820
 5304SOL    HW116811   6.176   1.469   0.904
 5304SOL    HW216812   6.251   1.340   0.838
 5305SOL     OW16813   1.253   5.185   2.804
 5305SOL    HW116814   1.165   5.211   2.846
 5305SOL    HW216815   1.319   5.164   2.876
 5306SOL     OW16816   6.581   4.030   6.175
 5306SOL    HW116817   6.654   4.006   6.239
 5306SOL    HW216818   6.494   4.033   6.224
 5307SOL     OW16819   4.711   2.275   0.587
 5307SOL    HW116820   4.768   2.211   0.534
 5307SOL    HW216821   4.722   2.367   0.550
 5308SOL     OW16822   1.674   4.597   2.845
 5308SOL    HW116823   1.604   4.578   2.775
 5308SOL    HW216824   1.757   4.629   2.801
 5309SOL     OW16825   4.246   5.835   2.373
 5309SOL    HW116826   4.183   5.758   2.358
 5309SOL    HW216827   4.340   5.801   2.370
 5310SOL     OW16828   5.984   3.462   2.868
 5310SOL    HW116829   5.918   3.518   2.919
 5310SOL    HW216830   5.943   3.431   2.783
 5311SOL     OW16831   5.592   6.558   0.435
 5311SOL    HW116832   5.596   6.658   0.440
 5311SOL    HW216833   5.684   6.521   0.446
 5312SOL     OW16834   0.235   6.296   1.619
 5312SOL    HW116835   0.146   6.341   1.612
 5312SOL    HW216836   0.307   6.366   1.617
 5313SOL     OW16837   6.746   4.698   5.291
 5313SOL    HW116838   6.750   4.798   5.295
 5313SOL    HW216839   6.786   4.660   5.375
 5314SOL     OW16840   5.874   6.252   0.966
 5314SOL    HW116841   5.948   6.261   1.032
 5314SOL    HW216842   5.888   6.316   0.890
 5315SOL     OW16843   4.551   2.249   3.523
 5315SOL    HW116844   4.598   2.222   3.439
 5315SOL    HW216845   4.568   2.180   3.594
 5316SOL     OW16846   0.808   3.043   5.143
 5316SOL    HW116847   0.813   3.140   5.122
 5316SOL    HW216848   0.900   3.005   5.150
 5317SOL     OW16849   6.719   1.335   5.673
 5317SOL    HW116850   6.791   1.268   5.692
 5317SOL    HW216851   6.747   1.392   5.596
 5318SOL     OW16852   6.849   3.171   0.281
 5318SOL    HW116853   6.854   3.172   0.181
 5318SOL    HW216854   6.935   3.134   0.318
 5319SOL     OW16855   4.297   6.783   0.778
 5319SOL    HW116856   4.258   6.703   0.825
 5319SOL    HW216857   4.238   6.862   0.792
 5320SOL     OW16858   4.100   5.701   1.099
 5320SOL    HW116859   4.157   5.725   1.020
 5320SOL    HW216860   4.041   5.624   1.075
 5321SOL     OW16861   1.620   4.629   4.922
 5321SOL    HW116862   1.692   4.584   4.869
 5321SOL    HW216863   1.604   4.578   5.007
 5322SOL     OW16864   5.555   6.802   1.509
 5322SOL    HW116865   5.505   6.718   1.533
 5322SOL    HW216866   5.601   6.789   1.421
 5323SOL     OW16867   4.457   1.227   5.727
 5323SOL    HW116868   4.403   1.276   5.795
 5323SOL    HW216869   4.452   1.276   5.640
 5324SOL     OW16870   2.738   2.716   6.766
 5324SOL    HW116871   2.780   2.626   6.758
 5324SOL    HW216872   2.773   2.762   6.848
 5325SOL     OW16873   2.659   1.695   5.296
 5325SOL    HW116874   2.586   1.665   5.358
 5325SOL    HW216875   2.721   1.619   5.278
 5326SOL     OW16876   6.646   5.844   3.309
 5326SOL    HW116877   6.602   5.800   3.388
 5326SOL    HW216878   6.739   5.870   3.334
 5327SOL     OW16879   5.238   2.285   4.730
 5327SOL    HW116880   5.182   2.290   4.647
 5327SOL    HW216881   5.328   2.248   4.707
 5328SOL     OW16882   4.050   3.987   5.817
 5328SOL    HW116883   3.993   4.047   5.874
 5328SOL    HW216884   4.058   4.027   5.726
 5329SOL     OW16885   1.398   5.772   6.299
 5329SOL    HW116886   1.322   5.748   6.238
 5329SOL    HW216887   1.451   5.846   6.258
 5330SOL     OW16888   3.439   3.815   0.652
 5330SOL    HW116889   3.526   3.841   0.609
 5330SOL    HW216890   3.364   3.859   0.603
 5331SOL     OW16891   6.767   2.209   6.836
 5331SOL    HW116892   6.735   2.240   6.926
 5331SOL    HW216893   6.699   2.232   6.767
 5332SOL     OW16894   1.831   4.112   1.879
 5332SOL    HW116895   1.824   4.111   1.979
 5332SOL    HW216896   1.750   4.069   1.840
 5333SOL     OW16897   1.228   0.794   3.457
 5333SOL    HW116898   1.246   0.799   3.359
 5333SOL    HW216899   1.156   0.859   3.481
 5334SOL     OW16900   3.180   0.529   5.067
 5334SOL    HW116901   3.222   0.586   4.997
 5334SOL    HW216902   3.248   0.462   5.100
 5335SOL     OW16903   6.582   5.967   0.730
 5335SOL    HW116904   6.485   5.976   0.751
 5335SOL    HW216905   6.635   5.972   0.815
 5336SOL     OW16906   1.841   3.457   2.277
 5336SOL    HW116907   1.781   3.451   2.197
 5336SOL    HW216908   1.789   3.493   2.355
 5337SOL     OW16909   4.708   3.860   1.321
 5337SOL    HW116910   4.673   3.953   1.335
 5337SOL    HW216911   4.790   3.847   1.376
 5338SOL     OW16912   6.754   2.331   0.131
 5338SOL    HW116913   6.714   2.390   0.060
 5338SOL    HW216914   6.708   2.348   0.218
 5339SOL     OW16915   6.561   2.089   3.984
 5339SOL    HW116916   6.613   2.069   3.900
 5339SOL    HW216917   6.552   2.005   4.038
 5340SOL     OW16918   5.828   2.732   6.876
 5340SOL    HW116919   5.891   2.780   6.938
 5340SOL    HW216920   5.757   2.795   6.844
 5341SOL     OW16921   3.992   2.010   5.642
 5341SOL    HW116922   3.956   2.102   5.628
 5341SOL    HW216923   3.985   1.987   5.739
 5342SOL     OW16924   3.828   0.471   4.992
 5342SOL    HW116925   3.877   0.390   4.961
 5342SOL    HW216926   3.803   0.527   4.913
 5343SOL     OW16927   4.131   3.614   2.939
 5343SOL    HW116928   4.222   3.613   2.980
 5343SOL    HW216929   4.069   3.665   2.998
 5344SOL     OW16930   1.741   2.550   2.357
 5344SOL    HW116931   1.723   2.644   2.328
 5344SOL    HW216932   1.769   2.550   2.454
 5345SOL     OW16933   4.482   6.416   0.870
 5345SOL    HW116934   4.467   6.323   0.905
 5345SOL    HW216935   4.575   6.446   0.894
 5346SOL     OW16936   2.982   6.059   3.693
 5346SOL    HW116937   2.907   5.994   3.684
 5346SOL    HW216938   2.976   6.106   3.781
 5347SOL     OW16939   0.066   2.268   2.126
 5347SOL    HW116940   0.001   2.205   2.081
 5347SOL    HW216941   0.028   2.360   2.125
 5348SOL     OW16942   0.847   1.548   0.606
 5348SOL    HW116943   0.931   1.495   0.594
 5348SOL    HW216944   0.870   1.640   0.638
 5349SOL     OW16945   0.488   2.304   0.052
 5349SOL    HW116946   0.587   2.292   0.063
 5349SOL    HW216947   0.467   2.401   0.042
 5350SOL     OW16948   2.478   0.571   6.484
 5350SOL    HW116949   2.564   0.583   6.532
 5350SOL    HW216950   2.452   0.475   6.484
 5351SOL     OW16951   5.224   6.082   1.264
 5351SOL    HW116952   5.181   5.993   1.246
 5351SOL    HW216953   5.211   6.142   1.186
 5352SOL     OW16954   2.350   5.980   4.257
 5352SOL    HW116955   2.355   6.050   4.329
 5352SOL    HW216956   2.351   6.024   4.168
 5353SOL     OW16957   4.719   6.424   4.556
 5353SOL    HW116958   4.707   6.389   4.648
 5353SOL    HW216959   4.680   6.359   4.490
 5354SOL     OW16960   2.703   4.638   2.480
 5354SOL    HW116961   2.743   4.626   2.389
 5354SOL    HW216962   2.605   4.617   2.476
 5355SOL     OW16963   4.498   1.613   3.650
 5355SOL    HW116964   4.407   1.654   3.647
 5355SOL    HW216965   4.562   1.670   3.599
 5356SOL     OW16966   6.157   4.072   1.672
 5356SOL    HW116967   6.139   3.979   1.638
 5356SOL    HW216968   6.116   4.083   1.763
 5357SOL     OW16969   3.852   0.845   0.589
 5357SOL    HW116970   3.785   0.880   0.655
 5357SOL    HW216971   3.927   0.802   0.638
 5358SOL     OW16972   4.062   2.004   0.773
 5358SOL    HW116973   4.131   2.074   0.756
 5358SOL    HW216974   3.994   2.007   0.700
 5359SOL     OW16975   2.507   1.660   0.957
 5359SOL    HW116976   2.514   1.590   1.028
 5359SOL    HW216977   2.586   1.721   0.962
 5360SOL     OW16978   3.796   6.550   5.150
 5360SOL    HW116979   3.892   6.573   5.132
 5360SOL    HW216980   3.790   6.454   5.178
 5361SOL     OW16981   2.138   1.160   4.806
 5361SOL    HW116982   2.174   1.132   4.718
 5361SOL    HW216983   2.177   1.249   4.832
 5362SOL     OW16984   5.032   4.186   3.167
 5362SOL    HW116985   4.971   4.261   3.141
 5362SOL    HW216986   5.104   4.222   3.226
 5363SOL     OW16987   1.019   6.257   5.725
 5363SOL    HW116988   1.001   6.323   5.798
 5363SOL    HW216989   0.952   6.269   5.652
 5364SOL     OW16990   6.193   5.621   0.841
 5364SOL    HW116991   6.288   5.627   0.811
 5364SOL    HW216992   6.138   5.687   0.789
 5365SOL     OW16993   4.556   2.958   6.278
 5365SOL    HW116994   4.509   3.008   6.204
 5365SOL    HW216995   4.497   2.884   6.310
 5366SOL     OW16996   4.408   4.739   0.659
 5366SOL    HW116997   4.330   4.677   0.649
 5366SOL    HW216998   4.492   4.686   0.661
 5367SOL     OW16999   0.697   5.073   0.493
 5367SOL    HW117000   0.697   5.103   0.398
 5367SOL    HW217001   0.671   5.148   0.553
 5368SOL     OW17002   5.737   1.562   2.779
 5368SOL    HW117003   5.638   1.547   2.776
 5368SOL    HW217004   5.759   1.648   2.733
 5369SOL     OW17005   2.406   5.211   3.270
 5369SOL    HW117006   2.473   5.205   3.344
 5369SOL    HW217007   2.388   5.307   3.249
 5370SOL     OW17008   4.254   3.257   1.727
 5370SOL    HW117009   4.184   3.262   1.798
 5370SOL    HW217010   4.244   3.172   1.676
 5371SOL     OW17011   1.896   3.988   4.673
 5371SOL    HW117012   1.822   4.055   4.685
 5371SOL    HW217013   1.983   4.036   4.664
 5372SOL     OW17014   2.943   5.578   2.020
 5372SOL    HW117015   2.942   5.673   2.052
 5372SOL    HW217016   3.037   5.549   2.005
 5373SOL     OW17017   2.778   4.933   4.402
 5373SOL    HW117018   2.779   4.944   4.501
 5373SOL    HW217019   2.866   4.962   4.364
 5374SOL     OW17020   1.546   3.220   6.320
 5374SOL    HW117021   1.620   3.158   6.347
 5374SOL    HW217022   1.577   3.314   6.326
 5375SOL     OW17023   0.934   4.220   5.319
 5375SOL    HW117024   0.842   4.184   5.336
 5375SOL    HW217025   1.000   4.145   5.316
 5376SOL     OW17026   1.661   3.442   1.512
 5376SOL    HW117027   1.625   3.388   1.436
 5376SOL    HW217028   1.690   3.381   1.585
 5377SOL     OW17029   6.215   0.062   1.719
 5377SOL    HW117030   6.160   0.132   1.674
 5377SOL    HW217031   6.311   0.090   1.720
 5378SOL     OW17032   6.530   0.471   0.723
 5378SOL    HW117033   6.624   0.453   0.750
 5378SOL    HW217034   6.507   0.567   0.741
 5379SOL     OW17035   0.180   5.177   3.740
 5379SOL    HW117036   0.145   5.151   3.830
 5379SOL    HW217037   0.111   5.229   3.691
 5380SOL     OW17038   2.317   0.790   3.443
 5380SOL    HW117039   2.373   0.755   3.368
 5380SOL    HW217040   2.376   0.822   3.517
 5381SOL     OW17041   6.673   3.938   0.969
 5381SOL    HW117042   6.594   3.891   1.008
 5381SOL    HW217043   6.645   3.987   0.886
 5382SOL     OW17044   3.088   0.234   1.518
 5382SOL    HW117045   3.004   0.194   1.555
 5382SOL    HW217046   3.088   0.226   1.418
 5383SOL     OW17047   3.115   2.311   5.684
 5383SOL    HW117048   3.073   2.397   5.714
 5383SOL    HW217049   3.050   2.236   5.696
 5384SOL     OW17050   6.429   6.465   4.371
 5384SOL    HW117051   6.373   6.514   4.304
 5384SOL    HW217052   6.478   6.531   4.428
 5385SOL     OW17053   3.007   3.842   2.630
 5385SOL    HW117054   2.979   3.826   2.725
 5385SOL    HW217055   2.946   3.792   2.569
 5386SOL     OW17056   4.768   6.375   3.985
 5386SOL    HW117057   4.854   6.425   3.993
 5386SOL    HW217058   4.731   6.357   4.077
 5387SOL     OW17059   2.684   5.636   2.511
 5387SOL    HW117060   2.671   5.549   2.558
 5387SOL    HW217061   2.672   5.623   2.412
 5388SOL     OW17062   5.035   6.600   2.465
 5388SOL    HW117063   5.047   6.519   2.522
 5388SOL    HW217064   5.113   6.611   2.404
 5389SOL     OW17065   4.977   1.071   1.682
 5389SOL    HW117066   4.914   1.081   1.605
 5389SOL    HW217067   4.951   0.989   1.735
 5390SOL     OW17068   5.036   5.007   4.366
 5390SOL    HW117069   4.956   5.015   4.306
 5390SOL    HW217070   5.119   5.017   4.313
 5391SOL     OW17071   2.771   3.196   0.523
 5391SOL    HW117072   2.702   3.264   0.498
 5391SOL    HW217073   2.778   3.128   0.450
 5392SOL     OW17074   6.033   3.224   1.184
 5392SOL    HW117075   6.001   3.173   1.264
 5392SOL    HW217076   6.131   3.243   1.194
 5393SOL     OW17077   6.966   6.804   6.980
 5393SOL    HW117078   6.918   6.884   7.014
 5393SOL    HW217079   0.028   6.791   0.009
 5394SOL     OW17080   0.746   3.733   6.135
 5394SOL    HW117081   0.767   3.659   6.198
 5394SOL    HW217082   0.694   3.804   6.183
 5395SOL     OW17083   4.889   0.470   0.916
 5395SOL    HW117084   4.936   0.485   1.003
 5395SOL    HW217085   4.955   0.443   0.846
 5396SOL     OW17086   5.244   3.852   2.360
 5396SOL    HW117087   5.198   3.845   2.449
 5396SOL    HW217088   5.226   3.769   2.307
 5397SOL     OW17089   6.790   2.899   1.929
 5397SOL    HW117090   6.759   2.981   1.978
 5397SOL    HW217091   6.875   2.866   1.970
 5398SOL     OW17092   3.333   2.675   1.824
 5398SOL    HW117093   3.256   2.736   1.842
 5398SOL    HW217094   3.300   2.580   1.820
 5399SOL     OW17095   2.764   6.558   1.028
 5399SOL    HW117096   2.775   6.631   0.960
 5399SOL    HW217097   2.804   6.474   0.993
 5400SOL     OW17098   2.735   4.023   1.005
 5400SOL    HW117099   2.668   4.034   0.932
 5400SOL    HW217100   2.787   4.107   1.015
 5401SOL     OW17101   5.689   3.314   2.264
 5401SOL    HW117102   5.694   3.334   2.166
 5401SOL    HW217103   5.764   3.360   2.311
 5402SOL     OW17104   2.576   5.766   1.833
 5402SOL    HW117105   2.507   5.781   1.762
 5402SOL    HW217106   2.639   5.843   1.836
 5403SOL     OW17107   0.003   3.266   6.551
 5403SOL    HW117108   6.972   3.290   6.471
 5403SOL    HW217109   0.073   3.199   6.526
 5404SOL     OW17110   1.085   2.687   3.629
 5404SOL    HW117111   0.992   2.651   3.640
 5404SOL    HW217112   1.087   2.749   3.551
 5405SOL     OW17113   6.829   5.589   6.762
 5405SOL    HW117114   6.827   5.654   6.838
 5405SOL    HW217115   6.880   5.507   6.789
 5406SOL     OW17116   2.013   2.035   0.348
 5406SOL    HW117117   1.958   2.089   0.284
 5406SOL    HW217118   2.014   2.080   0.437
 5407SOL     OW17119   4.276   3.552   0.220
 5407SOL    HW117120   4.371   3.533   0.196
 5407SOL    HW217121   4.244   3.483   0.285
 5408SOL     OW17122   2.318   0.976   5.529
 5408SOL    HW117123   2.350   0.887   5.559
 5408SOL    HW217124   2.219   0.974   5.517
 5409SOL     OW17125   5.220   0.079   3.160
 5409SOL    HW117126   5.306   0.123   3.186
 5409SOL    HW217127   5.153   0.090   3.234
 5410SOL     OW17128   2.936   2.142   1.758
 5410SOL    HW117129   3.012   2.078   1.767
 5410SOL    HW217130   2.948   2.218   1.823
 5411SOL     OW17131   6.703   5.173   5.982
 5411SOL    HW117132   6.619   5.169   5.928
 5411SOL    HW217133   6.712   5.264   6.022
 5412SOL     OW17134   5.160   2.810   0.670
 5412SOL    HW117135   5.124   2.866   0.595
 5412SOL    HW217136   5.139   2.714   0.653
 5413SOL     OW17137   2.935   1.617   1.501
 5413SOL    HW117138   2.938   1.680   1.424
 5413SOL    HW217139   2.860   1.643   1.562
 5414SOL     OW17140   5.213   1.862   4.805
 5414SOL    HW117141   5.276   1.882   4.880
 5414SOL    HW217142   5.121   1.847   4.843
 5415SOL     OW17143   0.472   6.041   1.169
 5415SOL    HW117144   0.419   6.125   1.170
 5415SOL    HW217145   0.568   6.062   1.186
 5416SOL     OW17146   4.434   5.049   5.299
 5416SOL    HW117147   4.423   5.023   5.394
 5416SOL    HW217148   4.531   5.046   5.274
 5417SOL     OW17149   3.964   6.677   5.514
 5417SOL    HW117150   4.027   6.751   5.492
 5417SOL    HW217151   3.870   6.712   5.517
 5418SOL     OW17152   3.513   0.464   2.590
 5418SOL    HW117153   3.512   0.533   2.662
 5418SOL    HW217154   3.440   0.484   2.524
 5419SOL     OW17155   3.706   4.861   0.334
 5419SOL    HW117156   3.639   4.933   0.351
 5419SOL    HW217157   3.679   4.779   0.383
 5420SOL     OW17158   2.372   2.801   3.148
 5420SOL    HW117159   2.296   2.794   3.213
 5420SOL    HW217160   2.456   2.823   3.197
 5421SOL     OW17161   1.534   3.703   1.246
 5421SOL    HW117162   1.619   3.754   1.257
 5421SOL    HW217163   1.471   3.727   1.319
 5422SOL     OW17164   1.065   5.133   0.815
 5422SOL    HW117165   1.073   5.107   0.911
 5422SOL    HW217166   0.995   5.077   0.771
 5423SOL     OW17167   6.349   3.250   6.939
 5423SOL    HW117168   6.288   3.329   6.943
 5423SOL    HW217169   6.296   3.166   6.948
 5424SOL     OW17170   5.120   3.507   4.278
 5424SOL    HW117171   5.202   3.541   4.325
 5424SOL    HW217172   5.115   3.408   4.286
 5425SOL     OW17173   4.096   1.321   4.838
 5425SOL    HW117174   4.068   1.246   4.899
 5425SOL    HW217175   4.023   1.388   4.831
 5426SOL     OW17176   5.541   6.182   4.367
 5426SOL    HW117177   5.628   6.138   4.346
 5426SOL    HW217178   5.535   6.199   4.466
 5427SOL     OW17179   4.382   5.915   6.586
 5427SOL    HW117180   4.362   5.883   6.679
 5427SOL    HW217181   4.352   6.010   6.575
 5428SOL     OW17182   0.598   0.283   0.724
 5428SOL    HW117183   0.693   0.305   0.703
 5428SOL    HW217184   0.583   0.185   0.712
 5429SOL     OW17185   1.627   1.266   6.793
 5429SOL    HW117186   1.712   1.273   6.741
 5429SOL    HW217187   1.588   1.357   6.807
 5430SOL     OW17188   0.196   1.787   6.310
 5430SOL    HW117189   0.215   1.813   6.405
 5430SOL    HW217190   0.256   1.712   6.283
 5431SOL     OW17191   3.289   6.512   6.705
 5431SOL    HW117192   3.218   6.451   6.740
 5431SOL    HW217193   3.269   6.534   6.609
 5432SOL     OW17194   5.499   0.133   6.720
 5432SOL    HW117195   5.415   0.155   6.671
 5432SOL    HW217196   5.577   0.138   6.658
 5433SOL     OW17197   0.293   2.078   4.394
 5433SOL    HW117198   0.255   2.133   4.469
 5433SOL    HW217199   0.225   2.011   4.364
 5434SOL     OW17200   2.891   0.201   5.671
 5434SOL    HW117201   2.909   0.299   5.662
 5434SOL    HW217202   2.827   0.172   5.600
 5435SOL     OW17203   4.721   6.936   1.920
 5435SOL    HW117204   4.648   6.870   1.899
 5435SOL    HW217205   4.807   6.904   1.879
 5436SOL     OW17206   4.729   4.274   3.366
 5436SOL    HW117207   4.736   4.184   3.323
 5436SOL    HW217208   4.692   4.265   3.458
 5437SOL     OW17209   2.699   4.348   0.372
 5437SOL    HW117210   2.706   4.366   0.470
 5437SOL    HW217211   2.683   4.433   0.323
 5438SOL     OW17212   6.713   2.817   1.660
 5438SOL    HW117213   6.753   2.891   1.715
 5438SOL    HW217214   6.769   2.735   1.670
 5439SOL     OW17215   1.543   2.037   1.212
 5439SOL    HW117216   1.493   2.075   1.135
 5439SOL    HW217217   1.583   2.112   1.266
 5440SOL     OW17218   1.423   1.404   1.434
 5440SOL    HW117219   1.465   1.492   1.410
 5440SOL    HW217220   1.486   1.330   1.410
 5441SOL     OW17221   4.063   1.815   4.148
 5441SOL    HW117222   4.103   1.832   4.057
 5441SOL    HW217223   3.965   1.836   4.145
 5442SOL     OW17224   4.438   6.751   2.683
 5442SOL    HW117225   4.360   6.810   2.704
 5442SOL    HW217226   4.522   6.803   2.689
 5443SOL     OW17227   2.951   0.199   4.914
 5443SOL    HW117228   3.046   0.170   4.902
 5443SOL    HW217229   2.932   0.214   5.011
 5444SOL     OW17230   0.892   0.559   4.148
 5444SOL    HW117231   0.818   0.577   4.082
 5444SOL    HW217232   0.951   0.640   4.154
 5445SOL     OW17233   6.481   4.102   3.370
 5445SOL    HW117234   6.569   4.071   3.336
 5445SOL    HW217235   6.408   4.063   3.313
 5446SOL     OW17236   5.895   5.702   5.228
 5446SOL    HW117237   5.943   5.659   5.152
 5446SOL    HW217238   5.796   5.694   5.215
 5447SOL     OW17239   3.438   2.415   0.141
 5447SOL    HW117240   3.426   2.447   0.047
 5447SOL    HW217241   3.385   2.472   0.203
 5448SOL     OW17242   4.558   2.552   5.203
 5448SOL    HW117243   4.480   2.555   5.265
 5448SOL    HW217244   4.535   2.497   5.123
 5449SOL     OW17245   1.542   2.318   6.223
 5449SOL    HW117246   1.489   2.240   6.256
 5449SOL    HW217247   1.521   2.334   6.127
 5450SOL     OW17248   2.400   0.775   1.853
 5450SOL    HW117249   2.496   0.801   1.867
 5450SOL    HW217250   2.373   0.798   1.760
 5451SOL     OW17251   1.511   5.856   3.039
 5451SOL    HW117252   1.528   5.819   2.948
 5451SOL    HW217253   1.577   5.928   3.059
 5452SOL     OW17254   1.954   4.293   0.164
 5452SOL    HW117255   2.049   4.324   0.164
 5452SOL    HW217256   1.944   4.213   0.223
 5453SOL     OW17257   6.830   4.204   0.736
 5453SOL    HW117258   6.914   4.166   0.697
 5453SOL    HW217259   6.850   4.294   0.775
 5454SOL     OW17260   6.981   4.303   6.612
 5454SOL    HW117261   6.910   4.350   6.664
 5454SOL    HW217262   6.968   4.320   6.515
 5455SOL     OW17263   0.029   3.070   0.935
 5455SOL    HW117264   0.000   3.153   0.983
 5455SOL    HW217265   0.077   3.010   0.998
 5456SOL     OW17266   3.287   0.615   6.167
 5456SOL    HW117267   3.257   0.523   6.191
 5456SOL    HW217268   3.383   0.612   6.139
 5457SOL     OW17269   5.195   2.351   0.910
 5457SOL    HW117270   5.230   2.283   0.974
 5457SOL    HW217271   5.104   2.324   0.878
 5458SOL     OW17272   0.895   4.567   0.031
 5458SOL    HW117273   0.986   4.527   0.020
 5458SOL    HW217274   0.833   4.528   6.986
 5459SOL     OW17275   1.907   5.075   0.169
 5459SOL    HW117276   1.867   4.997   0.216
 5459SOL    HW217277   1.860   5.088   0.081
 5460SOL     OW17278   3.341   0.202   1.663
 5460SOL    HW117279   3.428   0.167   1.628
 5460SOL    HW217280   3.275   0.207   1.589
 5461SOL     OW17281   5.376   6.408   5.349
 5461SOL    HW117282   5.384   6.434   5.252
 5461SOL    HW217283   5.352   6.311   5.355
 5462SOL     OW17284   1.595   0.709   1.119
 5462SOL    HW117285   1.533   0.786   1.132
 5462SOL    HW217286   1.648   0.721   1.035
 5463SOL     OW17287   6.271   2.508   0.752
 5463SOL    HW117288   6.204   2.492   0.680
 5463SOL    HW217289   6.224   2.522   0.839
 5464SOL     OW17290   1.769   0.607   4.181
 5464SOL    HW117291   1.714   0.663   4.242
 5464SOL    HW217292   1.747   0.628   4.086
 5465SOL     OW17293   3.825   0.170   3.614
 5465SOL    HW117294   3.875   0.084   3.622
 5465SOL    HW217295   3.729   0.156   3.640
 5466SOL     OW17296   5.592   4.916   4.815
 5466SOL    HW117297   5.688   4.891   4.828
 5466SOL    HW217298   5.552   4.857   4.745
 5467SOL     OW17299   5.330   2.120   2.738
 5467SOL    HW117300   5.242   2.118   2.690
 5467SOL    HW217301   5.320   2.171   2.824
 5468SOL     OW17302   5.057   1.654   4.556
 5468SOL    HW117303   5.135   1.687   4.502
 5468SOL    HW217304   4.977   1.712   4.538
 5469SOL     OW17305   3.998   4.723   6.367
 5469SOL    HW117306   3.996   4.820   6.342
 5469SOL    HW217307   4.093   4.693   6.375
 5470SOL     OW17308   1.966   4.945   3.702
 5470SOL    HW117309   1.869   4.936   3.721
 5470SOL    HW217310   1.979   4.999   3.619
 5471SOL     OW17311   5.513   6.027   1.311
 5471SOL    HW117312   5.547   6.021   1.217
 5471SOL    HW217313   5.418   6.058   1.311
 5472SOL     OW17314   4.641   3.945   5.969
 5472SOL    HW117315   4.705   3.925   5.895
 5472SOL    HW217316   4.608   4.039   5.960
 5473SOL     OW17317   1.004   3.343   2.808
 5473SOL    HW117318   1.058   3.389   2.738
 5473SOL    HW217319   1.055   3.342   2.894
 5474SOL     OW17320   2.478   5.251   4.065
 5474SOL    HW117321   2.556   5.311   4.048
 5474SOL    HW217322   2.508   5.156   4.066
 5475SOL     OW17323   3.874   2.604   1.249
 5475SOL    HW117324   3.776   2.622   1.237
 5475SOL    HW217325   3.897   2.610   1.346
 5476SOL     OW17326   2.150   3.570   6.112
 5476SOL    HW117327   2.226   3.505   6.111
 5476SOL    HW217328   2.181   3.659   6.079
 5477SOL     OW17329   2.094   3.355   3.357
 5477SOL    HW117330   2.156   3.313   3.291
 5477SOL    HW217331   2.131   3.343   3.449
 5478SOL     OW17332   5.471   5.772   6.286
 5478SOL    HW117333   5.504   5.723   6.206
 5478SOL    HW217334   5.546   5.784   6.351
 5479SOL     OW17335   4.663   0.718   4.827
 5479SOL    HW117336   4.742   0.696   4.884
 5479SOL    HW217337   4.690   0.784   4.757
 5480SOL     OW17338   0.938   4.177   4.576
 5480SOL    HW117339   0.889   4.183   4.664
 5480SOL    HW217340   0.950   4.080   4.552
 5481SOL     OW17341   2.733   0.210   4.750
 5481SOL    HW117342   2.823   0.198   4.792
 5481SOL    HW217343   2.735   0.289   4.689
 5482SOL     OW17344   3.488   4.474   1.639
 5482SOL    HW117345   3.542   4.527   1.704
 5482SOL    HW217346   3.392   4.475   1.666
 5483SOL     OW17347   0.673   2.492   6.196
 5483SOL    HW117348   0.632   2.421   6.139
 5483SOL    HW217349   0.660   2.468   6.293
 5484SOL     OW17350   4.537   0.494   4.707
 5484SOL    HW117351   4.440   0.472   4.717
 5484SOL    HW217352   4.549   0.593   4.710
 5485SOL     OW17353   2.587   6.607   5.103
 5485SOL    HW117354   2.649   6.671   5.056
 5485SOL    HW217355   2.553   6.540   5.037
 5486SOL     OW17356   2.844   5.776   5.116
 5486SOL    HW117357   2.854   5.870   5.148
 5486SOL    HW217358   2.899   5.715   5.173
 5487SOL     OW17359   2.861   4.534   5.851
 5487SOL    HW117360   2.776   4.560   5.806
 5487SOL    HW217361   2.917   4.480   5.788
 5488SOL     OW17362   5.936   1.109   0.464
 5488SOL    HW117363   5.875   1.137   0.538
 5488SOL    HW217364   6.023   1.079   0.503
 5489SOL     OW17365   6.750   3.184   2.216
 5489SOL    HW117366   6.694   3.265   2.228
 5489SOL    HW217367   6.733   3.120   2.291
 5490SOL     OW17368   0.911   6.773   2.496
 5490SOL    HW117369   0.865   6.819   2.572
 5490SOL    HW217370   0.867   6.684   2.479
 5491SOL     OW17371   6.883   2.969   0.728
 5491SOL    HW117372   6.948   3.013   0.790
 5491SOL    HW217373   6.791   3.006   0.744
 5492SOL     OW17374   0.250   1.931   5.357
 5492SOL    HW117375   0.275   1.834   5.357
 5492SOL    HW217376   0.228   1.959   5.450
 5493SOL     OW17377   4.124   3.688   1.778
 5493SOL    HW117378   4.176   3.773   1.764
 5493SOL    HW217379   4.121   3.667   1.875
 5494SOL     OW17380   6.012   4.273   5.409
 5494SOL    HW117381   5.955   4.252   5.488
 5494SOL    HW217382   6.069   4.194   5.386
 5495SOL     OW17383   6.046   0.527   0.308
 5495SOL    HW117384   5.978   0.550   0.378
 5495SOL    HW217385   6.030   0.434   0.275
 5496SOL     OW17386   4.672   0.912   4.279
 5496SOL    HW117387   4.771   0.922   4.290
 5496SOL    HW217388   4.651   0.818   4.251
 5497SOL     OW17389   0.595   1.111   5.981
 5497SOL    HW117390   0.664   1.183   5.990
 5497SOL    HW217391   0.524   1.141   5.918
 5498SOL     OW17392   0.694   5.025   1.727
 5498SOL    HW117393   0.629   5.083   1.678
 5498SOL    HW217394   0.749   5.082   1.788
 5499SOL     OW17395   0.422   0.548   5.062
 5499SOL    HW117396   0.426   0.519   5.158
 5499SOL    HW217397   0.514   0.570   5.030
 5500SOL     OW17398   2.280   0.662   0.427
 5500SOL    HW117399   2.266   0.582   0.368
 5500SOL    HW217400   2.301   0.632   0.520
 5501SOL     OW17401   3.959   2.226   6.869
 5501SOL    HW117402   3.945   2.212   6.967
 5501SOL    HW217403   4.047   2.186   6.842
 5502SOL     OW17404   5.093   2.698   7.004
 5502SOL    HW117405   5.171   2.689   6.942
 5502SOL    HW217406   5.048   2.786   6.989
 5503SOL     OW17407   0.694   3.480   0.298
 5503SOL    HW117408   0.673   3.503   0.203
 5503SOL    HW217409   0.652   3.548   0.359
 5504SOL     OW17410   3.586   1.053   6.965
 5504SOL    HW117411   3.584   0.982   0.014
 5504SOL    HW217412   3.663   1.036   6.904
 5505SOL     OW17413   2.547   4.779   4.089
 5505SOL    HW117414   2.570   4.852   4.153
 5505SOL    HW217415   2.613   4.777   4.014
 5506SOL     OW17416   0.330   3.375   5.998
 5506SOL    HW117417   0.410   3.423   6.036
 5506SOL    HW217418   0.353   3.279   5.982
 5507SOL     OW17419   3.063   0.045   6.435
 5507SOL    HW117420   3.108   0.072   6.520
 5507SOL    HW217421   2.976   0.094   6.427
 5508SOL     OW17422   0.674   0.950   6.706
 5508SOL    HW117423   0.648   0.964   6.801
 5508SOL    HW217424   0.709   1.036   6.667
 5509SOL     OW17425   0.190   5.388   0.681
 5509SOL    HW117426   0.272   5.430   0.720
 5509SOL    HW217427   0.132   5.460   0.642
 5510SOL     OW17428   4.103   5.167   6.828
 5510SOL    HW117429   4.173   5.128   6.768
 5510SOL    HW217430   4.040   5.095   6.857
 5511SOL     OW17431   0.544   1.530   5.563
 5511SOL    HW117432   0.534   1.593   5.486
 5511SOL    HW217433   0.464   1.537   5.623
 5512SOL     OW17434   3.628   0.961   2.243
 5512SOL    HW117435   3.584   0.989   2.158
 5512SOL    HW217436   3.728   0.961   2.231
 5513SOL     OW17437   4.213   4.876   0.123
 5513SOL    HW117438   4.150   4.802   0.098
 5513SOL    HW217439   4.290   4.877   0.060
 5514SOL     OW17440   3.058   6.798   6.045
 5514SOL    HW117441   3.000   6.828   5.969
 5514SOL    HW217442   3.142   6.758   6.009
 5515SOL     OW17443   1.908   6.172   2.117
 5515SOL    HW117444   1.940   6.112   2.190
 5515SOL    HW217445   1.986   6.212   2.070
 5516SOL     OW17446   2.465   2.773   5.236
 5516SOL    HW117447   2.402   2.732   5.170
 5516SOL    HW217448   2.472   2.871   5.217
 5517SOL     OW17449   1.804   3.858   3.066
 5517SOL    HW117450   1.886   3.804   3.082
 5517SOL    HW217451   1.830   3.946   3.026
 5518SOL     OW17452   4.782   4.268   5.842
 5518SOL    HW117453   4.835   4.184   5.850
 5518SOL    HW217454   4.773   4.293   5.745
 5519SOL     OW17455   4.636   2.592   3.566
 5519SOL    HW117456   4.730   2.557   3.563
 5519SOL    HW217457   4.576   2.522   3.605
 5520SOL     OW17458   5.666   6.498   1.830
 5520SOL    HW117459   5.754   6.452   1.816
 5520SOL    HW217460   5.660   6.531   1.924
 5521SOL     OW17461   5.663   5.716   1.330
 5521SOL    HW117462   5.653   5.738   1.233
 5521SOL    HW217463   5.730   5.642   1.340
 5522SOL     OW17464   6.140   5.179   0.708
 5522SOL    HW117465   6.172   5.227   0.790
 5522SOL    HW217466   6.108   5.246   0.640
 5523SOL     OW17467   5.810   1.418   2.092
 5523SOL    HW117468   5.835   1.329   2.129
 5523SOL    HW217469   5.828   1.421   1.994
 5524SOL     OW17470   2.955   0.689   4.718
 5524SOL    HW117471   2.930   0.637   4.800
 5524SOL    HW217472   3.031   0.644   4.672
 5525SOL     OW17473   6.289   2.588   1.334
 5525SOL    HW117474   6.336   2.572   1.420
 5525SOL    HW217475   6.244   2.504   1.304
 5526SOL     OW17476   4.957   4.694   3.215
 5526SOL    HW117477   5.045   4.673   3.173
 5526SOL    HW217478   4.970   4.764   3.285
 5527SOL     OW17479   5.737   2.301   3.946
 5527SOL    HW117480   5.813   2.334   4.001
 5527SOL    HW217481   5.732   2.353   3.861
 5528SOL     OW17482   0.927   1.809   1.378
 5528SOL    HW117483   0.976   1.896   1.368
 5528SOL    HW217484   0.982   1.747   1.433
 5529SOL     OW17485   3.454   0.772   2.262
 5529SOL    HW117486   3.502   0.696   2.219
 5529SOL    HW217487   3.519   0.846   2.282
 5530SOL     OW17488   6.551   2.634   1.470
 5530SOL    HW117489   6.623   2.607   1.535
 5530SOL    HW217490   6.539   2.733   1.474
 5531SOL     OW17491   3.404   3.934   1.241
 5531SOL    HW117492   3.416   3.885   1.327
 5531SOL    HW217493   3.352   4.018   1.257
 5532SOL     OW17494   1.585   3.231   1.326
 5532SOL    HW117495   1.568   3.293   1.249
 5532SOL    HW217496   1.649   3.159   1.297
 5533SOL     OW17497   4.219   1.527   3.934
 5533SOL    HW117498   4.307   1.566   3.962
 5533SOL    HW217499   4.166   1.502   4.015
 5534SOL     OW17500   1.042   1.450   5.189
 5534SOL    HW117501   1.098   1.370   5.212
 5534SOL    HW217502   0.966   1.457   5.254
 5535SOL     OW17503   0.685   2.056   3.119
 5535SOL    HW117504   0.633   2.101   3.191
 5535SOL    HW217505   0.685   2.113   3.037
 5536SOL     OW17506   2.795   0.438   4.564
 5536SOL    HW117507   2.773   0.532   4.590
 5536SOL    HW217508   2.852   0.439   4.481
 5537SOL     OW17509   3.096   1.064   2.856
 5537SOL    HW117510   3.052   0.993   2.800
 5537SOL    HW217511   3.135   1.134   2.797
 5538SOL     OW17512   4.681   5.943   4.487
 5538SOL    HW117513   4.694   5.956   4.585
 5538SOL    HW217514   4.767   5.914   4.445
 5539SOL     OW17515   2.488   2.606   1.232
 5539SOL    HW117516   2.434   2.665   1.173
 5539SOL    HW217517   2.443   2.516   1.239
 5540SOL     OW17518   5.307   4.467   2.469
 5540SOL    HW117519   5.379   4.405   2.440
 5540SOL    HW217520   5.267   4.434   2.555
 5541SOL     OW17521   4.769   1.291   5.856
 5541SOL    HW117522   4.720   1.317   5.773
 5541SOL    HW217523   4.704   1.286   5.932
 5542SOL     OW17524   4.570   4.443   6.239
 5542SOL    HW117525   4.477   4.457   6.206
 5542SOL    HW217526   4.598   4.521   6.295
 5543SOL     OW17527   6.368   2.324   5.892
 5543SOL    HW117528   6.462   2.345   5.917
 5543SOL    HW217529   6.306   2.355   5.965
 5544SOL     OW17530   6.147   0.865   6.045
 5544SOL    HW117531   6.148   0.926   5.965
 5544SOL    HW217532   6.138   0.919   6.128
 5545SOL     OW17533   3.110   2.093   2.153
 5545SOL    HW117534   3.155   2.087   2.242
 5545SOL    HW217535   3.050   2.173   2.151
 5546SOL     OW17536   1.706   5.105   6.084
 5546SOL    HW117537   1.679   5.028   6.026
 5546SOL    HW217538   1.718   5.074   6.178
 5547SOL     OW17539   3.754   5.654   4.902
 5547SOL    HW117540   3.823   5.602   4.951
 5547SOL    HW217541   3.748   5.621   4.807
 5548SOL     OW17542   6.202   3.411   5.130
 5548SOL    HW117543   6.287   3.430   5.178
 5548SOL    HW217544   6.172   3.318   5.153
 5549SOL     OW17545   2.364   5.172   6.867
 5549SOL    HW117546   2.324   5.160   6.958
 5549SOL    HW217547   2.453   5.216   6.876
 5550SOL     OW17548   4.029   6.366   1.386
 5550SOL    HW117549   4.013   6.342   1.482
 5550SOL    HW217550   4.111   6.422   1.379
 5551SOL     OW17551   0.864   1.621   3.016
 5551SOL    HW117552   0.862   1.720   3.033
 5551SOL    HW217553   0.794   1.598   2.949
 5552SOL     OW17554   0.022   2.776   1.905
 5552SOL    HW117555   0.067   2.781   1.994
 5552SOL    HW217556   0.091   2.772   1.832
 5553SOL     OW17557   5.090   5.887   0.469
 5553SOL    HW117558   5.083   5.901   0.568
 5553SOL    HW217559   5.089   5.975   0.422
 5554SOL     OW17560   2.703   2.301   4.662
 5554SOL    HW117561   2.660   2.211   4.661
 5554SOL    HW217562   2.794   2.294   4.702
 5555SOL     OW17563   0.215   5.764   2.698
 5555SOL    HW117564   0.168   5.756   2.786
 5555SOL    HW217565   0.197   5.682   2.643
 5556SOL     OW17566   0.073   1.136   4.723
 5556SOL    HW117567   0.147   1.153   4.658
 5556SOL    HW217568   0.020   1.057   4.693
 5557SOL     OW17569   2.447   0.283   3.720
 5557SOL    HW117570   2.475   0.292   3.815
 5557SOL    HW217571   2.523   0.249   3.665
 5558SOL     OW17572   5.120   3.014   4.902
 5558SOL    HW117573   5.152   2.952   4.830
 5558SOL    HW217574   5.086   3.099   4.860
 5559SOL     OW17575   1.930   0.601   1.517
 5559SOL    HW117576   1.915   0.579   1.420
 5559SOL    HW217577   2.022   0.571   1.544
 5560SOL     OW17578   0.089   1.215   4.219
 5560SOL    HW117579   0.005   1.169   4.190
 5560SOL    HW217580   0.092   1.306   4.179
 5561SOL     OW17581   1.943   3.004   3.490
 5561SOL    HW117582   1.900   3.078   3.437
 5561SOL    HW217583   1.873   2.956   3.542
 5562SOL     OW17584   2.595   2.545   5.837
 5562SOL    HW117585   2.553   2.464   5.795
 5562SOL    HW217586   2.600   2.531   5.936
 5563SOL     OW17587   4.304   5.530   1.452
 5563SOL    HW117588   4.347   5.498   1.368
 5563SOL    HW217589   4.345   5.481   1.530
 5564SOL     OW17590   5.499   4.578   1.753
 5564SOL    HW117591   5.495   4.614   1.660
 5564SOL    HW217592   5.416   4.606   1.802
 5565SOL     OW17593   3.397   3.527   5.393
 5565SOL    HW117594   3.478   3.469   5.397
 5565SOL    HW217595   3.412   3.601   5.328
 5566SOL     OW17596   1.673   4.689   1.066
 5566SOL    HW117597   1.711   4.649   1.150
 5566SOL    HW217598   1.702   4.636   0.987
 5567SOL     OW17599   1.308   5.492   2.010
 5567SOL    HW117600   1.319   5.500   1.911
 5567SOL    HW217601   1.383   5.438   2.048
 5568SOL     OW17602   3.278   2.376   1.734
 5568SOL    HW117603   3.308   2.328   1.652
 5568SOL    HW217604   3.274   2.311   1.810
 5569SOL     OW17605   5.434   1.666   6.809
 5569SOL    HW117606   5.504   1.713   6.756
 5569SOL    HW217607   5.387   1.732   6.867
 5570SOL     OW17608   6.713   4.313   6.196
 5570SOL    HW117609   6.618   4.284   6.206
 5570SOL    HW217610   6.740   4.306   6.100
 5571SOL     OW17611   0.014   4.845   5.828
 5571SOL    HW117612   6.992   4.756   5.838
 5571SOL    HW217613   0.098   4.846   5.882
 5572SOL     OW17614   5.339   2.389   5.705
 5572SOL    HW117615   5.410   2.391   5.634
 5572SOL    HW217616   5.302   2.481   5.718
 5573SOL     OW17617   1.073   3.926   0.281
 5573SOL    HW117618   1.013   3.893   0.353
 5573SOL    HW217619   1.167   3.901   0.302
 5574SOL     OW17620   0.657   5.972   4.739
 5574SOL    HW117621   0.557   5.976   4.729
 5574SOL    HW217622   0.681   5.913   4.816
 5575SOL     OW17623   1.853   1.133   1.067
 5575SOL    HW117624   1.923   1.103   1.131
 5575SOL    HW217625   1.797   1.204   1.109
 5576SOL     OW17626   6.058   5.850   6.785
 5576SOL    HW117627   5.961   5.858   6.811
 5576SOL    HW217628   6.109   5.926   6.824
 5577SOL     OW17629   2.307   3.812   5.510
 5577SOL    HW117630   2.379   3.773   5.453
 5577SOL    HW217631   2.347   3.848   5.594
 5578SOL     OW17632   4.014   2.671   6.542
 5578SOL    HW117633   3.976   2.761   6.523
 5578SOL    HW217634   4.071   2.641   6.465
 5579SOL     OW17635   4.807   4.669   6.991
 5579SOL    HW117636   4.813   4.585   0.023
 5579SOL    HW217637   4.795   4.747   0.030
 5580SOL     OW17638   6.021   1.412   0.455
 5580SOL    HW117639   6.045   1.325   0.411
 5580SOL    HW217640   6.070   1.487   0.409
 5581SOL     OW17641   2.901   2.478   6.835
 5581SOL    HW117642   2.917   2.413   6.909
 5581SOL    HW217643   2.975   2.472   6.768
 5582SOL     OW17644   3.732   3.809   3.296
 5582SOL    HW117645   3.775   3.894   3.328
 5582SOL    HW217646   3.771   3.731   3.345
 5583SOL     OW17647   3.803   0.142   0.719
 5583SOL    HW117648   3.825   0.168   0.625
 5583SOL    HW217649   3.791   0.224   0.774
 5584SOL     OW17650   6.378   2.794   3.446
 5584SOL    HW117651   6.431   2.779   3.362
 5584SOL    HW217652   6.288   2.752   3.436
 5585SOL     OW17653   6.056   6.747   4.260
 5585SOL    HW117654   6.144   6.711   4.229
 5585SOL    HW217655   6.051   6.741   4.360
 5586SOL     OW17656   2.273   0.958   6.327
 5586SOL    HW117657   2.361   0.980   6.285
 5586SOL    HW217658   2.287   0.927   6.420
 5587SOL     OW17659   3.179   0.048   4.152
 5587SOL    HW117660   3.204   0.140   4.182
 5587SOL    HW217661   3.131   0.053   4.065
 5588SOL     OW17662   4.244   0.476   6.746
 5588SOL    HW117663   4.326   0.520   6.711
 5588SOL    HW217664   4.225   0.509   6.838
 5589SOL     OW17665   4.045   3.555   6.526
 5589SOL    HW117666   4.013   3.493   6.455
 5589SOL    HW217667   4.138   3.529   6.553
 5590SOL     OW17668   0.080   6.584   3.281
 5590SOL    HW117669   0.069   6.538   3.369
 5590SOL    HW217670   7.014   6.621   3.251
 5591SOL     OW17671   4.777   0.946   0.155
 5591SOL    HW117672   4.682   0.963   0.127
 5591SOL    HW217673   4.839   0.981   0.084
 5592SOL     OW17674   2.008   2.068   2.471
 5592SOL    HW117675   1.933   2.113   2.422
 5592SOL    HW217676   1.972   2.022   2.552
 5593SOL     OW17677   1.678   3.349   5.252
 5593SOL    HW117678   1.773   3.370   5.229
 5593SOL    HW217679   1.623   3.346   5.168
 5594SOL     OW17680   2.874   0.720   6.884
 5594SOL    HW117681   2.872   0.620   6.879
 5594SOL    HW217682   2.903   0.757   6.796
 5595SOL     OW17683   0.161   1.235   5.238
 5595SOL    HW117684   0.130   1.146   5.205
 5595SOL    HW217685   0.143   1.242   5.336
 5596SOL     OW17686   5.407   1.445   2.952
 5596SOL    HW117687   5.461   1.519   2.992
 5596SOL    HW217688   5.414   1.449   2.853
 5597SOL     OW17689   0.401   1.089   6.198
 5597SOL    HW117690   0.343   1.157   6.154
 5597SOL    HW217691   0.489   1.084   6.150
 5598SOL     OW17692   6.786   2.438   4.145
 5598SOL    HW117693   6.701   2.432   4.094
 5598SOL    HW217694   6.848   2.365   4.115
 5599SOL     OW17695   4.937   2.590   3.032
 5599SOL    HW117696   4.882   2.547   2.962
 5599SOL    HW217697   4.880   2.609   3.112
 5600SOL     OW17698   2.684   1.120   2.152
 5600SOL    HW117699   2.740   1.041   2.124
 5600SOL    HW217700   2.625   1.094   2.228
 5601SOL     OW17701   6.195   2.852   5.327
 5601SOL    HW117702   6.238   2.788   5.263
 5601SOL    HW217703   6.122   2.901   5.280
 5602SOL     OW17704   6.552   2.388   3.054
 5602SOL    HW117705   6.641   2.432   3.042
 5602SOL    HW217706   6.560   2.290   3.037
 5603SOL     OW17707   4.201   1.268   5.201
 5603SOL    HW117708   4.122   1.256   5.142
 5603SOL    HW217709   4.197   1.358   5.245
 5604SOL     OW17710   1.119   0.412   4.052
 5604SOL    HW117711   1.038   0.449   4.096
 5604SOL    HW217712   1.193   0.403   4.119
 5605SOL     OW17713   4.366   6.674   4.293
 5605SOL    HW117714   4.300   6.726   4.240
 5605SOL    HW217715   4.335   6.579   4.302
 5606SOL     OW17716   4.999   2.984   0.531
 5606SOL    HW117717   4.907   2.953   0.556
 5606SOL    HW217718   5.008   2.983   0.431
 5607SOL     OW17719   6.143   2.934   2.277
 5607SOL    HW117720   6.138   2.911   2.374
 5607SOL    HW217721   6.054   2.916   2.234
 5608SOL     OW17722   5.057   0.542   3.041
 5608SOL    HW117723   5.137   0.597   3.019
 5608SOL    HW217724   5.081   0.445   3.040
 5609SOL     OW17725   0.440   0.470   0.589
 5609SOL    HW117726   0.481   0.392   0.635
 5609SOL    HW217727   0.344   0.451   0.570
 5610SOL     OW17728   5.394   4.644   1.184
 5610SOL    HW117729   5.391   4.720   1.248
 5610SOL    HW217730   5.301   4.617   1.159
 5611SOL     OW17731   6.366   5.148   1.950
 5611SOL    HW117732   6.281   5.182   1.990
 5611SOL    HW217733   6.346   5.071   1.889
 5612SOL     OW17734   3.466   1.780   0.291
 5612SOL    HW117735   3.431   1.695   0.330
 5612SOL    HW217736   3.390   1.842   0.272
 5613SOL     OW17737   5.582   4.928   6.004
 5613SOL    HW117738   5.575   4.870   5.923
 5613SOL    HW217739   5.630   5.013   5.980
 5614SOL     OW17740   5.286   3.402   3.906
 5614SOL    HW117741   5.353   3.362   3.969
 5614SOL    HW217742   5.219   3.332   3.880
 5615SOL     OW17743   0.163   2.286   3.173
 5615SOL    HW117744   0.185   2.274   3.076
 5615SOL    HW217745   0.150   2.197   3.216
 5616SOL     OW17746   1.636   3.160   2.313
 5616SOL    HW117747   1.567   3.106   2.361
 5616SOL    HW217748   1.726   3.118   2.329
 5617SOL     OW17749   2.140   4.892   6.033
 5617SOL    HW117750   2.119   4.985   6.061
 5617SOL    HW217751   2.137   4.885   5.933
 5618SOL     OW17752   5.780   6.251   2.778
 5618SOL    HW117753   5.680   6.252   2.787
 5618SOL    HW217754   5.804   6.240   2.681
 5619SOL     OW17755   3.850   2.975   3.656
 5619SOL    HW117756   3.890   2.884   3.655
 5619SOL    HW217757   3.843   3.008   3.751
 5620SOL     OW17758   5.374   4.379   5.073
 5620SOL    HW117759   5.438   4.412   5.003
 5620SOL    HW217760   5.381   4.438   5.153
 5621SOL     OW17761   0.822   2.106   5.671
 5621SOL    HW117762   0.841   2.111   5.573
 5621SOL    HW217763   0.735   2.152   5.690
 5622SOL     OW17764   4.805   6.104   3.682
 5622SOL    HW117765   4.795   6.008   3.658
 5622SOL    HW217766   4.817   6.113   3.781
 5623SOL     OW17767   4.918   5.412   4.003
 5623SOL    HW117768   4.822   5.433   3.983
 5623SOL    HW217769   4.976   5.453   3.933
 5624SOL     OW17770   6.390   4.988   3.295
 5624SOL    HW117771   6.490   4.986   3.292
 5624SOL    HW217772   6.358   5.079   3.320
 5625SOL     OW17773   1.429   6.328   5.478
 5625SOL    HW117774   1.448   6.365   5.387
 5625SOL    HW217775   1.449   6.230   5.479
 5626SOL     OW17776   0.994   4.627   6.750
 5626SOL    HW117777   1.082   4.658   6.715
 5626SOL    HW217778   0.983   4.657   6.845
 5627SOL     OW17779   0.659   5.879   0.181
 5627SOL    HW117780   0.696   5.815   0.112
 5627SOL    HW217781   0.597   5.943   0.136
 5628SOL     OW17782   2.424   2.814   1.410
 5628SOL    HW117783   2.506   2.845   1.458
 5628SOL    HW217784   2.447   2.733   1.356
 5629SOL     OW17785   5.661   3.595   2.651
 5629SOL    HW117786   5.667   3.651   2.569
 5629SOL    HW217787   5.747   3.546   2.665
 5630SOL     OW17788   1.090   3.957   6.228
 5630SOL    HW117789   1.172   3.909   6.197
 5630SOL    HW217790   1.115   4.030   6.291
 5631SOL     OW17791   3.511   1.766   1.800
 5631SOL    HW117792   3.597   1.778   1.850
 5631SOL    HW217793   3.438   1.740   1.863
 5632SOL     OW17794   5.386   6.831   5.699
 5632SOL    HW117795   5.306   6.891   5.698
 5632SOL    HW217796   5.415   6.814   5.604
 5633SOL     OW17797   0.619   4.831   5.513
 5633SOL    HW117798   0.718   4.818   5.518
 5633SOL    HW217799   0.597   4.929   5.512
 5634SOL     OW17800   2.211   0.240   1.339
 5634SOL    HW117801   2.211   0.202   1.432
 5634SOL    HW217802   2.222   0.166   1.273
 5635SOL     OW17803   2.542   0.509   0.528
 5635SOL    HW117804   2.517   0.485   0.434
 5635SOL    HW217805   2.641   0.517   0.536
 5636SOL     OW17806   5.428   1.623   5.290
 5636SOL    HW117807   5.490   1.592   5.362
 5636SOL    HW217808   5.334   1.618   5.322
 5637SOL     OW17809   5.136   6.398   4.441
 5637SOL    HW117810   5.203   6.396   4.515
 5637SOL    HW217811   5.181   6.380   4.354
 5638SOL     OW17812   6.012   5.370   1.007
 5638SOL    HW117813   5.972   5.289   0.964
 5638SOL    HW217814   5.941   5.419   1.057
 5639SOL     OW17815   1.718   0.419   1.403
 5639SOL    HW117816   1.727   0.379   1.494
 5639SOL    HW217817   1.694   0.347   1.337
 5640SOL     OW17818   2.899   6.012   2.669
 5640SOL    HW117819   2.861   6.041   2.581
 5640SOL    HW217820   2.825   5.984   2.729
 5641SOL     OW17821   0.721   4.418   4.038
 5641SOL    HW117822   0.733   4.433   3.940
 5641SOL    HW217823   0.671   4.332   4.052
 5642SOL     OW17824   1.734   4.500   0.117
 5642SOL    HW117825   1.785   4.433   0.064
 5642SOL    HW217826   1.636   4.484   0.106
 5643SOL     OW17827   4.385   2.299   5.222
 5643SOL    HW117828   4.318   2.345   5.164
 5643SOL    HW217829   4.458   2.262   5.164
 5644SOL     OW17830   4.243   1.362   4.606
 5644SOL    HW117831   4.196   1.328   4.688
 5644SOL    HW217832   4.297   1.443   4.630
 5645SOL     OW17833   6.197   5.646   4.092
 5645SOL    HW117834   6.107   5.621   4.056
 5645SOL    HW217835   6.192   5.660   4.191
 5646SOL     OW17836   0.439   5.763   4.335
 5646SOL    HW117837   0.447   5.664   4.338
 5646SOL    HW217838   0.514   5.804   4.386
 5647SOL     OW17839   5.579   5.214   6.212
 5647SOL    HW117840   5.596   5.142   6.279
 5647SOL    HW217841   5.636   5.198   6.131
 5648SOL     OW17842   1.994   1.695   5.117
 5648SOL    HW117843   1.919   1.759   5.101
 5648SOL    HW217844   1.988   1.619   5.051
 5649SOL     OW17845   0.648   0.739   5.553
 5649SOL    HW117846   0.715   0.734   5.627
 5649SOL    HW217847   0.693   0.769   5.469
 5650SOL     OW17848   6.471   4.926   7.005
 5650SOL    HW117849   6.469   5.019   6.969
 5650SOL    HW217850   6.491   4.861   6.931
 5651SOL     OW17851   6.499   0.870   2.930
 5651SOL    HW117852   6.528   0.859   2.835
 5651SOL    HW217853   6.519   0.788   2.982
 5652SOL     OW17854   4.701   5.003   0.349
 5652SOL    HW117855   4.645   4.940   0.403
 5652SOL    HW217856   4.643   5.071   0.305
 5653SOL     OW17857   1.387   6.154   6.276
 5653SOL    HW117858   1.450   6.093   6.226
 5653SOL    HW217859   1.308   6.173   6.219
 5654SOL     OW17860   0.379   6.036   5.581
 5654SOL    HW117861   0.370   5.978   5.500
 5654SOL    HW217862   0.333   6.123   5.566
 5655SOL     OW17863   0.075   3.361   3.625
 5655SOL    HW117864   0.097   3.456   3.604
 5655SOL    HW217865   7.010   3.336   3.583
 5656SOL     OW17866   3.512   4.585   0.342
 5656SOL    HW117867   3.464   4.534   0.271
 5656SOL    HW217868   3.539   4.523   0.416
 5657SOL     OW17869   4.291   6.534   2.061
 5657SOL    HW117870   4.380   6.488   2.056
 5657SOL    HW217871   4.306   6.631   2.082
 5658SOL     OW17872   4.382   0.185   5.450
 5658SOL    HW117873   4.440   0.103   5.449
 5658SOL    HW217874   4.395   0.234   5.536
 5659SOL     OW17875   3.737   3.658   2.890
 5659SOL    HW117876   3.830   3.692   2.904
 5659SOL    HW217877   3.738   3.586   2.820
 5660SOL     OW17878   5.858   6.453   0.719
 5660SOL    HW117879   5.952   6.484   0.731
 5660SOL    HW217880   5.800   6.531   0.693
 5661SOL     OW17881   6.391   5.760   4.449
 5661SOL    HW117882   6.373   5.780   4.545
 5661SOL    HW217883   6.306   5.768   4.396
 5662SOL     OW17884   2.512   4.473   4.456
 5662SOL    HW117885   2.580   4.545   4.465
 5662SOL    HW217886   2.515   4.413   4.536
 5663SOL     OW17887   1.427   3.999   6.974
 5663SOL    HW117888   1.342   3.994   0.004
 5663SOL    HW217889   1.498   3.949   7.022
 5664SOL     OW17890   0.413   4.421   3.034
 5664SOL    HW117891   0.383   4.440   2.941
 5664SOL    HW217892   0.363   4.480   3.098
 5665SOL     OW17893   2.301   2.482   5.954
 5665SOL    HW117894   2.270   2.423   6.028
 5665SOL    HW217895   2.303   2.431   5.868
 5666SOL     OW17896   5.839   5.216   0.703
 5666SOL    HW117897   5.904   5.167   0.760
 5666SOL    HW217898   5.876   5.305   0.678
 5667SOL     OW17899   0.317   5.244   3.380
 5667SOL    HW117900   0.332   5.252   3.478
 5667SOL    HW217901   0.239   5.183   3.363
 5668SOL     OW17902   5.963   2.046   5.937
 5668SOL    HW117903   5.926   1.953   5.945
 5668SOL    HW217904   5.966   2.072   5.840
 5669SOL     OW17905   6.649   3.649   6.158
 5669SOL    HW117906   6.600   3.582   6.213
 5669SOL    HW217907   6.649   3.620   6.062
 5670SOL     OW17908   0.634   4.148   4.050
 5670SOL    HW117909   0.557   4.108   4.101
 5670SOL    HW217910   0.709   4.082   4.045
 5671SOL     OW17911   1.850   1.280   5.996
 5671SOL    HW117912   1.796   1.210   6.042
 5671SOL    HW217913   1.947   1.255   5.998
 5672SOL     OW17914   4.773   5.185   5.810
 5672SOL    HW117915   4.773   5.224   5.902
 5672SOL    HW217916   4.716   5.241   5.750
 5673SOL     OW17917   0.359   0.584   2.286
 5673SOL    HW117918   0.369   0.491   2.248
 5673SOL    HW217919   0.415   0.592   2.368
 5674SOL     OW17920   6.772   3.414   1.760
 5674SOL    HW117921   6.760   3.335   1.821
 5674SOL    HW217922   6.700   3.413   1.690
 5675SOL     OW17923   4.119   2.377   5.729
 5675SOL    HW117924   4.157   2.369   5.821
 5675SOL    HW217925   4.193   2.388   5.663
 5676SOL     OW17926   2.278   0.466   1.857
 5676SOL    HW117927   2.225   0.386   1.885
 5676SOL    HW217928   2.246   0.546   1.907
 5677SOL     OW17929   6.571   0.663   4.022
 5677SOL    HW117930   6.551   0.677   4.119
 5677SOL    HW217931   6.638   0.590   4.011
 5678SOL     OW17932   2.020   5.809   3.049
 5678SOL    HW117933   2.076   5.851   3.121
 5678SOL    HW217934   2.011   5.873   2.972
 5679SOL     OW17935   1.742   6.211   5.235
 5679SOL    HW117936   1.703   6.293   5.276
 5679SOL    HW217937   1.840   6.207   5.256
 5680SOL     OW17938   2.366   6.549   6.327
 5680SOL    HW117939   2.410   6.616   6.387
 5680SOL    HW217940   2.435   6.490   6.286
 5681SOL     OW17941   1.579   2.733   0.012
 5681SOL    HW117942   1.569   2.650   0.067
 5681SOL    HW217943   1.514   2.802   0.045
 5682SOL     OW17944   1.414   3.614   4.589
 5682SOL    HW117945   1.331   3.570   4.625
 5682SOL    HW217946   1.426   3.587   4.493
 5683SOL     OW17947   3.685   2.439   5.693
 5683SOL    HW117948   3.643   2.489   5.617
 5683SOL    HW217949   3.644   2.469   5.779
 5684SOL     OW17950   3.358   4.082   3.770
 5684SOL    HW117951   3.393   4.129   3.689
 5684SOL    HW217952   3.356   3.983   3.753
 5685SOL     OW17953   0.255   5.210   2.096
 5685SOL    HW117954   0.226   5.205   2.000
 5685SOL    HW217955   0.175   5.221   2.155
 5686SOL     OW17956   3.207   6.907   0.355
 5686SOL    HW117957   3.259   6.966   0.292
 5686SOL    HW217958   3.205   6.814   0.319
 5687SOL     OW17959   5.445   5.230   5.657
 5687SOL    HW117960   5.522   5.248   5.594
 5687SOL    HW217961   5.474   5.250   5.751
 5688SOL     OW17962   5.646   1.986   1.146
 5688SOL    HW117963   5.732   1.944   1.114
 5688SOL    HW217964   5.608   2.044   1.074
 5689SOL     OW17965   3.444   2.863   0.874
 5689SOL    HW117966   3.446   2.824   0.966
 5689SOL    HW217967   3.480   2.956   0.876
 5690SOL     OW17968   4.735   6.493   0.977
 5690SOL    HW117969   4.686   6.452   1.053
 5690SOL    HW217970   4.733   6.592   0.984
 5691SOL     OW17971   0.938   0.230   2.120
 5691SOL    HW117972   0.970   0.272   2.205
 5691SOL    HW217973   0.985   0.271   2.042
 5692SOL     OW17974   6.176   2.789   6.573
 5692SOL    HW117975   6.166   2.840   6.488
 5692SOL    HW217976   6.219   2.701   6.554
 5693SOL     OW17977   4.844   2.481   2.816
 5693SOL    HW117978   4.929   2.460   2.768
 5693SOL    HW217979   4.775   2.414   2.792
 5694SOL     OW17980   6.977   1.709   3.705
 5694SOL    HW117981   0.029   1.760   3.747
 5694SOL    HW217982   7.008   1.617   3.683
 5695SOL     OW17983   1.711   3.521   3.290
 5695SOL    HW117984   1.798   3.541   3.244
 5695SOL    HW217985   1.700   3.584   3.367
 5696SOL     OW17986   2.749   0.314   5.256
 5696SOL    HW117987   2.702   0.385   5.204
 5696SOL    HW217988   2.847   0.317   5.236
 5697SOL     OW17989   6.302   3.035   0.275
 5697SOL    HW117990   6.347   3.118   0.308
 5697SOL    HW217991   6.320   3.024   0.177
 5698SOL     OW17992   0.406   3.657   1.958
 5698SOL    HW117993   0.425   3.707   1.873
 5698SOL    HW217994   0.492   3.620   1.994
 5699SOL     OW17995   6.227   0.831   5.119
 5699SOL    HW117996   6.259   0.751   5.170
 5699SOL    HW217997   6.141   0.808   5.072
 5700SOL     OW17998   1.746   5.656   3.721
 5700SOL    HW117999   1.716   5.572   3.766
 5700SOL    HW218000   1.672   5.691   3.663
 5701SOL     OW18001   6.429   5.569   1.213
 5701SOL    HW118002   6.345   5.588   1.163
 5701SOL    HW218003   6.471   5.485   1.178
 5702SOL     OW18004   2.021   0.674   6.623
 5702SOL    HW118005   2.114   0.669   6.586
 5702SOL    HW218006   2.013   0.756   6.680
 5703SOL     OW18007   4.526   4.479   0.782
 5703SOL    HW118008   4.461   4.520   0.847
 5703SOL    HW218009   4.485   4.398   0.741
 5704SOL     OW18010   3.904   5.262   3.283
 5704SOL    HW118011   3.934   5.187   3.224
 5704SOL    HW218012   3.972   5.277   3.355
 5705SOL     OW18013   6.147   0.962   1.626
 5705SOL    HW118014   6.137   0.956   1.526
 5705SOL    HW218015   6.140   1.058   1.654
 5706SOL     OW18016   1.233   1.167   6.948
 5706SOL    HW118017   1.183   1.100   7.003
 5706SOL    HW218018   1.198   1.258   6.966
 5707SOL     OW18019   2.445   2.123   0.265
 5707SOL    HW118020   2.400   2.045   0.308
 5707SOL    HW218021   2.384   2.203   0.267
 5708SOL     OW18022   5.199   6.725   1.911
 5708SOL    HW118023   5.120   6.778   1.940
 5708SOL    HW218024   5.257   6.781   1.851
 5709SOL     OW18025   1.243   0.486   2.616
 5709SOL    HW118026   1.330   0.440   2.598
 5709SOL    HW218027   1.231   0.497   2.715
 5710SOL     OW18028   2.978   3.579   6.032
 5710SOL    HW118029   2.967   3.614   6.125
 5710SOL    HW218030   3.072   3.548   6.019
 5711SOL     OW18031   4.363   1.066   3.997
 5711SOL    HW118032   4.403   1.079   4.087
 5711SOL    HW218033   4.331   1.153   3.961
 5712SOL     OW18034   6.995   6.143   6.125
 5712SOL    HW118035   0.006   6.143   6.220
 5712SOL    HW218036   6.906   6.098   6.121
 5713SOL     OW18037   6.791   2.831   2.567
 5713SOL    HW118038   6.775   2.740   2.528
 5713SOL    HW218039   6.756   2.901   2.504
 5714SOL     OW18040   1.608   0.766   6.172
 5714SOL    HW118041   1.509   0.761   6.170
 5714SOL    HW218042   1.646   0.678   6.201
 5715SOL     OW18043   0.829   6.501   2.929
 5715SOL    HW118044   0.870   6.583   2.969
 5715SOL    HW218045   0.895   6.457   2.868
 5716SOL     OW18046   2.205   3.884   6.102
 5716SOL    HW118047   2.267   3.963   6.101
 5716SOL    HW218048   2.201   3.844   6.011
 5717SOL     OW18049   1.332   3.829   0.313
 5717SOL    HW118050   1.427   3.828   0.342
 5717SOL    HW218051   1.326   3.806   0.216
 5718SOL     OW18052   3.168   4.330   6.258
 5718SOL    HW118053   3.262   4.343   6.290
 5718SOL    HW218054   3.169   4.294   6.165
 5719SOL     OW18055   3.592   0.871   6.494
 5719SOL    HW118056   3.517   0.829   6.546
 5719SOL    HW218057   3.622   0.809   6.422
 5720SOL     OW18058   1.378   4.723   5.051
 5720SOL    HW118059   1.330   4.707   4.965
 5720SOL    HW218060   1.476   4.711   5.037
 5721SOL     OW18061   0.583   4.120   1.489
 5721SOL    HW118062   0.659   4.077   1.538
 5721SOL    HW218063   0.539   4.052   1.430
 5722SOL     OW18064   5.416   6.531   4.280
 5722SOL    HW118065   5.432   6.489   4.369
 5722SOL    HW218066   5.389   6.627   4.292
 5723SOL     OW18067   3.011   5.342   0.666
 5723SOL    HW118068   3.000   5.383   0.756
 5723SOL    HW218069   2.921   5.313   0.632
 5724SOL     OW18070   5.112   1.406   6.712
 5724SOL    HW118071   5.205   1.403   6.677
 5724SOL    HW218072   5.113   1.406   6.812
 5725SOL     OW18073   5.109   5.502   6.286
 5725SOL    HW118074   5.115   5.577   6.352
 5725SOL    HW218075   5.174   5.430   6.310
 5726SOL     OW18076   5.359   3.679   5.787
 5726SOL    HW118077   5.332   3.738   5.711
 5726SOL    HW218078   5.322   3.587   5.773
 5727SOL     OW18079   5.902   1.913   3.368
 5727SOL    HW118080   5.985   1.965   3.389
 5727SOL    HW218081   5.830   1.939   3.433
 5728SOL     OW18082   5.882   0.548   5.586
 5728SOL    HW118083   5.827   0.472   5.620
 5728SOL    HW218084   5.962   0.561   5.645
 5729SOL     OW18085   0.707   2.018   6.475
 5729SOL    HW118086   0.651   2.004   6.394
 5729SOL    HW218087   0.778   1.948   6.478
 5730SOL     OW18088   5.158   4.952   5.909
 5730SOL    HW118089   5.169   5.012   5.988
 5730SOL    HW218090   5.208   4.867   5.926
 5731SOL     OW18091   3.124   0.862   4.143
 5731SOL    HW118092   3.174   0.909   4.070
 5731SOL    HW218093   3.112   0.766   4.119
 5732SOL     OW18094   5.857   5.020   4.927
 5732SOL    HW118095   5.949   5.052   4.946
 5732SOL    HW218096   5.835   5.035   4.831
 5733SOL     OW18097   3.345   1.318   0.205
 5733SOL    HW118098   3.426   1.301   0.148
 5733SOL    HW218099   3.351   1.262   0.288
 5734SOL     OW18100   2.166   6.361   6.010
 5734SOL    HW118101   2.083   6.408   6.039
 5734SOL    HW218102   2.180   6.280   6.066
 5735SOL     OW18103   3.877   0.611   2.253
 5735SOL    HW118104   3.873   0.701   2.296
 5735SOL    HW218105   3.969   0.573   2.263
 5736SOL     OW18106   4.774   4.363   6.718
 5736SOL    HW118107   4.812   4.374   6.626
 5736SOL    HW218108   4.713   4.439   6.738
 5737SOL     OW18109   4.505   5.206   0.926
 5737SOL    HW118110   4.579   5.262   0.964
 5737SOL    HW218111   4.417   5.245   0.952
 5738SOL     OW18112   3.399   1.312   6.455
 5738SOL    HW118113   3.435   1.382   6.393
 5738SOL    HW218114   3.320   1.348   6.505
 5739SOL     OW18115   2.171   0.370   5.779
 5739SOL    HW118116   2.247   0.311   5.753
 5739SOL    HW218117   2.098   0.316   5.821
 5740SOL     OW18118   5.501   3.826   2.357
 5740SOL    HW118119   5.408   3.863   2.353
 5740SOL    HW218120   5.535   3.832   2.450
 5741SOL     OW18121   0.422   3.705   4.223
 5741SOL    HW118122   0.496   3.637   4.219
 5741SOL    HW218123   0.334   3.660   4.208
 5742SOL     OW18124   4.986   0.586   3.754
 5742SOL    HW118125   5.010   0.591   3.657
 5742SOL    HW218126   4.991   0.677   3.795
 5743SOL     OW18127   3.637   3.798   5.424
 5743SOL    HW118128   3.730   3.801   5.387
 5743SOL    HW218129   3.574   3.767   5.352
 5744SOL     OW18130   5.498   6.648   2.588
 5744SOL    HW118131   5.594   6.670   2.576
 5744SOL    HW218132   5.485   6.549   2.582
 5745SOL     OW18133   2.236   2.472   3.244
 5745SOL    HW118134   2.149   2.457   3.199
 5745SOL    HW218135   2.304   2.407   3.210
 5746SOL     OW18136   4.585   0.320   3.315
 5746SOL    HW118137   4.675   0.303   3.276
 5746SOL    HW218138   4.591   0.393   3.383
 5747SOL     OW18139   0.994   6.261   1.456
 5747SOL    HW118140   0.936   6.259   1.375
 5747SOL    HW218141   0.992   6.172   1.501
 5748SOL     OW18142   0.558   5.822   0.438
 5748SOL    HW118143   0.551   5.918   0.464
 5748SOL    HW218144   0.615   5.814   0.356
 5749SOL     OW18145   2.021   6.167   5.195
 5749SOL    HW118146   2.109   6.207   5.217
 5749SOL    HW218147   2.029   6.067   5.192
 5750SOL     OW18148   6.783   4.343   4.231
 5750SOL    HW118149   6.817   4.370   4.321
 5750SOL    HW218150   6.848   4.371   4.160
 5751SOL     OW18151   2.095   3.406   4.115
 5751SOL    HW118152   2.099   3.312   4.080
 5751SOL    HW218153   2.095   3.404   4.215
 5752SOL     OW18154   5.318   0.543   1.039
 5752SOL    HW118155   5.400   0.563   1.094
 5752SOL    HW218156   5.242   0.599   1.071
 5753SOL     OW18157   3.015   3.938   4.662
 5753SOL    HW118158   2.968   4.018   4.699
 5753SOL    HW218159   2.963   3.855   4.684
 5754SOL     OW18160   1.226   5.954   1.547
 5754SOL    HW118161   1.257   5.911   1.462
 5754SOL    HW218162   1.164   6.029   1.525
 5755SOL     OW18163   1.803   2.529   6.809
 5755SOL    HW118164   1.897   2.515   6.779
 5755SOL    HW218165   1.802   2.572   6.899
 5756SOL     OW18166   5.760   5.953   1.448
 5756SOL    HW118167   5.672   6.001   1.440
 5756SOL    HW218168   5.747   5.857   1.426
 5757SOL     OW18169   6.595   0.266   3.859
 5757SOL    HW118170   6.576   0.234   3.951
 5757SOL    HW218171   6.689   0.243   3.834
 5758SOL     OW18172   0.769   0.314   2.876
 5758SOL    HW118173   0.757   0.302   2.777
 5758SOL    HW218174   0.802   0.229   2.916
 5759SOL     OW18175   3.486   6.908   1.074
 5759SOL    HW118176   3.545   6.829   1.054
 5759SOL    HW218177   3.522   6.989   1.028
 5760SOL     OW18178   0.203   3.128   1.537
 5760SOL    HW118179   0.237   3.203   1.593
 5760SOL    HW218180   0.165   3.057   1.595
 5761SOL     OW18181   5.242   5.443   5.243
 5761SOL    HW118182   5.295   5.374   5.193
 5761SOL    HW218183   5.281   5.534   5.226
 5762SOL     OW18184   5.145   4.776   0.041
 5762SOL    HW118185   5.205   4.785   6.984
 5762SOL    HW218186   5.075   4.708   0.023
 5763SOL     OW18187   5.307   0.354   0.322
 5763SOL    HW118188   5.273   0.441   0.358
 5763SOL    HW218189   5.407   0.353   0.328
 5764SOL     OW18190   4.270   6.005   3.707
 5764SOL    HW118191   4.223   6.083   3.748
 5764SOL    HW218192   4.235   5.989   3.614
 5765SOL     OW18193   6.231   5.192   1.538
 5765SOL    HW118194   6.262   5.286   1.520
 5765SOL    HW218195   6.185   5.189   1.627
 5766SOL     OW18196   0.559   1.664   4.102
 5766SOL    HW118197   0.535   1.737   4.037
 5766SOL    HW218198   0.482   1.649   4.164
 5767SOL     OW18199   2.369   0.210   0.974
 5767SOL    HW118200   2.415   0.203   1.063
 5767SOL    HW218201   2.432   0.250   0.908
 5768SOL     OW18202   0.081   6.335   4.589
 5768SOL    HW118203   0.092   6.389   4.505
 5768SOL    HW218204   0.170   6.310   4.625
 5769SOL     OW18205   1.420   4.842   6.374
 5769SOL    HW118206   1.321   4.833   6.374
 5769SOL    HW218207   1.445   4.937   6.354
 5770SOL     OW18208   1.755   5.333   1.386
 5770SOL    HW118209   1.777   5.429   1.399
 5770SOL    HW218210   1.693   5.303   1.458
 5771SOL     OW18211   2.504   5.436   4.354
 5771SOL    HW118212   2.575   5.365   4.359
 5771SOL    HW218213   2.475   5.460   4.446
 5772SOL     OW18214   3.971   0.255   2.114
 5772SOL    HW118215   4.032   0.303   2.177
 5772SOL    HW218216   4.021   0.227   2.033
 5773SOL     OW18217   4.301   2.177   2.264
 5773SOL    HW118218   4.322   2.081   2.283
 5773SOL    HW218219   4.322   2.197   2.168
 5774SOL     OW18220   0.445   6.348   3.355
 5774SOL    HW118221   0.420   6.354   3.258
 5774SOL    HW218222   0.365   6.318   3.407
 5775SOL     OW18223   0.444   5.542   2.525
 5775SOL    HW118224   0.488   5.615   2.579
 5775SOL    HW218225   0.446   5.567   2.428
 5776SOL     OW18226   2.199   0.442   3.251
 5776SOL    HW118227   2.198   0.348   3.215
 5776SOL    HW218228   2.120   0.492   3.215
 5777SOL     OW18229   1.841   6.913   3.199
 5777SOL    HW118230   1.773   6.841   3.214
 5777SOL    HW218231   1.836   6.980   3.272
 5778SOL     OW18232   0.837   1.403   6.778
 5778SOL    HW118233   0.767   1.410   6.706
 5778SOL    HW218234   0.928   1.406   6.736
 5779SOL     OW18235   5.549   2.260   6.378
 5779SOL    HW118236   5.607   2.336   6.349
 5779SOL    HW218237   5.496   2.226   6.300
 5780SOL     OW18238   5.071   4.848   3.650
 5780SOL    HW118239   5.138   4.920   3.629
 5780SOL    HW218240   5.113   4.759   3.636
 5781SOL     OW18241   0.489   3.736   5.436
 5781SOL    HW118242   0.466   3.643   5.464
 5781SOL    HW218243   0.565   3.769   5.492
 5782SOL     OW18244   0.397   1.440   0.379
 5782SOL    HW118245   0.464   1.394   0.321
 5782SOL    HW218246   0.400   1.401   0.471
 5783SOL     OW18247   2.323   1.800   2.316
 5783SOL    HW118248   2.382   1.880   2.303
 5783SOL    HW218249   2.310   1.754   2.228
 5784SOL     OW18250   0.490   6.110   6.561
 5784SOL    HW118251   0.452   6.058   6.484
 5784SOL    HW218252   0.454   6.074   6.647
 5785SOL     OW18253   2.031   1.623   1.183
 5785SOL    HW118254   1.998   1.566   1.258
 5785SOL    HW218255   2.066   1.565   1.110
 5786SOL     OW18256   0.298   3.851   0.724
 5786SOL    HW118257   0.294   3.940   0.679
 5786SOL    HW218258   0.353   3.858   0.807
 5787SOL     OW18259   2.508   1.576   5.502
 5787SOL    HW118260   2.459   1.489   5.506
 5787SOL    HW218261   2.533   1.605   5.595
 5788SOL     OW18262   2.713   0.850   2.769
 5788SOL    HW118263   2.784   0.785   2.797
 5788SOL    HW218264   2.623   0.809   2.782
 5789SOL     OW18265   4.331   4.985   6.315
 5789SOL    HW118266   4.336   5.017   6.221
 5789SOL    HW218267   4.391   4.905   6.327
 5790SOL     OW18268   0.668   3.055   3.990
 5790SOL    HW118269   0.732   3.060   3.914
 5790SOL    HW218270   0.644   2.960   4.008
 5791SOL     OW18271   2.463   0.300   2.900
 5791SOL    HW118272   2.439   0.320   2.805
 5791SOL    HW218273   2.545   0.242   2.902
 5792SOL     OW18274   6.694   1.916   2.877
 5792SOL    HW118275   6.707   1.996   2.819
 5792SOL    HW218276   6.596   1.900   2.891
 5793SOL     OW18277   6.479   0.946   3.570
 5793SOL    HW118278   6.549   0.974   3.504
 5793SOL    HW218279   6.435   1.027   3.608
 5794SOL     OW18280   3.744   3.655   0.133
 5794SOL    HW118281   3.796   3.619   0.210
 5794SOL    HW218282   3.791   3.634   0.047
 5795SOL     OW18283   5.738   4.722   6.130
 5795SOL    HW118284   5.698   4.682   6.047
 5795SOL    HW218285   5.678   4.795   6.163
 5796SOL     OW18286   3.672   1.782   0.099
 5796SOL    HW118287   3.588   1.793   0.153
 5796SOL    HW218288   3.650   1.791   0.001
 5797SOL     OW18289   3.331   2.109   4.484
 5797SOL    HW118290   3.385   2.104   4.568
 5797SOL    HW218291   3.322   2.204   4.456
 5798SOL     OW18292   6.737   4.678   4.877
 5798SOL    HW118293   6.736   4.652   4.780
 5798SOL    HW218294   6.697   4.769   4.887
 5799SOL     OW18295   5.072   6.832   3.017
 5799SOL    HW118296   5.079   6.779   2.932
 5799SOL    HW218297   4.990   6.889   3.014
 5800SOL     OW18298   5.758   4.858   1.197
 5800SOL    HW118299   5.847   4.896   1.220
 5800SOL    HW218300   5.769   4.776   1.141
 5801SOL     OW18301   0.620   0.844   3.215
 5801SOL    HW118302   0.566   0.898   3.151
 5801SOL    HW218303   0.579   0.849   3.306
 5802SOL     OW18304   0.222   3.577   6.176
 5802SOL    HW118305   0.209   3.515   6.098
 5802SOL    HW218306   0.135   3.591   6.223
 5803SOL     OW18307   1.228   4.521   0.903
 5803SOL    HW118308   1.251   4.616   0.885
 5803SOL    HW218309   1.167   4.487   0.831
 5804SOL     OW18310   6.255   3.980   4.555
 5804SOL    HW118311   6.246   3.969   4.456
 5804SOL    HW218312   6.165   3.971   4.598
 5805SOL     OW18313   4.225   4.035   6.418
 5805SOL    HW118314   4.266   3.975   6.349
 5805SOL    HW218315   4.278   4.029   6.503
 5806SOL     OW18316   1.221   6.563   0.237
 5806SOL    HW118317   1.241   6.588   0.142
 5806SOL    HW218318   1.123   6.556   0.250
 5807SOL     OW18319   1.778   3.514   0.756
 5807SOL    HW118320   1.852   3.580   0.747
 5807SOL    HW218321   1.784   3.469   0.845
 5808SOL     OW18322   5.505   4.284   2.419
 5808SOL    HW118323   5.442   4.223   2.370
 5808SOL    HW218324   5.525   4.245   2.509
 5809SOL     OW18325   6.850   3.151   4.604
 5809SOL    HW118326   6.835   3.195   4.692
 5809SOL    HW218327   6.763   3.122   4.565
 5810SOL     OW18328   3.425   1.395   3.827
 5810SOL    HW118329   3.464   1.477   3.870
 5810SOL    HW218330   3.406   1.413   3.731
 5811SOL     OW18331   2.457   0.248   4.764
 5811SOL    HW118332   2.557   0.250   4.765
 5811SOL    HW218333   2.423   0.336   4.732
 5812SOL     OW18334   4.592   0.447   2.947
 5812SOL    HW118335   4.577   0.398   3.034
 5812SOL    HW218336   4.667   0.404   2.897
 5813SOL     OW18337   1.320   1.143   5.576
 5813SOL    HW118338   1.274   1.092   5.649
 5813SOL    HW218339   1.419   1.136   5.588
 5814SOL     OW18340   0.098   4.645   0.663
 5814SOL    HW118341   0.009   4.682   0.687
 5814SOL    HW218342   0.088   4.578   0.589
 5815SOL     OW18343   3.958   2.094   2.811
 5815SOL    HW118344   4.036   2.093   2.874
 5815SOL    HW218345   3.957   2.009   2.759
 5816SOL     OW18346   4.823   0.310   0.142
 5816SOL    HW118347   4.843   0.396   0.095
 5816SOL    HW218348   4.864   0.234   0.091
 5817SOL     OW18349   5.329   3.148   5.949
 5817SOL    HW118350   5.394   3.173   6.020
 5817SOL    HW218351   5.246   3.110   5.991
 5818SOL     OW18352   5.770   6.663   5.816
 5818SOL    HW118353   5.853   6.634   5.769
 5818SOL    HW218354   5.691   6.617   5.777
 5819SOL     OW18355   5.262   0.274   1.080
 5819SOL    HW118356   5.196   0.246   1.150
 5819SOL    HW218357   5.260   0.373   1.070
 5820SOL     OW18358   5.011   0.117   3.363
 5820SOL    HW118359   5.039   0.031   3.404
 5820SOL    HW218360   4.987   0.182   3.435
 5821SOL     OW18361   2.883   0.500   2.040
 5821SOL    HW118362   2.786   0.495   2.016
 5821SOL    HW218363   2.903   0.435   2.114
 5822SOL     OW18364   0.603   2.284   1.685
 5822SOL    HW118365   0.666   2.247   1.754
 5822SOL    HW218366   0.641   2.269   1.594
 5823SOL     OW18367   1.644   1.055   4.826
 5823SOL    HW118368   1.597   1.090   4.908
 5823SOL    HW218369   1.684   1.131   4.775
 5824SOL     OW18370   6.552   6.789   3.469
 5824SOL    HW118371   6.462   6.750   3.448
 5824SOL    HW218372   6.594   6.824   3.385
 5825SOL     OW18373   2.386   1.481   6.727
 5825SOL    HW118374   2.376   1.460   6.629
 5825SOL    HW218375   2.469   1.536   6.740
 5826SOL     OW18376   6.037   6.345   5.269
 5826SOL    HW118377   6.049   6.421   5.205
 5826SOL    HW218378   6.095   6.269   5.242
 5827SOL     OW18379   0.683   5.524   4.676
 5827SOL    HW118380   0.693   5.429   4.647
 5827SOL    HW218381   0.771   5.570   4.672
 5828SOL     OW18382   0.301   4.062   2.222
 5828SOL    HW118383   0.261   3.987   2.170
 5828SOL    HW218384   0.300   4.040   2.320
 5829SOL     OW18385   2.919   1.164   1.789
 5829SOL    HW118386   2.921   1.211   1.700
 5829SOL    HW218387   2.858   1.213   1.851
 5830SOL     OW18388   3.770   0.907   5.465
 5830SOL    HW118389   3.681   0.929   5.504
 5830SOL    HW218390   3.799   0.981   5.404
 5831SOL     OW18391   5.863   6.502   2.821
 5831SOL    HW118392   5.823   6.534   2.735
 5831SOL    HW218393   5.834   6.408   2.839
 5832SOL     OW18394   4.024   4.218   5.261
 5832SOL    HW118395   4.008   4.144   5.196
 5832SOL    HW218396   4.113   4.205   5.305
 5833SOL     OW18397   2.954   3.263   3.735
 5833SOL    HW118398   2.955   3.354   3.776
 5833SOL    HW218399   2.895   3.262   3.654
 5834SOL     OW18400   6.142   1.648   0.341
 5834SOL    HW118401   6.192   1.654   0.255
 5834SOL    HW218402   6.201   1.678   0.416
 5835SOL     OW18403   4.893   2.345   3.249
 5835SOL    HW118404   4.940   2.325   3.334
 5835SOL    HW218405   4.835   2.426   3.261
 5836SOL     OW18406   3.041   6.117   2.328
 5836SOL    HW118407   2.950   6.095   2.364
 5836SOL    HW218408   3.111   6.073   2.384
 5837SOL     OW18409   4.799   4.452   0.130
 5837SOL    HW118410   4.886   4.442   0.179
 5837SOL    HW218411   4.770   4.364   0.094
 5838SOL     OW18412   1.321   1.631   6.019
 5838SOL    HW118413   1.288   1.716   5.977
 5838SOL    HW218414   1.343   1.565   5.948
 5839SOL     OW18415   6.740   3.493   2.661
 5839SOL    HW118416   6.685   3.501   2.744
 5839SOL    HW218417   6.807   3.567   2.657
 5840SOL     OW18418   1.479   5.816   6.557
 5840SOL    HW118419   1.470   5.822   6.457
 5840SOL    HW218420   1.432   5.893   6.600
 5841SOL     OW18421   6.224   3.233   3.361
 5841SOL    HW118422   6.311   3.284   3.357
 5841SOL    HW218423   6.210   3.186   3.274
 5842SOL     OW18424   3.979   2.968   0.570
 5842SOL    HW118425   3.934   2.882   0.597
 5842SOL    HW218426   4.076   2.963   0.594
 5843SOL     OW18427   1.931   3.480   2.668
 5843SOL    HW118428   1.865   3.491   2.594
 5843SOL    HW218429   1.892   3.420   2.738
 5844SOL     OW18430   0.129   5.705   6.188
 5844SOL    HW118431   0.060   5.632   6.182
 5844SOL    HW218432   0.138   5.734   6.283
 5845SOL     OW18433   1.031   2.449   3.353
 5845SOL    HW118434   1.003   2.443   3.448
 5845SOL    HW218435   0.966   2.398   3.296
 5846SOL     OW18436   6.924   2.594   5.231
 5846SOL    HW118437   6.872   2.589   5.316
 5846SOL    HW218438   7.021   2.579   5.251
 5847SOL     OW18439   2.200   2.309   2.609
 5847SOL    HW118440   2.108   2.292   2.575
 5847SOL    HW218441   2.245   2.378   2.553
 5848SOL     OW18442   2.191   4.916   3.493
 5848SOL    HW118443   2.125   4.843   3.474
 5848SOL    HW218444   2.143   5.003   3.503
 5849SOL     OW18445   1.097   0.685   5.802
 5849SOL    HW118446   1.116   0.603   5.856
 5849SOL    HW218447   1.134   0.673   5.710
 5850SOL     OW18448   1.586   4.156   2.297
 5850SOL    HW118449   1.515   4.127   2.362
 5850SOL    HW218450   1.585   4.255   2.289
 5851SOL     OW18451   6.061   3.803   2.438
 5851SOL    HW118452   6.045   3.856   2.521
 5851SOL    HW218453   6.111   3.859   2.372
 5852SOL     OW18454   3.926   6.031   2.678
 5852SOL    HW118455   4.014   5.986   2.690
 5852SOL    HW218456   3.852   5.966   2.696
 5853SOL     OW18457   3.263   5.102   6.274
 5853SOL    HW118458   3.222   5.044   6.344
 5853SOL    HW218459   3.226   5.078   6.185
 5854SOL     OW18460   6.875   1.968   5.557
 5854SOL    HW118461   6.833   2.058   5.543
 5854SOL    HW218462   6.896   1.927   5.469
 5855SOL     OW18463   1.085   0.872   4.441
 5855SOL    HW118464   1.169   0.925   4.427
 5855SOL    HW218465   1.017   0.930   4.486
 5856SOL     OW18466   2.605   5.058   3.438
 5856SOL    HW118467   2.592   5.069   3.537
 5856SOL    HW218468   2.672   4.987   3.421
 5857SOL     OW18469   6.615   2.452   5.185
 5857SOL    HW118470   6.696   2.402   5.156
 5857SOL    HW218471   6.552   2.390   5.231
 5858SOL     OW18472   2.926   1.163   2.532
 5858SOL    HW118473   2.971   1.167   2.442
 5858SOL    HW218474   2.983   1.208   2.600
 5859SOL     OW18475   6.777   6.423   0.578
 5859SOL    HW118476   6.833   6.506   0.588
 5859SOL    HW218477   6.833   6.344   0.601
 5860SOL     OW18478   1.652   4.351   1.789
 5860SOL    HW118479   1.658   4.252   1.792
 5860SOL    HW218480   1.725   4.388   1.733
 5861SOL     OW18481   5.272   2.266   3.815
 5861SOL    HW118482   5.313   2.233   3.731
 5861SOL    HW218483   5.212   2.344   3.796
 5862SOL     OW18484   3.958   5.044   3.106
 5862SOL    HW118485   4.014   4.963   3.093
 5862SOL    HW218486   3.865   5.017   3.132
 5863SOL     OW18487   2.015   0.906   6.207
 5863SOL    HW118488   2.095   0.935   6.260
 5863SOL    HW218489   1.950   0.859   6.268
 5864SOL     OW18490   4.181   4.353   1.458
 5864SOL    HW118491   4.215   4.310   1.374
 5864SOL    HW218492   4.211   4.300   1.537
 5865SOL     OW18493   5.109   0.850   3.276
 5865SOL    HW118494   5.139   0.775   3.218
 5865SOL    HW218495   5.073   0.924   3.219
 5866SOL     OW18496   4.487   6.939   5.459
 5866SOL    HW118497   4.464   6.944   5.362
 5866SOL    HW218498   4.440   6.859   5.499
 5867SOL     OW18499   0.284   2.744   1.215
 5867SOL    HW118500   0.312   2.811   1.284
 5867SOL    HW218501   0.246   2.664   1.261
 5868SOL     OW18502   0.938   0.292   5.675
 5868SOL    HW118503   0.856   0.349   5.668
 5868SOL    HW218504   0.988   0.294   5.588
 5869SOL     OW18505   2.697   4.667   4.514
 5869SOL    HW118506   2.706   4.695   4.609
 5869SOL    HW218507   2.717   4.746   4.455
 5870SOL     OW18508   5.611   5.550   4.635
 5870SOL    HW118509   5.681   5.621   4.622
 5870SOL    HW218510   5.572   5.525   4.547
 5871SOL     OW18511   3.737   3.261   0.016
 5871SOL    HW118512   3.710   3.312   6.957
 5871SOL    HW218513   3.717   3.315   0.097
 5872SOL     OW18514   4.360   5.787   6.328
 5872SOL    HW118515   4.309   5.702   6.345
 5872SOL    HW218516   4.389   5.825   6.416
 5873SOL     OW18517   2.681   3.009   0.271
 5873SOL    HW118518   2.705   2.920   0.310
 5873SOL    HW218519   2.716   3.015   0.177
 5874SOL     OW18520   2.461   3.274   1.687
 5874SOL    HW118521   2.439   3.333   1.765
 5874SOL    HW218522   2.413   3.187   1.697
 5875SOL     OW18523   3.521   2.257   6.803
 5875SOL    HW118524   3.468   2.173   6.818
 5875SOL    HW218525   3.483   2.330   6.860
 5876SOL     OW18526   3.331   3.450   6.527
 5876SOL    HW118527   3.303   3.448   6.431
 5876SOL    HW218528   3.411   3.391   6.539
 5877SOL     OW18529   6.269   0.609   1.460
 5877SOL    HW118530   6.225   0.628   1.548
 5877SOL    HW218531   6.368   0.609   1.471
 5878SOL     OW18532   4.582   5.657   1.818
 5878SOL    HW118533   4.676   5.686   1.838
 5878SOL    HW218534   4.527   5.663   1.901
 5879SOL     OW18535   3.689   3.160   6.472
 5879SOL    HW118536   3.713   3.164   6.375
 5879SOL    HW218537   3.590   3.158   6.482
 5880SOL     OW18538   5.116   3.230   5.681
 5880SOL    HW118539   5.020   3.258   5.689
 5880SOL    HW218540   5.128   3.179   5.596
 5881SOL     OW18541   0.795   6.545   2.475
 5881SOL    HW118542   0.797   6.488   2.558
 5881SOL    HW218543   0.708   6.530   2.428
 5882SOL     OW18544   1.275   6.381   5.740
 5882SOL    HW118545   1.340   6.340   5.676
 5882SOL    HW218546   1.182   6.364   5.709
 5883SOL     OW18547   0.496   3.847   0.952
 5883SOL    HW118548   0.561   3.771   0.940
 5883SOL    HW218549   0.546   3.930   0.977
 5884SOL     OW18550   5.516   1.611   3.719
 5884SOL    HW118551   5.483   1.698   3.755
 5884SOL    HW218552   5.580   1.570   3.783
 5885SOL     OW18553   0.314   5.626   0.078
 5885SOL    HW118554   0.295   5.533   0.046
 5885SOL    HW218555   0.316   5.626   0.178
 5886SOL     OW18556   1.389   3.842   3.313
 5886SOL    HW118557   1.367   3.751   3.348
 5886SOL    HW218558   1.438   3.833   3.227
 5887SOL     OW18559   2.172   2.543   1.412
 5887SOL    HW118560   2.155   2.614   1.481
 5887SOL    HW218561   2.085   2.507   1.379
 5888SOL     OW18562   2.838   6.372   1.776
 5888SOL    HW118563   2.927   6.331   1.798
 5888SOL    HW218564   2.799   6.326   1.696
 5889SOL     OW18565   0.126   0.459   1.225
 5889SOL    HW118566   0.031   0.487   1.241
 5889SOL    HW218567   0.160   0.503   1.141
 5890SOL     OW18568   2.550   6.582   2.331
 5890SOL    HW118569   2.642   6.621   2.318
 5890SOL    HW218570   2.557   6.485   2.351
 5891SOL     OW18571   2.635   3.030   1.162
 5891SOL    HW118572   2.713   3.091   1.150
 5891SOL    HW218573   2.551   3.079   1.139
 5892SOL     OW18574   0.697   3.149   0.762
 5892SOL    HW118575   0.680   3.191   0.851
 5892SOL    HW218576   0.623   3.172   0.699
 5893SOL     OW18577   0.676   5.730   1.904
 5893SOL    HW118578   0.685   5.675   1.821
 5893SOL    HW218579   0.629   5.677   1.975
 5894SOL     OW18580   1.327   5.806   5.691
 5894SOL    HW118581   1.335   5.787   5.594
 5894SOL    HW218582   1.354   5.725   5.743
 5895SOL     OW18583   5.758   3.159   4.337
 5895SOL    HW118584   5.797   3.168   4.428
 5895SOL    HW218585   5.677   3.217   4.329
 5896SOL     OW18586   5.931   2.089   1.346
 5896SOL    HW118587   5.874   2.098   1.428
 5896SOL    HW218588   5.914   2.167   1.286
 5897SOL     OW18589   4.673   1.593   0.731
 5897SOL    HW118590   4.623   1.627   0.811
 5897SOL    HW218591   4.608   1.556   0.665
 5898SOL     OW18592   1.741   1.634   5.862
 5898SOL    HW118593   1.820   1.664   5.809
 5898SOL    HW218594   1.659   1.683   5.830
 5899SOL     OW18595   6.985   5.488   6.190
 5899SOL    HW118596   6.924   5.466   6.113
 5899SOL    HW218597   6.931   5.502   6.272
 5900SOL     OW18598   6.690   6.258   3.203
 5900SOL    HW118599   6.630   6.187   3.164
 5900SOL    HW218600   6.718   6.321   3.131
 5901SOL     OW18601   1.998   6.994   6.382
 5901SOL    HW118602   1.977   0.009   6.472
 5901SOL    HW218603   1.947   6.909   6.369
 5902SOL     OW18604   5.761   4.536   4.981
 5902SOL    HW118605   5.751   4.513   5.077
 5902SOL    HW218606   5.802   4.459   4.931
 5903SOL     OW18607   6.465   2.145   6.405
 5903SOL    HW118608   6.526   2.185   6.473
 5903SOL    HW218609   6.417   2.219   6.356
 5904SOL     OW18610   2.064   4.505   3.117
 5904SOL    HW118611   2.122   4.435   3.159
 5904SOL    HW218612   1.970   4.471   3.111
 5905SOL     OW18613   5.707   0.981   4.238
 5905SOL    HW118614   5.745   0.902   4.188
 5905SOL    HW218615   5.734   1.065   4.191
 5906SOL     OW18616   5.028   0.647   5.012
 5906SOL    HW118617   4.948   0.670   5.068
 5906SOL    HW218618   5.096   0.719   5.019
 5907SOL     OW18619   1.909   1.863   0.005
 5907SOL    HW118620   1.886   1.920   6.948
 5907SOL    HW218621   1.879   1.769   7.011
 5908SOL     OW18622   4.507   3.729   6.063
 5908SOL    HW118623   4.555   3.695   6.143
 5908SOL    HW218624   4.559   3.803   6.021
 5909SOL     OW18625   0.010   4.281   5.185
 5909SOL    HW118626   7.004   4.371   5.151
 5909SOL    HW218627   0.033   4.222   5.108
 5910SOL     OW18628   1.693   4.020   1.302
 5910SOL    HW118629   1.735   3.934   1.272
 5910SOL    HW218630   1.763   4.077   1.346
 5911SOL     OW18631   6.283   5.215   6.271
 5911SOL    HW118632   6.197   5.219   6.322
 5911SOL    HW218633   6.352   5.270   6.318
 5912SOL     OW18634   6.291   3.954   6.972
 5912SOL    HW118635   6.255   4.010   6.897
 5912SOL    HW218636   6.373   3.906   6.941
 5913SOL     OW18637   1.969   1.702   5.709
 5913SOL    HW118638   1.933   1.780   5.658
 5913SOL    HW218639   2.021   1.642   5.648
 5914SOL     OW18640   2.172   5.501   0.641
 5914SOL    HW118641   2.112   5.561   0.695
 5914SOL    HW218642   2.227   5.445   0.702
 5915SOL     OW18643   4.850   2.934   2.492
 5915SOL    HW118644   4.841   2.870   2.568
 5915SOL    HW218645   4.800   2.898   2.413
 5916SOL     OW18646   3.780   0.025   5.759
 5916SOL    HW118647   3.724   6.964   5.754
 5916SOL    HW218648   3.749   0.090   5.690
 5917SOL     OW18649   3.414   3.374   2.922
 5917SOL    HW118650   3.326   3.381   2.873
 5917SOL    HW218651   3.431   3.458   2.973
 5918SOL     OW18652   1.824   3.544   3.776
 5918SOL    HW118653   1.805   3.539   3.874
 5918SOL    HW218654   1.918   3.574   3.762
 5919SOL     OW18655   2.373   2.459   6.688
 5919SOL    HW118656   2.293   2.402   6.671
 5919SOL    HW218657   2.395   2.510   6.605
 5920SOL     OW18658   3.773   0.589   6.657
 5920SOL    HW118659   3.843   0.660   6.667
 5920SOL    HW218660   3.816   0.499   6.660
 5921SOL     OW18661   3.778   4.879   5.476
 5921SOL    HW118662   3.682   4.856   5.462
 5921SOL    HW218663   3.835   4.826   5.413
 5922SOL     OW18664   6.149   4.663   2.835
 5922SOL    HW118665   6.110   4.755   2.836
 5922SOL    HW218666   6.102   4.606   2.903
 5923SOL     OW18667   6.828   0.205   3.724
 5923SOL    HW118668   6.881   0.284   3.692
 5923SOL    HW218669   6.805   0.146   3.646
 5924SOL     OW18670   5.030   2.248   4.497
 5924SOL    HW118671   4.934   2.267   4.517
 5924SOL    HW218672   5.054   2.290   4.409
 5925SOL     OW18673   5.399   5.831   1.101
 5925SOL    HW118674   5.320   5.812   1.160
 5925SOL    HW218675   5.388   5.922   1.060
 5926SOL     OW18676   3.697   4.863   1.507
 5926SOL    HW118677   3.717   4.779   1.457
 5926SOL    HW218678   3.658   4.931   1.444
 5927SOL     OW18679   2.728   6.026   1.795
 5927SOL    HW118680   2.817   6.006   1.754
 5927SOL    HW218681   2.740   6.089   1.872
 5928SOL     OW18682   0.819   6.944   2.705
 5928SOL    HW118683   0.835   0.016   2.679
 5928SOL    HW218684   0.787   6.941   2.800
 5929SOL     OW18685   1.475   6.545   6.529
 5929SOL    HW118686   1.562   6.571   6.570
 5929SOL    HW218687   1.446   6.616   6.464
 5930SOL     OW18688   6.365   1.173   4.854
 5930SOL    HW118689   6.296   1.215   4.914
 5930SOL    HW218690   6.322   1.145   4.769
 5931SOL     OW18691   6.389   5.790   1.405
 5931SOL    HW118692   6.463   5.832   1.459
 5931SOL    HW218693   6.428   5.738   1.330
 5932SOL     OW18694   2.169   6.791   0.937
 5932SOL    HW118695   2.174   6.886   0.906
 5932SOL    HW218696   2.262   6.753   0.941
 5933SOL     OW18697   6.953   4.058   3.106
 5933SOL    HW118698   6.956   3.958   3.100
 5933SOL    HW218699   6.903   4.085   3.188
 5934SOL     OW18700   3.528   3.817   2.750
 5934SOL    HW118701   3.561   3.909   2.727
 5934SOL    HW218702   3.588   3.776   2.819
 5935SOL     OW18703   3.916   3.965   4.389
 5935SOL    HW118704   3.959   3.898   4.329
 5935SOL    HW218705   3.842   4.011   4.340
 5936SOL     OW18706   5.057   5.205   6.876
 5936SOL    HW118707   5.108   5.214   6.961
 5936SOL    HW218708   4.959   5.218   6.894
 5937SOL     OW18709   2.025   3.317   0.930
 5937SOL    HW118710   1.933   3.279   0.926
 5937SOL    HW218711   2.070   3.305   0.842
 5938SOL     OW18712   2.018   4.036   3.020
 5938SOL    HW118713   2.079   4.030   2.941
 5938SOL    HW218714   1.987   4.130   3.032
 5939SOL     OW18715   2.793   0.189   2.923
 5939SOL    HW118716   2.781   0.090   2.932
 5939SOL    HW218717   2.850   0.209   2.843
 5940SOL     OW18718   3.935   6.924   2.843
 5940SOL    HW118719   3.961   6.999   2.904
 5940SOL    HW218720   3.905   6.845   2.896
 5941SOL     OW18721   6.412   5.273   2.668
 5941SOL    HW118722   6.386   5.361   2.708
 5941SOL    HW218723   6.396   5.276   2.569
 5942SOL     OW18724   3.930   3.649   6.065
 5942SOL    HW118725   4.018   3.668   6.021
 5942SOL    HW218726   3.869   3.727   6.054
 5943SOL     OW18727   1.960   5.934   0.488
 5943SOL    HW118728   2.050   5.893   0.473
 5943SOL    HW218729   1.963   6.032   0.469
 5944SOL     OW18730   5.067   1.419   2.324
 5944SOL    HW118731   5.047   1.351   2.253
 5944SOL    HW218732   4.984   1.470   2.346
 5945SOL     OW18733   6.502   4.892   5.832
 5945SOL    HW118734   6.589   4.895   5.782
 5945SOL    HW218735   6.465   4.984   5.841
 5946SOL     OW18736   4.991   2.916   6.349
 5946SOL    HW118737   4.997   2.959   6.259
 5946SOL    HW218738   4.901   2.934   6.389
 5947SOL     OW18739   4.470   3.732   1.630
 5947SOL    HW118740   4.423   3.650   1.660
 5947SOL    HW218741   4.409   3.787   1.574
 5948SOL     OW18742   3.780   4.874   2.903
 5948SOL    HW118743   3.852   4.804   2.901
 5948SOL    HW218744   3.722   4.859   2.983
 5949SOL     OW18745   4.241   4.828   1.428
 5949SOL    HW118746   4.295   4.894   1.376
 5949SOL    HW218747   4.259   4.736   1.395
 5950SOL     OW18748   6.129   1.914   4.528
 5950SOL    HW118749   6.143   1.950   4.436
 5950SOL    HW218750   6.037   1.875   4.534
 5951SOL     OW18751   1.882   5.758   3.934
 5951SOL    HW118752   1.829   5.733   3.852
 5951SOL    HW218753   1.819   5.769   4.011
 5952SOL     OW18754   6.753   6.518   3.669
 5952SOL    HW118755   6.784   6.501   3.763
 5952SOL    HW218756   6.662   6.480   3.656
 5953SOL     OW18757   6.469   2.981   5.970
 5953SOL    HW118758   6.516   2.949   6.052
 5953SOL    HW218759   6.530   3.041   5.918
 5954SOL     OW18760   0.063   4.815   6.562
 5954SOL    HW118761   0.073   4.735   6.621
 5954SOL    HW218762   0.102   4.794   6.472
 5955SOL     OW18763   5.064   5.507   1.858
 5955SOL    HW118764   5.154   5.523   1.818
 5955SOL    HW218765   5.073   5.494   1.957
 5956SOL     OW18766   5.030   2.386   6.865
 5956SOL    HW118767   4.976   2.455   6.913
 5956SOL    HW218768   4.972   2.308   6.843
 5957SOL     OW18769   5.827   5.949   6.309
 5957SOL    HW118770   5.872   5.942   6.398
 5957SOL    HW218771   5.837   5.862   6.260
 5958SOL     OW18772   6.515   5.839   1.892
 5958SOL    HW118773   6.594   5.900   1.897
 5958SOL    HW218774   6.470   5.835   1.981
 5959SOL     OW18775   2.849   1.644   6.048
 5959SOL    HW118776   2.927   1.691   6.089
 5959SOL    HW218777   2.881   1.590   5.970
 5960SOL     OW18778   2.796   0.012   3.396
 5960SOL    HW118779   2.881   7.002   3.437
 5960SOL    HW218780   2.739   6.956   3.371
 5961SOL     OW18781   3.371   0.639   4.881
 5961SOL    HW118782   3.323   0.605   4.801
 5961SOL    HW218783   3.359   0.738   4.888
 5962SOL     OW18784   4.755   5.444   2.401
 5962SOL    HW118785   4.660   5.413   2.397
 5962SOL    HW218786   4.773   5.505   2.324
 5963SOL     OW18787   3.722   3.610   2.450
 5963SOL    HW118788   3.805   3.609   2.393
 5963SOL    HW218789   3.742   3.565   2.537
 5964SOL     OW18790   0.261   5.086   6.138
 5964SOL    HW118791   0.170   5.054   6.162
 5964SOL    HW218792   0.314   5.103   6.221
 5965SOL     OW18793   2.249   2.973   5.986
 5965SOL    HW118794   2.228   2.907   6.059
 5965SOL    HW218795   2.347   2.988   5.982
 5966SOL     OW18796   2.988   5.946   4.764
 5966SOL    HW118797   3.066   5.925   4.705
 5966SOL    HW218798   2.916   5.878   4.749
 5967SOL     OW18799   4.631   7.001   3.157
 5967SOL    HW118800   4.538   6.968   3.141
 5967SOL    HW218801   4.678   6.938   3.219
 5968SOL     OW18802   6.690   2.445   3.355
 5968SOL    HW118803   6.598   2.470   3.322
 5968SOL    HW218804   6.729   2.522   3.405
 5969SOL     OW18805   5.668   4.035   3.688
 5969SOL    HW118806   5.610   3.965   3.647
 5969SOL    HW218807   5.650   4.040   3.786
 5970SOL     OW18808   1.443   3.567   2.497
 5970SOL    HW118809   1.394   3.650   2.469
 5970SOL    HW218810   1.447   3.503   2.420
 5971SOL     OW18811   1.634   6.335   2.998
 5971SOL    HW118812   1.618   6.273   2.921
 5971SOL    HW218813   1.699   6.406   2.970
 5972SOL     OW18814   4.849   0.011   0.077
 5972SOL    HW118815   4.803   0.045   0.160
 5972SOL    HW218816   4.827   6.937   0.064
 5973SOL     OW18817   1.779   4.088   2.853
 5973SOL    HW118818   1.860   4.148   2.847
 5973SOL    HW218819   1.759   4.050   2.763
 5974SOL     OW18820   7.013   3.758   0.361
 5974SOL    HW118821   6.931   3.710   0.392
 5974SOL    HW218822   6.998   3.857   0.369
 5975SOL     OW18823   3.431   2.842   1.166
 5975SOL    HW118824   3.472   2.759   1.205
 5975SOL    HW218825   3.468   2.922   1.214
 5976SOL     OW18826   2.935   3.256   4.896
 5976SOL    HW118827   3.004   3.292   4.960
 5976SOL    HW218828   2.914   3.325   4.827
 5977SOL     OW18829   1.335   4.355   2.072
 5977SOL    HW118830   1.396   4.394   2.140
 5977SOL    HW218831   1.310   4.261   2.098
 5978SOL     OW18832   5.325   4.963   2.565
 5978SOL    HW118833   5.324   4.897   2.490
 5978SOL    HW218834   5.382   4.928   2.639
 5979SOL     OW18835   6.253   0.750   3.514
 5979SOL    HW118836   6.209   0.807   3.445
 5979SOL    HW218837   6.337   0.795   3.545
 5980SOL     OW18838   5.346   4.149   0.847
 5980SOL    HW118839   5.262   4.121   0.802
 5980SOL    HW218840   5.418   4.082   0.829
 5981SOL     OW18841   5.707   1.263   2.499
 5981SOL    HW118842   5.700   1.167   2.472
 5981SOL    HW218843   5.628   1.313   2.465
 5982SOL     OW18844   7.000   2.403   6.828
 5982SOL    HW118845   6.939   2.476   6.798
 5982SOL    HW218846   6.948   2.319   6.842
 5983SOL     OW18847   1.569   1.668   4.039
 5983SOL    HW118848   1.582   1.660   4.138
 5983SOL    HW218849   1.581   1.578   3.996
 5984SOL     OW18850   6.944   6.173   4.747
 5984SOL    HW118851   6.877   6.132   4.685
 5984SOL    HW218852   7.012   6.224   4.694
 5985SOL     OW18853   4.949   1.896   3.966
 5985SOL    HW118854   4.896   1.825   3.918
 5985SOL    HW218855   4.894   1.933   4.041
 5986SOL     OW18856   3.510   3.139   2.612
 5986SOL    HW118857   3.571   3.077   2.562
 5986SOL    HW218858   3.522   3.232   2.578
 5987SOL     OW18859   4.470   6.627   4.908
 5987SOL    HW118860   4.527   6.691   4.960
 5987SOL    HW218861   4.405   6.677   4.851
 5988SOL     OW18862   4.326   0.035   4.107
 5988SOL    HW118863   4.260   0.074   4.042
 5988SOL    HW218864   4.294   0.049   4.200
 5989SOL     OW18865   2.948   0.301   6.018
 5989SOL    HW118866   3.013   0.367   5.981
 5989SOL    HW218867   2.982   0.208   5.999
 5990SOL     OW18868   3.360   5.295   0.594
 5990SOL    HW118869   3.434   5.361   0.579
 5990SOL    HW218870   3.283   5.317   0.534
 5991SOL     OW18871   3.348   5.577   4.436
 5991SOL    HW118872   3.392   5.525   4.509
 5991SOL    HW218873   3.401   5.660   4.417
 5992SOL     OW18874   3.628   0.496   3.583
 5992SOL    HW118875   3.664   0.589   3.583
 5992SOL    HW218876   3.700   0.432   3.610
 5993SOL     OW18877   2.487   6.112   6.159
 5993SOL    HW118878   2.514   6.041   6.224
 5993SOL    HW218879   2.475   6.071   6.069
 5994SOL     OW18880   5.851   2.878   2.517
 5994SOL    HW118881   5.905   2.932   2.581
 5994SOL    HW218882   5.804   2.939   2.454
 5995SOL     OW18883   6.882   5.133   0.817
 5995SOL    HW118884   6.828   5.087   0.747
 5995SOL    HW218885   6.979   5.111   0.805
 5996SOL     OW18886   0.220   5.380   6.360
 5996SOL    HW118887   0.195   5.284   6.355
 5996SOL    HW218888   0.166   5.433   6.295
 5997SOL     OW18889   0.329   6.759   1.729
 5997SOL    HW118890   0.412   6.815   1.728
 5997SOL    HW218891   0.256   6.808   1.775
 5998SOL     OW18892   5.759   1.886   2.404
 5998SOL    HW118893   5.710   1.962   2.362
 5998SOL    HW218894   5.785   1.820   2.333
 5999SOL     OW18895   1.587   1.974   2.707
 5999SOL    HW118896   1.520   1.990   2.779
 5999SOL    HW218897   1.563   2.028   2.626
 6000SOL     OW18898   4.436   5.475   2.090
 6000SOL    HW118899   4.515   5.445   2.036
 6000SOL    HW218900   4.454   5.457   2.186
 6001SOL     OW18901   6.266   2.782   6.820
 6001SOL    HW118902   6.231   2.763   6.728
 6001SOL    HW218903   6.274   2.696   6.870
 6002SOL     OW18904   1.800   0.461   1.907
 6002SOL    HW118905   1.714   0.476   1.957
 6002SOL    HW218906   1.839   0.374   1.934
 6003SOL     OW18907   5.298   4.132   4.987
 6003SOL    HW118908   5.352   4.106   4.907
 6003SOL    HW218909   5.330   4.221   5.021
 6004SOL     OW18910   0.548   3.363   2.548
 6004SOL    HW118911   0.619   3.296   2.529
 6004SOL    HW218912   0.585   3.456   2.536
 6005SOL     OW18913   3.289   5.684   3.648
 6005SOL    HW118914   3.243   5.612   3.595
 6005SOL    HW218915   3.383   5.655   3.668
 6006SOL     OW18916   2.858   6.598   6.468
 6006SOL    HW118917   2.923   6.673   6.475
 6006SOL    HW218918   2.900   6.522   6.419
 6007SOL     OW18919   5.967   2.412   4.092
 6007SOL    HW118920   6.005   2.483   4.152
 6007SOL    HW218921   6.041   2.368   4.041
 6008SOL     OW18922   3.028   4.734   5.966
 6008SOL    HW118923   3.089   4.688   6.030
 6008SOL    HW218924   2.947   4.678   5.950
 6009SOL     OW18925   2.359   1.705   4.401
 6009SOL    HW118926   2.444   1.675   4.359
 6009SOL    HW218927   2.311   1.768   4.339
 6010SOL     OW18928   2.071   4.334   2.574
 6010SOL    HW118929   2.116   4.259   2.525
 6010SOL    HW218930   2.133   4.412   2.580
 6011SOL     OW18931   5.320   2.706   2.407
 6011SOL    HW118932   5.373   2.788   2.385
 6011SOL    HW218933   5.230   2.712   2.364
 6012SOL     OW18934   6.497   2.919   0.545
 6012SOL    HW118935   6.501   2.845   0.612
 6012SOL    HW218936   6.588   2.957   0.530
 6013SOL     OW18937   6.105   1.202   2.390
 6013SOL    HW118938   6.180   1.177   2.328
 6013SOL    HW218939   6.119   1.296   2.421
 6014SOL     OW18940   5.588   0.396   0.380
 6014SOL    HW118941   5.635   0.309   0.374
 6014SOL    HW218942   5.561   0.413   0.475
 6015SOL     OW18943   5.415   2.136   4.541
 6015SOL    HW118944   5.334   2.131   4.484
 6015SOL    HW218945   5.474   2.210   4.508
 6016SOL     OW18946   1.907   0.635   5.205
 6016SOL    HW118947   1.905   0.707   5.274
 6016SOL    HW218948   1.956   0.556   5.240
 6017SOL     OW18949   6.519   5.159   2.926
 6017SOL    HW118950   6.533   5.180   2.829
 6017SOL    HW218951   6.516   5.244   2.979
 6018SOL     OW18952   2.837   3.201   1.143
 6018SOL    HW118953   2.876   3.221   1.233
 6018SOL    HW218954   2.856   3.277   1.080
 6019SOL     OW18955   3.691   1.177   4.156
 6019SOL    HW118956   3.741   1.221   4.081
 6019SOL    HW218957   3.712   1.223   4.242
 6020SOL     OW18958   4.042   0.633   2.640
 6020SOL    HW118959   3.969   0.565   2.637
 6020SOL    HW218960   4.060   0.666   2.547
 6021SOL     OW18961   4.305   1.240   2.415
 6021SOL    HW118962   4.318   1.328   2.368
 6021SOL    HW218963   4.327   1.250   2.512
 6022SOL     OW18964   4.386   1.428   3.312
 6022SOL    HW118965   4.335   1.454   3.231
 6022SOL    HW218966   4.328   1.439   3.393
 6023SOL     OW18967   0.614   1.569   3.122
 6023SOL    HW118968   0.714   1.576   3.128
 6023SOL    HW218969   0.590   1.482   3.078
 6024SOL     OW18970   1.016   5.083   1.505
 6024SOL    HW118971   1.100   5.029   1.496
 6024SOL    HW218972   0.955   5.038   1.570
 6025SOL     OW18973   4.570   1.191   1.611
 6025SOL    HW118974   4.579   1.207   1.709
 6025SOL    HW218975   4.660   1.178   1.571
 6026SOL     OW18976   6.595   4.490   5.273
 6026SOL    HW118977   6.623   4.454   5.184
 6026SOL    HW218978   6.656   4.565   5.299
 6027SOL     OW18979   2.801   2.868   6.501
 6027SOL    HW118980   2.743   2.947   6.522
 6027SOL    HW218981   2.780   2.793   6.564
 6028SOL     OW18982   1.675   4.030   0.130
 6028SOL    HW118983   1.757   4.065   0.175
 6028SOL    HW218984   1.594   4.069   0.174
 6029SOL     OW18985   2.316   6.298   1.188
 6029SOL    HW118986   2.231   6.279   1.140
 6029SOL    HW218987   2.320   6.244   1.273
 6030SOL     OW18988   2.247   0.847   1.612
 6030SOL    HW118989   2.290   0.810   1.530
 6030SOL    HW218990   2.226   0.944   1.598
 6031SOL     OW18991   5.204   6.571   5.449
 6031SOL    HW118992   5.273   6.507   5.415
 6031SOL    HW218993   5.119   6.520   5.468
 6032SOL     OW18994   1.553   3.077   2.025
 6032SOL    HW118995   1.529   3.006   2.092
 6032SOL    HW218996   1.571   3.163   2.072
 6033SOL     OW18997   1.404   2.037   3.730
 6033SOL    HW118998   1.371   1.972   3.662
 6033SOL    HW218999   1.494   2.071   3.702
 6034SOL     OW19000   1.832   4.526   5.102
 6034SOL    HW119001   1.824   4.486   5.011
 6034SOL    HW219002   1.842   4.625   5.094
 6035SOL     OW19003   5.790   0.278   4.103
 6035SOL    HW119004   5.794   0.352   4.171
 6035SOL    HW219005   5.841   0.305   4.021
 6036SOL     OW19006   0.689   0.053   5.303
 6036SOL    HW119007   0.699   0.062   5.403
 6036SOL    HW219008   0.615   7.012   5.282
 6037SOL     OW19009   5.762   5.902   5.067
 6037SOL    HW119010   5.685   5.856   5.021
 6037SOL    HW219011   5.814   5.835   5.120
 6038SOL     OW19012   6.403   4.630   5.923
 6038SOL    HW119013   6.410   4.729   5.910
 6038SOL    HW219014   6.471   4.584   5.866
 6039SOL     OW19015   3.471   3.421   2.561
 6039SOL    HW119016   3.474   3.488   2.487
 6039SOL    HW219017   3.383   3.429   2.609
 6040SOL     OW19018   0.698   2.254   6.812
 6040SOL    HW119019   0.603   2.284   6.816
 6040SOL    HW219020   0.756   2.332   6.789
 6041SOL     OW19021   1.073   1.469   0.241
 6041SOL    HW119022   1.028   1.390   0.282
 6041SOL    HW219023   1.027   1.553   0.269
 6042SOL     OW19024   5.514   4.816   2.731
 6042SOL    HW119025   5.534   4.754   2.807
 6042SOL    HW219026   5.555   4.906   2.750
 6043SOL     OW19027   1.121   4.569   4.894
 6043SOL    HW119028   1.218   4.571   4.869
 6043SOL    HW219029   1.094   4.659   4.928
 6044SOL     OW19030   0.442   0.510   1.101
 6044SOL    HW119031   0.453   0.555   1.189
 6044SOL    HW219032   0.490   0.562   1.030
 6045SOL     OW19033   6.324   4.828   0.910
 6045SOL    HW119034   6.281   4.888   0.978
 6045SOL    HW219035   6.398   4.877   0.864
 6046SOL     OW19036   3.035   2.822   0.458
 6046SOL    HW119037   3.052   2.760   0.536
 6046SOL    HW219038   3.023   2.915   0.492
 6047SOL     OW19039   6.354   0.255   4.266
 6047SOL    HW119040   6.314   0.335   4.221
 6047SOL    HW219041   6.418   0.211   4.203
 6048SOL     OW19042   4.237   0.421   4.188
 6048SOL    HW119043   4.335   0.438   4.181
 6048SOL    HW219044   4.222   0.336   4.239
 6049SOL     OW19045   5.007   4.170   6.649
 6049SOL    HW119046   5.038   4.075   6.651
 6049SOL    HW219047   4.997   4.204   6.742
 6050SOL     OW19048   4.582   4.727   5.301
 6050SOL    HW119049   4.509   4.770   5.353
 6050SOL    HW219050   4.671   4.761   5.332
 6051SOL     OW19051   1.961   2.022   2.753
 6051SOL    HW119052   1.919   1.979   2.833
 6051SOL    HW219053   2.060   2.013   2.759
 6052SOL     OW19054   0.314   1.681   0.929
 6052SOL    HW119055   0.301   1.776   0.959
 6052SOL    HW219056   0.358   1.680   0.839
 6053SOL     OW19057   2.191   6.823   0.062
 6053SOL    HW119058   2.137   6.754   0.110
 6053SOL    HW219059   2.263   6.857   0.122
 6054SOL     OW19060   1.477   4.899   0.505
 6054SOL    HW119061   1.435   4.851   0.427
 6054SOL    HW219062   1.540   4.969   0.471
 6055SOL     OW19063   4.713   1.371   4.560
 6055SOL    HW119064   4.764   1.285   4.556
 6055SOL    HW219065   4.628   1.361   4.507
 6056SOL     OW19066   3.749   2.015   6.510
 6056SOL    HW119067   3.755   2.074   6.590
 6056SOL    HW219068   3.829   2.029   6.452
 6057SOL     OW19069   3.323   0.907   4.832
 6057SOL    HW119070   3.372   0.938   4.751
 6057SOL    HW219071   3.339   0.971   4.907
 6058SOL     OW19072   5.923   2.233   4.513
 6058SOL    HW119073   5.902   2.214   4.608
 6058SOL    HW219074   5.882   2.321   4.487
 6059SOL     OW19075   5.324   4.359   6.599
 6059SOL    HW119076   5.303   4.444   6.552
 6059SOL    HW219077   5.251   4.292   6.583
 6060SOL     OW19078   4.447   5.315   5.299
 6060SOL    HW119079   4.433   5.217   5.282
 6060SOL    HW219080   4.544   5.337   5.287
 6061SOL     OW19081   3.254   2.095   6.615
 6061SOL    HW119082   3.318   2.057   6.682
 6061SOL    HW219083   3.162   2.097   6.655
 6062SOL     OW19084   1.664   0.803   4.731
 6062SOL    HW119085   1.643   0.892   4.773
 6062SOL    HW219086   1.747   0.766   4.771
 6063SOL     OW19087   4.245   0.834   6.972
 6063SOL    HW119088   4.253   0.921   6.924
 6063SOL    HW219089   4.243   0.851   0.048
 6064SOL     OW19090   1.291   5.601   2.953
 6064SOL    HW119091   1.390   5.610   2.951
 6064SOL    HW219092   1.267   5.507   2.976
 6065SOL     OW19093   6.620   6.875   0.601
 6065SOL    HW119094   6.592   6.812   0.528
 6065SOL    HW219095   6.635   6.824   0.686
 6066SOL     OW19096   4.230   2.161   0.941
 6066SOL    HW119097   4.240   2.246   0.993
 6066SOL    HW219098   4.232   2.181   0.843
 6067SOL     OW19099   6.138   1.398   6.248
 6067SOL    HW119100   6.154   1.345   6.331
 6067SOL    HW219101   6.086   1.480   6.270
 6068SOL     OW19102   4.747   2.796   4.800
 6068SOL    HW119103   4.779   2.819   4.891
 6068SOL    HW219104   4.780   2.865   4.735
 6069SOL     OW19105   6.627   3.860   5.279
 6069SOL    HW119106   6.531   3.840   5.261
 6069SOL    HW219107   6.643   3.959   5.269
 6070SOL     OW19108   4.508   2.458   6.588
 6070SOL    HW119109   4.598   2.489   6.619
 6070SOL    HW219110   4.502   2.359   6.598
 6071SOL     OW19111   4.346   6.503   5.176
 6071SOL    HW119112   4.379   6.593   5.149
 6071SOL    HW219113   4.310   6.455   5.096
 6072SOL     OW19114   0.869   1.206   1.815
 6072SOL    HW119115   0.964   1.208   1.784
 6072SOL    HW219116   0.861   1.148   1.895
 6073SOL     OW19117   6.805   2.723   1.102
 6073SOL    HW119118   6.753   2.645   1.135
 6073SOL    HW219119   6.748   2.779   1.043
 6074SOL     OW19120   0.523   6.910   4.912
 6074SOL    HW119121   0.532   6.818   4.948
 6074SOL    HW219122   0.599   6.967   4.945
 6075SOL     OW19123   6.328   3.506   0.352
 6075SOL    HW119124   6.287   3.544   0.269
 6075SOL    HW219125   6.265   3.439   0.392
 6076SOL     OW19126   1.987   6.627   3.526
 6076SOL    HW119127   1.888   6.624   3.532
 6076SOL    HW219128   2.016   6.628   3.430
 6077SOL     OW19129   5.666   5.989   2.127
 6077SOL    HW119130   5.678   6.085   2.105
 6077SOL    HW219131   5.573   5.961   2.104
 6078SOL     OW19132   3.127   5.114   4.037
 6078SOL    HW119133   3.062   5.038   4.040
 6078SOL    HW219134   3.142   5.148   4.130
 6079SOL     OW19135   2.444   2.570   0.140
 6079SOL    HW119136   2.357   2.525   0.119
 6079SOL    HW219137   2.465   2.638   0.070
 6080SOL     OW19138   6.152   2.410   1.170
 6080SOL    HW119139   6.147   2.498   1.122
 6080SOL    HW219140   6.062   2.387   1.207
 6081SOL     OW19141   6.587   3.428   3.867
 6081SOL    HW119142   6.530   3.388   3.938
 6081SOL    HW219143   6.587   3.528   3.876
 6082SOL     OW19144   4.685   1.087   2.840
 6082SOL    HW119145   4.637   1.166   2.879
 6082SOL    HW219146   4.725   1.033   2.914
 6083SOL     OW19147   1.728   6.037   6.679
 6083SOL    HW119148   1.655   6.072   6.620
 6083SOL    HW219149   1.706   5.945   6.709
 6084SOL     OW19150   6.464   5.489   4.986
 6084SOL    HW119151   6.563   5.502   4.979
 6084SOL    HW219152   6.420   5.523   4.904
 6085SOL     OW19153   6.180   3.502   6.949
 6085SOL    HW119154   6.274   3.524   6.975
 6085SOL    HW219155   6.124   3.495   0.009
 6086SOL     OW19156   3.621   1.547   4.409
 6086SOL    HW119157   3.644   1.540   4.506
 6086SOL    HW219158   3.622   1.644   4.382
 6087SOL     OW19159   5.596   6.571   6.744
 6087SOL    HW119160   5.583   6.662   6.707
 6087SOL    HW219161   5.690   6.541   6.729
 6088SOL     OW19162   0.645   0.435   4.703
 6088SOL    HW119163   0.578   0.505   4.726
 6088SOL    HW219164   0.720   0.476   4.651
 6089SOL     OW19165   0.553   3.201   1.381
 6089SOL    HW119166   0.566   3.300   1.380
 6089SOL    HW219167   0.519   3.173   1.470
 6090SOL     OW19168   0.591   5.621   5.214
 6090SOL    HW119169   0.669   5.684   5.213
 6090SOL    HW219170   0.508   5.670   5.187
 6091SOL     OW19171   6.197   1.670   1.849
 6091SOL    HW119172   6.277   1.713   1.891
 6091SOL    HW219173   6.190   1.576   1.880
 6092SOL     OW19174   2.088   1.222   2.590
 6092SOL    HW119175   2.038   1.268   2.663
 6092SOL    HW219176   2.074   1.271   2.503
 6093SOL     OW19177   1.574   2.727   1.494
 6093SOL    HW119178   1.588   2.661   1.568
 6093SOL    HW219179   1.535   2.811   1.532
 6094SOL     OW19180   0.587   0.966   1.497
 6094SOL    HW119181   0.615   0.945   1.591
 6094SOL    HW219182   0.505   0.913   1.475
 6095SOL     OW19183   6.237   3.606   6.455
 6095SOL    HW119184   6.171   3.649   6.394
 6095SOL    HW219185   6.320   3.582   6.404
 6096SOL     OW19186   4.028   1.892   3.723
 6096SOL    HW119187   3.979   1.974   3.693
 6096SOL    HW219188   4.075   1.910   3.809
 6097SOL     OW19189   2.687   0.792   2.275
 6097SOL    HW119190   2.735   0.788   2.362
 6097SOL    HW219191   2.608   0.853   2.283
 6098SOL     OW19192   2.533   2.268   5.688
 6098SOL    HW119193   2.581   2.194   5.641
 6098SOL    HW219194   2.475   2.317   5.623
 6099SOL     OW19195   5.819   6.158   4.952
 6099SOL    HW119196   5.811   6.065   4.989
 6099SOL    HW219197   5.729   6.201   4.952
 6100SOL     OW19198   6.451   2.784   0.287
 6100SOL    HW119199   6.423   2.872   0.327
 6100SOL    HW219200   6.547   2.791   0.257
 6101SOL     OW19201   6.589   1.327   5.925
 6101SOL    HW119202   6.616   1.377   5.843
 6101SOL    HW219203   6.521   1.257   5.900
 6102SOL     OW19204   3.079   0.826   4.926
 6102SOL    HW119205   3.157   0.846   4.867
 6102SOL    HW219206   3.000   0.801   4.870
 6103SOL     OW19207   6.551   6.704   5.012
 6103SOL    HW119208   6.590   6.777   4.955
 6103SOL    HW219209   6.584   6.713   5.106
 6104SOL     OW19210   6.111   1.485   6.751
 6104SOL    HW119211   6.064   1.573   6.760
 6104SOL    HW219212   6.047   1.418   6.714
 6105SOL     OW19213   3.420   5.542   5.839
 6105SOL    HW119214   3.340   5.559   5.780
 6105SOL    HW219215   3.497   5.598   5.807
 6106SOL     OW19216   3.250   4.643   6.103
 6106SOL    HW119217   3.312   4.695   6.161
 6106SOL    HW219218   3.276   4.546   6.106
 6107SOL     OW19219   2.217   4.785   4.839
 6107SOL    HW119220   2.187   4.815   4.929
 6107SOL    HW219221   2.158   4.826   4.769
 6108SOL     OW19222   0.951   2.064   4.258
 6108SOL    HW119223   1.025   2.125   4.231
 6108SOL    HW219224   0.986   1.970   4.259
 6109SOL     OW19225   5.578   3.564   0.850
 6109SOL    HW119226   5.649   3.608   0.905
 6109SOL    HW219227   5.488   3.584   0.889
 6110SOL     OW19228   3.148   1.520   5.134
 6110SOL    HW119229   3.151   1.615   5.165
 6110SOL    HW219230   3.058   1.501   5.095
 6111SOL     OW19231   1.553   4.568   3.147
 6111SOL    HW119232   1.582   4.505   3.218
 6111SOL    HW219233   1.511   4.517   3.072
 6112SOL     OW19234   1.232   1.770   2.764
 6112SOL    HW119235   1.280   1.854   2.739
 6112SOL    HW219236   1.172   1.788   2.842
 6113SOL     OW19237   1.723   6.966   5.678
 6113SOL    HW119238   1.730   6.924   5.587
 6113SOL    HW219239   1.810   6.952   5.727
 6114SOL     OW19240   4.572   6.328   0.603
 6114SOL    HW119241   4.489   6.326   0.659
 6114SOL    HW219242   4.549   6.306   0.508
 6115SOL     OW19243   5.076   5.250   2.670
 6115SOL    HW119244   5.029   5.230   2.584
 6115SOL    HW219245   5.099   5.348   2.673
 6116SOL     OW19246   3.769   1.186   1.942
 6116SOL    HW119247   3.787   1.259   1.876
 6116SOL    HW219248   3.765   1.224   2.034
 6117SOL     OW19249   5.650   6.546   4.869
 6117SOL    HW119250   5.739   6.591   4.859
 6117SOL    HW219251   5.587   6.608   4.915
 6118SOL     OW19252   6.415   0.876   3.279
 6118SOL    HW119253   6.396   0.779   3.263
 6118SOL    HW219254   6.335   0.919   3.320
 6119SOL     OW19255   0.032   5.429   4.416
 6119SOL    HW119256   7.002   5.370   4.355
 6119SOL    HW219257   0.105   5.474   4.364
 6120SOL     OW19258   2.447   6.601   2.625
 6120SOL    HW119259   2.372   6.543   2.659
 6120SOL    HW219260   2.446   6.600   2.525
 6121SOL     OW19261   0.575   2.390   3.746
 6121SOL    HW119262   0.643   2.335   3.794
 6121SOL    HW219263   0.611   2.415   3.656
 6122SOL     OW19264   3.957   6.060   3.147
 6122SOL    HW119265   4.017   5.981   3.131
 6122SOL    HW219266   3.935   6.102   3.059
 6123SOL     OW19267   6.344   1.241   2.254
 6123SOL    HW119268   6.328   1.339   2.256
 6123SOL    HW219269   6.315   1.204   2.165
 6124SOL     OW19270   3.337   0.264   5.790
 6124SOL    HW119271   3.410   0.244   5.855
 6124SOL    HW219272   3.358   0.222   5.702
 6125SOL     OW19273   2.123   6.331   1.493
 6125SOL    HW119274   2.157   6.425   1.490
 6125SOL    HW219275   2.058   6.317   1.419
 6126SOL     OW19276   5.670   4.942   2.484
 6126SOL    HW119277   5.647   4.906   2.574
 6126SOL    HW219278   5.645   5.039   2.479
 6127SOL     OW19279   2.067   5.830   1.610
 6127SOL    HW119280   2.077   5.904   1.677
 6127SOL    HW219281   2.105   5.859   1.522
 6128SOL     OW19282   6.417   2.252   0.106
 6128SOL    HW119283   6.492   2.273   0.169
 6128SOL    HW219284   6.331   2.247   0.157
 6129SOL     OW19285   6.248   4.345   2.324
 6129SOL    HW119286   6.285   4.295   2.246
 6129SOL    HW219287   6.238   4.442   2.300
 6130SOL     OW19288   4.888   3.105   3.442
 6130SOL    HW119289   4.871   3.198   3.475
 6130SOL    HW219290   4.815   3.079   3.378
 6131SOL     OW19291   6.434   1.092   5.423
 6131SOL    HW119292   6.463   1.148   5.501
 6131SOL    HW219293   6.348   1.046   5.445
 6132SOL     OW19294   3.972   2.857   0.938
 6132SOL    HW119295   3.883   2.857   0.893
 6132SOL    HW219296   3.976   2.931   1.005
 6133SOL     OW19297   0.849   4.038   1.584
 6133SOL    HW119298   0.911   4.079   1.518
 6133SOL    HW219299   0.828   3.944   1.557
 6134SOL     OW19300   4.310   3.640   6.586
 6134SOL    HW119301   4.309   3.724   6.531
 6134SOL    HW219302   4.404   3.621   6.616
 6135SOL     OW19303   6.333   6.800   1.330
 6135SOL    HW119304   6.328   6.783   1.231
 6135SOL    HW219305   6.418   6.761   1.366
 6136SOL     OW19306   0.899   1.775   1.807
 6136SOL    HW119307   0.935   1.855   1.759
 6136SOL    HW219308   0.893   1.794   1.905
 6137SOL     OW19309   2.715   6.289   6.022
 6137SOL    HW119310   2.621   6.303   6.054
 6137SOL    HW219311   2.776   6.354   6.067
 6138SOL     OW19312   3.668   6.224   3.198
 6138SOL    HW119313   3.768   6.228   3.189
 6138SOL    HW219314   3.640   6.128   3.206
 6139SOL     OW19315   1.492   4.166   4.475
 6139SOL    HW119316   1.411   4.208   4.434
 6139SOL    HW219317   1.471   4.072   4.502
 6140SOL     OW19318   1.253   6.882   1.801
 6140SOL    HW119319   1.238   6.962   1.743
 6140SOL    HW219320   1.307   6.815   1.750
 6141SOL     OW19321   6.406   5.482   5.708
 6141SOL    HW119322   6.503   5.500   5.688
 6141SOL    HW219323   6.390   5.496   5.806
 6142SOL     OW19324   6.868   3.975   1.146
 6142SOL    HW119325   6.892   4.071   1.158
 6142SOL    HW219326   6.789   3.969   1.085
 6143SOL     OW19327   6.092   5.181   6.664
 6143SOL    HW119328   6.006   5.225   6.690
 6143SOL    HW219329   6.093   5.087   6.699
 6144SOL     OW19330   6.876   4.072   3.930
 6144SOL    HW119331   6.951   4.096   3.992
 6144SOL    HW219332   6.894   3.983   3.888
 6145SOL     OW19333   4.786   5.603   3.119
 6145SOL    HW119334   4.694   5.641   3.129
 6145SOL    HW219335   4.854   5.675   3.128
 6146SOL     OW19336   5.759   1.527   3.222
 6146SOL    HW119337   5.784   1.447   3.276
 6146SOL    HW219338   5.682   1.574   3.264
 6147SOL     OW19339   2.173   3.857   2.432
 6147SOL    HW119340   2.184   3.866   2.333
 6147SOL    HW219341   2.153   3.761   2.454
 6148SOL     OW19342   6.462   6.280   4.171
 6148SOL    HW119343   6.403   6.200   4.175
 6148SOL    HW219344   6.441   6.341   4.247
 6149SOL     OW19345   3.468   5.517   3.078
 6149SOL    HW119346   3.485   5.590   3.012
 6149SOL    HW219347   3.384   5.536   3.129
 6150SOL     OW19348   4.911   6.345   6.033
 6150SOL    HW119349   5.001   6.386   6.052
 6150SOL    HW219350   4.904   6.328   5.935
 6151SOL     OW19351   5.173   2.409   5.250
 6151SOL    HW119352   5.178   2.473   5.173
 6151SOL    HW219353   5.093   2.431   5.307
 6152SOL     OW19354   5.980   4.321   6.501
 6152SOL    HW119355   5.977   4.419   6.524
 6152SOL    HW219356   5.904   4.299   6.441
 6153SOL     OW19357   4.235   3.873   1.566
 6153SOL    HW119358   4.274   3.963   1.585
 6153SOL    HW219359   4.158   3.883   1.502
 6154SOL     OW19360   5.361   2.805   3.320
 6154SOL    HW119361   5.424   2.864   3.371
 6154SOL    HW219362   5.400   2.714   3.311
 6155SOL     OW19363   0.265   3.457   5.253
 6155SOL    HW119364   0.224   3.395   5.186
 6155SOL    HW219365   0.212   3.542   5.258
 6156SOL     OW19366   6.085   6.616   2.911
 6156SOL    HW119367   6.142   6.538   2.886
 6156SOL    HW219368   5.989   6.596   2.893
 6157SOL     OW19369   2.160   1.216   4.503
 6157SOL    HW119370   2.179   1.203   4.405
 6157SOL    HW219371   2.154   1.314   4.522
 6158SOL     OW19372   5.033   1.071   6.484
 6158SOL    HW119373   5.130   1.068   6.461
 6158SOL    HW219374   4.994   0.980   6.475
 6159SOL     OW19375   5.422   2.987   0.373
 6159SOL    HW119376   5.356   3.057   0.401
 6159SOL    HW219377   5.375   2.916   0.319
 6160SOL     OW19378   5.419   6.099   1.732
 6160SOL    HW119379   5.503   6.045   1.741
 6160SOL    HW219380   5.436   6.175   1.669
 6161SOL     OW19381   5.108   0.164   5.920
 6161SOL    HW119382   5.103   0.254   5.962
 6161SOL    HW219383   5.193   0.156   5.868
 6162SOL     OW19384   0.273   5.314   4.603
 6162SOL    HW119385   0.322   5.374   4.666
 6162SOL    HW219386   0.181   5.348   4.588
 6163SOL     OW19387   6.367   4.501   1.250
 6163SOL    HW119388   6.418   4.418   1.226
 6163SOL    HW219389   6.335   4.546   1.167
 6164SOL     OW19390   3.352   1.519   0.736
 6164SOL    HW119391   3.294   1.443   0.764
 6164SOL    HW219392   3.406   1.550   0.814
 6165SOL     OW19393   3.794   6.463   6.678
 6165SOL    HW119394   3.835   6.457   6.769
 6165SOL    HW219395   3.694   6.465   6.686
 6166SOL     OW19396   2.696   1.179   6.077
 6166SOL    HW119397   2.632   1.255   6.087
 6166SOL    HW219398   2.660   1.098   6.125
 6167SOL     OW19399   0.539   3.813   3.328
 6167SOL    HW119400   0.511   3.813   3.424
 6167SOL    HW219401   0.639   3.808   3.322
 6168SOL     OW19402   0.178   4.146   2.791
 6168SOL    HW119403   0.144   4.052   2.789
 6168SOL    HW219404   0.172   4.186   2.699
 6169SOL     OW19405   2.256   4.143   2.421
 6169SOL    HW119406   2.306   4.219   2.379
 6169SOL    HW219407   2.296   4.056   2.392
 6170SOL     OW19408   0.262   2.956   5.427
 6170SOL    HW119409   0.303   3.038   5.387
 6170SOL    HW219410   0.323   2.919   5.497
 6171SOL     OW19411   0.170   0.444   6.649
 6171SOL    HW119412   0.074   0.453   6.623
 6171SOL    HW219413   0.228   0.468   6.571
 6172SOL     OW19414   0.573   3.103   2.856
 6172SOL    HW119415   0.499   3.037   2.861
 6172SOL    HW219416   0.535   3.195   2.845
 6173SOL     OW19417   6.518   6.730   2.997
 6173SOL    HW119418   6.516   6.785   2.913
 6173SOL    HW219419   6.429   6.736   3.042
 6174SOL     OW19420   5.931   4.000   3.141
 6174SOL    HW119421   5.982   3.938   3.201
 6174SOL    HW219422   5.939   3.969   3.046
 6175SOL     OW19423   2.205   1.707   5.331
 6175SOL    HW119424   2.122   1.716   5.276
 6175SOL    HW219425   2.270   1.778   5.305
 6176SOL     OW19426   4.092   4.491   5.395
 6176SOL    HW119427   4.040   4.565   5.353
 6176SOL    HW219428   4.081   4.407   5.342
 6177SOL     OW19429   5.848   1.453   1.806
 6177SOL    HW119430   5.773   1.412   1.754
 6177SOL    HW219431   5.929   1.461   1.747
 6178SOL     OW19432   5.220   4.825   1.889
 6178SOL    HW119433   5.157   4.748   1.888
 6178SOL    HW219434   5.294   4.806   1.955
 6179SOL     OW19435   6.215   4.894   3.077
 6179SOL    HW119436   6.242   4.913   2.983
 6179SOL    HW219437   6.272   4.947   3.140
 6180SOL     OW19438   3.014   4.312   0.174
 6180SOL    HW119439   3.069   4.360   0.105
 6180SOL    HW219440   3.059   4.226   0.198
 6181SOL     OW19441   4.658   5.062   6.124
 6181SOL    HW119442   4.736   5.016   6.167
 6181SOL    HW219443   4.685   5.154   6.095
 6182SOL     OW19444   3.275   3.152   0.328
 6182SOL    HW119445   3.279   3.191   0.421
 6182SOL    HW219446   3.317   3.061   0.328
 6183SOL     OW19447   0.735   1.759   1.569
 6183SOL    HW119448   0.783   1.756   1.657
 6183SOL    HW219449   0.801   1.764   1.495
 6184SOL     OW19450   2.714   0.664   5.971
 6184SOL    HW119451   2.776   0.707   5.905
 6184SOL    HW219452   2.695   0.570   5.943
 6185SOL     OW19453   3.045   2.668   5.674
 6185SOL    HW119454   3.109   2.634   5.605
 6185SOL    HW219455   2.973   2.600   5.688
 6186SOL     OW19456   6.238   1.429   1.929
 6186SOL    HW119457   6.252   1.331   1.937
 6186SOL    HW219458   6.262   1.473   2.016
 6187SOL     OW19459   5.100   1.710   5.362
 6187SOL    HW119460   5.006   1.683   5.380
 6187SOL    HW219461   5.112   1.731   5.265
 6188SOL     OW19462   1.515   2.168   5.345
 6188SOL    HW119463   1.481   2.079   5.314
 6188SOL    HW219464   1.610   2.179   5.316
 6189SOL     OW19465   5.631   6.326   2.372
 6189SOL    HW119466   5.538   6.360   2.358
 6189SOL    HW219467   5.688   6.350   2.294
 6190SOL     OW19468   0.026   2.309   5.590
 6190SOL    HW119469   0.013   2.403   5.622
 6190SOL    HW219470   0.058   2.252   5.665
 6191SOL     OW19471   3.652   3.779   6.556
 6191SOL    HW119472   3.669   3.805   6.461
 6191SOL    HW219473   3.579   3.836   6.594
 6192SOL     OW19474   2.813   1.649   0.223
 6192SOL    HW119475   2.852   1.597   0.299
 6192SOL    HW219476   2.718   1.672   0.243
 6193SOL     OW19477   5.045   5.643   6.665
 6193SOL    HW119478   5.129   5.652   6.718
 6193SOL    HW219479   5.016   5.547   6.664
 6194SOL     OW19480   6.403   6.903   6.115
 6194SOL    HW119481   6.307   6.897   6.087
 6194SOL    HW219482   6.435   6.997   6.103
 6195SOL     OW19483   6.563   6.620   5.666
 6195SOL    HW119484   6.609   6.586   5.584
 6195SOL    HW219485   6.614   6.591   5.747
 6196SOL     OW19486   5.836   3.808   3.539
 6196SOL    HW119487   5.929   3.793   3.507
 6196SOL    HW219488   5.785   3.722   3.536
 6197SOL     OW19489   3.200   5.407   1.881
 6197SOL    HW119490   3.262   5.366   1.948
 6197SOL    HW219491   3.139   5.337   1.844
 6198SOL     OW19492   6.300   6.399   6.270
 6198SOL    HW119493   6.335   6.488   6.298
 6198SOL    HW219494   6.219   6.411   6.213
 6199SOL     OW19495   1.031   0.518   0.875
 6199SOL    HW119496   1.044   0.570   0.791
 6199SOL    HW219497   1.010   0.423   0.852
 6200SOL     OW19498   1.821   2.276   2.740
 6200SOL    HW119499   1.867   2.188   2.748
 6200SOL    HW219500   1.746   2.269   2.674
 6201SOL     OW19501   0.009   3.398   3.954
 6201SOL    HW119502   0.087   3.461   3.950
 6201SOL    HW219503   6.994   3.385   3.863
 6202SOL     OW19504   6.235   1.588   2.723
 6202SOL    HW119505   6.159   1.639   2.764
 6202SOL    HW219506   6.299   1.652   2.681
 6203SOL     OW19507   6.056   6.045   2.038
 6203SOL    HW119508   6.144   6.091   2.048
 6203SOL    HW219509   6.049   6.007   1.946
 6204SOL     OW19510   2.217   0.035   5.249
 6204SOL    HW119511   2.196   0.005   5.156
 6204SOL    HW219512   2.262   0.124   5.246
 6205SOL     OW19513   5.244   3.899   3.287
 6205SOL    HW119514   5.343   3.907   3.272
 6205SOL    HW219515   5.196   3.919   3.201
 6206SOL     OW19516   4.900   2.109   3.727
 6206SOL    HW119517   4.951   2.027   3.753
 6206SOL    HW219518   4.918   2.182   3.793
 6207SOL     OW19519   2.260   5.498   4.241
 6207SOL    HW119520   2.350   5.474   4.276
 6207SOL    HW219521   2.222   5.421   4.190
 6208SOL     OW19522   3.713   2.947   5.784
 6208SOL    HW119523   3.771   2.866   5.797
 6208SOL    HW219524   3.765   3.017   5.734
 6209SOL     OW19525   3.485   3.377   1.020
 6209SOL    HW119526   3.561   3.439   1.004
 6209SOL    HW219527   3.498   3.293   0.968
 6210SOL     OW19528   4.653   1.837   3.580
 6210SOL    HW119529   4.740   1.846   3.532
 6210SOL    HW219530   4.631   1.923   3.626
 6211SOL     OW19531   5.467   5.178   4.868
 6211SOL    HW119532   5.384   5.171   4.811
 6211SOL    HW219533   5.521   5.095   4.857
 6212SOL     OW19534   4.212   4.311   5.933
 6212SOL    HW119535   4.241   4.387   5.874
 6212SOL    HW219536   4.263   4.229   5.909
 6213SOL     OW19537   4.498   5.626   0.137
 6213SOL    HW119538   4.450   5.710   0.111
 6213SOL    HW219539   4.503   5.565   0.059
 6214SOL     OW19540   5.824   5.636   6.331
 6214SOL    HW119541   5.749   5.576   6.303
 6214SOL    HW219542   5.910   5.585   6.325
 6215SOL     OW19543   5.958   2.358   5.526
 6215SOL    HW119544   6.008   2.431   5.478
 6215SOL    HW219545   5.926   2.291   5.460
 6216SOL     OW19546   4.671   2.273   2.872
 6216SOL    HW119547   4.622   2.255   2.787
 6216SOL    HW219548   4.618   2.337   2.928
 6217SOL     OW19549   0.818   4.576   2.542
 6217SOL    HW119550   0.867   4.586   2.455
 6217SOL    HW219551   0.796   4.480   2.557
 6218SOL     OW19552   4.585   6.759   6.513
 6218SOL    HW119553   4.630   6.684   6.463
 6218SOL    HW219554   4.611   6.755   6.609
 6219SOL     OW19555   0.994   0.955   6.084
 6219SOL    HW119556   0.906   0.960   6.130
 6219SOL    HW219557   0.990   0.886   6.011
 6220SOL     OW19558   4.283   0.890   1.211
 6220SOL    HW119559   4.319   0.887   1.117
 6220SOL    HW219560   4.231   0.974   1.224
 6221SOL     OW19561   6.353   5.883   6.703
 6221SOL    HW119562   6.411   5.883   6.784
 6221SOL    HW219563   6.376   5.806   6.645
 6222SOL     OW19564   6.615   1.099   2.657
 6222SOL    HW119565   6.528   1.060   2.687
 6222SOL    HW219566   6.603   1.146   2.570
 6223SOL     OW19567   0.344   4.707   3.654
 6223SOL    HW119568   0.378   4.788   3.606
 6223SOL    HW219569   0.384   4.702   3.745
 6224SOL     OW19570   4.124   1.549   6.424
 6224SOL    HW119571   4.147   1.646   6.425
 6224SOL    HW219572   4.126   1.515   6.330
 6225SOL     OW19573   4.327   6.657   6.418
 6225SOL    HW119574   4.279   6.666   6.505
 6225SOL    HW219575   4.423   6.682   6.431
 6226SOL     OW19576   1.157   1.164   4.584
 6226SOL    HW119577   1.168   1.261   4.562
 6226SOL    HW219578   1.173   1.150   4.682
 6227SOL     OW19579   2.896   3.786   4.950
 6227SOL    HW119580   2.937   3.875   4.971
 6227SOL    HW219581   2.812   3.775   5.002
 6228SOL     OW19582   2.034   2.613   3.476
 6228SOL    HW119583   2.086   2.582   3.397
 6228SOL    HW219584   1.936   2.599   3.459
 6229SOL     OW19585   0.481   3.853   3.910
 6229SOL    HW119586   0.519   3.895   3.992
 6229SOL    HW219587   0.382   3.864   3.910
 6230SOL     OW19588   0.064   1.113   2.009
 6230SOL    HW119589   0.064   1.178   2.085
 6230SOL    HW219590   0.029   1.025   2.042
 6231SOL     OW19591   1.115   5.484   0.035
 6231SOL    HW119592   1.152   5.458   0.124
 6231SOL    HW219593   1.047   5.418   0.006
 6232SOL     OW19594   4.363   1.459   6.538
 6232SOL    HW119595   4.432   1.472   6.467
 6232SOL    HW219596   4.272   1.471   6.499
 6233SOL     OW19597   0.094   3.412   1.793
 6233SOL    HW119598   0.176   3.398   1.737
 6233SOL    HW219599   0.107   3.491   1.852
 6234SOL     OW19600   5.275   6.761   4.285
 6234SOL    HW119601   5.184   6.762   4.326
 6234SOL    HW219602   5.299   6.853   4.255
 6235SOL     OW19603   6.896   0.651   3.054
 6235SOL    HW119604   6.914   0.586   3.128
 6235SOL    HW219605   6.798   0.671   3.050
 6236SOL     OW19606   1.030   4.814   1.048
 6236SOL    HW119607   0.983   4.798   1.135
 6236SOL    HW219608   1.088   4.895   1.056
 6237SOL     OW19609   3.880   1.302   1.204
 6237SOL    HW119610   3.836   1.392   1.211
 6237SOL    HW219611   3.870   1.253   1.291
 6238SOL     OW19612   1.912   6.907   4.678
 6238SOL    HW119613   1.979   6.981   4.685
 6238SOL    HW219614   1.863   6.915   4.592
 6239SOL     OW19615   4.897   1.563   3.141
 6239SOL    HW119616   4.961   1.504   3.190
 6239SOL    HW219617   4.946   1.613   3.070
 6240SOL     OW19618   4.159   3.350   4.069
 6240SOL    HW119619   4.101   3.335   4.150
 6240SOL    HW219620   4.231   3.415   4.092
 6241SOL     OW19621   3.036   6.746   2.921
 6241SOL    HW119622   2.983   6.755   3.005
 6241SOL    HW219623   3.081   6.833   2.900
 6242SOL     OW19624   2.852   1.957   4.228
 6242SOL    HW119625   2.903   1.936   4.145
 6242SOL    HW219626   2.807   2.046   4.217
 6243SOL     OW19627   5.137   0.882   5.649
 6243SOL    HW119628   5.069   0.846   5.585
 6243SOL    HW219629   5.090   0.928   5.724
 6244SOL     OW19630   4.264   4.635   3.146
 6244SOL    HW119631   4.315   4.567   3.198
 6244SOL    HW219632   4.278   4.620   3.048
 6245SOL     OW19633   0.838   4.273   2.557
 6245SOL    HW119634   0.830   4.221   2.642
 6245SOL    HW219635   0.754   4.265   2.505
 6246SOL     OW19636   6.736   6.380   4.347
 6246SOL    HW119637   6.797   6.301   4.353
 6246SOL    HW219638   6.645   6.350   4.319
 6247SOL     OW19639   6.965   6.356   2.275
 6247SOL    HW119640   6.972   6.256   2.277
 6247SOL    HW219641   0.034   6.395   2.263
 6248SOL     OW19642   3.562   3.499   6.235
 6248SOL    HW119643   3.466   3.475   6.251
 6248SOL    HW219644   3.570   3.596   6.215
 6249SOL     OW19645   5.983   3.310   1.626
 6249SOL    HW119646   5.934   3.223   1.623
 6249SOL    HW219647   6.042   3.313   1.706
 6250SOL     OW19648   6.926   0.179   0.434
 6250SOL    HW119649   7.016   0.142   0.409
 6250SOL    HW219650   6.911   0.266   0.387
 6251SOL     OW19651   2.822   6.660   3.923
 6251SOL    HW119652   2.759   6.583   3.931
 6251SOL    HW219653   2.777   6.735   3.875
 6252SOL     OW19654   2.849   5.347   0.024
 6252SOL    HW119655   2.890   5.281   0.088
 6252SOL    HW219656   2.884   5.330   6.955
 6253SOL     OW19657   3.637   5.025   4.904
 6253SOL    HW119658   3.574   5.030   4.826
 6253SOL    HW219659   3.697   4.945   4.892
 6254SOL     OW19660   0.339   6.310   1.166
 6254SOL    HW119661   0.354   6.359   1.079
 6254SOL    HW219662   0.252   6.341   1.206
 6255SOL     OW19663   0.069   1.219   1.772
 6255SOL    HW119664   0.055   1.153   1.698
 6255SOL    HW219665   0.054   1.173   1.860
 6256SOL     OW19666   5.120   5.710   2.243
 6256SOL    HW119667   5.189   5.747   2.182
 6256SOL    HW219668   5.157   5.705   2.336
 6257SOL     OW19669   3.756   4.162   1.514
 6257SOL    HW119670   3.716   4.100   1.583
 6257SOL    HW219671   3.684   4.192   1.451
 6258SOL     OW19672   4.380   6.063   5.499
 6258SOL    HW119673   4.369   6.156   5.536
 6258SOL    HW219674   4.359   5.997   5.571
 6259SOL     OW19675   2.569   0.915   4.972
 6259SOL    HW119676   2.494   0.972   5.006
 6259SOL    HW219677   2.540   0.869   4.888
 6260SOL     OW19678   1.826   1.849   0.450
 6260SOL    HW119679   1.898   1.808   0.506
 6260SOL    HW219680   1.862   1.929   0.403
 6261SOL     OW19681   3.666   6.720   0.969
 6261SOL    HW119682   3.700   6.722   0.875
 6261SOL    HW219683   3.656   6.626   0.999
 6262SOL     OW19684   6.321   0.441   1.965
 6262SOL    HW119685   6.349   0.345   1.966
 6262SOL    HW219686   6.246   0.454   2.031
 6263SOL     OW19687   6.359   6.141   6.233
 6263SOL    HW119688   6.339   6.238   6.248
 6263SOL    HW219689   6.275   6.088   6.243
 6264SOL     OW19690   1.615   0.007   0.655
 6264SOL    HW119691   1.602   6.972   0.574
 6264SOL    HW219692   1.527   0.020   0.702
 6265SOL     OW19693   4.905   1.294   0.258
 6265SOL    HW119694   4.956   1.299   0.344
 6265SOL    HW219695   4.970   1.281   0.182
 6266SOL     OW19696   2.847   5.111   2.941
 6266SOL    HW119697   2.760   5.105   2.991
 6266SOL    HW219698   2.890   5.021   2.939
 6267SOL     OW19699   1.520   6.557   4.855
 6267SOL    HW119700   1.490   6.488   4.922
 6267SOL    HW219701   1.513   6.648   4.895
 6268SOL     OW19702   3.970   0.910   1.311
 6268SOL    HW119703   4.000   0.848   1.384
 6268SOL    HW219704   3.913   0.982   1.350
 6269SOL     OW19705   6.104   5.301   0.273
 6269SOL    HW119706   6.093   5.293   0.373
 6269SOL    HW219707   6.177   5.240   0.243
 6270SOL     OW19708   2.028   6.325   0.063
 6270SOL    HW119709   2.016   6.392   7.012
 6270SOL    HW219710   1.939   6.299   0.099
 6271SOL     OW19711   5.873   2.902   6.271
 6271SOL    HW119712   5.920   2.990   6.266
 6271SOL    HW219713   5.866   2.874   6.366
 6272SOL     OW19714   0.160   6.870   0.690
 6272SOL    HW119715   0.242   6.906   0.734
 6272SOL    HW219716   0.088   6.939   0.690
 6273SOL     OW19717   6.923   6.815   1.441
 6273SOL    HW119718   6.962   6.890   1.387
 6273SOL    HW219719   6.845   6.850   1.493
 6274SOL     OW19720   3.514   5.772   4.320
 6274SOL    HW119721   3.593   5.830   4.340
 6274SOL    HW219722   3.538   5.704   4.251
 6275SOL     OW19723   2.004   5.135   6.550
 6275SOL    HW119724   1.928   5.094   6.600
 6275SOL    HW219725   1.988   5.233   6.539
 6276SOL     OW19726   1.629   5.754   2.795
 6276SOL    HW119727   1.595   5.727   2.705
 6276SOL    HW219728   1.617   5.679   2.860
 6277SOL     OW19729   4.926   3.792   1.517
 6277SOL    HW119730   4.876   3.782   1.603
 6277SOL    HW219731   5.008   3.736   1.520
 6278SOL     OW19732   2.579   1.013   6.392
 6278SOL    HW119733   2.658   0.956   6.373
 6278SOL    HW219734   2.567   1.023   6.491
 6279SOL     OW19735   2.542   0.170   1.480
 6279SOL    HW119736   2.540   0.228   1.399
 6279SOL    HW219737   2.513   0.223   1.560
 6280SOL     OW19738   6.511   1.904   0.041
 6280SOL    HW119739   6.452   1.941   0.113
 6280SOL    HW219740   6.580   1.972   0.016
 6281SOL     OW19741   5.708   4.075   5.747
 6281SOL    HW119742   5.735   4.039   5.658
 6281SOL    HW219743   5.658   4.004   5.798
 6282SOL     OW19744   0.002   3.314   5.698
 6282SOL    HW119745   7.011   3.409   5.669
 6282SOL    HW219746   0.094   3.285   5.675
 6283SOL     OW19747   1.535   5.735   4.474
 6283SOL    HW119748   1.488   5.649   4.493
 6283SOL    HW219749   1.556   5.782   4.561
 6284SOL     OW19750   2.166   4.240   6.494
 6284SOL    HW119751   2.176   4.322   6.438
 6284SOL    HW219752   2.203   4.257   6.586
 6285SOL     OW19753   0.788   3.828   3.248
 6285SOL    HW119754   0.782   3.765   3.171
 6285SOL    HW219755   0.880   3.867   3.252
 6286SOL     OW19756   1.126   2.710   6.288
 6286SOL    HW119757   1.044   2.654   6.283
 6286SOL    HW219758   1.207   2.652   6.278
 6287SOL     OW19759   4.737   4.663   4.817
 6287SOL    HW119760   4.684   4.734   4.864
 6287SOL    HW219761   4.675   4.593   4.782
 6288SOL     OW19762   3.626   3.382   6.807
 6288SOL    HW119763   3.544   3.359   6.859
 6288SOL    HW219764   3.673   3.297   6.780
 6289SOL     OW19765   2.621   4.600   5.722
 6289SOL    HW119766   2.604   4.539   5.644
 6289SOL    HW219767   2.537   4.608   5.776
 6290SOL     OW19768   5.172   5.893   4.541
 6290SOL    HW119769   5.090   5.929   4.586
 6290SOL    HW219770   5.156   5.887   4.443
 6291SOL     OW19771   3.872   3.569   3.361
 6291SOL    HW119772   3.971   3.582   3.367
 6291SOL    HW219773   3.843   3.502   3.429
 6292SOL     OW19774   1.855   3.256   4.306
 6292SOL    HW119775   1.946   3.286   4.336
 6292SOL    HW219776   1.863   3.209   4.218
 6293SOL     OW19777   4.379   1.104   6.474
 6293SOL    HW119778   4.350   1.195   6.504
 6293SOL    HW219779   4.308   1.064   6.415
 6294SOL     OW19780   1.858   1.422   3.255
 6294SOL    HW119781   1.925   1.475   3.203
 6294SOL    HW219782   1.820   1.349   3.197
 6295SOL     OW19783   5.276   3.854   5.572
 6295SOL    HW119784   5.238   3.869   5.481
 6295SOL    HW219785   5.241   3.924   5.635
 6296SOL     OW19786   0.614   2.733   6.710
 6296SOL    HW119787   0.710   2.762   6.711
 6296SOL    HW219788   0.563   2.787   6.643
 6297SOL     OW19789   5.609   1.016   3.853
 6297SOL    HW119790   5.642   0.967   3.772
 6297SOL    HW219791   5.581   1.108   3.827
 6298SOL     OW19792   6.253   5.270   1.109
 6298SOL    HW119793   6.223   5.175   1.100
 6298SOL    HW219794   6.182   5.331   1.074
 6299SOL     OW19795   4.686   1.832   2.508
 6299SOL    HW119796   4.778   1.871   2.499
 6299SOL    HW219797   4.619   1.906   2.519
 6300SOL     OW19798   2.743   0.817   6.319
 6300SOL    HW119799   2.776   0.740   6.265
 6300SOL    HW219800   2.763   0.801   6.415
 6301SOL     OW19801   3.815   6.496   6.971
 6301SOL    HW119802   3.881   6.489   0.023
 6301SOL    HW219803   3.793   6.592   6.955
 6302SOL     OW19804   2.976   1.470   6.848
 6302SOL    HW119805   3.022   1.422   6.922
 6302SOL    HW219806   2.946   1.560   6.880
 6303SOL     OW19807   0.783   5.880   5.301
 6303SOL    HW119808   0.771   5.875   5.400
 6303SOL    HW219809   0.863   5.937   5.280
 6304SOL     OW19810   4.316   0.864   3.117
 6304SOL    HW119811   4.365   0.780   3.096
 6304SOL    HW219812   4.270   0.855   3.205
 6305SOL     OW19813   0.887   6.019   6.116
 6305SOL    HW119814   0.834   6.103   6.118
 6305SOL    HW219815   0.866   5.968   6.032
 6306SOL     OW19816   0.469   4.554   4.162
 6306SOL    HW119817   0.565   4.529   4.176
 6306SOL    HW219818   0.429   4.492   4.094
 6307SOL     OW19819   3.791   3.474   3.108
 6307SOL    HW119820   3.827   3.513   3.193
 6307SOL    HW219821   3.771   3.548   3.044
 6308SOL     OW19822   0.111   2.420   0.448
 6308SOL    HW119823   0.086   2.361   0.371
 6308SOL    HW219824   0.084   2.375   0.534
 6309SOL     OW19825   2.186   5.991   4.514
 6309SOL    HW119826   2.139   5.994   4.602
 6309SOL    HW219827   2.264   6.053   4.516
 6310SOL     OW19828   0.939   6.354   3.365
 6310SOL    HW119829   0.901   6.355   3.458
 6310SOL    HW219830   0.866   6.342   3.299
 6311SOL     OW19831   4.985   0.760   5.406
 6311SOL    HW119832   5.011   0.746   5.311
 6311SOL    HW219833   4.894   0.801   5.410
 6312SOL     OW19834   3.917   6.176   6.389
 6312SOL    HW119835   3.912   6.275   6.377
 6312SOL    HW219836   3.956   6.134   6.307
 6313SOL     OW19837   5.833   6.124   4.358
 6313SOL    HW119838   5.846   6.068   4.439
 6313SOL    HW219839   5.859   6.218   4.378
 6314SOL     OW19840   1.652   6.698   2.597
 6314SOL    HW119841   1.601   6.623   2.640
 6314SOL    HW219842   1.588   6.763   2.557
 6315SOL     OW19843   1.853   2.647   4.523
 6315SOL    HW119844   1.946   2.611   4.534
 6315SOL    HW219845   1.848   2.739   4.563
 6316SOL     OW19846   5.296   0.769   4.512
 6316SOL    HW119847   5.371   0.729   4.565
 6316SOL    HW219848   5.251   0.840   4.566
 6317SOL     OW19849   4.951   5.248   1.749
 6317SOL    HW119850   4.947   5.311   1.826
 6317SOL    HW219851   4.919   5.158   1.778
 6318SOL     OW19852   6.419   6.638   6.364
 6318SOL    HW119853   6.514   6.617   6.341
 6318SOL    HW219854   6.384   6.708   6.302
 6319SOL     OW19855   5.639   1.387   4.848
 6319SOL    HW119856   5.560   1.416   4.793
 6319SOL    HW219857   5.606   1.335   4.927
 6320SOL     OW19858   6.165   0.325   5.474
 6320SOL    HW119859   6.081   0.284   5.439
 6320SOL    HW219860   6.244   0.276   5.438
 6321SOL     OW19861   5.809   1.939   6.868
 6321SOL    HW119862   5.886   1.874   6.875
 6321SOL    HW219863   5.783   1.969   6.960
 6322SOL     OW19864   1.319   1.079   1.947
 6322SOL    HW119865   1.358   1.141   2.016
 6322SOL    HW219866   1.382   1.003   1.931
 6323SOL     OW19867   2.692   3.638   1.225
 6323SOL    HW119868   2.641   3.554   1.207
 6323SOL    HW219869   2.642   3.716   1.189
 6324SOL     OW19870   4.949   1.514   0.733
 6324SOL    HW119871   4.851   1.528   0.750
 6324SOL    HW219872   4.995   1.603   0.728
 6325SOL     OW19873   1.648   2.604   3.841
 6325SOL    HW119874   1.682   2.569   3.754
 6325SOL    HW219875   1.713   2.584   3.913
 6326SOL     OW19876   5.698   4.944   5.715
 6326SOL    HW119877   5.758   4.865   5.710
 6326SOL    HW219878   5.751   5.025   5.741
 6327SOL     OW19879   0.282   0.504   3.594
 6327SOL    HW119880   0.241   0.528   3.682
 6327SOL    HW219881   0.381   0.494   3.605
 6328SOL     OW19882   4.478   3.580   5.348
 6328SOL    HW119883   4.536   3.574   5.267
 6328SOL    HW219884   4.427   3.667   5.346
 6329SOL     OW19885   1.333   2.324   5.773
 6329SOL    HW119886   1.329   2.311   5.674
 6329SOL    HW219887   1.272   2.399   5.799
 6330SOL     OW19888   5.323   1.531   3.296
 6330SOL    HW119889   5.411   1.533   3.343
 6330SOL    HW219890   5.322   1.600   3.223
 6331SOL     OW19891   0.399   3.157   3.425
 6331SOL    HW119892   0.374   3.219   3.351
 6331SOL    HW219893   0.346   3.181   3.507
 6332SOL     OW19894   3.108   1.558   0.593
 6332SOL    HW119895   3.120   1.655   0.611
 6332SOL    HW219896   3.195   1.510   0.610
 6333SOL     OW19897   5.296   1.605   0.746
 6333SOL    HW119898   5.268   1.675   0.679
 6333SOL    HW219899   5.281   1.514   0.707
 6334SOL     OW19900   1.480   1.356   1.969
 6334SOL    HW119901   1.536   1.439   1.968
 6334SOL    HW219902   1.416   1.358   1.892
 6335SOL     OW19903   6.688   1.625   0.760
 6335SOL    HW119904   6.670   1.543   0.706
 6335SOL    HW219905   6.603   1.655   0.805
 6336SOL     OW19906   0.364   2.749   5.600
 6336SOL    HW119907   0.375   2.659   5.559
 6336SOL    HW219908   0.432   2.761   5.673
 6337SOL     OW19909   4.654   5.364   4.762
 6337SOL    HW119910   4.653   5.415   4.848
 6337SOL    HW219911   4.748   5.346   4.735
 6338SOL     OW19912   3.169   1.854   3.538
 6338SOL    HW119913   3.184   1.952   3.524
 6338SOL    HW219914   3.090   1.824   3.484
 6339SOL     OW19915   0.797   4.589   3.240
 6339SOL    HW119916   0.805   4.677   3.193
 6339SOL    HW219917   0.833   4.598   3.333
 6340SOL     OW19918   2.219   4.223   1.205
 6340SOL    HW119919   2.297   4.246   1.264
 6340SOL    HW219920   2.248   4.157   1.136
 6341SOL     OW19921   0.645   5.223   3.446
 6341SOL    HW119922   0.569   5.199   3.506
 6341SOL    HW219923   0.675   5.142   3.396
 6342SOL     OW19924   1.949   1.480   1.451
 6342SOL    HW119925   1.874   1.464   1.515
 6342SOL    HW219926   2.035   1.488   1.502
 6343SOL     OW19927   1.450   5.765   0.994
 6343SOL    HW119928   1.536   5.766   1.045
 6343SOL    HW219929   1.467   5.794   0.899
 6344SOL     OW19930   6.680   1.053   3.933
 6344SOL    HW119931   6.678   1.144   3.891
 6344SOL    HW219932   6.613   1.049   4.007
 6345SOL     OW19933   5.414   3.949   1.905
 6345SOL    HW119934   5.386   3.856   1.926
 6345SOL    HW219935   5.477   3.982   1.976
 6346SOL     OW19936   6.373   3.996   5.659
 6346SOL    HW119937   6.363   3.958   5.751
 6346SOL    HW219938   6.468   4.025   5.645
 6347SOL     OW19939   1.858   1.892   3.000
 6347SOL    HW119940   1.770   1.846   2.999
 6347SOL    HW219941   1.880   1.922   3.093
 6348SOL     OW19942   6.944   1.969   5.923
 6348SOL    HW119943   6.939   1.923   6.011
 6348SOL    HW219944   7.002   2.051   5.931
 6349SOL     OW19945   6.627   1.185   6.835
 6349SOL    HW119946   6.680   1.100   6.837
 6349SOL    HW219947   6.591   1.204   6.927
 6350SOL     OW19948   1.126   4.925   1.780
 6350SOL    HW119949   1.111   4.984   1.860
 6350SOL    HW219950   1.071   4.841   1.790
 6351SOL     OW19951   5.731   3.009   2.316
 6351SOL    HW119952   5.635   2.988   2.335
 6351SOL    HW219953   5.737   3.099   2.273
 6352SOL     OW19954   2.707   0.710   4.582
 6352SOL    HW119955   2.634   0.772   4.613
 6352SOL    HW219956   2.794   0.739   4.622
 6353SOL     OW19957   4.014   5.881   5.800
 6353SOL    HW119958   3.946   5.825   5.846
 6353SOL    HW219959   3.974   5.920   5.717
 6354SOL     OW19960   4.442   5.457   1.693
 6354SOL    HW119961   4.516   5.404   1.650
 6354SOL    HW219962   4.480   5.541   1.731
 6355SOL     OW19963   2.104   4.674   0.572
 6355SOL    HW119964   2.163   4.644   0.647
 6355SOL    HW219965   2.099   4.601   0.503
 6356SOL     OW19966   6.277   4.124   6.748
 6356SOL    HW119967   6.337   4.178   6.808
 6356SOL    HW219968   6.182   4.146   6.769
 6357SOL     OW19969   5.719   1.277   1.532
 6357SOL    HW119970   5.644   1.214   1.510
 6357SOL    HW219971   5.803   1.245   1.488
 6358SOL     OW19972   1.524   2.079   6.610
 6358SOL    HW119973   1.600   2.143   6.608
 6358SOL    HW219974   1.558   1.985   6.615
 6359SOL     OW19975   5.526   6.154   0.723
 6359SOL    HW119976   5.468   6.102   0.661
 6359SOL    HW219977   5.478   6.237   0.752
 6360SOL     OW19978   1.232   2.232   1.974
 6360SOL    HW119979   1.247   2.243   2.072
 6360SOL    HW219980   1.232   2.135   1.950
 6361SOL     OW19981   0.650   0.308   0.055
 6361SOL    HW119982   0.645   0.407   0.039
 6361SOL    HW219983   0.557   0.272   0.067
 6362SOL     OW19984   1.315   5.723   0.147
 6362SOL    HW119985   1.408   5.737   0.179
 6362SOL    HW219986   1.251   5.756   0.217
 6363SOL     OW19987   2.429   4.769   3.498
 6363SOL    HW119988   2.398   4.706   3.427
 6363SOL    HW219989   2.378   4.855   3.490
 6364SOL     OW19990   2.264   2.854   4.589
 6364SOL    HW119991   2.313   2.893   4.667
 6364SOL    HW219992   2.176   2.817   4.620
 6365SOL     OW19993   5.319   5.247   3.454
 6365SOL    HW119994   5.232   5.246   3.502
 6365SOL    HW219995   5.353   5.153   3.446
 6366SOL     OW19996   5.685   6.900   4.569
 6366SOL    HW119997   5.725   6.944   4.650
 6366SOL    HW219998   5.586   6.911   4.571
 6367SOL     OW19999   2.262   2.173   2.352
 6367SOL    HW120000   2.328   2.118   2.403
 6367SOL    HW220001   2.170   2.155   2.387
 6368SOL     OW20002   4.864   3.041   4.647
 6368SOL    HW120003   4.858   3.026   4.549
 6368SOL    HW220004   4.901   3.132   4.665
 6369SOL     OW20005   3.978   5.879   6.693
 6369SOL    HW120006   3.897   5.851   6.745
 6369SOL    HW220007   4.038   5.934   6.751
 6370SOL     OW20008   5.348   3.524   4.435
 6370SOL    HW120009   5.381   3.464   4.507
 6370SOL    HW220010   5.348   3.618   4.467
 6371SOL     OW20011   4.733   4.703   1.905
 6371SOL    HW120012   4.817   4.704   1.851
 6371SOL    HW220013   4.749   4.748   1.993
 6372SOL     OW20014   6.359   1.797   2.581
 6372SOL    HW120015   6.318   1.878   2.539
 6372SOL    HW220016   6.434   1.764   2.524
 6373SOL     OW20017   4.748   4.378   1.094
 6373SOL    HW120018   4.653   4.397   1.120
 6373SOL    HW220019   4.787   4.459   1.050
 6374SOL     OW20020   4.639   3.595   6.925
 6374SOL    HW120021   4.593   3.667   6.977
 6374SOL    HW220022   4.580   3.564   6.851
 6375SOL     OW20023   5.930   2.472   1.834
 6375SOL    HW120024   5.964   2.378   1.832
 6375SOL    HW220025   5.914   2.500   1.929
 6376SOL     OW20026   3.585   1.207   6.637
 6376SOL    HW120027   3.579   1.283   6.702
 6376SOL    HW220028   3.637   1.132   6.678
 6377SOL     OW20029   6.857   0.425   0.315
 6377SOL    HW120030   6.861   0.513   0.362
 6377SOL    HW220031   6.763   0.393   0.312
 6378SOL     OW20032   5.487   5.709   2.616
 6378SOL    HW120033   5.573   5.751   2.589
 6378SOL    HW220034   5.505   5.629   2.674
 6379SOL     OW20035   2.204   6.181   6.877
 6379SOL    HW120036   2.214   6.090   6.838
 6379SOL    HW220037   2.207   6.175   6.977
 6380SOL     OW20038   1.488   3.590   5.164
 6380SOL    HW120039   1.529   3.592   5.255
 6380SOL    HW220040   1.523   3.512   5.113
 6381SOL     OW20041   4.708   2.559   0.467
 6381SOL    HW120042   4.798   2.602   0.464
 6381SOL    HW220043   4.643   2.621   0.511
 6382SOL     OW20044   1.425   1.818   1.352
 6382SOL    HW120045   1.509   1.867   1.329
 6382SOL    HW220046   1.383   1.783   1.268
 6383SOL     OW20047   2.317   2.499   2.190
 6383SOL    HW120048   2.263   2.583   2.192
 6383SOL    HW220049   2.266   2.424   2.231
 6384SOL     OW20050   5.894   2.507   2.792
 6384SOL    HW120051   5.895   2.586   2.854
 6384SOL    HW220052   5.912   2.424   2.844
 6385SOL     OW20053   6.606   3.209   1.521
 6385SOL    HW120054   6.543   3.131   1.521
 6385SOL    HW220055   6.700   3.176   1.517
 6386SOL     OW20056   2.747   3.685   0.579
 6386SOL    HW120057   2.712   3.601   0.622
 6386SOL    HW220058   2.842   3.671   0.553
 6387SOL     OW20059   6.962   0.349   6.515
 6387SOL    HW120060   6.971   0.304   6.603
 6387SOL    HW220061   0.008   0.313   6.451
 6388SOL     OW20062   6.602   5.521   2.339
 6388SOL    HW120063   6.647   5.568   2.262
 6388SOL    HW220064   6.667   5.459   2.382
 6389SOL     OW20065   0.744   0.656   0.015
 6389SOL    HW120066   0.802   0.647   6.957
 6389SOL    HW220067   0.648   0.643   7.011
 6390SOL     OW20068   6.514   1.082   6.254
 6390SOL    HW120069   6.483   1.050   6.344
 6390SOL    HW220070   6.436   1.119   6.203
 6391SOL     OW20071   0.757   1.577   5.103
 6391SOL    HW120072   0.694   1.628   5.163
 6391SOL    HW220073   0.804   1.642   5.043
 6392SOL     OW20074   3.898   6.750   3.752
 6392SOL    HW120075   3.825   6.774   3.687
 6392SOL    HW220076   3.887   6.655   3.780
 6393SOL     OW20077   0.018   5.419   0.040
 6393SOL    HW120078   6.969   5.377   0.096
 6393SOL    HW220079   0.098   5.360   0.036
 6394SOL     OW20080   1.529   5.498   1.210
 6394SOL    HW120081   1.543   5.440   1.130
 6394SOL    HW220082   1.582   5.583   1.199
 6395SOL     OW20083   2.164   4.298   3.270
 6395SOL    HW120084   2.185   4.201   3.257
 6395SOL    HW220085   2.099   4.308   3.345
 6396SOL     OW20086   0.793   3.574   6.573
 6396SOL    HW120087   0.832   3.653   6.525
 6396SOL    HW220088   0.826   3.573   6.667
 6397SOL     OW20089   5.823   3.254   3.927
 6397SOL    HW120090   5.799   3.332   3.984
 6397SOL    HW220091   5.793   3.170   3.973
 6398SOL     OW20092   1.691   0.359   0.859
 6398SOL    HW120093   1.690   0.453   0.894
 6398SOL    HW220094   1.598   0.331   0.837
 6399SOL     OW20095   3.323   1.268   5.822
 6399SOL    HW120096   3.225   1.288   5.824
 6399SOL    HW220097   3.374   1.344   5.861
 6400SOL     OW20098   0.910   6.740   3.094
 6400SOL    HW120099   0.987   6.802   3.109
 6400SOL    HW220100   0.840   6.757   3.164
 6401SOL     OW20101   3.880   6.115   3.696
 6401SOL    HW120102   3.839   6.162   3.618
 6401SOL    HW220103   3.828   6.032   3.716
 6402SOL     OW20104   1.865   4.705   4.570
 6402SOL    HW120105   1.917   4.625   4.599
 6402SOL    HW220106   1.771   4.697   4.601
 6403SOL     OW20107   4.678   5.641   4.839
 6403SOL    HW120108   4.711   5.736   4.836
 6403SOL    HW220109   4.696   5.597   4.752
 6404SOL     OW20110   4.284   0.121   2.143
 6404SOL    HW120111   4.250   0.100   2.235
 6404SOL    HW220112   4.234   0.067   2.075
 6405SOL     OW20113   5.274   1.500   2.478
 6405SOL    HW120114   5.279   1.593   2.441
 6405SOL    HW220115   5.191   1.455   2.444
 6406SOL     OW20116   0.574   2.975   3.323
 6406SOL    HW120117   0.653   3.026   3.289
 6406SOL    HW220118   0.522   3.032   3.386
 6407SOL     OW20119   1.535   6.134   2.474
 6407SOL    HW120120   1.626   6.170   2.491
 6407SOL    HW220121   1.530   6.097   2.381
 6408SOL     OW20122   6.217   0.440   1.244
 6408SOL    HW120123   6.250   0.514   1.302
 6408SOL    HW220124   6.291   0.407   1.186
 6409SOL     OW20125   5.445   5.017   3.343
 6409SOL    HW120126   5.526   5.044   3.291
 6409SOL    HW220127   5.466   4.938   3.400
 6410SOL     OW20128   2.381   1.346   5.646
 6410SOL    HW120129   2.459   1.311   5.698
 6410SOL    HW220130   2.374   1.297   5.560
 6411SOL     OW20131   0.371   2.412   2.276
 6411SOL    HW120132   0.403   2.426   2.369
 6411SOL    HW220133   0.350   2.316   2.261
 6412SOL     OW20134   3.525   0.397   0.151
 6412SOL    HW120135   3.563   0.332   0.086
 6412SOL    HW220136   3.495   0.479   0.102
 6413SOL     OW20137   5.427   6.524   3.535
 6413SOL    HW120138   5.509   6.544   3.588
 6413SOL    HW220139   5.449   6.529   3.437
 6414SOL     OW20140   1.738   0.149   0.235
 6414SOL    HW120141   1.788   0.216   0.180
 6414SOL    HW220142   1.707   0.192   0.320
 6415SOL     OW20143   0.520   2.505   3.455
 6415SOL    HW120144   0.423   2.492   3.470
 6415SOL    HW220145   0.546   2.464   3.367
 6416SOL     OW20146   2.896   6.758   0.196
 6416SOL    HW120147   2.882   6.705   0.113
 6416SOL    HW220148   2.982   6.730   0.239
 6417SOL     OW20149   3.810   1.579   0.234
 6417SOL    HW120150   3.883   1.624   0.183
 6417SOL    HW220151   3.722   1.623   0.213
 6418SOL     OW20152   4.493   5.118   0.632
 6418SOL    HW120153   4.507   5.148   0.726
 6418SOL    HW220154   4.581   5.096   0.590
 6419SOL     OW20155   1.081   6.388   6.265
 6419SOL    HW120156   1.098   6.479   6.304
 6419SOL    HW220157   1.057   6.325   6.339
 6420SOL     OW20158   2.168   4.052   4.575
 6420SOL    HW120159   2.185   4.147   4.549
 6420SOL    HW220160   2.199   3.992   4.502
 6421SOL     OW20161   4.473   0.299   2.001
 6421SOL    HW120162   4.471   0.397   2.022
 6421SOL    HW220163   4.385   0.257   2.025
 6422SOL     OW20164   5.856   1.864   4.594
 6422SOL    HW120165   5.896   1.799   4.658
 6422SOL    HW220166   5.809   1.936   4.645
 6423SOL     OW20167   2.513   4.515   4.173
 6423SOL    HW120168   2.518   4.489   4.269
 6423SOL    HW220169   2.535   4.612   4.164
 6424SOL     OW20170   6.248   4.728   4.773
 6424SOL    HW120171   6.228   4.634   4.801
 6424SOL    HW220172   6.163   4.777   4.756
 6425SOL     OW20173   0.287   5.508   3.540
 6425SOL    HW120174   0.382   5.514   3.510
 6425SOL    HW220175   0.241   5.433   3.493
 6426SOL     OW20176   4.796   4.283   5.161
 6426SOL    HW120177   4.775   4.373   5.123
 6426SOL    HW220178   4.873   4.291   5.224
 6427SOL     OW20179   4.001   3.067   3.231
 6427SOL    HW120180   4.025   3.022   3.145
 6427SOL    HW220181   3.908   3.040   3.258
 6428SOL     OW20182   5.405   3.309   0.700
 6428SOL    HW120183   5.489   3.329   0.649
 6428SOL    HW220184   5.328   3.302   0.636
 6429SOL     OW20185   2.036   1.043   5.444
 6429SOL    HW120186   2.010   1.056   5.539
 6429SOL    HW220187   2.007   1.122   5.390
 6430SOL     OW20188   6.933   6.922   5.496
 6430SOL    HW120189   6.958   7.007   5.542
 6430SOL    HW220190   7.015   6.865   5.483
 6431SOL     OW20191   3.835   4.746   1.731
 6431SOL    HW120192   3.816   4.777   1.638
 6431SOL    HW220193   3.751   4.710   1.772
 6432SOL     OW20194   4.709   4.684   6.053
 6432SOL    HW120195   4.696   4.734   5.967
 6432SOL    HW220196   4.708   4.586   6.035
 6433SOL     OW20197   2.483   5.590   6.883
 6433SOL    HW120198   2.545   5.599   6.805
 6433SOL    HW220199   2.389   5.580   6.850
 6434SOL     OW20200   4.101   4.978   5.947
 6434SOL    HW120201   4.177   4.932   5.992
 6434SOL    HW220202   4.015   4.933   5.971
 6435SOL     OW20203   4.974   1.228   0.842
 6435SOL    HW120204   5.050   1.165   0.826
 6435SOL    HW220205   4.964   1.289   0.763
 6436SOL     OW20206   6.804   4.004   4.407
 6436SOL    HW120207   6.895   4.009   4.450
 6436SOL    HW220208   6.743   3.948   4.464
 6437SOL     OW20209   0.857   2.181   5.395
 6437SOL    HW120210   0.778   2.157   5.339
 6437SOL    HW220211   0.934   2.205   5.336
 6438SOL     OW20212   0.577   5.414   0.164
 6438SOL    HW120213   0.492   5.382   0.206
 6438SOL    HW220214   0.639   5.446   0.234
 6439SOL     OW20215   5.953   0.036   2.921
 6439SOL    HW120216   6.016   0.005   2.993
 6439SOL    HW220217   5.862   0.049   2.961
 6440SOL     OW20218   2.725   2.021   6.646
 6440SOL    HW120219   2.657   2.084   6.608
 6440SOL    HW220220   2.812   2.070   6.660
 6441SOL     OW20221   0.872   1.853   2.770
 6441SOL    HW120222   0.826   1.914   2.834
 6441SOL    HW220223   0.924   1.784   2.821
 6442SOL     OW20224   3.003   2.641   5.325
 6442SOL    HW120225   2.929   2.698   5.289
 6442SOL    HW220226   2.969   2.548   5.340
 6443SOL     OW20227   4.947   2.661   0.345
 6443SOL    HW120228   5.007   2.609   0.284
 6443SOL    HW220229   4.969   2.758   0.338
 6444SOL     OW20230   6.536   3.157   5.203
 6444SOL    HW120231   6.613   3.092   5.205
 6444SOL    HW220232   6.563   3.242   5.248
 6445SOL     OW20233   3.381   3.033   3.094
 6445SOL    HW120234   3.439   3.090   3.036
 6445SOL    HW220235   3.296   3.012   3.045
 6446SOL     OW20236   2.480   1.211   6.267
 6446SOL    HW120237   2.530   1.138   6.314
 6446SOL    HW220238   2.472   1.291   6.327
 6447SOL     OW20239   6.271   3.673   1.758
 6447SOL    HW120240   6.185   3.687   1.710
 6447SOL    HW220241   6.316   3.591   1.723
 6448SOL     OW20242   3.682   5.405   1.318
 6448SOL    HW120243   3.642   5.375   1.405
 6448SOL    HW220244   3.737   5.331   1.280
 6449SOL     OW20245   2.189   5.060   1.076
 6449SOL    HW120246   2.214   5.156   1.089
 6449SOL    HW220247   2.169   5.018   1.165
 6450SOL     OW20248   0.418   4.549   1.191
 6450SOL    HW120249   0.411   4.600   1.276
 6450SOL    HW220250   0.442   4.454   1.211
 6451SOL     OW20251   3.959   2.091   1.037
 6451SOL    HW120252   4.055   2.116   1.022
 6451SOL    HW220253   3.920   2.058   0.951
 6452SOL     OW20254   4.905   2.503   3.535
 6452SOL    HW120255   4.979   2.552   3.487
 6452SOL    HW220256   4.927   2.406   3.539
 6453SOL     OW20257   2.912   1.174   1.291
 6453SOL    HW120258   2.984   1.104   1.294
 6453SOL    HW220259   2.930   1.242   1.362
 6454SOL     OW20260   5.720   2.486   3.738
 6454SOL    HW120261   5.724   2.469   3.640
 6454SOL    HW220262   5.683   2.577   3.755
 6455SOL     OW20263   6.660   3.682   3.374
 6455SOL    HW120264   6.721   3.644   3.444
 6455SOL    HW220265   6.577   3.717   3.418
 6456SOL     OW20266   6.211   1.494   2.986
 6456SOL    HW120267   6.283   1.434   3.020
 6456SOL    HW220268   6.211   1.494   2.886
 6457SOL     OW20269   3.684   0.417   2.364
 6457SOL    HW120270   3.748   0.486   2.329
 6457SOL    HW220271   3.628   0.457   2.436
 6458SOL     OW20272   0.413   4.928   3.509
 6458SOL    HW120273   0.401   4.953   3.413
 6458SOL    HW220274   0.434   5.010   3.562
 6459SOL     OW20275   6.246   3.510   2.103
 6459SOL    HW120276   6.242   3.609   2.090
 6459SOL    HW220277   6.162   3.469   2.069
 6460SOL     OW20278   0.648   6.072   5.851
 6460SOL    HW120279   0.731   6.061   5.796
 6460SOL    HW220280   0.589   5.993   5.839
 6461SOL     OW20281   2.323   5.476   1.446
 6461SOL    HW120282   2.378   5.510   1.522
 6461SOL    HW220283   2.226   5.496   1.463
 6462SOL     OW20284   1.599   3.814   5.318
 6462SOL    HW120285   1.696   3.797   5.301
 6462SOL    HW220286   1.569   3.891   5.261
 6463SOL     OW20287   4.824   1.845   1.590
 6463SOL    HW120288   4.870   1.772   1.640
 6463SOL    HW220289   4.737   1.867   1.635
 6464SOL     OW20290   0.968   4.845   4.245
 6464SOL    HW120291   1.054   4.829   4.197
 6464SOL    HW220292   0.977   4.813   4.340
 6465SOL     OW20293   4.050   1.068   3.092
 6465SOL    HW120294   3.975   1.021   3.045
 6465SOL    HW220295   4.138   1.035   3.057
 6466SOL     OW20296   0.460   2.967   0.313
 6466SOL    HW120297   0.417   2.992   0.400
 6466SOL    HW220298   0.559   2.979   0.321
 6467SOL     OW20299   3.011   1.944   1.020
 6467SOL    HW120300   3.004   1.947   0.920
 6467SOL    HW220301   2.939   2.002   1.060
 6468SOL     OW20302   2.736   1.051   0.976
 6468SOL    HW120303   2.642   1.017   0.969
 6468SOL    HW220304   2.735   1.151   0.978
 6469SOL     OW20305   3.307   1.671   2.995
 6469SOL    HW120306   3.303   1.581   3.039
 6469SOL    HW220307   3.271   1.740   3.058
 6470SOL     OW20308   6.898   1.991   6.908
 6470SOL    HW120309   6.841   2.066   6.873
 6470SOL    HW220310   6.995   2.015   6.897
 6471SOL     OW20311   0.523   6.381   5.856
 6471SOL    HW120312   0.561   6.406   5.767
 6471SOL    HW220313   0.470   6.297   5.847
 6472SOL     OW20314   6.452   6.105   3.047
 6472SOL    HW120315   6.384   6.147   2.987
 6472SOL    HW220316   6.511   6.045   2.993
 6473SOL     OW20317   2.634   1.665   4.145
 6473SOL    HW120318   2.573   1.589   4.124
 6473SOL    HW220319   2.620   1.739   4.079
 6474SOL     OW20320   3.868   5.399   5.330
 6474SOL    HW120321   3.964   5.428   5.322
 6474SOL    HW220322   3.865   5.302   5.352
 6475SOL     OW20323   5.691   5.221   2.544
 6475SOL    HW120324   5.665   5.314   2.570
 6475SOL    HW220325   5.791   5.215   2.541
 6476SOL     OW20326   3.663   1.757   6.549
 6476SOL    HW120327   3.747   1.707   6.570
 6476SOL    HW220328   3.683   1.854   6.537
 6477SOL     OW20329   6.468   6.267   1.608
 6477SOL    HW120330   6.468   6.362   1.637
 6477SOL    HW220331   6.554   6.224   1.632
 6478SOL     OW20332   3.267   5.447   1.435
 6478SOL    HW120333   3.243   5.459   1.339
 6478SOL    HW220334   3.198   5.491   1.493
 6479SOL     OW20335   3.237   6.102   4.090
 6479SOL    HW120336   3.143   6.132   4.108
 6479SOL    HW220337   3.273   6.155   4.013
 6480SOL     OW20338   3.616   1.838   6.860
 6480SOL    HW120339   3.553   1.915   6.854
 6480SOL    HW220340   3.613   1.785   6.775
 6481SOL     OW20341   3.506   2.891   1.891
 6481SOL    HW120342   3.481   2.916   1.984
 6481SOL    HW220343   3.461   2.806   1.865
 6482SOL     OW20344   5.674   4.026   5.464
 6482SOL    HW120345   5.593   4.082   5.446
 6482SOL    HW220346   5.714   3.997   5.377
 6483SOL     OW20347   1.202   5.964   5.053
 6483SOL    HW120348   1.290   5.925   5.080
 6483SOL    HW220349   1.181   5.936   4.959
 6484SOL     OW20350   2.254   0.800   4.150
 6484SOL    HW120351   2.173   0.836   4.103
 6484SOL    HW220352   2.243   0.810   4.249
 6485SOL     OW20353   1.960   6.797   4.081
 6485SOL    HW120354   1.864   6.778   4.099
 6485SOL    HW220355   1.984   6.762   3.990
 6486SOL     OW20356   1.418   4.569   3.530
 6486SOL    HW120357   1.479   4.521   3.593
 6486SOL    HW220358   1.383   4.505   3.462
 6487SOL     OW20359   5.910   4.626   3.728
 6487SOL    HW120360   5.869   4.646   3.817
 6487SOL    HW220361   5.986   4.562   3.740
 6488SOL     OW20362   4.377   5.456   4.379
 6488SOL    HW120363   4.453   5.517   4.356
 6488SOL    HW220364   4.320   5.499   4.449
 6489SOL     OW20365   4.433   3.265   5.697
 6489SOL    HW120366   4.468   3.175   5.725
 6489SOL    HW220367   4.338   3.274   5.728
 6490SOL     OW20368   1.687   2.228   6.964
 6490SOL    HW120369   1.728   2.283   6.891
 6490SOL    HW220370   1.623   2.162   6.925
 6491SOL     OW20371   3.049   0.246   1.247
 6491SOL    HW120372   3.030   0.243   1.149
 6491SOL    HW220373   2.966   0.272   1.297
 6492SOL     OW20374   3.414   3.519   4.460
 6492SOL    HW120375   3.456   3.610   4.456
 6492SOL    HW220376   3.484   3.451   4.480
 6493SOL     OW20377   0.623   3.935   5.617
 6493SOL    HW120378   0.603   4.033   5.616
 6493SOL    HW220379   0.567   3.890   5.686
 6494SOL     OW20380   5.867   0.385   1.801
 6494SOL    HW120381   5.866   0.315   1.729
 6494SOL    HW220382   5.858   0.475   1.760
 6495SOL     OW20383   6.224   7.020   3.408
 6495SOL    HW120384   6.192   0.083   3.367
 6495SOL    HW220385   6.294   0.018   3.477
 6496SOL     OW20386   3.689   1.342   1.448
 6496SOL    HW120387   3.718   1.438   1.446
 6496SOL    HW220388   3.609   1.330   1.389
 6497SOL     OW20389   0.011   1.334   0.969
 6497SOL    HW120390   0.070   1.357   0.892
 6497SOL    HW220391   7.005   1.238   0.962
 6498SOL     OW20392   1.062   4.479   4.607
 6498SOL    HW120393   1.080   4.504   4.702
 6498SOL    HW220394   1.000   4.401   4.604
 6499SOL     OW20395   4.896   3.726   3.307
 6499SOL    HW120396   4.918   3.707   3.402
 6499SOL    HW220397   4.964   3.683   3.248
 6500SOL     OW20398   1.570   4.161   3.008
 6500SOL    HW120399   1.646   4.156   2.943
 6500SOL    HW220400   1.605   4.144   3.100
 6501SOL     OW20401   6.064   2.068   0.943
 6501SOL    HW120402   6.146   2.118   0.973
 6501SOL    HW220403   6.081   2.028   0.853
 6502SOL     OW20404   6.777   3.820   1.904
 6502SOL    HW120405   6.742   3.828   1.997
 6502SOL    HW220406   6.700   3.812   1.841
 6503SOL     OW20407   6.538   3.168   5.608
 6503SOL    HW120408   6.555   3.084   5.556
 6503SOL    HW220409   6.439   3.180   5.619
 6504SOL     OW20410   4.688   5.879   6.534
 6504SOL    HW120411   4.592   5.903   6.548
 6504SOL    HW220412   4.740   5.961   6.510
 6505SOL     OW20413   6.950   5.832   0.977
 6505SOL    HW120414   0.010   5.884   1.001
 6505SOL    HW220415   6.879   5.895   0.947
 6506SOL     OW20416   0.137   4.269   2.141
 6506SOL    HW120417   0.172   4.301   2.054
 6506SOL    HW220418   0.196   4.196   2.176
 6507SOL     OW20419   3.573   4.422   6.686
 6507SOL    HW120420   3.589   4.344   6.626
 6507SOL    HW220421   3.652   4.436   6.745
 6508SOL     OW20422   0.663   6.848   2.300
 6508SOL    HW120423   0.748   6.896   2.323
 6508SOL    HW220424   0.684   6.770   2.241
 6509SOL     OW20425   3.250   1.562   6.349
 6509SOL    HW120426   3.226   1.524   6.260
 6509SOL    HW220427   3.199   1.515   6.421
 6510SOL     OW20428   4.209   5.593   5.654
 6510SOL    HW120429   4.191   5.616   5.749
 6510SOL    HW220430   4.128   5.611   5.599
 6511SOL     OW20431   3.194   0.963   0.166
 6511SOL    HW120432   3.163   0.885   0.220
 6511SOL    HW220433   3.162   1.048   0.208
 6512SOL     OW20434   4.167   1.503   0.603
 6512SOL    HW120435   4.141   1.482   0.697
 6512SOL    HW220436   4.090   1.483   0.542
 6513SOL     OW20437   2.031   5.126   3.512
 6513SOL    HW120438   2.029   5.167   3.420
 6513SOL    HW220439   2.039   5.199   3.580
 6514SOL     OW20440   5.675   6.912   5.913
 6514SOL    HW120441   5.722   6.829   5.883
 6514SOL    HW220442   5.609   6.889   5.984
 6515SOL     OW20443   2.156   5.209   2.160
 6515SOL    HW120444   2.127   5.172   2.072
 6515SOL    HW220445   2.138   5.307   2.162
 6516SOL     OW20446   6.802   3.993   1.419
 6516SOL    HW120447   6.796   3.902   1.461
 6516SOL    HW220448   6.825   3.984   1.322
 6517SOL     OW20449   6.757   2.962   0.474
 6517SOL    HW120450   6.770   3.036   0.408
 6517SOL    HW220451   6.822   2.972   0.549
 6518SOL     OW20452   1.129   1.861   3.232
 6518SOL    HW120453   1.218   1.898   3.205
 6518SOL    HW220454   1.105   1.896   3.323
 6519SOL     OW20455   1.430   1.279   2.867
 6519SOL    HW120456   1.392   1.341   2.936
 6519SOL    HW220457   1.370   1.278   2.787
 6520SOL     OW20458   0.604   5.355   6.933
 6520SOL    HW120459   0.618   5.437   6.877
 6520SOL    HW220460   0.599   5.381   0.007
 6521SOL     OW20461   1.272   3.943   4.445
 6521SOL    HW120462   1.199   4.010   4.431
 6521SOL    HW220463   1.312   3.919   4.357
 6522SOL     OW20464   2.812   3.331   5.208
 6522SOL    HW120465   2.824   3.316   5.109
 6522SOL    HW220466   2.794   3.244   5.253
 6523SOL     OW20467   5.766   7.016   0.196
 6523SOL    HW120468   5.792   6.927   0.231
 6523SOL    HW220469   5.687   7.006   0.136
 6524SOL     OW20470   2.499   2.174   1.645
 6524SOL    HW120471   2.443   2.111   1.700
 6524SOL    HW220472   2.459   2.266   1.649
 6525SOL     OW20473   0.960   4.909   3.409
 6525SOL    HW120474   1.023   4.850   3.459
 6525SOL    HW220475   0.866   4.889   3.438
 6526SOL     OW20476   0.936   6.908   0.046
 6526SOL    HW120477   0.887   6.995   0.040
 6526SOL    HW220478   0.869   6.833   0.052
 6527SOL     OW20479   0.357   2.357   0.350
 6527SOL    HW120480   0.395   2.433   0.299
 6527SOL    HW220481   0.271   2.385   0.394
 6528SOL     OW20482   5.260   0.669   6.642
 6528SOL    HW120483   5.192   0.688   6.713
 6528SOL    HW220484   5.234   0.586   6.593
 6529SOL     OW20485   6.842   0.955   2.365
 6529SOL    HW120486   6.862   0.871   2.316
 6529SOL    HW220487   6.905   0.964   2.443
 6530SOL     OW20488   1.261   2.988   2.297
 6530SOL    HW120489   1.350   2.952   2.269
 6530SOL    HW220490   1.189   2.947   2.241
 6531SOL     OW20491   3.965   4.027   5.097
 6531SOL    HW120492   3.990   3.930   5.101
 6531SOL    HW220493   3.938   4.050   5.003
 6532SOL     OW20494   1.356   0.824   0.784
 6532SOL    HW120495   1.278   0.851   0.728
 6532SOL    HW220496   1.413   0.760   0.734
 6533SOL     OW20497   4.960   3.772   0.786
 6533SOL    HW120498   4.902   3.703   0.742
 6533SOL    HW220499   4.909   3.819   0.857
 6534SOL     OW20500   6.840   4.560   3.362
 6534SOL    HW120501   6.784   4.483   3.329
 6534SOL    HW220502   6.917   4.574   3.300
 6535SOL     OW20503   6.030   3.177   5.204
 6535SOL    HW120504   5.954   3.127   5.245
 6535SOL    HW220505   6.082   3.222   5.275
 6536SOL     OW20506   0.577   3.457   5.162
 6536SOL    HW120507   0.505   3.419   5.219
 6536SOL    HW220508   0.666   3.431   5.198
 6537SOL     OW20509   6.013   5.223   4.128
 6537SOL    HW120510   5.956   5.224   4.210
 6537SOL    HW220511   5.956   5.241   4.048
 6538SOL     OW20512   2.693   3.034   5.577
 6538SOL    HW120513   2.597   3.046   5.598
 6538SOL    HW220514   2.749   3.056   5.657
 6539SOL     OW20515   5.493   1.006   5.453
 6539SOL    HW120516   5.470   1.077   5.387
 6539SOL    HW220517   5.592   0.996   5.459
 6540SOL     OW20518   6.069   2.596   5.445
 6540SOL    HW120519   6.087   2.662   5.373
 6540SOL    HW220520   6.110   2.627   5.531
 6541SOL     OW20521   5.637   0.815   4.463
 6541SOL    HW120522   5.729   0.797   4.426
 6541SOL    HW220523   5.598   0.895   4.418
 6542SOL     OW20524   1.636   4.465   3.812
 6542SOL    HW120525   1.559   4.409   3.842
 6542SOL    HW220526   1.704   4.469   3.886
 6543SOL     OW20527   3.892   2.071   5.063
 6543SOL    HW120528   3.970   2.118   5.021
 6543SOL    HW220529   3.924   1.990   5.112
 6544SOL     OW20530   1.216   6.587   1.589
 6544SOL    HW120531   1.203   6.548   1.680
 6544SOL    HW220532   1.296   6.647   1.589
 6545SOL     OW20533   4.587   0.086   0.495
 6545SOL    HW120534   4.615   0.121   0.405
 6545SOL    HW220535   4.522   0.150   0.536
 6546SOL     OW20536   4.718   3.443   6.508
 6546SOL    HW120537   4.803   3.456   6.559
 6546SOL    HW220538   4.712   3.349   6.476
 6547SOL     OW20539   6.555   5.411   6.985
 6547SOL    HW120540   6.532   5.330   0.018
 6547SOL    HW220541   6.559   5.491   0.022
 6548SOL     OW20542   0.084   1.674   5.445
 6548SOL    HW120543   0.181   1.680   5.422
 6548SOL    HW220544   0.031   1.732   5.383
 6549SOL     OW20545   4.709   0.253   1.702
 6549SOL    HW120546   4.680   0.347   1.718
 6549SOL    HW220547   4.750   0.215   1.785
 6550SOL     OW20548   6.537   0.094   3.215
 6550SOL    HW120549   6.448   0.119   3.255
 6550SOL    HW220550   6.544   0.133   3.123
 6551SOL     OW20551   2.837   3.823   0.808
 6551SOL    HW120552   2.810   3.905   0.857
 6551SOL    HW220553   2.758   3.787   0.758
 6552SOL     OW20554   2.359   6.210   0.841
 6552SOL    HW120555   2.268   6.243   0.865
 6552SOL    HW220556   2.419   6.215   0.921
 6553SOL     OW20557   0.415   1.430   3.689
 6553SOL    HW120558   0.438   1.355   3.750
 6553SOL    HW220559   0.475   1.429   3.609
 6554SOL     OW20560   2.592   1.188   4.657
 6554SOL    HW120561   2.562   1.260   4.596
 6554SOL    HW220562   2.619   1.227   4.745
 6555SOL     OW20563   6.935   3.788   3.984
 6555SOL    HW120564   6.995   3.809   4.062
 6555SOL    HW220565   6.905   3.693   3.990
 6556SOL     OW20566   4.797   3.009   3.179
 6556SOL    HW120567   4.830   2.983   3.088
 6556SOL    HW220568   4.756   2.929   3.223
 6557SOL     OW20569   2.072   0.259   2.002
 6557SOL    HW120570   2.158   0.227   2.040
 6557SOL    HW220571   2.065   0.234   1.906
 6558SOL     OW20572   5.341   5.317   0.347
 6558SOL    HW120573   5.428   5.300   0.394
 6558SOL    HW220574   5.266   5.279   0.400
 6559SOL     OW20575   0.220   2.367   6.319
 6559SOL    HW120576   0.242   2.462   6.294
 6559SOL    HW220577   0.302   2.311   6.309
 6560SOL     OW20578   5.759   4.978   0.550
 6560SOL    HW120579   5.831   4.924   0.506
 6560SOL    HW220580   5.791   5.071   0.564
 6561SOL     OW20581   3.813   4.273   0.399
 6561SOL    HW120582   3.906   4.254   0.428
 6561SOL    HW220583   3.749   4.215   0.451
 6562SOL     OW20584   5.657   3.197   1.214
 6562SOL    HW120585   5.630   3.192   1.118
 6562SOL    HW220586   5.708   3.115   1.239
 6563SOL     OW20587   4.939   6.075   5.194
 6563SOL    HW120588   4.954   6.087   5.292
 6563SOL    HW220589   4.871   6.004   5.179
 6564SOL     OW20590   6.855   3.792   3.023
 6564SOL    HW120591   6.781   3.808   2.957
 6564SOL    HW220592   6.847   3.699   3.059
 6565SOL     OW20593   5.677   0.268   3.424
 6565SOL    HW120594   5.763   0.318   3.427
 6565SOL    HW220595   5.695   0.172   3.401
 6566SOL     OW20596   4.580   5.967   2.588
 6566SOL    HW120597   4.553   6.057   2.623
 6566SOL    HW220598   4.680   5.964   2.576
 6567SOL     OW20599   4.300   0.880   0.915
 6567SOL    HW120600   4.379   0.925   0.875
 6567SOL    HW220601   4.217   0.906   0.865
 6568SOL     OW20602   4.188   1.175   1.189
 6568SOL    HW120603   4.223   1.227   1.112
 6568SOL    HW220604   4.112   1.225   1.231
 6569SOL     OW20605   0.069   4.330   5.795
 6569SOL    HW120606   0.027   4.277   5.869
 6569SOL    HW220607   0.015   4.320   5.712
 6570SOL     OW20608   4.026   6.733   1.637
 6570SOL    HW120609   3.958   6.673   1.594
 6570SOL    HW220610   4.061   6.689   1.720
 6571SOL     OW20611   3.243   5.993   2.432
 6571SOL    HW120612   3.337   5.996   2.398
 6571SOL    HW220613   3.201   5.906   2.404
 6572SOL     OW20614   1.415   5.382   3.550
 6572SOL    HW120615   1.397   5.448   3.623
 6572SOL    HW220616   1.504   5.402   3.508
 6573SOL     OW20617   1.726   1.590   3.680
 6573SOL    HW120618   1.787   1.588   3.760
 6573SOL    HW220619   1.689   1.498   3.665
 6574SOL     OW20620   1.444   6.233   2.066
 6574SOL    HW120621   1.431   6.147   2.115
 6574SOL    HW220622   1.511   6.289   2.115
 6575SOL     OW20623   7.009   0.598   2.827
 6575SOL    HW120624   0.030   0.509   2.840
 6575SOL    HW220625   6.952   0.619   2.907
 6576SOL     OW20626   4.233   6.431   1.060
 6576SOL    HW120627   4.316   6.485   1.047
 6576SOL    HW220628   4.247   6.364   1.133
 6577SOL     OW20629   2.467   1.341   3.856
 6577SOL    HW120630   2.407   1.260   3.855
 6577SOL    HW220631   2.561   1.313   3.839
 6578SOL     OW20632   1.477   4.559   1.665
 6578SOL    HW120633   1.378   4.560   1.650
 6578SOL    HW220634   1.506   4.467   1.689
 6579SOL     OW20635   6.568   1.055   4.200
 6579SOL    HW120636   6.602   0.973   4.247
 6579SOL    HW220637   6.468   1.051   4.195
 6580SOL     OW20638   1.438   0.668   6.995
 6580SOL    HW120639   1.471   0.732   6.926
 6580SOL    HW220640   1.409   0.583   6.950
 6581SOL     OW20641   1.389   2.386   6.874
 6581SOL    HW120642   1.350   2.315   6.816
 6581SOL    HW220643   1.485   2.399   6.849
 6582SOL     OW20644   6.920   1.495   3.264
 6582SOL    HW120645   6.985   1.427   3.298
 6582SOL    HW220646   6.828   1.456   3.263
 6583SOL     OW20647   4.226   6.118   6.562
 6583SOL    HW120648   4.147   6.176   6.579
 6583SOL    HW220649   4.234   6.101   6.463
 6584SOL     OW20650   3.736   2.413   0.769
 6584SOL    HW120651   3.746   2.451   0.861
 6584SOL    HW220652   3.815   2.355   0.748
 6585SOL     OW20653   6.128   6.734   0.979
 6585SOL    HW120654   6.206   6.797   0.987
 6585SOL    HW220655   6.043   6.784   0.996
 6586SOL     OW20656   6.315   2.579   6.518
 6586SOL    HW120657   6.412   2.564   6.535
 6586SOL    HW220658   6.266   2.492   6.521
 6587SOL     OW20659   1.494   4.638   5.675
 6587SOL    HW120660   1.419   4.685   5.628
 6587SOL    HW220661   1.458   4.557   5.722
 6588SOL     OW20662   6.609   3.425   0.635
 6588SOL    HW120663   6.577   3.516   0.609
 6588SOL    HW220664   6.531   3.369   0.662
 6589SOL     OW20665   6.958   0.845   1.988
 6589SOL    HW120666   6.884   0.831   1.922
 6589SOL    HW220667   0.009   0.779   1.970
 6590SOL     OW20668   1.261   0.143   3.825
 6590SOL    HW120669   1.273   0.104   3.917
 6590SOL    HW220670   1.177   0.197   3.824
 6591SOL     OW20671   5.631   4.306   4.481
 6591SOL    HW120672   5.609   4.308   4.579
 6591SOL    HW220673   5.727   4.333   4.469
 6592SOL     OW20674   6.007   6.497   2.528
 6592SOL    HW120675   5.989   6.418   2.586
 6592SOL    HW220676   6.087   6.478   2.470
 6593SOL     OW20677   2.983   1.866   2.107
 6593SOL    HW120678   3.037   1.945   2.134
 6593SOL    HW220679   2.900   1.861   2.163
 6594SOL     OW20680   4.593   1.469   6.367
 6594SOL    HW120681   4.563   1.515   6.283
 6594SOL    HW220682   4.684   1.503   6.393
 6595SOL     OW20683   1.339   2.574   5.445
 6595SOL    HW120684   1.348   2.643   5.517
 6595SOL    HW220685   1.242   2.561   5.424
 6596SOL     OW20686   5.531   6.296   2.646
 6596SOL    HW120687   5.502   6.201   2.655
 6596SOL    HW220688   5.593   6.304   2.568
 6597SOL     OW20689   1.644   4.487   2.038
 6597SOL    HW120690   1.656   4.439   1.951
 6597SOL    HW220691   1.707   4.564   2.042
 6598SOL     OW20692   2.214   4.517   4.404
 6598SOL    HW120693   2.178   4.595   4.352
 6598SOL    HW220694   2.313   4.527   4.414
 6599SOL     OW20695   6.260   5.616   6.433
 6599SOL    HW120696   6.311   5.567   6.504
 6599SOL    HW220697   6.321   5.678   6.384
 6600SOL     OW20698   4.712   6.996   5.060
 6600SOL    HW120699   4.700   6.897   5.053
 6600SOL    HW220700   4.652   0.019   4.994
 6601SOL     OW20701   1.715   1.991   1.486
 6601SOL    HW120702   1.706   2.085   1.455
 6601SOL    HW220703   1.782   1.943   1.430
 6602SOL     OW20704   2.150   6.622   1.446
 6602SOL    HW120705   2.240   6.648   1.481
 6602SOL    HW220706   2.107   6.701   1.403
 6603SOL     OW20707   0.020   3.516   3.072
 6603SOL    HW120708   0.027   3.447   3.000
 6603SOL    HW220709   6.951   3.512   3.112
 6604SOL     OW20710   1.974   6.266   2.449
 6604SOL    HW120711   1.912   6.344   2.459
 6604SOL    HW220712   2.064   6.300   2.421
 6605SOL     OW20713   0.191   5.586   1.281
 6605SOL    HW120714   0.156   5.509   1.228
 6605SOL    HW220715   0.283   5.609   1.250
 6606SOL     OW20716   1.646   3.932   3.475
 6606SOL    HW120717   1.548   3.950   3.466
 6606SOL    HW220718   1.662   3.833   3.476
 6607SOL     OW20719   6.001   4.042   3.811
 6607SOL    HW120720   6.084   4.090   3.782
 6607SOL    HW220721   6.019   3.944   3.815
 6608SOL     OW20722   0.657   6.153   5.544
 6608SOL    HW120723   0.719   6.083   5.577
 6608SOL    HW220724   0.564   6.132   5.574
 6609SOL     OW20725   4.620   1.790   6.166
 6609SOL    HW120726   4.647   1.695   6.152
 6609SOL    HW220727   4.522   1.800   6.149
 6610SOL     OW20728   2.946   5.195   1.240
 6610SOL    HW120729   2.912   5.181   1.333
 6610SOL    HW220730   3.041   5.162   1.234
 6611SOL     OW20731   4.535   1.821   4.134
 6611SOL    HW120732   4.591   1.789   4.210
 6611SOL    HW220733   4.520   1.745   4.070
 6612SOL     OW20734   6.106   1.703   5.866
 6612SOL    HW120735   6.142   1.733   5.778
 6612SOL    HW220736   6.036   1.633   5.851
 6613SOL     OW20737   4.779   6.554   6.767
 6613SOL    HW120738   4.873   6.536   6.796
 6613SOL    HW220739   4.748   6.641   6.806
 6614SOL     OW20740   4.362   5.603   1.163
 6614SOL    HW120741   4.403   5.693   1.176
 6614SOL    HW220742   4.263   5.612   1.154
 6615SOL     OW20743   3.103   4.840   6.866
 6615SOL    HW120744   3.015   4.862   6.822
 6615SOL    HW220745   3.147   4.765   6.817
 6616SOL     OW20746   4.132   1.317   5.543
 6616SOL    HW120747   4.043   1.354   5.515
 6616SOL    HW220748   4.128   1.292   5.640
 6617SOL     OW20749   3.711   0.416   3.841
 6617SOL    HW120750   3.672   0.507   3.823
 6617SOL    HW220751   3.652   0.346   3.801
 6618SOL     OW20752   6.752   2.598   2.454
 6618SOL    HW120753   6.806   2.513   2.454
 6618SOL    HW220754   6.657   2.577   2.433
 6619SOL     OW20755   4.881   6.488   3.705
 6619SOL    HW120756   4.864   6.581   3.674
 6619SOL    HW220757   4.796   6.449   3.741
 6620SOL     OW20758   0.653   3.443   3.326
 6620SOL    HW120759   0.733   3.419   3.381
 6620SOL    HW220760   0.627   3.364   3.270
 6621SOL     OW20761   3.614   3.297   4.954
 6621SOL    HW120762   3.570   3.255   4.875
 6621SOL    HW220763   3.644   3.389   4.931
 6622SOL     OW20764   0.755   5.453   0.731
 6622SOL    HW120765   0.767   5.552   0.741
 6622SOL    HW220766   0.669   5.435   0.684
 6623SOL     OW20767   3.499   4.087   6.008
 6623SOL    HW120768   3.539   4.016   5.949
 6623SOL    HW220769   3.499   4.174   5.959
 6624SOL     OW20770   1.417   2.278   3.979
 6624SOL    HW120771   1.353   2.211   3.942
 6624SOL    HW220772   1.379   2.370   3.970
 6625SOL     OW20773   5.787   3.342   5.774
 6625SOL    HW120774   5.722   3.334   5.698
 6625SOL    HW220775   5.864   3.280   5.757
 6626SOL     OW20776   2.306   6.294   4.889
 6626SOL    HW120777   2.356   6.358   4.830
 6626SOL    HW220778   2.225   6.261   4.841
 6627SOL     OW20779   1.912   5.988   4.474
 6627SOL    HW120780   2.012   5.991   4.479
 6627SOL    HW220781   1.885   5.955   4.384
 6628SOL     OW20782   4.384   6.235   4.070
 6628SOL    HW120783   4.385   6.233   3.970
 6628SOL    HW220784   4.321   6.306   4.101
 6629SOL     OW20785   5.511   5.920   6.720
 6629SOL    HW120786   5.578   5.881   6.658
 6629SOL    HW220787   5.431   5.950   6.668
 6630SOL     OW20788   2.374   1.513   1.411
 6630SOL    HW120789   2.452   1.510   1.474
 6630SOL    HW220790   2.305   1.446   1.439
 6631SOL     OW20791   2.363   4.618   6.651
 6631SOL    HW120792   2.291   4.670   6.605
 6631SOL    HW220793   2.333   4.524   6.664
 6632SOL     OW20794   1.542   0.974   1.117
 6632SOL    HW120795   1.485   1.055   1.134
 6632SOL    HW220796   1.621   1.000   1.061
 6633SOL     OW20797   3.688   5.496   6.136
 6633SOL    HW120798   3.616   5.445   6.089
 6633SOL    HW220799   3.770   5.498   6.079
 6634SOL     OW20800   4.268   2.311   4.430
 6634SOL    HW120801   4.305   2.403   4.437
 6634SOL    HW220802   4.229   2.283   4.518
 6635SOL     OW20803   5.289   5.049   2.938
 6635SOL    HW120804   5.216   4.994   2.898
 6635SOL    HW220805   5.377   5.023   2.897
 6636SOL     OW20806   3.705   0.421   0.630
 6636SOL    HW120807   3.707   0.425   0.530
 6636SOL    HW220808   3.610   0.411   0.660
 6637SOL     OW20809   1.353   1.175   1.146
 6637SOL    HW120810   1.375   1.270   1.167
 6637SOL    HW220811   1.256   1.168   1.120
 6638SOL     OW20812   2.887   3.412   3.493
 6638SOL    HW120813   2.920   3.408   3.399
 6638SOL    HW220814   2.874   3.507   3.521
 6639SOL     OW20815   5.016   2.994   1.275
 6639SOL    HW120816   4.957   3.075   1.269
 6639SOL    HW220817   5.032   2.972   1.371
 6640SOL     OW20818   0.651   2.916   4.970
 6640SOL    HW120819   0.703   2.968   5.038
 6640SOL    HW220820   0.554   2.920   4.993
 6641SOL     OW20821   4.348   1.919   0.901
 6641SOL    HW120822   4.305   2.005   0.929
 6641SOL    HW220823   4.346   1.911   0.801
 6642SOL     OW20824   1.087   5.872   0.617
 6642SOL    HW120825   1.082   5.893   0.519
 6642SOL    HW220826   1.018   5.804   0.640
 6643SOL     OW20827   4.456   6.537   6.897
 6643SOL    HW120828   4.451   6.443   6.930
 6643SOL    HW220829   4.542   6.551   6.849
 6644SOL     OW20830   1.604   6.488   3.231
 6644SOL    HW120831   1.625   6.425   3.156
 6644SOL    HW220832   1.522   6.456   3.280
 6645SOL     OW20833   6.173   3.308   0.524
 6645SOL    HW120834   6.129   3.354   0.602
 6645SOL    HW220835   6.119   3.229   0.497
 6646SOL     OW20836   4.717   6.974   6.419
 6646SOL    HW120837   4.648   0.003   6.367
 6646SOL    HW220838   4.676   6.890   6.455
 6647SOL     OW20839   4.517   4.942   1.017
 6647SOL    HW120840   4.607   4.902   0.998
 6647SOL    HW220841   4.513   5.035   0.979
 6648SOL     OW20842   2.478   6.396   5.676
 6648SOL    HW120843   2.455   6.462   5.604
 6648SOL    HW220844   2.431   6.310   5.659
 6649SOL     OW20845   5.974   2.915   0.025
 6649SOL    HW120846   6.029   2.866   0.092
 6649SOL    HW220847   5.984   3.014   0.039
 6650SOL     OW20848   2.418   1.291   5.356
 6650SOL    HW120849   2.332   1.311   5.310
 6650SOL    HW220850   2.490   1.276   5.288
 6651SOL     OW20851   6.841   2.105   6.548
 6651SOL    HW120852   6.831   2.182   6.611
 6651SOL    HW220853   6.787   2.027   6.581
 6652SOL     OW20854   0.654   4.232   0.519
 6652SOL    HW120855   0.584   4.274   0.577
 6652SOL    HW220856   0.745   4.252   0.556
 6653SOL     OW20857   5.094   4.057   0.746
 6653SOL    HW120858   5.038   4.111   0.682
 6653SOL    HW220859   5.058   3.965   0.753
 6654SOL     OW20860   0.278   4.528   3.253
 6654SOL    HW120861   0.304   4.482   3.338
 6654SOL    HW220862   0.316   4.620   3.252
 6655SOL     OW20863   6.822   5.525   1.880
 6655SOL    HW120864   6.756   5.582   1.831
 6655SOL    HW220865   6.782   5.434   1.897
 6656SOL     OW20866   4.129   1.504   2.781
 6656SOL    HW120867   4.030   1.504   2.799
 6656SOL    HW220868   4.168   1.417   2.810
 6657SOL     OW20869   5.431   1.868   3.815
 6657SOL    HW120870   5.494   1.942   3.837
 6657SOL    HW220871   5.349   1.906   3.773
 6658SOL     OW20872   6.025   6.077   5.123
 6658SOL    HW120873   5.976   6.073   5.210
 6658SOL    HW220874   5.968   6.125   5.055
 6659SOL     OW20875   1.089   5.217   2.294
 6659SOL    HW120876   1.082   5.312   2.264
 6659SOL    HW220877   1.078   5.212   2.393
 6660SOL     OW20878   0.003   6.169   3.314
 6660SOL    HW120879   0.013   6.225   3.232
 6660SOL    HW220880   6.957   6.209   3.375
 6661SOL     OW20881   3.721   6.908   4.427
 6661SOL    HW120882   3.654   6.981   4.435
 6661SOL    HW220883   3.720   6.872   4.334
 6662SOL     OW20884   2.992   6.452   2.462
 6662SOL    HW120885   2.989   6.505   2.546
 6662SOL    HW220886   3.018   6.512   2.386
 6663SOL     OW20887   1.015   4.246   5.819
 6663SOL    HW120888   1.036   4.198   5.905
 6663SOL    HW220889   1.066   4.204   5.745
 6664SOL     OW20890   2.939   0.706   1.497
 6664SOL    HW120891   2.916   0.609   1.496
 6664SOL    HW220892   2.977   0.731   1.586
 6665SOL     OW20893   2.172   0.601   5.613
 6665SOL    HW120894   2.260   0.644   5.631
 6665SOL    HW220895   2.158   0.526   5.678
 6666SOL     OW20896   4.890   6.538   5.171
 6666SOL    HW120897   4.935   6.626   5.154
 6666SOL    HW220898   4.861   6.533   5.267
 6667SOL     OW20899   0.390   6.232   6.185
 6667SOL    HW120900   0.320   6.179   6.233
 6667SOL    HW220901   0.454   6.170   6.140
 6668SOL     OW20902   0.144   5.963   0.547
 6668SOL    HW120903   0.209   6.035   0.570
 6668SOL    HW220904   0.058   6.004   0.515
 6669SOL     OW20905   1.521   1.007   2.980
 6669SOL    HW120906   1.496   1.098   2.946
 6669SOL    HW220907   1.439   0.957   3.006
 6670SOL     OW20908   4.077   2.654   0.741
 6670SOL    HW120909   4.012   2.674   0.814
 6670SOL    HW220910   4.029   2.613   0.663
 6671SOL     OW20911   4.721   5.844   0.152
 6671SOL    HW120912   4.771   5.764   0.118
 6671SOL    HW220913   4.627   5.817   0.174
 6672SOL     OW20914   1.607   2.481   0.983
 6672SOL    HW120915   1.530   2.544   0.998
 6672SOL    HW220916   1.637   2.487   0.888
 6673SOL     OW20917   5.619   4.046   4.387
 6673SOL    HW120918   5.615   4.140   4.420
 6673SOL    HW220919   5.644   4.046   4.290
 6674SOL     OW20920   0.027   2.894   0.151
 6674SOL    HW120921   0.119   2.917   0.119
 6674SOL    HW220922   6.996   2.978   0.162
 6675SOL     OW20923   5.317   2.252   6.886
 6675SOL    HW120924   5.335   2.231   6.790
 6675SOL    HW220925   5.218   2.247   6.903
 6676SOL     OW20926   1.387   3.812   3.851
 6676SOL    HW120927   1.463   3.748   3.844
 6676SOL    HW220928   1.423   3.906   3.850
 6677SOL     OW20929   0.496   2.235   0.549
 6677SOL    HW120930   0.445   2.270   0.470
 6677SOL    HW220931   0.452   2.151   0.581
 6678SOL     OW20932   1.937   4.585   0.260
 6678SOL    HW120933   1.967   4.535   0.341
 6678SOL    HW220934   1.849   4.550   0.229
 6679SOL     OW20935   2.003   1.325   4.026
 6679SOL    HW120936   1.957   1.298   3.941
 6679SOL    HW220937   2.069   1.397   4.006
 6680SOL     OW20938   6.105   6.517   0.814
 6680SOL    HW120939   6.200   6.490   0.797
 6680SOL    HW220940   6.103   6.598   0.872
 6681SOL     OW20941   3.644   5.789   1.287
 6681SOL    HW120942   3.641   5.754   1.380
 6681SOL    HW220943   3.679   5.719   1.225
 6682SOL     OW20944   3.300   5.311   6.755
 6682SOL    HW120945   3.391   5.293   6.718
 6682SOL    HW220946   3.240   5.234   6.734
 6683SOL     OW20947   6.250   3.647   6.091
 6683SOL    HW120948   6.243   3.548   6.078
 6683SOL    HW220949   6.181   3.677   6.157
 6684SOL     OW20950   3.044   6.592   1.290
 6684SOL    HW120951   3.107   6.662   1.323
 6684SOL    HW220952   3.035   6.599   1.191
 6685SOL     OW20953   4.539   3.481   6.699
 6685SOL    HW120954   4.597   3.481   6.617
 6685SOL    HW220955   4.504   3.388   6.715
 6686SOL     OW20956   5.075   5.496   3.772
 6686SOL    HW120957   5.103   5.590   3.752
 6686SOL    HW220958   5.154   5.444   3.805
 6687SOL     OW20959   6.764   2.314   1.585
 6687SOL    HW120960   6.822   2.245   1.629
 6687SOL    HW220961   6.677   2.273   1.558
 6688SOL     OW20962   3.710   5.713   0.342
 6688SOL    HW120963   3.749   5.756   0.261
 6688SOL    HW220964   3.648   5.776   0.388
 6689SOL     OW20965   2.437   4.776   6.074
 6689SOL    HW120966   2.449   4.835   6.154
 6689SOL    HW220967   2.356   4.804   6.023
 6690SOL     OW20968   1.055   7.020   6.137
 6690SOL    HW120969   1.011   6.932   6.121
 6690SOL    HW220970   1.122   0.015   6.064
 6691SOL     OW20971   2.633   2.404   2.950
 6691SOL    HW120972   2.618   2.355   2.863
 6691SOL    HW220973   2.606   2.499   2.939
 6692SOL     OW20974   5.075   5.312   1.524
 6692SOL    HW120975   5.167   5.350   1.532
 6692SOL    HW220976   5.045   5.278   1.613
 6693SOL     OW20977   4.104   1.807   4.685
 6693SOL    HW120978   4.141   1.797   4.593
 6693SOL    HW220979   4.013   1.765   4.689
 6694SOL     OW20980   3.680   5.061   0.606
 6694SOL    HW120981   3.599   5.060   0.664
 6694SOL    HW220982   3.758   5.097   0.658
 6695SOL     OW20983   2.841   2.451   6.506
 6695SOL    HW120984   2.935   2.469   6.537
 6695SOL    HW220985   2.825   2.500   6.420
 6696SOL     OW20986   4.123   3.747   4.271
 6696SOL    HW120987   4.069   3.752   4.187
 6696SOL    HW220988   4.171   3.833   4.285
 6697SOL     OW20989   4.516   2.575   2.438
 6697SOL    HW120990   4.525   2.489   2.387
 6697SOL    HW220991   4.465   2.641   2.383
 6698SOL     OW20992   3.608   4.020   1.687
 6698SOL    HW120993   3.661   3.952   1.738
 6698SOL    HW220994   3.589   4.099   1.745
 6699SOL     OW20995   1.559   4.546   5.418
 6699SOL    HW120996   1.537   4.569   5.513
 6699SOL    HW220997   1.652   4.574   5.397
 6700SOL     OW20998   5.962   0.299   0.197
 6700SOL    HW120999   5.890   0.259   0.254
 6700SOL    HW221000   5.948   0.273   0.102
 6701SOL     OW21001   5.853   0.145   1.329
 6701SOL    HW121002   5.858   0.206   1.407
 6701SOL    HW221003   5.911   0.179   1.255
 6702SOL     OW21004   3.192   2.552   0.886
 6702SOL    HW121005   3.175   2.650   0.888
 6702SOL    HW221006   3.250   2.526   0.964
 6703SOL     OW21007   1.098   1.451   6.674
 6703SOL    HW121008   1.170   1.386   6.649
 6703SOL    HW221009   1.125   1.543   6.647
 6704SOL     OW21010   3.353   1.099   5.068
 6704SOL    HW121011   3.394   1.014   5.102
 6704SOL    HW221012   3.269   1.118   5.119
 6705SOL     OW21013   6.247   3.765   2.012
 6705SOL    HW121014   6.258   3.734   1.918
 6705SOL    HW221015   6.327   3.819   2.039
 6706SOL     OW21016   0.106   6.887   1.869
 6706SOL    HW121017   0.016   6.883   1.825
 6706SOL    HW221018   0.095   6.880   1.968
 6707SOL     OW21019   5.833   0.594   2.184
 6707SOL    HW121020   5.800   0.500   2.172
 6707SOL    HW221021   5.760   0.649   2.224
 6708SOL     OW21022   0.275   3.973   1.782
 6708SOL    HW121023   0.322   3.897   1.737
 6708SOL    HW221024   0.185   3.943   1.813
 6709SOL     OW21025   1.482   4.784   2.666
 6709SOL    HW121026   1.461   4.857   2.600
 6709SOL    HW221027   1.525   4.708   2.618
 6710SOL     OW21028   4.709   1.540   1.667
 6710SOL    HW121029   4.662   1.453   1.680
 6710SOL    HW221030   4.716   1.560   1.569
 6711SOL     OW21031   4.204   6.034   6.290
 6711SOL    HW121032   4.297   5.997   6.285
 6711SOL    HW221033   4.201   6.122   6.242
 6712SOL     OW21034   5.986   3.616   1.233
 6712SOL    HW121035   6.051   3.557   1.282
 6712SOL    HW221036   5.898   3.570   1.228
 6713SOL     OW21037   1.590   6.595   4.596
 6713SOL    HW121038   1.565   6.570   4.689
 6713SOL    HW221039   1.570   6.692   4.581
 6714SOL     OW21040   5.607   0.849   0.382
 6714SOL    HW121041   5.638   0.791   0.306
 6714SOL    HW221042   5.658   0.935   0.380
 6715SOL     OW21043   1.185   0.510   0.222
 6715SOL    HW121044   1.277   0.524   0.258
 6715SOL    HW221045   1.161   0.587   0.163
 6716SOL     OW21046   6.795   5.345   2.409
 6716SOL    HW121047   6.889   5.333   2.379
 6716SOL    HW221048   6.774   5.279   2.481
 6717SOL     OW21049   3.938   2.937   6.484
 6717SOL    HW121050   3.880   2.987   6.547
 6717SOL    HW221051   4.032   2.973   6.489
 6718SOL     OW21052   3.344   0.032   1.921
 6718SOL    HW121053   3.352   0.074   1.831
 6718SOL    HW221054   3.285   0.088   1.979
 6719SOL     OW21055   2.260   0.800   0.004
 6719SOL    HW121056   2.175   0.763   0.041
 6719SOL    HW221057   2.297   0.868   0.067
 6720SOL     OW21058   2.024   0.493   6.071
 6720SOL    HW121059   1.949   0.470   6.009
 6720SOL    HW221060   2.096   0.541   6.020
 6721SOL     OW21061   0.383   1.651   0.595
 6721SOL    HW121062   0.283   1.651   0.587
 6721SOL    HW221063   0.423   1.633   0.505
 6722SOL     OW21064   6.423   3.234   0.709
 6722SOL    HW121065   6.347   3.184   0.668
 6722SOL    HW221066   6.392   3.276   0.795
 6723SOL     OW21067   1.985   2.214   6.803
 6723SOL    HW121068   1.982   2.241   6.706
 6723SOL    HW221069   1.929   2.133   6.816
 6724SOL     OW21070   2.279   3.824   5.831
 6724SOL    HW121071   2.217   3.770   5.775
 6724SOL    HW221072   2.372   3.791   5.821
 6725SOL     OW21073   5.871   2.769   3.533
 6725SOL    HW121074   5.895   2.842   3.468
 6725SOL    HW221075   5.876   2.805   3.626
 6726SOL     OW21076   6.813   1.021   5.410
 6726SOL    HW121077   6.781   1.045   5.318
 6726SOL    HW221078   6.885   0.952   5.403
 6727SOL     OW21079   1.235   4.672   5.858
 6727SOL    HW121080   1.288   4.613   5.918
 6727SOL    HW221081   1.222   4.627   5.769
 6728SOL     OW21082   3.792   1.853   4.087
 6728SOL    HW121083   3.744   1.830   4.002
 6728SOL    HW221084   3.788   1.952   4.103
 6729SOL     OW21085   4.976   1.425   1.046
 6729SOL    HW121086   4.981   1.344   0.988
 6729SOL    HW221087   5.047   1.490   1.019
 6730SOL     OW21088   1.020   0.901   1.786
 6730SOL    HW121089   0.925   0.870   1.776
 6730SOL    HW221090   1.026   0.997   1.762
 6731SOL     OW21091   3.463   6.483   0.082
 6731SOL    HW121092   3.527   6.550   0.119
 6731SOL    HW221093   3.434   6.421   0.155
 6732SOL     OW21094   5.973   5.351   4.649
 6732SOL    HW121095   6.044   5.281   4.649
 6732SOL    HW221096   5.895   5.318   4.703
 6733SOL     OW21097   4.135   5.113   6.437
 6733SOL    HW121098   4.205   5.050   6.402
 6733SOL    HW221099   4.164   5.147   6.527
 6734SOL     OW21100   5.066   1.344   5.162
 6734SOL    HW121101   5.059   1.315   5.066
 6734SOL    HW221102   5.009   1.284   5.218
 6735SOL     OW21103   6.120   2.719   3.392
 6735SOL    HW121104   6.063   2.802   3.396
 6735SOL    HW221105   6.102   2.670   3.307
 6736SOL     OW21106   3.113   4.062   0.979
 6736SOL    HW121107   3.121   3.978   1.032
 6736SOL    HW221108   3.131   4.043   0.883
 6737SOL     OW21109   0.880   2.914   1.111
 6737SOL    HW121110   0.823   2.939   1.190
 6737SOL    HW221111   0.952   2.852   1.141
 6738SOL     OW21112   2.329   5.623   2.944
 6738SOL    HW121113   2.371   5.700   2.896
 6738SOL    HW221114   2.250   5.591   2.891
 6739SOL     OW21115   6.639   0.278   4.520
 6739SOL    HW121116   6.634   0.299   4.617
 6739SOL    HW221117   6.659   0.180   4.508
 6740SOL     OW21118   6.837   6.575   4.489
 6740SOL    HW121119   6.933   6.584   4.462
 6740SOL    HW221120   6.793   6.504   4.433
 6741SOL     OW21121   4.603   2.272   5.688
 6741SOL    HW121122   4.565   2.244   5.600
 6741SOL    HW221123   4.648   2.361   5.678
 6742SOL     OW21124   5.350   4.704   3.766
 6742SOL    HW121125   5.367   4.614   3.806
 6742SOL    HW221126   5.292   4.694   3.685
 6743SOL     OW21127   3.773   3.999   0.889
 6743SOL    HW121128   3.785   4.090   0.927
 6743SOL    HW221129   3.854   3.943   0.911
 6744SOL     OW21130   6.920   5.414   5.896
 6744SOL    HW121131   6.954   5.322   5.912
 6744SOL    HW221132   6.831   5.409   5.851
 6745SOL     OW21133   6.968   6.614   4.134
 6745SOL    HW121134   6.925   6.647   4.049
 6745SOL    HW221135   7.000   6.521   4.120
 6746SOL     OW21136   1.720   1.185   2.763
 6746SOL    HW121137   1.624   1.198   2.739
 6746SOL    HW221138   1.748   1.092   2.739
 6747SOL     OW21139   1.416   6.362   6.836
 6747SOL    HW121140   1.484   6.399   6.899
 6747SOL    HW221141   1.377   6.436   6.781
 6748SOL     OW21142   2.281   1.940   4.263
 6748SOL    HW121143   2.196   1.986   4.237
 6748SOL    HW221144   2.331   1.914   4.181
 6749SOL     OW21145   3.632   4.590   0.904
 6749SOL    HW121146   3.585   4.566   0.989
 6749SOL    HW221147   3.611   4.685   0.879
 6750SOL     OW21148   3.016   2.230   4.475
 6750SOL    HW121149   2.926   2.254   4.439
 6750SOL    HW221150   3.076   2.202   4.400
 6751SOL     OW21151   4.029   6.982   3.731
 6751SOL    HW121152   3.984   6.896   3.757
 6751SOL    HW221153   4.115   6.961   3.684
 6752SOL     OW21154   1.578   6.190   2.762
 6752SOL    HW121155   1.479   6.194   2.759
 6752SOL    HW221156   1.613   6.148   2.678
 6753SOL     OW21157   3.816   2.925   5.074
 6753SOL    HW121158   3.905   2.969   5.089
 6753SOL    HW221159   3.803   2.910   4.976
 6754SOL     OW21160   6.227   1.603   1.068
 6754SOL    HW121161   6.289   1.534   1.106
 6754SOL    HW221162   6.165   1.635   1.139
 6755SOL     OW21163   2.631   5.217   6.958
 6755SOL    HW121164   2.662   5.128   6.924
 6755SOL    HW221165   2.699   5.253   7.022
 6756SOL     OW21166   2.671   1.993   5.642
 6756SOL    HW121167   2.591   1.977   5.583
 6756SOL    HW221168   2.658   1.945   5.729
 6757SOL     OW21169   3.551   0.867   0.435
 6757SOL    HW121170   3.465   0.817   0.428
 6757SOL    HW221171   3.606   0.829   0.509
 6758SOL     OW21172   5.900   2.724   1.242
 6758SOL    HW121173   5.905   2.761   1.149
 6758SOL    HW221174   5.804   2.712   1.267
 6759SOL     OW21175   0.406   3.521   3.507
 6759SOL    HW121176   0.469   3.504   3.431
 6759SOL    HW221177   0.410   3.445   3.572
 6760SOL     OW21178   5.227   2.987   2.974
 6760SOL    HW121179   5.265   3.032   2.893
 6760SOL    HW221180   5.218   3.053   3.048
 6761SOL     OW21181   4.739   2.167   4.474
 6761SOL    HW121182   4.762   2.162   4.571
 6761SOL    HW221183   4.640   2.152   4.462
 6762SOL     OW21184   6.408   5.589   3.731
 6762SOL    HW121185   6.393   5.491   3.720
 6762SOL    HW221186   6.324   5.632   3.764
 6763SOL     OW21187   4.630   4.917   4.933
 6763SOL    HW121188   4.689   4.976   4.987
 6763SOL    HW221189   4.613   4.960   4.844
 6764SOL     OW21190   1.498   5.949   1.891
 6764SOL    HW121191   1.482   5.912   1.982
 6764SOL    HW221192   1.554   5.885   1.838
 6765SOL     OW21193   6.468   4.654   3.102
 6765SOL    HW121194   6.421   4.722   3.046
 6765SOL    HW221195   6.555   4.691   3.135
 6766SOL     OW21196   5.231   6.596   0.878
 6766SOL    HW121197   5.285   6.654   0.817
 6766SOL    HW221198   5.160   6.550   0.824
 6767SOL     OW21199   2.862   1.025   0.486
 6767SOL    HW121200   2.776   1.076   0.496
 6767SOL    HW221201   2.879   0.972   0.570
 6768SOL     OW21202   2.107   0.847   0.524
 6768SOL    HW121203   2.124   0.942   0.497
 6768SOL    HW221204   2.177   0.788   0.483
 6769SOL     OW21205   4.126   2.698   1.109
 6769SOL    HW121206   4.077   2.752   1.041
 6769SOL    HW221207   4.061   2.661   1.175
 6770SOL     OW21208   6.736   0.506   1.858
 6770SOL    HW121209   6.740   0.408   1.876
 6770SOL    HW221210   6.642   0.533   1.839
 6771SOL     OW21211   4.281   2.053   2.582
 6771SOL    HW121212   4.216   2.113   2.628
 6771SOL    HW221213   4.237   1.965   2.563
 6772SOL     OW21214   2.933   1.565   2.489
 6772SOL    HW121215   2.923   1.520   2.578
 6772SOL    HW221216   3.001   1.517   2.434
 6773SOL     OW21217   6.721   3.716   1.471
 6773SOL    HW121218   6.680   3.768   1.546
 6773SOL    HW221219   6.782   3.646   1.508
 6774SOL     OW21220   0.728   2.785   6.445
 6774SOL    HW121221   0.632   2.810   6.463
 6774SOL    HW221222   0.738   2.686   6.456
 6775SOL     OW21223   2.912   3.991   1.212
 6775SOL    HW121224   2.844   3.991   1.138
 6775SOL    HW221225   2.967   3.908   1.206
 6776SOL     OW21226   5.319   4.881   0.232
 6776SOL    HW121227   5.258   4.891   0.312
 6776SOL    HW221228   5.275   4.823   0.164
 6777SOL     OW21229   4.443   4.790   5.967
 6777SOL    HW121230   4.404   4.873   6.007
 6777SOL    HW221231   4.516   4.815   5.902
 6778SOL     OW21232   0.486   4.071   2.726
 6778SOL    HW121233   0.461   4.081   2.822
 6778SOL    HW221234   0.502   4.161   2.686
 6779SOL     OW21235   6.897   4.400   0.208
 6779SOL    HW121236   6.969   4.445   0.261
 6779SOL    HW221237   6.808   4.425   0.245
 6780SOL     OW21238   0.227   2.242   2.901
 6780SOL    HW121239   0.175   2.274   2.822
 6780SOL    HW221240   0.295   2.175   2.872
 6781SOL     OW21241   5.282   6.472   5.693
 6781SOL    HW121242   5.251   6.500   5.602
 6781SOL    HW221243   5.379   6.493   5.703
 6782SOL     OW21244   0.215   1.133   2.331
 6782SOL    HW121245   0.265   1.052   2.302
 6782SOL    HW221246   0.279   1.202   2.366
 6783SOL     OW21247   6.984   6.331   5.864
 6783SOL    HW121248   6.930   6.247   5.855
 6783SOL    HW221249   0.048   6.310   5.909
 6784SOL     OW21250   3.736   4.359   6.898
 6784SOL    HW121251   3.718   4.368   6.996
 6784SOL    HW221252   3.808   4.291   6.884
 6785SOL     OW21253   6.124   5.490   1.766
 6785SOL    HW121254   6.138   5.573   1.713
 6785SOL    HW221255   6.026   5.469   1.770
 6786SOL     OW21256   1.609   2.404   6.686
 6786SOL    HW121257   1.644   2.439   6.599
 6786SOL    HW221258   1.664   2.441   6.761
 6787SOL     OW21259   1.555   3.695   0.699
 6787SOL    HW121260   1.629   3.633   0.726
 6787SOL    HW221261   1.589   3.789   0.695
 6788SOL     OW21262   2.725   3.973   1.663
 6788SOL    HW121263   2.797   3.922   1.711
 6788SOL    HW221264   2.637   3.955   1.706
 6789SOL     OW21265   0.385   6.722   2.407
 6789SOL    HW121266   0.468   6.776   2.402
 6789SOL    HW221267   0.321   6.751   2.336
 6790SOL     OW21268   2.255   3.192   0.154
 6790SOL    HW121269   2.287   3.146   0.072
 6790SOL    HW221270   2.214   3.280   0.130
 6791SOL     OW21271   4.660   2.640   0.106
 6791SOL    HW121272   4.578   2.629   0.050
 6791SOL    HW221273   4.639   2.613   0.200
 6792SOL     OW21274   6.663   5.933   6.550
 6792SOL    HW121275   6.645   5.987   6.631
 6792SOL    HW221276   6.636   5.984   6.468
 6793SOL     OW21277   1.009   2.156   0.173
 6793SOL    HW121278   1.074   2.141   0.247
 6793SOL    HW221279   1.007   2.253   0.148
 6794SOL     OW21280   5.202   1.135   4.202
 6794SOL    HW121281   5.211   1.036   4.213
 6794SOL    HW221282   5.126   1.155   4.139
 6795SOL     OW21283   2.965   5.477   0.901
 6795SOL    HW121284   2.891   5.531   0.860
 6795SOL    HW221285   2.990   5.517   0.989
 6796SOL     OW21286   5.462   1.312   2.391
 6796SOL    HW121287   5.392   1.382   2.409
 6796SOL    HW221288   5.421   1.221   2.402
 6797SOL     OW21289   5.282   3.523   1.860
 6797SOL    HW121290   5.255   3.457   1.930
 6797SOL    HW221291   5.347   3.480   1.797
 6798SOL     OW21292   5.682   5.091   3.236
 6798SOL    HW121293   5.706   5.051   3.148
 6798SOL    HW221294   5.763   5.091   3.296
 6799SOL     OW21295   5.120   5.510   0.302
 6799SOL    HW121296   5.205   5.508   0.355
 6799SOL    HW221297   5.141   5.535   0.207
 6800SOL     OW21298   1.489   4.150   0.843
 6800SOL    HW121299   1.513   4.099   0.926
 6800SOL    HW221300   1.529   4.242   0.848
 6801SOL     OW21301   1.121   1.968   2.132
 6801SOL    HW121302   1.169   1.918   2.204
 6801SOL    HW221303   1.035   1.922   2.110
 6802SOL     OW21304   2.289   5.810   0.919
 6802SOL    HW121305   2.350   5.824   0.996
 6802SOL    HW221306   2.272   5.712   0.907
 6803SOL     OW21307   5.006   1.942   6.436
 6803SOL    HW121308   4.923   1.911   6.483
 6803SOL    HW221309   5.083   1.941   6.500
 6804SOL     OW21310   1.891   6.085   3.127
 6804SOL    HW121311   1.849   6.059   3.040
 6804SOL    HW221312   1.878   6.012   3.194
 6805SOL     OW21313   5.407   6.913   4.580
 6805SOL    HW121314   5.330   6.960   4.535
 6805SOL    HW221315   5.378   6.821   4.608
 6806SOL     OW21316   4.970   1.430   4.409
 6806SOL    HW121317   4.884   1.444   4.457
 6806SOL    HW221318   5.046   1.449   4.471
 6807SOL     OW21319   2.640   3.327   0.117
 6807SOL    HW121320   2.654   3.352   0.213
 6807SOL    HW221321   2.603   3.405   0.067
 6808SOL     OW21322   0.269   2.689   4.791
 6808SOL    HW121323   0.286   2.783   4.762
 6808SOL    HW221324   0.198   2.688   4.861
 6809SOL     OW21325   1.227   4.699   6.970
 6809SOL    HW121326   1.316   4.721   6.930
 6809SOL    HW221327   1.203   4.605   6.948
 6810SOL     OW21328   0.878   1.016   2.437
 6810SOL    HW121329   0.827   0.963   2.369
 6810SOL    HW221330   0.972   0.982   2.442
 6811SOL     OW21331   6.259   4.517   0.726
 6811SOL    HW121332   6.285   4.422   0.711
 6811SOL    HW221333   6.178   4.539   0.671
 6812SOL     OW21334   3.980   3.812   3.076
 6812SOL    HW121335   3.969   3.815   3.175
 6812SOL    HW221336   3.921   3.880   3.033
 6813SOL     OW21337   5.024   1.809   1.363
 6813SOL    HW121338   4.974   1.736   1.317
 6813SOL    HW221339   4.964   1.851   1.432
 6814SOL     OW21340   3.101   2.882   1.216
 6814SOL    HW121341   3.189   2.916   1.248
 6814SOL    HW221342   3.108   2.856   1.119
 6815SOL     OW21343   3.062   6.964   1.746
 6815SOL    HW121344   2.990   7.017   1.701
 6815SOL    HW221345   3.109   7.021   1.814
 6816SOL     OW21346   6.508   5.103   6.821
 6816SOL    HW121347   6.564   5.185   6.824
 6816SOL    HW221348   6.437   5.113   6.751
 6817SOL     OW21349   6.410   1.442   5.301
 6817SOL    HW121350   6.465   1.501   5.241
 6817SOL    HW221351   6.457   1.355   5.314
 6818SOL     OW21352   3.308   6.604   1.864
 6818SOL    HW121353   3.308   6.693   1.909
 6818SOL    HW221354   3.231   6.549   1.898
 6819SOL     OW21355   3.045   0.709   3.711
 6819SOL    HW121356   3.001   0.741   3.628
 6819SOL    HW221357   3.125   0.765   3.731
 6820SOL     OW21358   0.735   4.557   3.597
 6820SOL    HW121359   0.732   4.458   3.586
 6820SOL    HW221360   0.719   4.580   3.693
 6821SOL     OW21361   2.493   2.322   5.125
 6821SOL    HW121362   2.568   2.313   5.191
 6821SOL    HW221363   2.518   2.388   5.055
 6822SOL     OW21364   5.610   1.431   6.023
 6822SOL    HW121365   5.698   1.470   5.997
 6822SOL    HW221366   5.562   1.495   6.084
 6823SOL     OW21367   3.591   3.576   3.530
 6823SOL    HW121368   3.601   3.539   3.623
 6823SOL    HW221369   3.503   3.546   3.492
 6824SOL     OW21370   0.339   3.515   6.474
 6824SOL    HW121371   0.422   3.485   6.521
 6824SOL    HW221372   0.323   3.456   6.394
 6825SOL     OW21373   5.295   0.131   2.393
 6825SOL    HW121374   5.296   0.201   2.464
 6825SOL    HW221375   5.348   0.162   2.314
 6826SOL     OW21376   2.116   3.595   2.479
 6826SOL    HW121377   2.062   3.559   2.554
 6826SOL    HW221378   2.120   3.527   2.406
 6827SOL     OW21379   4.708   5.820   6.829
 6827SOL    HW121380   4.638   5.806   6.759
 6827SOL    HW221381   4.668   5.870   6.906
 6828SOL     OW21382   1.439   2.084   1.654
 6828SOL    HW121383   1.524   2.035   1.671
 6828SOL    HW221384   1.365   2.041   1.707
 6829SOL     OW21385   5.239   6.710   3.633
 6829SOL    HW121386   5.288   6.745   3.713
 6829SOL    HW221387   5.282   6.626   3.601
 6830SOL     OW21388   5.573   1.094   3.291
 6830SOL    HW121389   5.628   1.107   3.209
 6830SOL    HW221390   5.487   1.049   3.268
 6831SOL     OW21391   0.736   0.913   6.153
 6831SOL    HW121392   0.682   0.957   6.081
 6831SOL    HW221393   0.740   0.971   6.233
 6832SOL     OW21394   2.937   4.573   1.587
 6832SOL    HW121395   2.916   4.545   1.680
 6832SOL    HW221396   2.861   4.629   1.552
 6833SOL     OW21397   3.726   5.184   6.890
 6833SOL    HW121398   3.642   5.154   6.935
 6833SOL    HW221399   3.802   5.125   6.918
 6834SOL     OW21400   4.839   6.848   1.511
 6834SOL    HW121401   4.750   6.855   1.557
 6834SOL    HW221402   4.855   6.931   1.457
 6835SOL     OW21403   3.994   0.480   4.653
 6835SOL    HW121404   3.955   0.409   4.712
 6835SOL    HW221405   4.007   0.564   4.707
 6836SOL     OW21406   2.878   6.544   0.532
 6836SOL    HW121407   2.807   6.545   0.462
 6836SOL    HW221408   2.912   6.636   0.546
 6837SOL     OW21409   1.881   3.402   1.999
 6837SOL    HW121410   1.957   3.441   1.947
 6837SOL    HW221411   1.881   3.302   1.987
 6838SOL     OW21412   2.533   1.066   0.493
 6838SOL    HW121413   2.516   1.058   0.591
 6838SOL    HW221414   2.522   0.977   0.449
 6839SOL     OW21415   4.723   0.907   0.999
 6839SOL    HW121416   4.700   0.844   0.925
 6839SOL    HW221417   4.769   0.988   0.961
 6840SOL     OW21418   2.834   1.503   6.263
 6840SOL    HW121419   2.853   1.406   6.246
 6840SOL    HW221420   2.831   1.552   6.176
 6841SOL     OW21421   6.256   3.325   5.982
 6841SOL    HW121422   6.252   3.236   5.935
 6841SOL    HW221423   6.169   3.372   5.971
 6842SOL     OW21424   1.579   5.218   1.571
 6842SOL    HW121425   1.560   5.122   1.596
 6842SOL    HW221426   1.513   5.277   1.617
 6843SOL     OW21427   5.280   6.864   6.679
 6843SOL    HW121428   5.294   6.803   6.602
 6843SOL    HW221429   5.212   6.934   6.655
 6844SOL     OW21430   4.941   0.836   3.799
 6844SOL    HW121431   5.037   0.858   3.819
 6844SOL    HW221432   4.892   0.819   3.884
 6845SOL     OW21433   4.863   2.985   2.919
 6845SOL    HW121434   4.933   2.915   2.903
 6845SOL    HW221435   4.790   2.976   2.851
 6846SOL     OW21436   3.067   4.120   0.388
 6846SOL    HW121437   3.149   4.175   0.369
 6846SOL    HW221438   3.026   4.150   0.474
 6847SOL     OW21439   6.055   3.873   4.793
 6847SOL    HW121440   6.073   3.775   4.781
 6847SOL    HW221441   6.059   3.897   4.890
 6848SOL     OW21442   5.075   4.120   4.128
 6848SOL    HW121443   5.078   4.163   4.219
 6848SOL    HW221444   5.069   4.020   4.139
 6849SOL     OW21445   3.758   3.864   6.285
 6849SOL    HW121446   3.761   3.857   6.185
 6849SOL    HW221447   3.840   3.822   6.323
 6850SOL     OW21448   4.370   2.446   3.548
 6850SOL    HW121449   4.417   2.358   3.547
 6850SOL    HW221450   4.288   2.439   3.605
 6851SOL     OW21451   1.746   2.890   2.671
 6851SOL    HW121452   1.655   2.898   2.713
 6851SOL    HW221453   1.810   2.853   2.738
 6852SOL     OW21454   2.359   5.540   0.939
 6852SOL    HW121455   2.349   5.460   0.880
 6852SOL    HW221456   2.455   5.570   0.939
 6853SOL     OW21457   5.513   3.418   6.606
 6853SOL    HW121458   5.591   3.398   6.548
 6853SOL    HW221459   5.449   3.341   6.603
 6854SOL     OW21460   5.144   6.480   6.089
 6854SOL    HW121461   5.217   6.486   6.157
 6854SOL    HW221462   5.117   6.571   6.061
 6855SOL     OW21463   3.715   5.243   3.507
 6855SOL    HW121464   3.726   5.150   3.542
 6855SOL    HW221465   3.767   5.253   3.422
 6856SOL     OW21466   0.930   2.519   6.318
 6856SOL    HW121467   0.964   2.438   6.365
 6856SOL    HW221468   0.844   2.497   6.271
 6857SOL     OW21469   1.426   3.567   6.585
 6857SOL    HW121470   1.336   3.526   6.599
 6857SOL    HW221471   1.459   3.544   6.493
 6858SOL     OW21472   3.184   4.191   1.714
 6858SOL    HW121473   3.087   4.207   1.696
 6858SOL    HW221474   3.218   4.119   1.653
 6859SOL     OW21475   0.620   1.227   2.014
 6859SOL    HW121476   0.691   1.157   2.023
 6859SOL    HW221477   0.653   1.300   1.953
 6860SOL     OW21478   0.066   5.586   1.858
 6860SOL    HW121479   6.992   5.560   1.860
 6860SOL    HW221480   0.100   5.575   1.764
 6861SOL     OW21481   5.057   3.337   5.295
 6861SOL    HW121482   4.997   3.330   5.215
 6861SOL    HW221483   5.106   3.251   5.308
 6862SOL     OW21484   0.256   4.399   6.259
 6862SOL    HW121485   0.253   4.461   6.180
 6862SOL    HW221486   0.245   4.305   6.228
 6863SOL     OW21487   6.973   6.477   5.035
 6863SOL    HW121488   0.043   6.489   5.000
 6863SOL    HW221489   6.977   6.449   5.131
 6864SOL     OW21490   1.621   3.913   5.664
 6864SOL    HW121491   1.666   3.966   5.592
 6864SOL    HW221492   1.541   3.867   5.626
 6865SOL     OW21493   1.354   0.043   4.453
 6865SOL    HW121494   1.256   0.036   4.434
 6865SOL    HW221495   1.382   0.139   4.451
 6866SOL     OW21496   0.018   4.485   2.265
 6866SOL    HW121497   6.991   4.447   2.343
 6866SOL    HW221498   0.076   4.415   2.225
 6867SOL     OW21499   2.148   3.204   0.666
 6867SOL    HW121500   2.191   3.124   0.708
 6867SOL    HW221501   2.074   3.175   0.606
 6868SOL     OW21502   2.151   5.359   4.864
 6868SOL    HW121503   2.188   5.299   4.793
 6868SOL    HW221504   2.210   5.356   4.944
 6869SOL     OW21505   3.451   6.956   5.811
 6869SOL    HW121506   3.406   7.001   5.734
 6869SOL    HW221507   3.521   6.894   5.776
 6870SOL     OW21508   0.062   2.913   0.463
 6870SOL    HW121509   0.022   2.837   0.413
 6870SOL    HW221510   0.075   2.887   0.559
 6871SOL     OW21511   6.714   3.767   2.420
 6871SOL    HW121512   6.639   3.776   2.485
 6871SOL    HW221513   6.727   3.671   2.397
 6872SOL     OW21514   1.239   2.731   1.810
 6872SOL    HW121515   1.248   2.733   1.711
 6872SOL    HW221516   1.285   2.811   1.849
 6873SOL     OW21517   1.327   4.293   4.781
 6873SOL    HW121518   1.339   4.386   4.744
 6873SOL    HW221519   1.317   4.298   4.880
 6874SOL     OW21520   5.634   5.891   2.940
 6874SOL    HW121521   5.587   5.968   2.982
 6874SOL    HW221522   5.622   5.895   2.841
 6875SOL     OW21523   1.375   2.623   0.984
 6875SOL    HW121524   1.377   2.672   0.897
 6875SOL    HW221525   1.292   2.567   0.988
 6876SOL     OW21526   4.258   6.299   3.094
 6876SOL    HW121527   4.225   6.205   3.081
 6876SOL    HW221528   4.262   6.319   3.192
 6877SOL     OW21529   2.340   4.366   2.054
 6877SOL    HW121530   2.399   4.372   2.135
 6877SOL    HW221531   2.259   4.312   2.077
 6878SOL     OW21532   2.203   0.855   3.832
 6878SOL    HW121533   2.147   0.773   3.839
 6878SOL    HW221534   2.187   0.914   3.911
 6879SOL     OW21535   2.127   2.363   1.040
 6879SOL    HW121536   2.157   2.314   0.958
 6879SOL    HW221537   2.027   2.370   1.040
 6880SOL     OW21538   1.954   5.714   6.485
 6880SOL    HW121539   2.016   5.702   6.408
 6880SOL    HW221540   1.931   5.811   6.495
 6881SOL     OW21541   1.708   3.742   0.173
 6881SOL    HW121542   1.693   3.828   0.221
 6881SOL    HW221543   1.801   3.739   0.137
 6882SOL     OW21544   3.036   6.774   0.565
 6882SOL    HW121545   3.110   6.723   0.608
 6882SOL    HW221546   3.072   6.827   0.488
 6883SOL     OW21547   4.932   0.339   6.356
 6883SOL    HW121548   4.952   0.282   6.436
 6883SOL    HW221549   4.898   0.282   6.282
 6884SOL     OW21550   2.016   3.716   2.832
 6884SOL    HW121551   2.007   3.650   2.757
 6884SOL    HW221552   2.047   3.804   2.796
 6885SOL     OW21553   4.749   5.264   3.412
 6885SOL    HW121554   4.744   5.192   3.481
 6885SOL    HW221555   4.835   5.256   3.361
 6886SOL     OW21556   5.020   1.016   5.862
 6886SOL    HW121557   4.984   1.040   5.952
 6886SOL    HW221558   5.019   1.097   5.803
 6887SOL     OW21559   5.171   6.302   6.657
 6887SOL    HW121560   5.130   6.290   6.566
 6887SOL    HW221561   5.251   6.361   6.650
 6888SOL     OW21562   5.564   4.747   6.849
 6888SOL    HW121563   5.488   4.810   6.861
 6888SOL    HW221564   5.532   4.664   6.804
 6889SOL     OW21565   0.941   2.699   5.852
 6889SOL    HW121566   0.888   2.713   5.769
 6889SOL    HW221567   1.015   2.766   5.856
 6890SOL     OW21568   3.529   5.214   2.816
 6890SOL    HW121569   3.451   5.194   2.875
 6890SOL    HW221570   3.535   5.312   2.798
 6891SOL     OW21571   2.212   2.642   0.853
 6891SOL    HW121572   2.139   2.619   0.919
 6891SOL    HW221573   2.279   2.701   0.898
 6892SOL     OW21574   3.408   1.149   4.212
 6892SOL    HW121575   3.391   1.235   4.258
 6892SOL    HW221576   3.503   1.145   4.181
 6893SOL     OW21577   6.275   2.997   6.985
 6893SOL    HW121578   6.292   2.907   6.944
 6893SOL    HW221579   6.178   3.017   6.981
 6894SOL     OW21580   5.459   4.875   1.322
 6894SOL    HW121581   5.396   4.952   1.327
 6894SOL    HW221582   5.551   4.909   1.301
 6895SOL     OW21583   1.807   6.100   1.068
 6895SOL    HW121584   1.769   6.164   1.134
 6895SOL    HW221585   1.745   6.091   0.990
 6896SOL     OW21586   3.751   2.031   4.437
 6896SOL    HW121587   3.691   2.069   4.507
 6896SOL    HW221588   3.847   2.042   4.465
 6897SOL     OW21589   4.720   3.895   5.285
 6897SOL    HW121590   4.767   3.810   5.309
 6897SOL    HW221591   4.771   3.941   5.212
 6898SOL     OW21592   2.617   1.500   1.542
 6898SOL    HW121593   2.657   1.554   1.615
 6898SOL    HW221594   2.619   1.403   1.567
 6899SOL     OW21595   6.465   5.944   2.598
 6899SOL    HW121596   6.475   5.844   2.593
 6899SOL    HW221597   6.499   5.985   2.513
 6900SOL     OW21598   6.430   4.286   6.215
 6900SOL    HW121599   6.389   4.378   6.219
 6900SOL    HW221600   6.410   4.237   6.300
 6901SOL     OW21601   4.600   5.101   6.655
 6901SOL    HW121602   4.676   5.093   6.719
 6901SOL    HW221603   4.634   5.098   6.561
 6902SOL     OW21604   0.155   6.038   5.955
 6902SOL    HW121605   0.079   6.063   6.016
 6902SOL    HW221606   0.118   6.006   5.868
 6903SOL     OW21607   2.963   5.157   5.124
 6903SOL    HW121608   2.937   5.061   5.132
 6903SOL    HW221609   2.900   5.204   5.062
 6904SOL     OW21610   0.364   5.910   4.734
 6904SOL    HW121611   0.395   5.818   4.713
 6904SOL    HW221612   0.308   5.909   4.817
 6905SOL     OW21613   5.279   5.491   6.071
 6905SOL    HW121614   5.207   5.459   6.132
 6905SOL    HW221615   5.240   5.553   6.003
 6906SOL     OW21616   3.905   1.076   3.526
 6906SOL    HW121617   3.990   1.026   3.507
 6906SOL    HW221618   3.872   1.051   3.617
 6907SOL     OW21619   6.351   1.845   1.238
 6907SOL    HW121620   6.260   1.810   1.258
 6907SOL    HW221621   6.412   1.824   1.314
 6908SOL     OW21622   2.564   4.354   6.876
 6908SOL    HW121623   2.581   4.271   6.824
 6908SOL    HW221624   2.648   4.382   6.923
 6909SOL     OW21625   5.698   5.262   1.874
 6909SOL    HW121626   5.717   5.220   1.962
 6909SOL    HW221627   5.756   5.343   1.862
 6910SOL     OW21628   1.574   2.520   2.715
 6910SOL    HW121629   1.494   2.522   2.655
 6910SOL    HW221630   1.641   2.588   2.685
 6911SOL     OW21631   3.350   0.077   5.597
 6911SOL    HW121632   3.280   0.067   5.527
 6911SOL    HW221633   3.439   0.094   5.554
 6912SOL     OW21634   1.938   3.768   0.052
 6912SOL    HW121635   1.967   3.830   0.125
 6912SOL    HW221636   2.005   3.694   0.044
 6913SOL     OW21637   4.515   5.930   5.828
 6913SOL    HW121638   4.427   5.888   5.803
 6913SOL    HW221639   4.500   6.023   5.862
 6914SOL     OW21640   6.112   3.341   1.883
 6914SOL    HW121641   6.204   3.364   1.851
 6914SOL    HW221642   6.095   3.244   1.870
 6915SOL     OW21643   1.227   3.744   2.152
 6915SOL    HW121644   1.226   3.760   2.251
 6915SOL    HW221645   1.162   3.671   2.130
 6916SOL     OW21646   4.630   6.835   6.105
 6916SOL    HW121647   4.563   6.907   6.088
 6916SOL    HW221648   4.717   6.877   6.131
 6917SOL     OW21649   5.511   5.596   1.618
 6917SOL    HW121650   5.548   5.556   1.534
 6917SOL    HW221651   5.426   5.644   1.596
 6918SOL     OW21652   0.888   3.098   1.628
 6918SOL    HW121653   0.816   3.030   1.645
 6918SOL    HW221654   0.930   3.123   1.715
 6919SOL     OW21655   6.292   6.706   2.701
 6919SOL    HW121656   6.201   6.720   2.739
 6919SOL    HW221657   6.308   6.607   2.691
 6920SOL     OW21658   4.436   0.740   5.247
 6920SOL    HW121659   4.434   0.780   5.338
 6920SOL    HW221660   4.459   0.643   5.254
 6921SOL     OW21661   3.278   0.317   4.497
 6921SOL    HW121662   3.303   0.234   4.548
 6921SOL    HW221663   3.338   0.326   4.418
 6922SOL     OW21664   1.473   5.950   5.080
 6922SOL    HW121665   1.487   5.981   5.174
 6922SOL    HW221666   1.480   6.028   5.018
 6923SOL     OW21667   6.307   7.007   2.161
 6923SOL    HW121668   6.214   6.986   2.191
 6923SOL    HW221669   6.372   6.977   2.232
 6924SOL     OW21670   3.760   6.710   0.639
 6924SOL    HW121671   3.789   6.644   0.570
 6924SOL    HW221672   3.825   6.710   0.715
 6925SOL     OW21673   5.560   6.120   6.921
 6925SOL    HW121674   5.524   6.056   6.854
 6925SOL    HW221675   5.660   6.117   6.921
 6926SOL     OW21676   2.916   1.701   0.829
 6926SOL    HW121677   2.856   1.622   0.817
 6926SOL    HW221678   3.003   1.670   0.869
 6927SOL     OW21679   3.989   0.826   0.329
 6927SOL    HW121680   3.960   0.881   0.252
 6927SOL    HW221681   3.926   0.840   0.406
 6928SOL     OW21682   4.853   5.288   0.611
 6928SOL    HW121683   4.802   5.214   0.655
 6928SOL    HW221684   4.872   5.360   0.679
 6929SOL     OW21685   5.358   5.260   1.567
 6929SOL    HW121686   5.443   5.272   1.516
 6929SOL    HW221687   5.368   5.186   1.633
 6930SOL     OW21688   0.522   1.259   0.175
 6930SOL    HW121689   0.501   1.171   0.217
 6930SOL    HW221690   0.604   1.251   0.119
 6931SOL     OW21691   2.429   2.450   1.603
 6931SOL    HW121692   2.358   2.465   1.533
 6931SOL    HW221693   2.501   2.518   1.593
 6932SOL     OW21694   4.829   5.607   0.038
 6932SOL    HW121695   4.926   5.585   0.027
 6932SOL    HW221696   4.785   5.537   0.094
 6933SOL     OW21697   3.071   5.687   6.433
 6933SOL    HW121698   3.137   5.613   6.442
 6933SOL    HW221699   3.074   5.745   6.514
 6934SOL     OW21700   5.116   4.225   6.408
 6934SOL    HW121701   5.197   4.167   6.408
 6934SOL    HW221702   5.064   4.212   6.492
 6935SOL     OW21703   5.682   5.463   2.181
 6935SOL    HW121704   5.600   5.463   2.237
 6935SOL    HW221705   5.698   5.371   2.146
 6936SOL     OW21706   1.177   1.556   4.782
 6936SOL    HW121707   1.101   1.515   4.833
 6936SOL    HW221708   1.157   1.549   4.684
 6937SOL     OW21709   5.412   5.742   0.207
 6937SOL    HW121710   5.450   5.772   0.295
 6937SOL    HW221711   5.313   5.757   0.208
 6938SOL     OW21712   0.324   0.894   4.688
 6938SOL    HW121713   0.339   0.810   4.741
 6938SOL    HW221714   0.226   0.905   4.670
 6939SOL     OW21715   6.302   4.460   3.491
 6939SOL    HW121716   6.384   4.404   3.479
 6939SOL    HW221717   6.282   4.508   3.405
 6940SOL     OW21718   4.507   6.725   0.619
 6940SOL    HW121719   4.482   6.716   0.522
 6940SOL    HW221720   4.428   6.757   0.671
 6941SOL     OW21721   3.043   3.467   2.947
 6941SOL    HW121722   3.007   3.561   2.957
 6941SOL    HW221723   3.120   3.468   2.884
 6942SOL     OW21724   6.708   6.033   1.909
 6942SOL    HW121725   6.712   6.064   1.814
 6942SOL    HW221726   6.719   6.112   1.969
 6943SOL     OW21727   4.013   4.693   0.007
 6943SOL    HW121728   4.066   4.614   6.998
 6943SOL    HW221729   3.929   4.700   6.976
 6944SOL     OW21730   1.047   3.602   5.543
 6944SOL    HW121731   1.096   3.604   5.456
 6944SOL    HW221732   1.014   3.693   5.565
 6945SOL     OW21733   5.739   3.020   0.454
 6945SOL    HW121734   5.708   2.933   0.492
 6945SOL    HW221735   5.670   3.054   0.390
 6946SOL     OW21736   4.112   6.089   2.376
 6946SOL    HW121737   4.173   6.011   2.363
 6946SOL    HW221738   4.165   6.172   2.385
 6947SOL     OW21739   5.231   5.049   5.628
 6947SOL    HW121740   5.237   4.967   5.684
 6947SOL    HW221741   5.315   5.103   5.638
 6948SOL     OW21742   0.147   5.689   0.522
 6948SOL    HW121743   0.091   5.662   0.599
 6948SOL    HW221744   0.138   5.787   0.506
 6949SOL     OW21745   2.814   2.351   3.534
 6949SOL    HW121746   2.877   2.333   3.609
 6949SOL    HW221747   2.865   2.355   3.448
 6950SOL     OW21748   0.862   6.787   4.700
 6950SOL    HW121749   0.773   6.803   4.656
 6950SOL    HW221750   0.868   6.843   4.783
 6951SOL     OW21751   6.872   5.097   6.776
 6951SOL    HW121752   6.868   4.997   6.769
 6951SOL    HW221753   6.841   5.137   6.690
 6952SOL     OW21754   3.375   4.882   2.684
 6952SOL    HW121755   3.291   4.936   2.685
 6952SOL    HW221756   3.453   4.943   2.673
 6953SOL     OW21757   5.714   0.621   0.793
 6953SOL    HW121758   5.660   0.556   0.740
 6953SOL    HW221759   5.656   0.664   0.862
 6954SOL     OW21760   0.037   3.559   0.767
 6954SOL    HW121761   0.102   3.573   0.692
 6954SOL    HW221762   7.012   3.645   0.786
 6955SOL     OW21763   5.096   7.010   2.531
 6955SOL    HW121764   5.146   6.923   2.529
 6955SOL    HW221765   5.160   0.063   2.523
 6956SOL     OW21766   5.425   5.789   2.248
 6956SOL    HW121767   5.409   5.884   2.223
 6956SOL    HW221768   5.493   5.785   2.322
 6957SOL     OW21769   5.295   5.322   6.350
 6957SOL    HW121770   5.314   5.323   6.448
 6957SOL    HW221771   5.382   5.322   6.299
 6958SOL     OW21772   3.622   2.873   3.475
 6958SOL    HW121773   3.538   2.912   3.438
 6958SOL    HW221774   3.610   2.854   3.572
 6959SOL     OW21775   1.390   4.391   2.980
 6959SOL    HW121776   1.296   4.364   3.004
 6959SOL    HW221777   1.451   4.313   2.997
 6960SOL     OW21778   2.007   4.427   0.484
 6960SOL    HW121779   2.087   4.378   0.519
 6960SOL    HW221780   1.924   4.391   0.526
 6961SOL     OW21781   3.988   1.861   5.233
 6961SOL    HW121782   4.072   1.838   5.184
 6961SOL    HW221783   4.007   1.865   5.331
 6962SOL     OW21784   3.552   6.622   6.333
 6962SOL    HW121785   3.631   6.561   6.339
 6962SOL    HW221786   3.470   6.569   6.313
 6963SOL     OW21787   5.132   6.498   1.227
 6963SOL    HW121788   5.057   6.533   1.283
 6963SOL    HW221789   5.161   6.569   1.163
 6964SOL     OW21790   2.261   0.304   6.151
 6964SOL    HW121791   2.168   0.269   6.136
 6964SOL    HW221792   2.256   0.398   6.185
 6965SOL     OW21793   0.758   2.307   0.091
 6965SOL    HW121794   0.790   2.358   0.011
 6965SOL    HW221795   0.805   2.219   0.096
 6966SOL     OW21796   0.798   0.637   1.941
 6966SOL    HW121797   0.710   0.590   1.942
 6966SOL    HW221798   0.831   0.650   2.035
 6967SOL     OW21799   4.249   2.089   6.213
 6967SOL    HW121800   4.209   2.086   6.121
 6967SOL    HW221801   4.296   2.003   6.232
 6968SOL     OW21802   3.542   6.915   2.853
 6968SOL    HW121803   3.465   6.955   2.804
 6968SOL    HW221804   3.560   6.970   2.935
 6969SOL     OW21805   2.344   1.769   2.057
 6969SOL    HW121806   2.266   1.820   2.020
 6969SOL    HW221807   2.429   1.806   2.020
 6970SOL     OW21808   3.520   4.462   6.050
 6970SOL    HW121809   3.593   4.530   6.041
 6970SOL    HW221810   3.511   4.411   5.965
 6971SOL     OW21811   6.477   4.665   0.611
 6971SOL    HW121812   6.485   4.574   0.570
 6971SOL    HW221813   6.410   4.663   0.685
 6972SOL     OW21814   5.179   3.473   2.733
 6972SOL    HW121815   5.240   3.527   2.675
 6972SOL    HW221816   5.088   3.469   2.691
 6973SOL     OW21817   1.149   2.008   2.630
 6973SOL    HW121818   1.202   2.093   2.628
 6973SOL    HW221819   1.134   1.977   2.536
 6974SOL     OW21820   3.282   3.748   2.808
 6974SOL    HW121821   3.377   3.775   2.791
 6974SOL    HW221822   3.225   3.776   2.731
 6975SOL     OW21823   3.100   5.615   4.906
 6975SOL    HW121824   3.158   5.688   4.871
 6975SOL    HW221825   3.103   5.615   5.006
 6976SOL     OW21826   4.826   4.625   5.589
 6976SOL    HW121827   4.776   4.557   5.644
 6976SOL    HW221828   4.905   4.658   5.641
 6977SOL     OW21829   4.245   4.602   1.931
 6977SOL    HW121830   4.330   4.551   1.916
 6977SOL    HW221831   4.191   4.605   1.847
 6978SOL     OW21832   5.642   3.192   1.734
 6978SOL    HW121833   5.596   3.211   1.647
 6978SOL    HW221834   5.650   3.276   1.786
 6979SOL     OW21835   1.414   4.047   1.356
 6979SOL    HW121836   1.410   4.108   1.435
 6979SOL    HW221837   1.491   4.072   1.298
 6980SOL     OW21838   1.189   6.892   3.176
 6980SOL    HW121839   1.194   6.905   3.077
 6980SOL    HW221840   1.124   6.956   3.215
 6981SOL     OW21841   3.551   3.712   6.839
 6981SOL    HW121842   3.558   3.711   6.939
 6981SOL    HW221843   3.455   3.721   6.812
 6982SOL     OW21844   0.806   1.298   4.074
 6982SOL    HW121845   0.713   1.326   4.052
 6982SOL    HW221846   0.849   1.366   4.133
 6983SOL     OW21847   5.124   0.696   4.121
 6983SOL    HW121848   5.176   0.613   4.141
 6983SOL    HW221849   5.034   0.672   4.084
 6984SOL     OW21850   0.750   2.593   3.011
 6984SOL    HW121851   0.665   2.550   3.042
 6984SOL    HW221852   0.800   2.630   3.089
 6985SOL     OW21853   6.525   3.853   6.894
 6985SOL    HW121854   6.619   3.834   6.921
 6985SOL    HW221855   6.502   3.801   6.811
 6986SOL     OW21856   3.870   5.153   5.570
 6986SOL    HW121857   3.822   5.072   5.537
 6986SOL    HW221858   3.968   5.144   5.551
 6987SOL     OW21859   0.541   1.668   6.545
 6987SOL    HW121860   0.492   1.619   6.617
 6987SOL    HW221861   0.499   1.758   6.532
 6988SOL     OW21862   3.033   1.154   6.272
 6988SOL    HW121863   2.977   1.178   6.352
 6988SOL    HW221864   2.978   1.097   6.210
 6989SOL     OW21865   0.372   4.596   2.395
 6989SOL    HW121866   0.445   4.546   2.348
 6989SOL    HW221867   0.408   4.636   2.479
 6990SOL     OW21868   3.765   2.958   1.784
 6990SOL    HW121869   3.683   2.951   1.840
 6990SOL    HW221870   3.845   2.965   1.844
 6991SOL     OW21871   5.863   3.959   2.609
 6991SOL    HW121872   5.889   4.025   2.537
 6991SOL    HW221873   5.764   3.955   2.616
 6992SOL     OW21874   1.296   0.497   6.599
 6992SOL    HW121875   1.331   0.584   6.566
 6992SOL    HW221876   1.231   0.460   6.533
 6993SOL     OW21877   5.489   1.151   1.490
 6993SOL    HW121878   5.498   1.053   1.477
 6993SOL    HW221879   5.434   1.190   1.417
 6994SOL     OW21880   1.821   0.077   4.132
 6994SOL    HW121881   1.901   0.029   4.095
 6994SOL    HW221882   1.835   0.175   4.122
 6995SOL     OW21883   0.526   3.363   0.578
 6995SOL    HW121884   0.434   3.350   0.541
 6995SOL    HW221885   0.591   3.306   0.527
 6996SOL     OW21886   1.408   1.051   0.387
 6996SOL    HW121887   1.407   1.133   0.445
 6996SOL    HW221888   1.475   0.986   0.423
 6997SOL     OW21889   6.916   5.143   5.192
 6997SOL    HW121890   7.008   5.105   5.194
 6997SOL    HW221891   6.851   5.075   5.225
 6998SOL     OW21892   0.193   1.234   1.183
 6998SOL    HW121893   0.150   1.265   1.098
 6998SOL    HW221894   0.276   1.288   1.199
 6999SOL     OW21895   1.121   2.852   6.747
 6999SOL    HW121896   1.202   2.904   6.773
 6999SOL    HW221897   1.148   2.774   6.691
 7000SOL     OW21898   6.679   6.965   2.644
 7000SOL    HW121899   6.655   0.035   2.616
 7000SOL    HW221900   6.777   6.959   2.662
 7001SOL     OW21901   1.234   1.688   4.427
 7001SOL    HW121902   1.172   1.753   4.382
 7001SOL    HW221903   1.309   1.738   4.471
 7002SOL     OW21904   1.012   5.738   3.552
 7002SOL    HW121905   0.921   5.725   3.514
 7002SOL    HW221906   1.046   5.829   3.530
 7003SOL     OW21907   6.137   4.068   1.398
 7003SOL    HW121908   6.154   4.083   1.495
 7003SOL    HW221909   6.068   3.996   1.387
 7004SOL     OW21910   1.529   5.724   0.329
 7004SOL    HW121911   1.587   5.664   0.274
 7004SOL    HW221912   1.489   5.672   0.405
 7005SOL     OW21913   1.644   0.514   6.788
 7005SOL    HW121914   1.659   0.448   6.714
 7005SOL    HW221915   1.563   0.488   6.840
 7006SOL     OW21916   0.113   0.216   3.790
 7006SOL    HW121917   0.212   0.202   3.782
 7006SOL    HW221918   0.066   0.165   3.718
 7007SOL     OW21919   3.919   0.857   6.061
 7007SOL    HW121920   3.991   0.788   6.071
 7007SOL    HW221921   3.954   0.936   6.012
 7008SOL     OW21922   6.558   4.339   3.474
 7008SOL    HW121923   6.639   4.356   3.417
 7008SOL    HW221924   6.517   4.251   3.448
 7009SOL     OW21925   4.464   5.920   1.731
 7009SOL    HW121926   4.406   6.001   1.741
 7009SOL    HW221927   4.440   5.854   1.802
 7010SOL     OW21928   5.160   3.996   1.823
 7010SOL    HW121929   5.220   3.944   1.885
 7010SOL    HW221930   5.180   3.970   1.729
 7011SOL     OW21931   3.837   6.728   0.186
 7011SOL    HW121932   3.799   6.739   0.094
 7011SOL    HW221933   3.862   6.817   0.223
 7012SOL     OW21934   0.815   2.200   0.977
 7012SOL    HW121935   0.809   2.202   0.878
 7012SOL    HW221936   0.794   2.290   1.014
 7013SOL     OW21937   2.690   1.844   6.871
 7013SOL    HW121938   2.704   1.902   6.791
 7013SOL    HW221939   2.649   1.898   6.945
 7014SOL     OW21940   6.531   3.848   1.734
 7014SOL    HW121941   6.462   3.776   1.742
 7014SOL    HW221942   6.495   3.933   1.773
 7015SOL     OW21943   5.105   5.070   1.987
 7015SOL    HW121944   5.178   5.137   1.983
 7015SOL    HW221945   5.131   4.988   1.935
 7016SOL     OW21946   3.436   4.746   0.637
 7016SOL    HW121947   3.363   4.786   0.582
 7016SOL    HW221948   3.445   4.797   0.723
 7017SOL     OW21949   4.464   5.236   3.801
 7017SOL    HW121950   4.430   5.312   3.856
 7017SOL    HW221951   4.430   5.244   3.708
 7018SOL     OW21952   4.716   2.774   4.299
 7018SOL    HW121953   4.654   2.728   4.362
 7018SOL    HW221954   4.733   2.716   4.219
 7019SOL     OW21955   4.968   5.221   2.194
 7019SOL    HW121956   4.996   5.155   2.124
 7019SOL    HW221957   4.869   5.214   2.210
 7020SOL     OW21958   0.652   3.482   0.023
 7020SOL    HW121959   0.741   3.436   0.027
 7020SOL    HW221960   0.606   3.457   6.961
 7021SOL     OW21961   1.310   2.477   4.633
 7021SOL    HW121962   1.341   2.571   4.640
 7021SOL    HW221963   1.241   2.459   4.702
 7022SOL     OW21964   4.077   0.934   0.764
 7022SOL    HW121965   4.073   1.030   0.739
 7022SOL    HW221966   4.031   0.920   0.852
 7023SOL     OW21967   0.553   1.934   1.879
 7023SOL    HW121968   0.478   1.927   1.812
 7023SOL    HW221969   0.638   1.954   1.831
 7024SOL     OW21970   3.879   3.462   3.673
 7024SOL    HW121971   3.806   3.477   3.739
 7024SOL    HW221972   3.857   3.383   3.615
 7025SOL     OW21973   3.088   0.171   0.374
 7025SOL    HW121974   3.055   0.163   0.468
 7025SOL    HW221975   3.181   0.206   0.374
 7026SOL     OW21976   3.280   2.299   1.427
 7026SOL    HW121977   3.231   2.258   1.349
 7026SOL    HW221978   3.258   2.397   1.431
 7027SOL     OW21979   2.258   5.454   1.875
 7027SOL    HW121980   2.178   5.486   1.824
 7027SOL    HW221981   2.242   5.467   1.973
 7028SOL     OW21982   3.135   0.426   3.800
 7028SOL    HW121983   3.076   0.505   3.783
 7028SOL    HW221984   3.192   0.409   3.720
 7029SOL     OW21985   3.155   3.326   5.331
 7029SOL    HW121986   3.213   3.292   5.405
 7029SOL    HW221987   3.116   3.249   5.281
 7030SOL     OW21988   6.712   1.491   4.767
 7030SOL    HW121989   6.718   1.533   4.677
 7030SOL    HW221990   6.618   1.498   4.801
 7031SOL     OW21991   4.283   6.392   0.705
 7031SOL    HW121992   4.334   6.428   0.783
 7031SOL    HW221993   4.222   6.464   0.670
 7032SOL     OW21994   3.521   0.057   4.505
 7032SOL    HW121995   3.455   7.004   4.508
 7032SOL    HW221996   3.520   0.105   4.593
 7033SOL     OW21997   1.346   2.310   5.480
 7033SOL    HW121998   1.415   2.252   5.437
 7033SOL    HW221999   1.377   2.405   5.479
 7034SOL     OW22000   6.600   1.753   3.224
 7034SOL    HW122001   6.698   1.760   3.241
 7034SOL    HW222002   6.585   1.699   3.140
 7035SOL     OW22003   2.010   0.445   1.243
 7035SOL    HW122004   2.047   0.353   1.255
 7035SOL    HW222005   1.913   0.439   1.218
 7036SOL     OW22006   0.011   1.294   2.242
 7036SOL    HW122007   0.085   1.236   2.275
 7036SOL    HW222008   0.034   1.390   2.258
 7037SOL     OW22009   0.613   0.305   5.894
 7037SOL    HW122010   0.663   0.224   5.923
 7037SOL    HW222011   0.593   0.299   5.796
 7038SOL     OW22012   2.215   3.786   6.385
 7038SOL    HW122013   2.163   3.830   6.458
 7038SOL    HW222014   2.231   3.852   6.311
 7039SOL     OW22015   0.543   5.764   3.004
 7039SOL    HW122016   0.475   5.837   3.008
 7039SOL    HW222017   0.510   5.691   2.944
 7040SOL     OW22018   4.249   2.124   5.699
 7040SOL    HW122019   4.171   2.085   5.650
 7040SOL    HW222020   4.292   2.195   5.643
 7041SOL     OW22021   1.353   0.823   4.197
 7041SOL    HW122022   1.345   0.890   4.271
 7041SOL    HW222023   1.284   0.843   4.127
 7042SOL     OW22024   4.572   6.152   5.154
 7042SOL    HW122025   4.494   6.137   5.093
 7042SOL    HW222026   4.641   6.206   5.106
 7043SOL     OW22027   2.670   4.712   3.156
 7043SOL    HW122028   2.585   4.700   3.104
 7043SOL    HW222029   2.747   4.719   3.094
 7044SOL     OW22030   5.321   6.065   4.232
 7044SOL    HW122031   5.401   6.110   4.271
 7044SOL    HW222032   5.284   6.120   4.158
 7045SOL     OW22033   6.309   5.690   2.277
 7045SOL    HW122034   6.323   5.611   2.336
 7045SOL    HW222035   6.271   5.659   2.189
 7046SOL     OW22036   2.887   2.297   4.135
 7046SOL    HW122037   2.816   2.296   4.205
 7046SOL    HW222038   2.895   2.389   4.096
 7047SOL     OW22039   0.525   6.977   0.439
 7047SOL    HW122040   0.534   6.971   0.539
 7047SOL    HW222041   0.558   0.044   0.408
 7048SOL     OW22042   6.732   5.477   4.946
 7048SOL    HW122043   6.772   5.503   5.033
 7048SOL    HW222044   6.784   5.518   4.871
 7049SOL     OW22045   3.777   1.266   2.205
 7049SOL    HW122046   3.721   1.276   2.287
 7049SOL    HW222047   3.815   1.356   2.180
 7050SOL     OW22048   4.110   4.500   1.070
 7050SOL    HW122049   4.130   4.404   1.090
 7050SOL    HW222050   4.018   4.509   1.033
 7051SOL     OW22051   0.501   6.466   0.914
 7051SOL    HW122052   0.525   6.524   0.992
 7051SOL    HW222053   0.580   6.410   0.889
 7052SOL     OW22054   5.984   6.986   2.657
 7052SOL    HW122055   6.034   0.025   2.595
 7052SOL    HW222056   5.977   0.005   2.747
 7053SOL     OW22057   1.553   2.949   3.291
 7053SOL    HW122058   1.585   2.877   3.230
 7053SOL    HW222059   1.575   2.924   3.386
 7054SOL     OW22060   6.463   0.098   0.504
 7054SOL    HW122061   6.507   0.018   0.462
 7054SOL    HW222062   6.515   0.180   0.480
 7055SOL     OW22063   2.387   0.944   6.844
 7055SOL    HW122064   2.440   1.012   6.895
 7055SOL    HW222065   2.336   0.887   6.908
 7056SOL     OW22066   6.932   5.427   1.303
 7056SOL    HW122067   6.853   5.372   1.331
 7056SOL    HW222068   6.906   5.485   1.226
 7057SOL     OW22069   3.173   4.969   4.609
 7057SOL    HW122070   3.267   5.004   4.617
 7057SOL    HW222071   3.167   4.878   4.650
 7058SOL     OW22072   5.319   2.301   6.063
 7058SOL    HW122073   5.301   2.313   6.161
 7058SOL    HW222074   5.391   2.232   6.050
 7059SOL     OW22075   1.950   0.945   4.493
 7059SOL    HW122076   1.921   1.030   4.450
 7059SOL    HW222077   1.890   0.926   4.572
 7060SOL     OW22078   3.091   0.125   2.584
 7060SOL    HW122079   3.137   0.194   2.528
 7060SOL    HW222080   3.144   0.040   2.581
 7061SOL     OW22081   0.356   1.930   3.266
 7061SOL    HW122082   0.256   1.935   3.257
 7061SOL    HW222083   0.397   1.923   3.175
 7062SOL     OW22084   4.272   2.003   3.327
 7062SOL    HW122085   4.322   2.054   3.257
 7062SOL    HW222086   4.274   1.905   3.305
 7063SOL     OW22087   0.569   0.521   1.901
 7063SOL    HW122088   0.514   0.446   1.939
 7063SOL    HW222089   0.510   0.580   1.846
 7064SOL     OW22090   4.724   1.967   5.386
 7064SOL    HW122091   4.798   1.986   5.450
 7064SOL    HW222092   4.760   1.959   5.293
 7065SOL     OW22093   3.447   4.222   5.277
 7065SOL    HW122094   3.446   4.315   5.313
 7065SOL    HW222095   3.500   4.220   5.192
 7066SOL     OW22096   3.860   0.785   0.027
 7066SOL    HW122097   3.866   0.769   0.125
 7066SOL    HW222098   3.772   0.752   7.015
 7067SOL     OW22099   1.956   3.185   0.011
 7067SOL    HW122100   1.942   3.129   0.092
 7067SOL    HW222101   1.868   3.199   6.987
 7068SOL     OW22102   5.020   4.312   4.397
 7068SOL    HW122103   5.105   4.294   4.448
 7068SOL    HW222104   4.951   4.244   4.424
 7069SOL     OW22105   6.138   0.166   6.269
 7069SOL    HW122106   6.063   0.153   6.204
 7069SOL    HW222107   6.100   0.202   6.355
 7070SOL     OW22108   0.375   6.659   4.840
 7070SOL    HW122109   0.437   6.604   4.784
 7070SOL    HW222110   0.398   6.756   4.829
 7071SOL     OW22111   5.156   6.325   7.013
 7071SOL    HW122112   5.155   6.233   6.975
 7071SOL    HW222113   5.100   6.386   6.957
 7072SOL     OW22114   0.663   3.793   6.400
 7072SOL    HW122115   0.607   3.721   6.439
 7072SOL    HW222116   0.607   3.849   6.338
 7073SOL     OW22117   5.137   0.999   2.910
 7073SOL    HW122118   5.171   1.093   2.918
 7073SOL    HW222119   5.129   0.974   2.814
 7074SOL     OW22120   5.890   4.319   2.862
 7074SOL    HW122121   5.936   4.233   2.838
 7074SOL    HW222122   5.828   4.345   2.788
 7075SOL     OW22123   3.380   5.060   4.422
 7075SOL    HW122124   3.404   5.149   4.384
 7075SOL    HW222125   3.379   4.991   4.350
 7076SOL     OW22126   5.825   3.635   2.978
 7076SOL    HW122127   5.776   3.548   2.989
 7076SOL    HW222128   5.783   3.704   3.036
 7077SOL     OW22129   2.608   4.977   1.344
 7077SOL    HW122130   2.582   4.944   1.435
 7077SOL    HW222131   2.582   5.073   1.335
 7078SOL     OW22132   5.320   6.828   0.702
 7078SOL    HW122133   5.222   6.842   0.685
 7078SOL    HW222134   5.371   6.900   0.656
 7079SOL     OW22135   0.799   6.975   4.392
 7079SOL    HW122136   0.786   6.917   4.312
 7079SOL    HW222137   0.722   6.963   4.455
 7080SOL     OW22138   3.670   1.978   5.302
 7080SOL    HW122139   3.684   1.995   5.205
 7080SOL    HW222140   3.581   1.935   5.316
 7081SOL     OW22141   1.529   0.819   6.748
 7081SOL    HW122142   1.623   0.816   6.781
 7081SOL    HW222143   1.490   0.909   6.765
 7082SOL     OW22144   6.695   4.071   2.585
 7082SOL    HW122145   6.751   4.108   2.511
 7082SOL    HW222146   6.754   4.029   2.654
 7083SOL     OW22147   6.622   3.417   2.170
 7083SOL    HW122148   6.579   3.480   2.234
 7083SOL    HW222149   6.706   3.458   2.134
 7084SOL     OW22150   0.906   6.021   0.253
 7084SOL    HW122151   0.818   5.980   0.232
 7084SOL    HW222152   0.902   6.066   0.343
 7085SOL     OW22153   0.496   3.025   2.485
 7085SOL    HW122154   0.434   2.950   2.510
 7085SOL    HW222155   0.521   3.076   2.568
 7086SOL     OW22156   5.487   0.797   5.235
 7086SOL    HW122157   5.484   0.834   5.328
 7086SOL    HW222158   5.555   0.723   5.232
 7087SOL     OW22159   5.506   3.139   3.706
 7087SOL    HW122160   5.577   3.207   3.691
 7087SOL    HW222161   5.419   3.173   3.669
 7088SOL     OW22162   5.740   1.950   4.901
 7088SOL    HW122163   5.730   1.852   4.886
 7088SOL    HW222164   5.650   1.994   4.900
 7089SOL     OW22165   3.695   5.337   1.931
 7089SOL    HW122166   3.685   5.278   2.012
 7089SOL    HW222167   3.612   5.331   1.876
 7090SOL     OW22168   3.915   2.026   1.292
 7090SOL    HW122169   3.872   2.106   1.333
 7090SOL    HW222170   3.942   2.048   1.198
 7091SOL     OW22171   0.440   6.753   6.809
 7091SOL    HW122172   0.509   6.706   6.753
 7091SOL    HW222173   0.487   6.814   6.874
 7092SOL     OW22174   4.745   2.298   6.558
 7092SOL    HW122175   4.658   2.248   6.554
 7092SOL    HW222176   4.733   2.381   6.613
 7093SOL     OW22177   3.163   4.342   0.825
 7093SOL    HW122178   3.167   4.256   0.774
 7093SOL    HW222179   3.142   4.417   0.762
 7094SOL     OW22180   2.150   6.752   5.714
 7094SOL    HW122181   2.077   6.699   5.759
 7094SOL    HW222182   2.136   6.849   5.732
 7095SOL     OW22183   2.929   4.327   5.621
 7095SOL    HW122184   2.889   4.417   5.603
 7095SOL    HW222185   2.930   4.274   5.536
 7096SOL     OW22186   0.062   0.890   0.913
 7096SOL    HW122187   0.016   0.854   0.832
 7096SOL    HW222188   0.160   0.899   0.895
 7097SOL     OW22189   5.012   0.726   1.566
 7097SOL    HW122190   5.040   0.769   1.652
 7097SOL    HW222191   5.007   0.795   1.494
 7098SOL     OW22192   0.449   0.020   4.684
 7098SOL    HW122193   0.526   0.082   4.668
 7098SOL    HW222194   0.460   6.998   4.773
 7099SOL     OW22195   2.698   2.426   3.911
 7099SOL    HW122196   2.660   2.464   3.995
 7099SOL    HW222197   2.706   2.499   3.842
 7100SOL     OW22198   6.510   3.641   0.962
 7100SOL    HW122199   6.606   3.640   0.990
 7100SOL    HW222200   6.459   3.704   1.020
 7101SOL     OW22201   2.257   6.483   5.295
 7101SOL    HW122202   2.280   6.399   5.245
 7101SOL    HW222203   2.338   6.514   5.345
 7102SOL     OW22204   5.569   0.618   1.170
 7102SOL    HW122205   5.656   0.572   1.152
 7102SOL    HW222206   5.560   0.637   1.268
 7103SOL     OW22207   4.640   4.558   2.916
 7103SOL    HW122208   4.608   4.605   2.998
 7103SOL    HW222209   4.740   4.565   2.911
 7104SOL     OW22210   4.916   3.662   3.559
 7104SOL    HW122211   4.987   3.592   3.556
 7104SOL    HW222212   4.921   3.710   3.647
 7105SOL     OW22213   3.074   4.020   3.713
 7105SOL    HW122214   3.006   4.031   3.786
 7105SOL    HW222215   3.159   4.066   3.739
 7106SOL     OW22216   3.172   3.151   1.288
 7106SOL    HW122217   3.079   3.161   1.252
 7106SOL    HW222218   3.168   3.145   1.388
 7107SOL     OW22219   4.135   0.546   6.998
 7107SOL    HW122220   4.167   0.506   0.062
 7107SOL    HW222221   4.159   0.643   6.996
 7108SOL     OW22222   3.186   6.943   2.779
 7108SOL    HW122223   3.218   7.019   2.836
 7108SOL    HW222224   3.264   6.886   2.753
 7109SOL     OW22225   1.956   6.959   5.805
 7109SOL    HW122226   1.950   6.937   5.902
 7109SOL    HW222227   2.046   6.998   5.785
 7110SOL     OW22228   3.434   5.966   4.977
 7110SOL    HW122229   3.458   5.996   5.070
 7110SOL    HW222230   3.378   5.883   4.982
 7111SOL     OW22231   0.254   0.592   3.842
 7111SOL    HW122232   0.336   0.553   3.883
 7111SOL    HW222233   0.204   0.644   3.911
 7112SOL     OW22234   1.693   5.003   4.613
 7112SOL    HW122235   1.762   5.073   4.596
 7112SOL    HW222236   1.610   5.045   4.651
 7113SOL     OW22237   3.245   4.820   5.176
 7113SOL    HW122238   3.215   4.882   5.103
 7113SOL    HW222239   3.170   4.760   5.202
 7114SOL     OW22240   4.696   5.070   6.921
 7114SOL    HW122241   4.629   5.132   6.962
 7114SOL    HW222242   4.779   5.069   6.976
 7115SOL     OW22243   6.284   4.635   0.222
 7115SOL    HW122244   6.191   4.632   0.258
 7115SOL    HW222245   6.337   4.702   0.274
 7116SOL     OW22246   6.819   3.401   4.474
 7116SOL    HW122247   6.862   3.322   4.519
 7116SOL    HW222248   6.863   3.416   4.385
 7117SOL     OW22249   6.075   6.932   3.125
 7117SOL    HW122250   6.160   6.900   3.166
 7117SOL    HW222251   6.000   6.870   3.149
 7118SOL     OW22252   4.191   4.445   5.645
 7118SOL    HW122253   4.161   4.457   5.551
 7118SOL    HW222254   4.211   4.535   5.685
 7119SOL     OW22255   4.360   7.019   4.917
 7119SOL    HW122256   4.282   0.058   4.919
 7119SOL    HW222257   4.436   0.040   4.869
 7120SOL     OW22258   5.205   1.179   1.143
 7120SOL    HW122259   5.213   1.203   1.240
 7120SOL    HW222260   5.240   1.255   1.087
 7121SOL     OW22261   0.972   5.941   2.970
 7121SOL    HW122262   0.875   5.966   2.963
 7121SOL    HW222263   1.008   5.971   3.058
 7122SOL     OW22264   2.756   0.434   6.386
 7122SOL    HW122265   2.811   0.514   6.358
 7122SOL    HW222266   2.747   0.372   6.308
 7123SOL     OW22267   5.495   5.312   5.931
 7123SOL    HW122268   5.467   5.395   5.978
 7123SOL    HW222269   5.585   5.284   5.965
 7124SOL     OW22270   0.989   2.000   1.674
 7124SOL    HW122271   1.033   2.010   1.585
 7124SOL    HW222272   0.942   2.084   1.699
 7125SOL     OW22273   1.125   0.128   1.153
 7125SOL    HW122274   1.188   0.204   1.168
 7125SOL    HW222275   1.159   0.047   1.200
 7126SOL     OW22276   4.129   5.852   1.340
 7126SOL    HW122277   4.114   5.788   1.265
 7126SOL    HW222278   4.228   5.859   1.358
 7127SOL     OW22279   3.110   6.350   5.399
 7127SOL    HW122280   3.108   6.438   5.446
 7127SOL    HW222281   3.045   6.351   5.323
 7128SOL     OW22282   4.000   4.404   6.380
 7128SOL    HW122283   3.987   4.325   6.441
 7128SOL    HW222284   3.929   4.403   6.309
 7129SOL     OW22285   0.335   0.227   0.870
 7129SOL    HW122286   0.265   0.258   0.806
 7129SOL    HW222287   0.419   0.279   0.857
 7130SOL     OW22288   3.630   6.528   4.206
 7130SOL    HW122289   3.640   6.428   4.199
 7130SOL    HW222290   3.553   6.557   4.149
 7131SOL     OW22291   3.901   0.943   2.260
 7131SOL    HW122292   3.965   0.984   2.325
 7131SOL    HW222293   3.913   0.985   2.170
 7132SOL     OW22294   5.305   4.026   0.334
 7132SOL    HW122295   5.270   3.965   0.406
 7132SOL    HW222296   5.377   4.084   0.373
 7133SOL     OW22297   3.502   5.935   3.470
 7133SOL    HW122298   3.406   5.928   3.443
 7133SOL    HW222299   3.530   5.852   3.518
 7134SOL     OW22300   5.748   5.233   1.233
 7134SOL    HW122301   5.701   5.177   1.165
 7134SOL    HW222302   5.826   5.182   1.269
 7135SOL     OW22303   2.266   3.029   1.734
 7135SOL    HW122304   2.187   3.089   1.748
 7135SOL    HW222305   2.237   2.948   1.683
 7136SOL     OW22306   2.720   1.274   1.931
 7136SOL    HW122307   2.648   1.341   1.912
 7136SOL    HW222308   2.689   1.209   2.000
 7137SOL     OW22309   2.639   1.878   1.580
 7137SOL    HW122310   2.645   1.978   1.589
 7137SOL    HW222311   2.593   1.855   1.494
 7138SOL     OW22312   1.489   2.356   0.684
 7138SOL    HW122313   1.519   2.446   0.652
 7138SOL    HW222314   1.404   2.365   0.735
 7139SOL     OW22315   6.185   5.970   1.322
 7139SOL    HW122316   6.254   5.899   1.331
 7139SOL    HW222317   6.224   6.049   1.274
 7140SOL     OW22318   6.609   3.042   0.811
 7140SOL    HW122319   6.557   3.091   0.741
 7140SOL    HW222320   6.559   2.959   0.838
 7141SOL     OW22321   4.116   0.042   1.342
 7141SOL    HW122322   4.062   0.072   1.421
 7141SOL    HW222323   4.150   0.121   1.292
 7142SOL     OW22324   2.933   0.492   4.903
 7142SOL    HW122325   2.952   0.395   4.889
 7142SOL    HW222326   2.994   0.528   4.974
 7143SOL     OW22327   2.419   4.594   6.889
 7143SOL    HW122328   2.399   4.608   6.792
 7143SOL    HW222329   2.467   4.506   6.901
 7144SOL     OW22330   6.473   0.432   5.265
 7144SOL    HW122331   6.436   0.509   5.317
 7144SOL    HW222332   6.501   0.463   5.174
 7145SOL     OW22333   4.953   2.209   6.386
 7145SOL    HW122334   4.947   2.109   6.383
 7145SOL    HW222335   4.883   2.244   6.448
 7146SOL     OW22336   1.536   1.312   5.275
 7146SOL    HW122337   1.440   1.314   5.249
 7146SOL    HW222338   1.558   1.223   5.315
 7147SOL     OW22339   5.825   5.512   1.883
 7147SOL    HW122340   5.856   5.549   1.971
 7147SOL    HW222341   5.750   5.567   1.848
 7148SOL     OW22342   0.096   6.391   1.246
 7148SOL    HW122343   0.049   6.423   1.163
 7148SOL    HW222344   0.114   6.469   1.305
 7149SOL     OW22345   6.447   5.038   4.303
 7149SOL    HW122346   6.538   5.032   4.343
 7149SOL    HW222347   6.405   5.125   4.330
 7150SOL     OW22348   4.195   3.602   6.846
 7150SOL    HW122349   4.238   3.654   6.919
 7150SOL    HW222350   4.229   3.634   6.757
 7151SOL     OW22351   3.971   0.857   1.029
 7151SOL    HW122352   3.986   0.843   1.127
 7151SOL    HW222353   3.885   0.906   1.014
 7152SOL     OW22354   6.890   1.723   6.428
 7152SOL    HW122355   6.887   1.647   6.493
 7152SOL    HW222356   6.796   1.754   6.409
 7153SOL     OW22357   3.881   6.227   1.209
 7153SOL    HW122358   3.948   6.285   1.255
 7153SOL    HW222359   3.790   6.245   1.246
 7154SOL     OW22360   4.060   1.635   1.688
 7154SOL    HW122361   4.035   1.694   1.611
 7154SOL    HW222362   3.987   1.636   1.756
 7155SOL     OW22363   2.387   1.177   2.393
 7155SOL    HW122364   2.461   1.206   2.455
 7155SOL    HW222365   2.300   1.181   2.442
 7156SOL     OW22366   6.209   4.298   0.290
 7156SOL    HW122367   6.209   4.398   0.289
 7156SOL    HW222368   6.299   4.264   0.262
 7157SOL     OW22369   6.059   4.630   6.758
 7157SOL    HW122370   6.013   4.717   6.776
 7157SOL    HW222371   6.136   4.620   6.821
 7158SOL     OW22372   4.738   6.956   3.864
 7158SOL    HW122373   4.750   7.006   3.949
 7158SOL    HW222374   4.721   6.859   3.884
 7159SOL     OW22375   0.747   6.007   3.426
 7159SOL    HW122376   0.724   6.053   3.512
 7159SOL    HW222377   0.745   5.908   3.439
 7160SOL     OW22378   6.253   6.687   3.093
 7160SOL    HW122379   6.179   6.672   3.027
 7160SOL    HW222380   6.269   6.602   3.145
 7161SOL     OW22381   4.148   3.364   3.645
 7161SOL    HW122382   4.062   3.410   3.671
 7161SOL    HW222383   4.128   3.293   3.578
 7162SOL     OW22384   7.021   5.298   2.201
 7162SOL    HW122385   0.006   5.396   2.182
 7162SOL    HW222386   6.960   5.255   2.134
 7163SOL     OW22387   1.139   1.401   2.292
 7163SOL    HW122388   1.236   1.423   2.302
 7163SOL    HW222389   1.095   1.401   2.382
 7164SOL     OW22390   1.891   0.998   6.622
 7164SOL    HW122391   1.866   1.095   6.625
 7164SOL    HW222392   1.904   0.964   6.715
 7165SOL     OW22393   6.098   0.889   0.222
 7165SOL    HW122394   6.024   0.875   0.156
 7165SOL    HW222395   6.063   0.941   0.300
 7166SOL     OW22396   5.912   6.201   6.054
 7166SOL    HW122397   5.900   6.211   6.153
 7166SOL    HW222398   5.984   6.134   6.036
 7167SOL     OW22399   5.779   2.415   4.869
 7167SOL    HW122400   5.722   2.400   4.950
 7167SOL    HW222401   5.824   2.504   4.876
 7168SOL     OW22402   2.699   0.767   1.997
 7168SOL    HW122403   2.793   0.770   1.962
 7168SOL    HW222404   2.701   0.763   2.097
 7169SOL     OW22405   1.526   4.453   6.438
 7169SOL    HW122406   1.611   4.427   6.485
 7169SOL    HW222407   1.496   4.543   6.470
 7170SOL     OW22408   3.848   1.338   1.743
 7170SOL    HW122409   3.928   1.357   1.687
 7170SOL    HW222410   3.768   1.380   1.702
 7171SOL     OW22411   6.641   4.446   0.417
 7171SOL    HW122412   6.576   4.409   0.484
 7171SOL    HW222413   6.729   4.460   0.461
 7172SOL     OW22414   1.287   1.395   4.112
 7172SOL    HW122415   1.298   1.488   4.146
 7172SOL    HW222416   1.275   1.396   4.013
 7173SOL     OW22417   5.013   6.087   6.072
 7173SOL    HW122418   4.966   6.173   6.056
 7173SOL    HW222419   5.001   6.027   5.992
 7174SOL     OW22420   6.168   4.777   1.992
 7174SOL    HW122421   6.177   4.730   2.080
 7174SOL    HW222422   6.152   4.709   1.920
 7175SOL     OW22423   5.388   3.643   6.108
 7175SOL    HW122424   5.351   3.725   6.152
 7175SOL    HW222425   5.382   3.654   6.009
 7176SOL     OW22426   0.418   0.549   5.552
 7176SOL    HW122427   0.492   0.615   5.560
 7176SOL    HW222428   0.380   0.531   5.643
 7177SOL     OW22429   1.526   4.838   4.149
 7177SOL    HW122430   1.579   4.923   4.152
 7177SOL    HW222431   1.576   4.766   4.197
 7178SOL     OW22432   1.623   1.063   5.379
 7178SOL    HW122433   1.658   1.057   5.473
 7178SOL    HW222434   1.586   0.974   5.351
 7179SOL     OW22435   3.720   6.080   6.561
 7179SOL    HW122436   3.704   5.984   6.537
 7179SOL    HW222437   3.790   6.118   6.499
 7180SOL     OW22438   1.220   4.149   0.901
 7180SOL    HW122439   1.318   4.137   0.887
 7180SOL    HW222440   1.189   4.228   0.849
 7181SOL     OW22441   2.254   1.450   6.193
 7181SOL    HW122442   2.343   1.479   6.228
 7181SOL    HW222443   2.207   1.529   6.154
 7182SOL     OW22444   1.273   2.933   4.225
 7182SOL    HW122445   1.289   2.969   4.317
 7182SOL    HW222446   1.316   2.843   4.216
 7183SOL     OW22447   0.601   6.480   1.944
 7183SOL    HW122448   0.571   6.533   1.865
 7183SOL    HW222449   0.587   6.382   1.926
 7184SOL     OW22450   6.641   0.200   3.453
 7184SOL    HW122451   6.619   0.165   3.362
 7184SOL    HW222452   6.668   0.296   3.446
 7185SOL     OW22453   4.771   0.863   4.640
 7185SOL    HW122454   4.718   0.907   4.568
 7185SOL    HW222455   4.861   0.907   4.647
 7186SOL     OW22456   0.081   0.027   6.532
 7186SOL    HW122457   0.027   6.990   6.593
 7186SOL    HW222458   0.172   0.040   6.571
 7187SOL     OW22459   3.243   2.931   4.179
 7187SOL    HW122460   3.178   2.935   4.254
 7187SOL    HW222461   3.198   2.963   4.095
 7188SOL     OW22462   4.148   4.423   7.004
 7188SOL    HW122463   4.221   4.356   7.017
 7188SOL    HW222464   4.073   4.382   6.953
 7189SOL     OW22465   6.162   2.855   5.707
 7189SOL    HW122466   6.092   2.813   5.765
 7189SOL    HW222467   6.249   2.854   5.755
 7190SOL     OW22468   5.797   5.491   1.176
 7190SOL    HW122469   5.765   5.400   1.203
 7190SOL    HW222470   5.748   5.521   1.094
 7191SOL     OW22471   0.322   4.245   3.601
 7191SOL    HW122472   0.299   4.179   3.529
 7191SOL    HW222473   0.379   4.200   3.670
 7192SOL     OW22474   1.534   4.603   6.690
 7192SOL    HW122475   1.606   4.537   6.708
 7192SOL    HW222476   1.520   4.660   6.771
 7193SOL     OW22477   2.307   2.522   2.466
 7193SOL    HW122478   2.354   2.560   2.386
 7193SOL    HW222479   2.366   2.530   2.546
 7194SOL     OW22480   2.903   2.465   5.816
 7194SOL    HW122481   2.880   2.456   5.913
 7194SOL    HW222482   2.829   2.426   5.761
 7195SOL     OW22483   0.008   3.608   6.348
 7195SOL    HW122484   6.974   3.541   6.398
 7195SOL    HW222485   6.972   3.662   6.288
 7196SOL     OW22486   3.109   3.621   2.137
 7196SOL    HW122487   3.139   3.644   2.045
 7196SOL    HW222488   3.145   3.688   2.202
 7197SOL     OW22489   2.510   3.694   5.719
 7197SOL    HW122490   2.500   3.600   5.688
 7197SOL    HW222491   2.607   3.718   5.721
 7198SOL     OW22492   6.931   0.801   1.406
 7198SOL    HW122493   6.978   0.851   1.333
 7198SOL    HW222494   6.840   0.841   1.420
 7199SOL     OW22495   0.817   1.074   2.078
 7199SOL    HW122496   0.776   1.013   2.146
 7199SOL    HW222497   0.912   1.092   2.103
 7200SOL     OW22498   1.089   2.430   0.591
 7200SOL    HW122499   1.080   2.332   0.573
 7200SOL    HW222500   1.015   2.459   0.652
 7201SOL     OW22501   5.923   5.547   4.013
 7201SOL    HW122502   5.882   5.457   4.026
 7201SOL    HW222503   5.852   5.617   4.019
 7202SOL     OW22504   4.672   0.362   5.748
 7202SOL    HW122505   4.682   0.445   5.804
 7202SOL    HW222506   4.683   0.385   5.652
 7203SOL     OW22507   0.420   1.774   2.071
 7203SOL    HW122508   0.365   1.857   2.060
 7203SOL    HW222509   0.515   1.793   2.044
 7204SOL     OW22510   6.894   0.543   1.293
 7204SOL    HW122511   6.917   0.620   1.352
 7204SOL    HW222512   6.796   0.524   1.300
 7205SOL     OW22513   2.300   2.073   5.014
 7205SOL    HW122514   2.201   2.069   5.012
 7205SOL    HW222515   2.329   2.166   5.040
 7206SOL     OW22516   1.988   2.622   1.066
 7206SOL    HW122517   1.981   2.537   1.119
 7206SOL    HW222518   1.976   2.700   1.127
 7207SOL     OW22519   1.715   1.896   3.944
 7207SOL    HW122520   1.724   1.889   3.845
 7207SOL    HW222521   1.688   1.807   3.981
 7208SOL     OW22522   2.879   0.470   4.282
 7208SOL    HW122523   2.875   0.392   4.220
 7208SOL    HW222524   2.797   0.526   4.272
 7209SOL     OW22525   2.772   1.373   2.244
 7209SOL    HW122526   2.867   1.401   2.254
 7209SOL    HW222527   2.768   1.288   2.191
 7210SOL     OW22528   2.744   1.173   3.258
 7210SOL    HW122529   2.778   1.083   3.231
 7210SOL    HW222530   2.820   1.238   3.259
 7211SOL     OW22531   3.285   5.638   5.146
 7211SOL    HW122532   3.334   5.702   5.207
 7211SOL    HW222533   3.351   5.573   5.107
 7212SOL     OW22534   5.990   4.712   6.071
 7212SOL    HW122535   5.893   4.694   6.088
 7212SOL    HW222536   6.035   4.626   6.044
 7213SOL     OW22537   3.720   1.074   1.055
 7213SOL    HW122538   3.794   1.137   1.077
 7213SOL    HW222539   3.643   1.125   1.018
 7214SOL     OW22540   6.842   1.516   6.612
 7214SOL    HW122541   6.766   1.461   6.578
 7214SOL    HW222542   6.905   1.458   6.664
 7215SOL     OW22543   6.311   2.837   2.791
 7215SOL    HW122544   6.285   2.801   2.880
 7215SOL    HW222545   6.364   2.769   2.740
 7216SOL     OW22546   3.166   5.942   2.732
 7216SOL    HW122547   3.239   6.001   2.698
 7216SOL    HW222548   3.078   5.975   2.697
 7217SOL     OW22549   1.314   4.343   3.390
 7217SOL    HW122550   1.263   4.358   3.305
 7217SOL    HW222551   1.338   4.247   3.398
 7218SOL     OW22552   5.989   3.835   4.272
 7218SOL    HW122553   6.042   3.786   4.203
 7218SOL    HW222554   6.002   3.933   4.261
 7219SOL     OW22555   3.784   5.977   1.971
 7219SOL    HW122556   3.779   6.049   2.040
 7219SOL    HW222557   3.858   5.997   1.907
 7220SOL     OW22558   6.166   4.913   4.283
 7220SOL    HW122559   6.205   4.843   4.343
 7220SOL    HW222560   6.216   4.999   4.295
 7221SOL     OW22561   3.403   5.800   5.357
 7221SOL    HW122562   3.401   5.900   5.352
 7221SOL    HW222563   3.489   5.771   5.398
 7222SOL     OW22564   6.721   6.941   4.202
 7222SOL    HW122565   6.809   6.952   4.246
 7222SOL    HW222566   6.719   6.854   4.152
 7223SOL     OW22567   1.249   2.258   0.803
 7223SOL    HW122568   1.206   2.272   0.714
 7223SOL    HW222569   1.209   2.319   0.870
 7224SOL     OW22570   4.169   2.213   3.544
 7224SOL    HW122571   4.227   2.164   3.480
 7224SOL    HW222572   4.073   2.189   3.528
 7225SOL     OW22573   1.454   0.085   1.020
 7225SOL    HW122574   1.413   0.147   1.087
 7225SOL    HW222575   1.431   0.115   0.928
 7226SOL     OW22576   6.116   0.017   7.016
 7226SOL    HW122577   6.133   6.966   6.951
 7226SOL    HW222578   6.032   0.065   6.992
 7227SOL     OW22579   3.095   1.093   2.042
 7227SOL    HW122580   3.188   1.130   2.035
 7227SOL    HW222581   3.033   1.149   1.987
 7228SOL     OW22582   0.684   2.940   2.302
 7228SOL    HW122583   0.631   2.965   2.383
 7228SOL    HW222584   0.631   2.962   2.220
 7229SOL     OW22585   6.887   0.238   4.925
 7229SOL    HW122586   6.816   0.270   4.862
 7229SOL    HW222587   6.927   0.154   4.889
 7230SOL     OW22588   2.307   5.169   4.298
 7230SOL    HW122589   2.364   5.194   4.220
 7230SOL    HW222590   2.364   5.127   4.368
 7231SOL     OW22591   4.747   1.416   6.887
 7231SOL    HW122592   4.667   1.467   6.917
 7231SOL    HW222593   4.754   1.420   6.787
 7232SOL     OW22594   5.676   6.661   2.987
 7232SOL    HW122595   5.621   6.700   2.913
 7232SOL    HW222596   5.759   6.620   2.948
 7233SOL     OW22597   6.235   1.084   5.212
 7233SOL    HW122598   6.220   0.992   5.176
 7233SOL    HW222599   6.210   1.152   5.143
 7234SOL     OW22600   5.118   3.873   2.626
 7234SOL    HW122601   5.083   3.966   2.630
 7234SOL    HW222602   5.050   3.810   2.663
 7235SOL     OW22603   6.655   5.757   1.333
 7235SOL    HW122604   6.716   5.723   1.262
 7235SOL    HW222605   6.643   5.688   1.404
 7236SOL     OW22606   2.594   2.424   3.409
 7236SOL    HW122607   2.656   2.384   3.476
 7236SOL    HW222608   2.603   2.376   3.322
 7237SOL     OW22609   5.188   0.272   0.058
 7237SOL    HW122610   5.172   0.370   0.044
 7237SOL    HW222611   5.243   0.259   0.140
 7238SOL     OW22612   4.531   3.464   0.162
 7238SOL    HW122613   4.578   3.499   0.080
 7238SOL    HW222614   4.569   3.508   0.243
 7239SOL     OW22615   0.840   3.497   2.360
 7239SOL    HW122616   0.835   3.408   2.405
 7239SOL    HW222617   0.754   3.547   2.373
 7240SOL     OW22618   6.371   1.565   5.842
 7240SOL    HW122619   6.339   1.604   5.928
 7240SOL    HW222620   6.296   1.563   5.776
 7241SOL     OW22621   2.627   1.237   1.566
 7241SOL    HW122622   2.610   1.162   1.629
 7241SOL    HW222623   2.612   1.206   1.472
 7242SOL     OW22624   0.460   5.259   3.991
 7242SOL    HW122625   0.496   5.321   3.921
 7242SOL    HW222626   0.502   5.169   3.980
 7243SOL     OW22627   6.210   4.084   6.147
 7243SOL    HW122628   6.137   4.138   6.106
 7243SOL    HW222629   6.279   4.146   6.185
 7244SOL     OW22630   0.557   6.240   6.900
 7244SOL    HW122631   0.476   6.233   6.842
 7244SOL    HW222632   0.638   6.252   6.843
 7245SOL     OW22633   1.821   2.494   6.466
 7245SOL    HW122634   1.838   2.590   6.489
 7245SOL    HW222635   1.827   2.481   6.367
 7246SOL     OW22636   2.564   0.266   3.949
 7246SOL    HW122637   2.644   0.311   3.909
 7246SOL    HW222638   2.587   0.234   4.041
 7247SOL     OW22639   2.721   2.537   5.566
 7247SOL    HW122640   2.734   2.623   5.517
 7247SOL    HW222641   2.682   2.555   5.656
 7248SOL     OW22642   3.208   0.547   4.645
 7248SOL    HW122643   3.210   0.461   4.595
 7248SOL    HW222644   3.211   0.623   4.579
 7249SOL     OW22645   3.879   5.135   1.776
 7249SOL    HW122646   3.803   5.191   1.808
 7249SOL    HW222647   3.878   5.046   1.822
 7250SOL     OW22648   5.209   5.840   5.554
 7250SOL    HW122649   5.282   5.816   5.617
 7250SOL    HW222650   5.203   5.772   5.481
 7251SOL     OW22651   0.545   6.106   5.218
 7251SOL    HW122652   0.625   6.083   5.274
 7251SOL    HW222653   0.572   6.168   5.144
 7252SOL     OW22654   3.039   3.942   2.232
 7252SOL    HW122655   3.067   3.991   2.315
 7252SOL    HW222656   2.956   3.889   2.250
 7253SOL     OW22657   1.066   5.847   5.501
 7253SOL    HW122658   1.158   5.861   5.464
 7253SOL    HW222659   1.062   5.759   5.548
 7254SOL     OW22660   5.285   4.635   4.039
 7254SOL    HW122661   5.214   4.617   4.106
 7254SOL    HW222662   5.299   4.554   3.982
 7255SOL     OW22663   5.324   2.820   6.675
 7255SOL    HW122664   5.271   2.746   6.717
 7255SOL    HW222665   5.261   2.889   6.638
 7256SOL     OW22666   3.672   6.893   6.152
 7256SOL    HW122667   3.618   6.957   6.097
 7256SOL    HW222668   3.653   6.908   6.249
 7257SOL     OW22669   0.468   1.725   4.613
 7257SOL    HW122670   0.481   1.817   4.574
 7257SOL    HW222671   0.551   1.672   4.599
 7258SOL     OW22672   6.064   2.258   2.657
 7258SOL    HW122673   6.148   2.297   2.695
 7258SOL    HW222674   6.028   2.189   2.719
 7259SOL     OW22675   1.029   3.512   3.292
 7259SOL    HW122676   0.988   3.462   3.368
 7259SOL    HW222677   1.006   3.609   3.298
 7260SOL     OW22678   5.428   2.616   0.646
 7260SOL    HW122679   5.402   2.520   0.656
 7260SOL    HW222680   5.398   2.668   0.727
 7261SOL     OW22681   0.291   4.093   0.568
 7261SOL    HW122682   0.360   4.090   0.495
 7261SOL    HW222683   0.320   4.156   0.640
 7262SOL     OW22684   5.518   1.783   5.801
 7262SOL    HW122685   5.461   1.731   5.863
 7262SOL    HW222686   5.537   1.728   5.719
 7263SOL     OW22687   0.193   6.470   0.343
 7263SOL    HW122688   0.173   6.558   0.386
 7263SOL    HW222689   0.217   6.485   0.247
 7264SOL     OW22690   5.628   1.513   0.219
 7264SOL    HW122691   5.674   1.583   0.274
 7264SOL    HW222692   5.605   1.435   0.277
 7265SOL     OW22693   4.971   6.051   4.618
 7265SOL    HW122694   4.949   6.103   4.535
 7265SOL    HW222695   4.905   6.074   4.690
 7266SOL     OW22696   0.107   0.725   4.025
 7266SOL    HW122697   0.017   0.768   4.028
 7266SOL    HW222698   0.134   0.699   4.118
 7267SOL     OW22699   6.712   6.151   5.189
 7267SOL    HW122700   6.637   6.210   5.221
 7267SOL    HW222701   6.688   6.112   5.100
 7268SOL     OW22702   6.125   6.014   4.448
 7268SOL    HW122703   6.029   6.006   4.477
 7268SOL    HW222704   6.172   6.080   4.507
 7269SOL     OW22705   2.083   5.135   5.712
 7269SOL    HW122706   2.085   5.038   5.688
 7269SOL    HW222707   2.154   5.154   5.780
 7270SOL     OW22708   0.435   1.500   4.287
 7270SOL    HW122709   0.388   1.417   4.316
 7270SOL    HW222710   0.511   1.518   4.348
 7271SOL     OW22711   0.719   4.970   4.293
 7271SOL    HW122712   0.674   4.896   4.341
 7271SOL    HW222713   0.811   4.941   4.265
 7272SOL     OW22714   5.902   6.281   2.044
 7272SOL    HW122715   5.900   6.340   2.124
 7272SOL    HW222716   5.961   6.203   2.062
 7273SOL     OW22717   6.222   3.086   5.873
 7273SOL    HW122718   6.234   3.091   5.773
 7273SOL    HW222719   6.306   3.050   5.914
 7274SOL     OW22720   0.541   4.130   0.050
 7274SOL    HW122721   0.614   4.191   0.080
 7274SOL    HW222722   0.473   4.182   7.021
 7275SOL     OW22723   6.809   0.032   3.105
 7275SOL    HW122724   6.760   6.973   3.136
 7275SOL    HW222725   6.775   0.060   3.015
 7276SOL     OW22726   5.365   6.914   3.356
 7276SOL    HW122727   5.402   6.936   3.265
 7276SOL    HW222728   5.277   6.868   3.346
 7277SOL     OW22729   4.197   1.047   5.372
 7277SOL    HW122730   4.218   1.127   5.315
 7277SOL    HW222731   4.140   1.075   5.449
 7278SOL     OW22732   3.032   4.027   1.943
 7278SOL    HW122733   3.019   4.100   1.876
 7278SOL    HW222734   3.006   4.060   2.034
 7279SOL     OW22735   4.130   6.062   0.319
 7279SOL    HW122736   4.060   6.098   0.380
 7279SOL    HW222737   4.155   5.970   0.349
 7280SOL     OW22738   4.873   6.662   4.827
 7280SOL    HW122739   4.939   6.644   4.901
 7280SOL    HW222740   4.920   6.661   4.739
 7281SOL     OW22741   3.686   2.308   6.448
 7281SOL    HW122742   3.708   2.405   6.458
 7281SOL    HW222743   3.719   2.258   6.529
 7282SOL     OW22744   5.548   5.401   2.754
 7282SOL    HW122745   5.486   5.381   2.678
 7282SOL    HW222746   5.495   5.430   2.833
 7283SOL     OW22747   2.823   1.088   2.893
 7283SOL    HW122748   2.796   1.014   2.831
 7283SOL    HW222749   2.919   1.113   2.876
 7284SOL     OW22750   6.576   3.748   5.551
 7284SOL    HW122751   6.583   3.798   5.465
 7284SOL    HW222752   6.491   3.696   5.553
 7285SOL     OW22753   4.485   5.095   2.381
 7285SOL    HW122754   4.386   5.114   2.381
 7285SOL    HW222755   4.515   5.078   2.475
 7286SOL     OW22756   2.300   2.403   1.232
 7286SOL    HW122757   2.237   2.401   1.154
 7286SOL    HW222758   2.257   2.453   1.307
 7287SOL     OW22759   6.639   1.443   6.796
 7287SOL    HW122760   6.624   1.345   6.811
 7287SOL    HW222761   6.733   1.467   6.820
 7288SOL     OW22762   3.899   0.781   6.324
 7288SOL    HW122763   3.913   0.869   6.371
 7288SOL    HW222764   3.878   0.798   6.228
 7289SOL     OW22765   5.849   1.191   3.190
 7289SOL    HW122766   5.919   1.151   3.132
 7289SOL    HW222767   5.884   1.203   3.283
 7290SOL     OW22768   2.663   5.528   5.587
 7290SOL    HW122769   2.673   5.603   5.521
 7290SOL    HW222770   2.567   5.502   5.592
 7291SOL     OW22771   1.808   6.768   1.470
 7291SOL    HW122772   1.749   6.849   1.466
 7291SOL    HW222773   1.872   6.770   1.394
 7292SOL     OW22774   2.868   6.703   3.199
 7292SOL    HW122775   2.926   6.684   3.278
 7292SOL    HW222776   2.869   6.624   3.138
 7293SOL     OW22777   1.880   1.486   4.928
 7293SOL    HW122778   1.833   1.563   4.887
 7293SOL    HW222779   1.869   1.405   4.870
 7294SOL     OW22780   2.644   5.470   0.344
 7294SOL    HW122781   2.703   5.390   0.334
 7294SOL    HW222782   2.667   5.537   0.273
 7295SOL     OW22783   0.623   1.941   0.387
 7295SOL    HW122784   0.549   1.916   0.449
 7295SOL    HW222785   0.587   2.001   0.315
 7296SOL     OW22786   3.167   5.111   0.950
 7296SOL    HW122787   3.184   5.203   0.915
 7296SOL    HW222788   3.206   5.103   1.041
 7297SOL     OW22789   3.944   5.888   0.494
 7297SOL    HW122790   3.865   5.905   0.435
 7297SOL    HW222791   3.954   5.963   0.559
 7298SOL     OW22792   5.517   4.466   4.847
 7298SOL    HW122793   5.601   4.506   4.881
 7298SOL    HW222794   5.461   4.537   4.803
 7299SOL     OW22795   0.229   2.229   0.003
 7299SOL    HW122796   0.319   2.268   0.023
 7299SOL    HW222797   0.158   2.286   0.044
 7300SOL     OW22798   5.200   5.594   1.172
 7300SOL    HW122799   5.174   5.529   1.101
 7300SOL    HW222800   5.118   5.634   1.214
 7301SOL     OW22801   6.763   0.445   5.320
 7301SOL    HW122802   6.669   0.425   5.344
 7301SOL    HW222803   6.769   0.538   5.281
 7302SOL     OW22804   0.099   1.599   6.998
 7302SOL    HW122805   0.118   1.682   0.028
 7302SOL    HW222806   0.002   1.594   6.978
 7303SOL     OW22807   4.904   0.487   6.947
 7303SOL    HW122808   4.968   0.458   6.876
 7303SOL    HW222809   4.866   0.577   6.923
 7304SOL     OW22810   3.956   4.233   6.807
 7304SOL    HW122811   3.974   4.324   6.769
 7304SOL    HW222812   3.903   4.179   6.742
 7305SOL     OW22813   5.229   1.774   0.072
 7305SOL    HW122814   5.227   1.674   0.071
 7305SOL    HW222815   5.321   1.806   0.093
 7306SOL     OW22816   5.072   3.651   1.713
 7306SOL    HW122817   4.998   3.681   1.774
 7306SOL    HW222818   5.141   3.602   1.766
 7307SOL     OW22819   2.784   6.645   1.728
 7307SOL    HW122820   2.866   6.673   1.678
 7307SOL    HW222821   2.782   6.546   1.737
 7308SOL     OW22822   6.899   3.502   5.156
 7308SOL    HW122823   6.982   3.545   5.121
 7308SOL    HW222824   6.904   3.403   5.142
 7309SOL     OW22825   4.807   5.931   0.595
 7309SOL    HW122826   4.867   5.990   0.541
 7309SOL    HW222827   4.779   5.852   0.539
 7310SOL     OW22828   2.086   4.946   0.837
 7310SOL    HW122829   2.119   4.955   0.931
 7310SOL    HW222830   2.018   4.872   0.833
 7311SOL     OW22831   3.133   1.636   2.160
 7311SOL    HW122832   3.075   1.556   2.142
 7311SOL    HW222833   3.083   1.719   2.137
 7312SOL     OW22834   6.833   2.237   5.402
 7312SOL    HW122835   6.739   2.257   5.431
 7312SOL    HW222836   6.897   2.285   5.461
 7313SOL     OW22837   4.479   2.668   6.078
 7313SOL    HW122838   4.402   2.725   6.051
 7313SOL    HW222839   4.536   2.649   5.999
 7314SOL     OW22840   6.228   3.404   4.860
 7314SOL    HW122841   6.224   3.436   4.955
 7314SOL    HW222842   6.172   3.322   4.851
 7315SOL     OW22843   6.067   0.238   3.938
 7315SOL    HW122844   6.156   0.279   3.956
 7315SOL    HW222845   6.057   0.154   3.991
 7316SOL     OW22846   3.403   3.063   5.331
 7316SOL    HW122847   3.447   3.074   5.420
 7316SOL    HW222848   3.440   3.130   5.267
 7317SOL     OW22849   4.137   0.424   2.278
 7317SOL    HW122850   4.235   0.437   2.268
 7317SOL    HW222851   4.118   0.378   2.366
 7318SOL     OW22852   1.166   1.386   1.420
 7318SOL    HW122853   1.265   1.395   1.433
 7318SOL    HW222854   1.136   1.296   1.451
 7319SOL     OW22855   6.980   4.470   6.980
 7319SOL    HW122856   6.923   4.460   6.898
 7319SOL    HW222857   6.931   4.433   0.036
 7320SOL     OW22858   6.846   3.534   2.002
 7320SOL    HW122859   6.834   3.629   1.971
 7320SOL    HW222860   6.845   3.473   1.923
 7321SOL     OW22861   2.611   0.556   5.167
 7321SOL    HW122862   2.662   0.639   5.191
 7321SOL    HW222863   2.516   0.567   5.194
 7322SOL     OW22864   1.197   3.125   2.538
 7322SOL    HW122865   1.118   3.069   2.563
 7322SOL    HW222866   1.238   3.091   2.454
 7323SOL     OW22867   2.011   1.572   2.642
 7323SOL    HW122868   2.008   1.525   2.730
 7323SOL    HW222869   1.966   1.661   2.651
 7324SOL     OW22870   5.684   0.051   3.056
 7324SOL    HW122871   5.631   0.131   3.029
 7324SOL    HW222872   5.626   7.011   3.107
 7325SOL     OW22873   4.034   0.339   6.166
 7325SOL    HW122874   4.092   0.278   6.219
 7325SOL    HW222875   4.045   0.320   6.068
 7326SOL     OW22876   2.618   6.067   5.443
 7326SOL    HW122877   2.534   6.054   5.389
 7326SOL    HW222878   2.661   5.978   5.458
 7327SOL     OW22879   0.104   2.710   5.541
 7327SOL    HW122880   0.199   2.738   5.556
 7327SOL    HW222881   0.099   2.647   5.464
 7328SOL     OW22882   3.677   0.233   6.955
 7328SOL    HW122883   3.744   0.307   6.963
 7328SOL    HW222884   3.598   0.264   6.903
 7329SOL     OW22885   4.363   4.024   1.322
 7329SOL    HW122886   4.421   4.026   1.404
 7329SOL    HW222887   4.374   3.936   1.276
 7330SOL     OW22888   2.962   1.881   0.278
 7330SOL    HW122889   2.877   1.845   0.239
 7330SOL    HW222890   3.040   1.830   0.239
 7331SOL     OW22891   5.478   0.799   2.131
 7331SOL    HW122892   5.427   0.788   2.216
 7331SOL    HW222893   5.569   0.836   2.151
 7332SOL     OW22894   2.740   5.964   0.124
 7332SOL    HW122895   2.699   6.004   0.042
 7332SOL    HW222896   2.678   5.974   0.201
 7333SOL     OW22897   0.581   3.588   3.886
 7333SOL    HW122898   0.632   3.564   3.803
 7333SOL    HW222899   0.541   3.679   3.876
 7334SOL     OW22900   4.263   5.878   5.698
 7334SOL    HW122901   4.178   5.913   5.737
 7334SOL    HW222902   4.250   5.783   5.670
 7335SOL     OW22903   1.705   2.827   2.379
 7335SOL    HW122904   1.759   2.906   2.350
 7335SOL    HW222905   1.709   2.818   2.479
 7336SOL     OW22906   1.326   6.658   3.281
 7336SOL    HW122907   1.272   6.728   3.234
 7336SOL    HW222908   1.416   6.695   3.302
 7337SOL     OW22909   1.319   2.990   1.895
 7337SOL    HW122910   1.245   3.041   1.853
 7337SOL    HW222911   1.381   3.053   1.943
 7338SOL     OW22912   6.323   2.770   1.128
 7338SOL    HW122913   6.415   2.809   1.125
 7338SOL    HW222914   6.318   2.702   1.202
 7339SOL     OW22915   6.025   6.408   3.906
 7339SOL    HW122916   6.022   6.331   3.969
 7339SOL    HW222917   5.992   6.490   3.952
 7340SOL     OW22918   2.140   0.355   0.682
 7340SOL    HW122919   2.106   0.435   0.732
 7340SOL    HW222920   2.064   0.312   0.632
 7341SOL     OW22921   6.791   2.039   0.147
 7341SOL    HW122922   6.839   1.997   0.070
 7341SOL    HW222923   6.792   2.138   0.138
 7342SOL     OW22924   6.543   6.952   2.312
 7342SOL    HW122925   6.578   7.020   2.376
 7342SOL    HW222926   6.617   6.925   2.249
 7343SOL     OW22927   4.662   2.903   0.276
 7343SOL    HW122928   4.592   2.965   0.238
 7343SOL    HW222929   4.690   2.838   0.205
 7344SOL     OW22930   1.217   6.897   5.763
 7344SOL    HW122931   1.275   6.848   5.698
 7344SOL    HW222932   1.215   6.994   5.739
 7345SOL     OW22933   3.636   3.303   5.405
 7345SOL    HW122934   3.728   3.329   5.378
 7345SOL    HW222935   3.578   3.295   5.324
 7346SOL     OW22936   3.730   6.406   2.921
 7346SOL    HW122937   3.710   6.494   2.964
 7346SOL    HW222938   3.645   6.355   2.909
 7347SOL     OW22939   0.021   2.468   0.101
 7347SOL    HW122940   6.970   2.408   0.135
 7347SOL    HW222941   7.009   2.521   0.024
 7348SOL     OW22942   1.547   3.602   3.836
 7348SOL    HW122943   1.634   3.571   3.797
 7348SOL    HW222944   1.500   3.524   3.877
 7349SOL     OW22945   4.094   0.271   1.187
 7349SOL    HW122946   4.036   0.274   1.105
 7349SOL    HW222947   4.184   0.309   1.166
 7350SOL     OW22948   2.541   0.461   5.674
 7350SOL    HW122949   2.478   0.392   5.637
 7350SOL    HW222950   2.607   0.488   5.604
 7351SOL     OW22951   4.645   4.907   4.034
 7351SOL    HW122952   4.555   4.949   4.020
 7351SOL    HW222953   4.701   4.920   3.953
 7352SOL     OW22954   0.443   1.660   3.334
 7352SOL    HW122955   0.531   1.633   3.295
 7352SOL    HW222956   0.420   1.752   3.304
 7353SOL     OW22957   6.108   0.515   6.517
 7353SOL    HW122958   6.044   0.521   6.440
 7353SOL    HW222959   6.058   0.524   6.603
 7354SOL     OW22960   1.673   0.603   3.927
 7354SOL    HW122961   1.578   0.603   3.896
 7354SOL    HW222962   1.722   0.526   3.885
 7355SOL     OW22963   0.027   2.010   6.216
 7355SOL    HW122964   0.091   1.946   6.257
 7355SOL    HW222965   6.960   2.002   6.261
 7356SOL     OW22966   3.591   3.658   5.882
 7356SOL    HW122967   3.615   3.622   5.791
 7356SOL    HW222968   3.498   3.695   5.879
 7357SOL     OW22969   4.243   6.197   1.196
 7357SOL    HW122970   4.194   6.127   1.248
 7357SOL    HW222971   4.261   6.164   1.104
 7358SOL     OW22972   6.321   2.588   2.101
 7358SOL    HW122973   6.373   2.669   2.071
 7358SOL    HW222974   6.315   2.523   2.025
 7359SOL     OW22975   4.361   1.553   6.170
 7359SOL    HW122976   4.271   1.512   6.157
 7359SOL    HW222977   4.405   1.566   6.081
 7360SOL     OW22978   2.498   3.456   5.599
 7360SOL    HW122979   2.417   3.418   5.553
 7360SOL    HW222980   2.578   3.444   5.540
 7361SOL     OW22981   5.415   0.519   2.360
 7361SOL    HW122982   5.441   0.456   2.432
 7361SOL    HW222983   5.340   0.578   2.392
 7362SOL     OW22984   4.172   4.941   5.651
 7362SOL    HW122985   4.147   5.001   5.575
 7362SOL    HW222986   4.170   4.993   5.736
 7363SOL     OW22987   4.126   1.371   1.672
 7363SOL    HW122988   4.109   1.469   1.683
 7363SOL    HW222989   4.194   1.341   1.739
 7364SOL     OW22990   4.368   6.947   1.784
 7364SOL    HW122991   4.337   6.877   1.720
 7364SOL    HW222992   4.404   6.902   1.867
 7365SOL     OW22993   6.396   5.553   3.240
 7365SOL    HW122994   6.326   5.501   3.191
 7365SOL    HW222995   6.409   5.641   3.195
 7366SOL     OW22996   2.437   0.343   4.450
 7366SOL    HW122997   2.520   0.347   4.394
 7366SOL    HW222998   2.428   0.252   4.491
 7367SOL     OW22999   4.693   1.550   0.226
 7367SOL    HW123000   4.791   1.563   0.236
 7367SOL    HW223001   4.674   1.457   0.195
 7368SOL     OW23002   3.733   3.479   2.692
 7368SOL    HW123003   3.634   3.469   2.700
 7368SOL    HW223004   3.775   3.390   2.677
 7369SOL     OW23005   4.325   2.749   0.784
 7369SOL    HW123006   4.349   2.664   0.831
 7369SOL    HW223007   4.227   2.752   0.768
 7370SOL     OW23008   2.452   1.613   5.093
 7370SOL    HW123009   2.376   1.676   5.081
 7370SOL    HW223010   2.517   1.650   5.159
 7371SOL     OW23011   3.425   6.887   3.631
 7371SOL    HW123012   3.422   6.913   3.727
 7371SOL    HW223013   3.492   6.813   3.620
 7372SOL     OW23014   3.318   6.903   4.541
 7372SOL    HW123015   3.264   6.867   4.617
 7372SOL    HW223016   3.293   6.854   4.457
 7373SOL     OW23017   4.440   2.146   4.725
 7373SOL    HW123018   4.522   2.105   4.765
 7373SOL    HW223019   4.430   2.239   4.758
 7374SOL     OW23020   1.353   1.864   5.026
 7374SOL    HW123021   1.327   1.953   4.988
 7374SOL    HW223022   1.271   1.819   5.062
 7375SOL     OW23023   2.143   3.083   2.217
 7375SOL    HW123024   2.161   3.030   2.134
 7375SOL    HW223025   2.158   3.180   2.199
 7376SOL     OW23026   0.838   3.507   0.926
 7376SOL    HW123027   0.799   3.599   0.928
 7376SOL    HW223028   0.930   3.509   0.965
 7377SOL     OW23029   3.393   5.093   0.218
 7377SOL    HW123030   3.360   5.010   0.263
 7377SOL    HW223031   3.488   5.110   0.244
 7378SOL     OW23032   1.724   6.671   4.194
 7378SOL    HW123033   1.716   6.595   4.258
 7378SOL    HW223034   1.744   6.636   4.102
 7379SOL     OW23035   3.641   0.467   1.260
 7379SOL    HW123036   3.647   0.532   1.183
 7379SOL    HW223037   3.733   0.440   1.287
 7380SOL     OW23038   6.164   4.262   3.164
 7380SOL    HW123039   6.155   4.268   3.263
 7380SOL    HW223040   6.124   4.175   3.133
 7381SOL     OW23041   4.461   1.511   0.558
 7381SOL    HW123042   4.365   1.506   0.585
 7381SOL    HW223043   4.474   1.583   0.490
 7382SOL     OW23044   6.624   1.639   5.773
 7382SOL    HW123045   6.611   1.654   5.675
 7382SOL    HW223046   6.535   1.621   5.816
 7383SOL     OW23047   1.609   6.610   1.484
 7383SOL    HW123048   1.580   6.599   1.389
 7383SOL    HW223049   1.691   6.668   1.487
 7384SOL     OW23050   0.568   6.639   1.120
 7384SOL    HW123051   0.528   6.703   1.186
 7384SOL    HW223052   0.644   6.591   1.163
 7385SOL     OW23053   3.711   5.201   2.537
 7385SOL    HW123054   3.768   5.267   2.587
 7385SOL    HW223055   3.686   5.126   2.598
 7386SOL     OW23056   6.703   3.415   6.984
 7386SOL    HW123057   6.663   3.326   7.004
 7386SOL    HW223058   6.778   3.433   0.026
 7387SOL     OW23059   6.424   4.840   5.583
 7387SOL    HW123060   6.455   4.755   5.541
 7387SOL    HW223061   6.441   4.837   5.682
 7388SOL     OW23062   1.318   6.321   2.376
 7388SOL    HW123063   1.373   6.271   2.442
 7388SOL    HW223064   1.371   6.397   2.338
 7389SOL     OW23065   6.905   3.356   0.615
 7389SOL    HW123066   6.808   3.377   0.622
 7389SOL    HW223067   6.958   3.419   0.671
 7390SOL     OW23068   2.604   1.801   2.778
 7390SOL    HW123069   2.618   1.764   2.869
 7390SOL    HW223070   2.663   1.753   2.713
 7391SOL     OW23071   4.101   3.267   2.747
 7391SOL    HW123072   4.052   3.266   2.834
 7391SOL    HW223073   4.104   3.175   2.709
 7392SOL     OW23074   4.049   5.817   6.401
 7392SOL    HW123075   4.120   5.857   6.344
 7392SOL    HW223076   4.034   5.873   6.482
 7393SOL     OW23077   6.328   4.760   3.941
 7393SOL    HW123078   6.334   4.858   3.962
 7393SOL    HW223079   6.238   4.740   3.901
 7394SOL     OW23080   2.092   2.550   6.149
 7394SOL    HW123081   2.154   2.617   6.106
 7394SOL    HW223082   2.125   2.458   6.131
 7395SOL     OW23083   2.108   3.439   1.412
 7395SOL    HW123084   2.180   3.478   1.469
 7395SOL    HW223085   2.033   3.504   1.403
 7396SOL     OW23086   3.021   4.980   1.482
 7396SOL    HW123087   2.982   4.939   1.400
 7396SOL    HW223088   2.952   4.984   1.554
 7397SOL     OW23089   5.453   4.228   4.705
 7397SOL    HW123090   5.490   4.143   4.743
 7397SOL    HW223091   5.476   4.304   4.766
 7398SOL     OW23092   1.646   4.365   3.290
 7398SOL    HW123093   1.644   4.270   3.261
 7398SOL    HW223094   1.652   4.370   3.390
 7399SOL     OW23095   5.969   2.586   4.575
 7399SOL    HW123096   5.968   2.599   4.675
 7399SOL    HW223097   6.044   2.639   4.536
 7400SOL     OW23098   5.656   2.338   5.109
 7400SOL    HW123099   5.592   2.261   5.113
 7400SOL    HW223100   5.614   2.417   5.155
 7401SOL     OW23101   1.528   3.161   3.109
 7401SOL    HW123102   1.616   3.155   3.062
 7401SOL    HW223103   1.521   3.088   3.177
 7402SOL     OW23104   2.844   5.455   5.051
 7402SOL    HW123105   2.871   5.529   4.989
 7402SOL    HW223106   2.912   5.446   5.124
 7403SOL     OW23107   1.729   2.882   3.618
 7403SOL    HW123108   1.642   2.926   3.642
 7403SOL    HW223109   1.743   2.803   3.678
 7404SOL     OW23110   2.943   3.920   1.504
 7404SOL    HW123111   2.863   3.931   1.562
 7404SOL    HW223112   2.954   4.001   1.446
 7405SOL     OW23113   3.016   5.597   5.232
 7405SOL    HW123114   3.007   5.539   5.314
 7405SOL    HW223115   3.111   5.621   5.218
 7406SOL     OW23116   0.438   1.252   5.239
 7406SOL    HW123117   0.339   1.260   5.235
 7406SOL    HW223118   0.466   1.235   5.334
 7407SOL     OW23119   0.772   5.955   6.906
 7407SOL    HW123120   0.756   6.052   6.925
 7407SOL    HW223121   0.868   5.933   6.924
 7408SOL     OW23122   3.374   4.137   4.991
 7408SOL    HW123123   3.299   4.181   5.041
 7408SOL    HW223124   3.342   4.051   4.951
 7409SOL     OW23125   5.918   4.124   0.727
 7409SOL    HW123126   5.832   4.171   0.706
 7409SOL    HW223127   5.993   4.171   0.681
 7410SOL     OW23128   6.956   0.252   0.881
 7410SOL    HW123129   7.020   0.217   0.950
 7410SOL    HW223130   6.863   0.240   0.914
 7411SOL     OW23131   0.938   1.677   5.881
 7411SOL    HW123132   0.950   1.730   5.965
 7411SOL    HW223133   0.937   1.740   5.802
 7412SOL     OW23134   3.666   6.978   7.016
 7412SOL    HW123135   3.655   0.054   7.006
 7412SOL    HW223136   3.636   6.950   0.085
 7413SOL     OW23137   4.153   5.364   3.513
 7413SOL    HW123138   4.251   5.356   3.497
 7413SOL    HW223139   4.135   5.359   3.611
 7414SOL     OW23140   2.386   2.095   4.452
 7414SOL    HW123141   2.449   2.063   4.524
 7414SOL    HW223142   2.359   2.017   4.394
 7415SOL     OW23143   3.575   0.023   6.385
 7415SOL    HW123144   3.615   7.014   6.472
 7415SOL    HW223145   3.641   0.081   6.337
 7416SOL     OW23146   0.902   1.795   2.425
 7416SOL    HW123147   0.963   1.873   2.424
 7416SOL    HW223148   0.925   1.735   2.501
 7417SOL     OW23149   0.838   2.329   3.188
 7417SOL    HW123150   0.741   2.329   3.212
 7417SOL    HW223151   0.847   2.310   3.090
 7418SOL     OW23152   1.832   4.171   6.327
 7418SOL    HW123153   1.793   4.136   6.412
 7418SOL    HW223154   1.896   4.104   6.289
 7419SOL     OW23155   6.455   3.959   3.595
 7419SOL    HW123156   6.497   3.996   3.678
 7419SOL    HW223157   6.471   4.023   3.519
 7420SOL     OW23158   0.123   6.563   2.012
 7420SOL    HW123159   0.124   6.464   2.025
 7420SOL    HW223160   0.055   6.587   1.942
 7421SOL     OW23161   4.712   3.463   1.760
 7421SOL    HW123162   4.646   3.402   1.717
 7421SOL    HW223163   4.779   3.494   1.692
 7422SOL     OW23164   5.909   2.831   2.146
 7422SOL    HW123165   5.897   2.733   2.126
 7422SOL    HW223166   5.835   2.862   2.205
 7423SOL     OW23167   5.822   2.024   5.242
 7423SOL    HW123168   5.896   1.984   5.188
 7423SOL    HW223169   5.734   1.991   5.208
 7424SOL     OW23170   0.040   0.860   5.415
 7424SOL    HW123171   0.094   0.931   5.371
 7424SOL    HW223172   0.097   0.780   5.432
 7425SOL     OW23173   5.607   6.840   0.477
 7425SOL    HW123174   5.577   6.829   0.383
 7425SOL    HW223175   5.529   6.870   0.533
 7426SOL     OW23176   3.728   2.756   6.077
 7426SOL    HW123177   3.746   2.843   6.123
 7426SOL    HW223178   3.764   2.759   5.984
 7427SOL     OW23179   3.651   1.249   3.857
 7427SOL    HW123180   3.560   1.286   3.839
 7427SOL    HW223181   3.650   1.150   3.845
 7428SOL     OW23182   4.178   6.840   5.816
 7428SOL    HW123183   4.184   6.776   5.739
 7428SOL    HW223184   4.134   6.795   5.894
 7429SOL     OW23185   1.339   0.130   2.465
 7429SOL    HW123186   1.413   0.126   2.532
 7429SOL    HW223187   1.268   0.064   2.489
 7430SOL     OW23188   0.106   4.871   3.514
 7430SOL    HW123189   0.195   4.915   3.526
 7430SOL    HW223190   0.088   4.811   3.592
 7431SOL     OW23191   1.969   2.343   4.522
 7431SOL    HW123192   2.028   2.262   4.516
 7431SOL    HW223193   2.024   2.424   4.540
 7432SOL     OW23194   2.087   0.053   3.524
 7432SOL    HW123195   2.163   0.061   3.460
 7432SOL    HW223196   2.111   0.098   3.610
 7433SOL     OW23197   3.054   6.437   6.347
 7433SOL    HW123198   3.062   6.339   6.367
 7433SOL    HW223199   2.990   6.451   6.271
 7434SOL     OW23200   4.507   6.202   5.849
 7434SOL    HW123201   4.549   6.264   5.915
 7434SOL    HW223202   4.530   6.231   5.756
 7435SOL     OW23203   4.648   6.514   2.339
 7435SOL    HW123204   4.553   6.545   2.343
 7435SOL    HW223205   4.709   6.591   2.361
 7436SOL     OW23206   5.093   3.446   6.485
 7436SOL    HW123207   5.021   3.459   6.553
 7436SOL    HW223208   5.148   3.530   6.479
 7437SOL     OW23209   3.500   6.009   1.185
 7437SOL    HW123210   3.425   5.995   1.249
 7437SOL    HW223211   3.578   5.952   1.212
 7438SOL     OW23212   2.446   1.119   0.762
 7438SOL    HW123213   2.363   1.068   0.741
 7438SOL    HW223214   2.483   1.088   0.850
 7439SOL     OW23215   1.741   5.042   6.342
 7439SOL    HW123216   1.783   4.985   6.412
 7439SOL    HW223217   1.671   5.100   6.383
 7440SOL     OW23218   4.834   3.104   4.025
 7440SOL    HW123219   4.909   3.119   4.089
 7440SOL    HW223220   4.827   3.183   3.964
 7441SOL     OW23221   5.681   6.202   1.871
 7441SOL    HW123222   5.757   6.259   1.903
 7441SOL    HW223223   5.618   6.259   1.818
 7442SOL     OW23224   5.414   0.392   5.782
 7442SOL    HW123225   5.440   0.295   5.776
 7442SOL    HW223226   5.324   0.404   5.741
 7443SOL     OW23227   0.294   6.139   2.230
 7443SOL    HW123228   0.369   6.150   2.296
 7443SOL    HW223229   0.332   6.131   2.138
 7444SOL     OW23230   0.776   0.530   5.945
 7444SOL    HW123231   0.709   0.456   5.939
 7444SOL    HW223232   0.868   0.492   5.934
 7445SOL     OW23233   4.455   6.163   2.184
 7445SOL    HW123234   4.446   6.227   2.260
 7445SOL    HW223235   4.551   6.139   2.170
 7446SOL     OW23236   5.051   3.453   0.512
 7446SOL    HW123237   5.033   3.449   0.414
 7446SOL    HW223238   5.001   3.380   0.558
 7447SOL     OW23239   0.854   3.903   0.705
 7447SOL    HW123240   0.849   3.825   0.642
 7447SOL    HW223241   0.943   3.904   0.750
 7448SOL     OW23242   4.984   5.621   6.090
 7448SOL    HW123243   5.014   5.592   5.999
 7448SOL    HW223244   5.033   5.569   6.160
 7449SOL     OW23245   0.352   4.304   6.947
 7449SOL    HW123246   0.388   4.390   6.913
 7449SOL    HW223247   0.321   4.248   6.870
 7450SOL     OW23248   5.280   1.673   5.581
 7450SOL    HW123249   5.373   1.696   5.552
 7450SOL    HW223250   5.217   1.688   5.505
 7451SOL     OW23251   5.989   5.265   2.478
 7451SOL    HW123252   6.042   5.317   2.412
 7451SOL    HW223253   5.986   5.169   2.450
 7452SOL     OW23254   5.124   6.397   5.141
 7452SOL    HW123255   5.038   6.431   5.103
 7452SOL    HW223256   5.115   6.385   5.240
 7453SOL     OW23257   4.274   5.537   6.332
 7453SOL    HW123258   4.349   5.472   6.346
 7453SOL    HW223259   4.191   5.486   6.310
 7454SOL     OW23260   3.818   2.040   0.603
 7454SOL    HW123261   3.802   1.946   0.573
 7454SOL    HW223262   3.795   2.048   0.700
 7455SOL     OW23263   5.893   3.070   2.927
 7455SOL    HW123264   5.845   3.152   2.896
 7455SOL    HW223265   5.863   3.047   3.020
 7456SOL     OW23266   2.639   2.305   5.380
 7456SOL    HW123267   2.715   2.241   5.387
 7456SOL    HW223268   2.669   2.396   5.409
 7457SOL     OW23269   2.698   0.178   3.200
 7457SOL    HW123270   2.741   0.118   3.267
 7457SOL    HW223271   2.753   0.180   3.116
 7458SOL     OW23272   0.673   6.505   5.236
 7458SOL    HW123273   0.743   6.550   5.180
 7458SOL    HW223274   0.606   6.572   5.267
 7459SOL     OW23275   6.235   0.811   2.790
 7459SOL    HW123276   6.291   0.785   2.869
 7459SOL    HW223277   6.273   0.894   2.748
 7460SOL     OW23278   0.946   6.897   0.788
 7460SOL    HW123279   0.862   6.879   0.839
 7460SOL    HW223280   1.015   6.935   0.851
 7461SOL     OW23281   0.857   5.817   5.948
 7461SOL    HW123282   0.858   5.754   6.026
 7461SOL    HW223283   0.837   5.766   5.865
 7462SOL     OW23284   1.244   5.452   1.256
 7462SOL    HW123285   1.331   5.473   1.212
 7462SOL    HW223286   1.178   5.423   1.186
 7463SOL     OW23287   4.390   4.582   0.048
 7463SOL    HW123288   4.306   4.548   0.007
 7463SOL    HW223289   4.402   4.678   0.024
 7464SOL     OW23290   6.426   5.121   5.068
 7464SOL    HW123291   6.434   5.044   5.132
 7464SOL    HW223292   6.513   5.171   5.066
 7465SOL     OW23293   2.434   5.076   0.134
 7465SOL    HW123294   2.511   5.118   0.088
 7465SOL    HW223295   2.391   5.143   0.195
 7466SOL     OW23296   0.872   6.919   4.969
 7466SOL    HW123297   0.964   6.952   4.990
 7466SOL    HW223298   0.805   6.991   4.988
 7467SOL     OW23299   0.441   3.075   6.179
 7467SOL    HW123300   0.520   3.034   6.133
 7467SOL    HW223301   0.372   3.101   6.110
 7468SOL     OW23302   5.636   2.777   5.090
 7468SOL    HW123303   5.625   2.685   5.129
 7468SOL    HW223304   5.545   2.818   5.079
 7469SOL     OW23305   6.582   2.398   0.338
 7469SOL    HW123306   6.665   2.441   0.373
 7469SOL    HW223307   6.502   2.450   0.369
 7470SOL     OW23308   5.713   3.835   4.023
 7470SOL    HW123309   5.722   3.935   4.018
 7470SOL    HW223310   5.800   3.796   4.052
 7471SOL     OW23311   5.602   5.527   6.594
 7471SOL    HW123312   5.541   5.491   6.664
 7471SOL    HW223313   5.687   5.558   6.637
 7472SOL     OW23314   6.249   6.839   5.160
 7472SOL    HW123315   6.348   6.853   5.153
 7472SOL    HW223316   6.223   6.836   5.257
 7473SOL     OW23317   3.949   0.328   3.940
 7473SOL    HW123318   3.868   0.371   3.900
 7473SOL    HW223319   4.020   0.398   3.953
 7474SOL     OW23320   5.787   2.067   6.174
 7474SOL    HW123321   5.844   2.147   6.155
 7474SOL    HW223322   5.691   2.088   6.155
 7475SOL     OW23323   4.562   1.902   1.262
 7475SOL    HW123324   4.582   1.867   1.171
 7475SOL    HW223325   4.641   1.887   1.322
 7476SOL     OW23326   2.176   1.222   2.951
 7476SOL    HW123327   2.179   1.130   2.913
 7476SOL    HW223328   2.252   1.234   3.015
 7477SOL     OW23329   0.334   4.088   5.439
 7477SOL    HW123330   0.362   4.180   5.408
 7477SOL    HW223331   0.335   4.085   5.539
 7478SOL     OW23332   6.893   2.015   4.923
 7478SOL    HW123333   6.936   2.064   4.848
 7478SOL    HW223334   6.893   2.073   5.005
 7479SOL     OW23335   5.971   3.482   6.757
 7479SOL    HW123336   5.955   3.579   6.775
 7479SOL    HW223337   6.023   3.442   6.832
 7480SOL     OW23338   3.320   4.963   2.331
 7480SOL    HW123339   3.301   4.930   2.238
 7480SOL    HW223340   3.258   4.918   2.396
 7481SOL     OW23341   6.403   4.289   6.924
 7481SOL    HW123342   6.329   4.355   6.939
 7481SOL    HW223343   6.483   4.317   6.976
 7482SOL     OW23344   3.761   2.113   2.334
 7482SOL    HW123345   3.843   2.169   2.327
 7482SOL    HW223346   3.709   2.119   2.249
 7483SOL     OW23347   4.319   2.349   5.541
 7483SOL    HW123348   4.385   2.283   5.505
 7483SOL    HW223349   4.331   2.437   5.495
 7484SOL     OW23350   2.597   6.531   4.400
 7484SOL    HW123351   2.503   6.545   4.431
 7484SOL    HW223352   2.633   6.616   4.363
 7485SOL     OW23353   2.836   0.043   3.815
 7485SOL    HW123354   2.781   0.113   3.770
 7485SOL    HW223355   2.780   6.984   3.831
 7486SOL     OW23356   1.171   6.243   6.901
 7486SOL    HW123357   1.132   6.180   6.834
 7486SOL    HW223358   1.265   6.265   6.875
 7487SOL     OW23359   4.317   0.152   3.490
 7487SOL    HW123360   4.243   0.132   3.426
 7487SOL    HW223361   4.376   0.224   3.451
 7488SOL     OW23362   0.813   5.977   3.891
 7488SOL    HW123363   0.862   6.014   3.970
 7488SOL    HW223364   0.866   5.901   3.852
 7489SOL     OW23365   6.013   4.196   6.823
 7489SOL    HW123366   5.946   4.123   6.834
 7489SOL    HW223367   5.965   4.284   6.820
 7490SOL     OW23368   0.458   1.953   3.022
 7490SOL    HW123369   0.534   1.967   3.086
 7490SOL    HW223370   0.494   1.918   2.936
 7491SOL     OW23371   4.447   3.104   0.266
 7491SOL    HW123372   4.441   3.157   0.351
 7491SOL    HW223373   4.433   3.165   0.188
 7492SOL     OW23374   1.432   0.575   4.107
 7492SOL    HW123375   1.376   0.648   4.147
 7492SOL    HW223376   1.515   0.613   4.067
 7493SOL     OW23377   5.745   3.628   5.742
 7493SOL    HW123378   5.672   3.610   5.676
 7493SOL    HW223379   5.790   3.542   5.766
 7494SOL     OW23380   6.108   1.082   3.103
 7494SOL    HW123381   6.204   1.096   3.079
 7494SOL    HW223382   6.062   1.033   3.030
 7495SOL     OW23383   2.119   3.179   4.784
 7495SOL    HW123384   2.088   3.190   4.879
 7495SOL    HW223385   2.194   3.114   4.781
 7496SOL     OW23386   6.159   3.669   2.829
 7496SOL    HW123387   6.122   3.740   2.889
 7496SOL    HW223388   6.107   3.584   2.842
 7497SOL     OW23389   0.618   6.460   0.540
 7497SOL    HW123390   0.713   6.438   0.562
 7497SOL    HW223391   0.615   6.513   0.455
 7498SOL     OW23392   3.340   0.528   3.113
 7498SOL    HW123393   3.352   0.441   3.161
 7498SOL    HW223394   3.420   0.548   3.058
 7499SOL     OW23395   3.837   2.085   3.725
 7499SOL    HW123396   3.761   2.033   3.763
 7499SOL    HW223397   3.874   2.147   3.794
 7500SOL     OW23398   3.942   0.411   3.548
 7500SOL    HW123399   4.001   0.393   3.469
 7500SOL    HW223400   3.917   0.325   3.591
 7501SOL     OW23401   6.194   2.758   4.580
 7501SOL    HW123402   6.191   2.844   4.632
 7501SOL    HW223403   6.278   2.709   4.603
 7502SOL     OW23404   3.376   6.925   4.253
 7502SOL    HW123405   3.294   6.970   4.219
 7502SOL    HW223406   3.457   6.977   4.224
 7503SOL     OW23407   2.127   5.900   1.294
 7503SOL    HW123408   2.183   5.829   1.251
 7503SOL    HW223409   2.058   5.932   1.230
 7504SOL     OW23410   6.733   6.576   3.387
 7504SOL    HW123411   6.786   6.512   3.442
 7504SOL    HW223412   6.692   6.645   3.447
 7505SOL     OW23413   7.003   0.650   4.828
 7505SOL    HW123414   0.075   0.618   4.823
 7505SOL    HW223415   6.948   0.605   4.758
 7506SOL     OW23416   3.554   1.755   3.552
 7506SOL    HW123417   3.535   1.853   3.560
 7506SOL    HW223418   3.470   1.708   3.522
 7507SOL     OW23419   6.311   3.562   4.444
 7507SOL    HW123420   6.296   3.547   4.346
 7507SOL    HW223421   6.372   3.640   4.456
 7508SOL     OW23422   1.973   6.183   0.370
 7508SOL    HW123423   1.879   6.211   0.352
 7508SOL    HW223424   2.025   6.262   0.402
 7509SOL     OW23425   5.156   3.807   0.458
 7509SOL    HW123426   5.148   3.719   0.505
 7509SOL    HW223427   5.084   3.868   0.490
 7510SOL     OW23428   3.573   3.990   4.059
 7510SOL    HW123429   3.667   4.021   4.042
 7510SOL    HW223430   3.535   3.952   3.975
 7511SOL     OW23431   3.421   5.842   2.687
 7511SOL    HW123432   3.424   5.938   2.714
 7511SOL    HW223433   3.326   5.813   2.677
 7512SOL     OW23434   3.321   6.476   6.231
 7512SOL    HW123435   3.225   6.504   6.232
 7512SOL    HW223436   3.326   6.376   6.235
 7513SOL     OW23437   1.658   2.146   3.660
 7513SOL    HW123438   1.719   2.069   3.679
 7513SOL    HW223439   1.709   2.219   3.615
 7514SOL     OW23440   2.400   4.436   3.064
 7514SOL    HW123441   2.450   4.392   3.139
 7514SOL    HW223442   2.442   4.525   3.044
 7515SOL     OW23443   6.793   3.760   5.079
 7515SOL    HW123444   6.725   3.771   5.151
 7515SOL    HW223445   6.852   3.682   5.101
 7516SOL     OW23446   0.955   5.033   5.442
 7516SOL    HW123447   0.983   4.990   5.357
 7516SOL    HW223448   0.925   4.963   5.507
 7517SOL     OW23449   1.071   2.072   6.875
 7517SOL    HW123450   1.116   2.070   6.964
 7517SOL    HW223451   0.975   2.045   6.885
 7518SOL     OW23452   4.718   2.879   4.023
 7518SOL    HW123453   4.716   2.842   4.116
 7518SOL    HW223454   4.757   2.971   4.025
 7519SOL     OW23455   4.075   6.628   5.161
 7519SOL    HW123456   4.105   6.667   5.074
 7519SOL    HW223457   4.149   6.575   5.201
 7520SOL     OW23458   1.904   1.978   2.020
 7520SOL    HW123459   1.892   1.887   2.060
 7520SOL    HW223460   1.917   2.046   2.092
 7521SOL     OW23461   4.817   1.107   4.468
 7521SOL    HW123462   4.914   1.088   4.487
 7521SOL    HW223463   4.801   1.101   4.370
 7522SOL     OW23464   1.119   6.285   2.939
 7522SOL    HW123465   1.195   6.332   2.984
 7522SOL    HW223466   1.122   6.188   2.962
 7523SOL     OW23467   5.630   1.392   6.587
 7523SOL    HW123468   5.648   1.322   6.518
 7523SOL    HW223469   5.674   1.478   6.560
 7524SOL     OW23470   0.160   2.465   4.583
 7524SOL    HW123471   0.161   2.442   4.486
 7524SOL    HW223472   0.239   2.521   4.605
 7525SOL     OW23473   4.666   6.258   6.334
 7525SOL    HW123474   4.567   6.252   6.346
 7525SOL    HW223475   4.686   6.308   6.249
 7526SOL     OW23476   2.054   3.714   1.983
 7526SOL    HW123477   1.962   3.696   1.947
 7526SOL    HW223478   2.096   3.629   2.013
 7527SOL     OW23479   4.093   5.956   3.503
 7527SOL    HW123480   4.009   6.007   3.489
 7527SOL    HW223481   4.073   5.859   3.514
 7528SOL     OW23482   6.347   2.597   6.138
 7528SOL    HW123483   6.259   2.637   6.112
 7528SOL    HW223484   6.398   2.662   6.193
 7529SOL     OW23485   5.946   2.021   4.004
 7529SOL    HW123486   6.018   1.952   4.013
 7529SOL    HW223487   5.933   2.067   4.091
 7530SOL     OW23488   6.617   1.422   1.958
 7530SOL    HW123489   6.687   1.365   1.916
 7530SOL    HW223490   6.564   1.468   1.886
 7531SOL     OW23491   4.579   2.082   3.738
 7531SOL    HW123492   4.672   2.102   3.771
 7531SOL    HW223493   4.529   2.035   3.811
 7532SOL     OW23494   4.334   5.810   0.001
 7532SOL    HW123495   4.358   5.893   6.974
 7532SOL    HW223496   4.314   5.737   6.958
 7533SOL     OW23497   4.532   3.239   1.701
 7533SOL    HW123498   4.571   3.180   1.771
 7533SOL    HW223499   4.433   3.244   1.712
 7534SOL     OW23500   4.554   0.614   3.803
 7534SOL    HW123501   4.650   0.641   3.798
 7534SOL    HW223502   4.520   0.594   3.711
 7535SOL     OW23503   1.003   6.006   4.199
 7535SOL    HW123504   1.046   5.943   4.132
 7535SOL    HW223505   0.993   5.959   4.286
 7536SOL     OW23506   4.732   5.799   3.956
 7536SOL    HW123507   4.788   5.787   3.874
 7536SOL    HW223508   4.641   5.832   3.930
 7537SOL     OW23509   2.780   6.102   2.462
 7537SOL    HW123510   2.781   6.177   2.529
 7537SOL    HW223511   2.691   6.100   2.416
 7538SOL     OW23512   0.563   3.438   1.720
 7538SOL    HW123513   0.589   3.435   1.623
 7538SOL    HW223514   0.642   3.464   1.775
 7539SOL     OW23515   0.573   5.501   3.489
 7539SOL    HW123516   0.561   5.556   3.406
 7539SOL    HW223517   0.602   5.408   3.464
 7540SOL     OW23518   5.713   5.738   4.156
 7540SOL    HW123519   5.623   5.768   4.126
 7540SOL    HW223520   5.781   5.808   4.134
 7541SOL     OW23521   0.940   3.786   6.397
 7541SOL    HW123522   0.964   3.837   6.314
 7541SOL    HW223523   0.840   3.784   6.407
 7542SOL     OW23524   6.040   5.755   6.112
 7542SOL    HW123525   6.087   5.736   6.026
 7542SOL    HW223526   5.989   5.674   6.141
 7543SOL     OW23527   2.717   0.504   5.486
 7543SOL    HW123528   2.771   0.445   5.426
 7543SOL    HW223529   2.688   0.586   5.436
 7544SOL     OW23530   6.927   3.061   3.903
 7544SOL    HW123531   6.910   3.125   3.828
 7544SOL    HW223532   6.882   3.093   3.986
 7545SOL     OW23533   0.902   5.284   6.976
 7545SOL    HW123534   0.924   5.214   0.021
 7545SOL    HW223535   0.804   5.304   6.980
 7546SOL     OW23536   3.290   3.056   1.791
 7546SOL    HW123537   3.387   3.044   1.816
 7546SOL    HW223538   3.234   2.998   1.850
 7547SOL     OW23539   4.535   0.621   1.602
 7547SOL    HW123540   4.592   0.588   1.677
 7547SOL    HW223541   4.529   0.551   1.531
 7548SOL     OW23542   4.667   2.456   6.183
 7548SOL    HW123543   4.652   2.370   6.232
 7548SOL    HW223544   4.580   2.501   6.167
 7549SOL     OW23545   4.355   2.587   5.387
 7549SOL    HW123546   4.278   2.572   5.325
 7549SOL    HW223547   4.338   2.669   5.442
 7550SOL     OW23548   1.760   4.096   3.665
 7550SOL    HW123549   1.728   4.027   3.600
 7550SOL    HW223550   1.852   4.072   3.696
 7551SOL     OW23551   5.620   1.826   5.225
 7551SOL    HW123552   5.559   1.749   5.205
 7551SOL    HW223553   5.581   1.880   5.300
 7552SOL     OW23554   2.074   5.976   4.757
 7552SOL    HW123555   2.012   5.904   4.788
 7552SOL    HW223556   2.103   6.031   4.836
 7553SOL     OW23557   5.375   6.470   6.611
 7553SOL    HW123558   5.348   6.532   6.537
 7553SOL    HW223559   5.445   6.513   6.666
 7554SOL     OW23560   5.232   1.363   0.653
 7554SOL    HW123561   5.277   1.337   0.567
 7554SOL    HW223562   5.237   1.287   0.718
 7555SOL     OW23563   3.106   5.777   6.688
 7555SOL    HW123564   3.065   5.702   6.740
 7555SOL    HW223565   3.179   5.819   6.741
 7556SOL     OW23566   0.502   0.630   0.817
 7556SOL    HW123567   0.490   0.572   0.736
 7556SOL    HW223568   0.600   0.643   0.833
 7557SOL     OW23569   4.871   0.446   0.557
 7557SOL    HW123570   4.902   0.517   0.493
 7557SOL    HW223571   4.944   0.425   0.621
 7558SOL     OW23572   1.402   2.701   4.219
 7558SOL    HW123573   1.409   2.649   4.134
 7558SOL    HW223574   1.427   2.643   4.296
 7559SOL     OW23575   3.651   2.027   4.925
 7559SOL    HW123576   3.736   2.064   4.961
 7559SOL    HW223577   3.662   1.929   4.906
 7560SOL     OW23578   6.825   0.560   6.413
 7560SOL    HW123579   6.878   0.479   6.437
 7560SOL    HW223580   6.886   0.630   6.376
 7561SOL     OW23581   5.366   2.111   5.527
 7561SOL    HW123582   5.267   2.126   5.527
 7561SOL    HW223583   5.414   2.199   5.522
 7562SOL     OW23584   1.205   5.071   4.643
 7562SOL    HW123585   1.195   5.162   4.682
 7562SOL    HW223586   1.115   5.036   4.616
 7563SOL     OW23587   3.802   6.216   2.097
 7563SOL    HW123588   3.745   6.298   2.084
 7563SOL    HW223589   3.897   6.244   2.107
 7564SOL     OW23590   4.667   1.411   4.042
 7564SOL    HW123591   4.688   1.365   3.956
 7564SOL    HW223592   4.705   1.359   4.118
 7565SOL     OW23593   5.412   3.479   6.331
 7565SOL    HW123594   5.427   3.537   6.412
 7565SOL    HW223595   5.389   3.537   6.253
 7566SOL     OW23596   4.827   4.587   1.505
 7566SOL    HW123597   4.732   4.614   1.489
 7566SOL    HW223598   4.835   4.488   1.494
 7567SOL     OW23599   0.534   0.919   4.526
 7567SOL    HW123600   0.452   0.919   4.582
 7567SOL    HW223601   0.514   0.959   4.436
 7568SOL     OW23602   6.184   5.633   1.135
 7568SOL    HW123603   6.121   5.609   1.209
 7568SOL    HW223604   6.147   5.601   1.048
 7569SOL     OW23605   4.330   3.964   6.672
 7569SOL    HW123606   4.281   3.977   6.759
 7569SOL    HW223607   4.428   3.955   6.690
 7570SOL     OW23608   6.418   2.787   3.167
 7570SOL    HW123609   6.351   2.756   3.100
 7570SOL    HW223610   6.428   2.887   3.160
 7571SOL     OW23611   5.342   3.568   2.533
 7571SOL    HW123612   5.416   3.501   2.523
 7571SOL    HW223613   5.329   3.616   2.446
 7572SOL     OW23614   5.121   6.472   2.844
 7572SOL    HW123615   5.111   6.420   2.759
 7572SOL    HW223616   5.133   6.569   2.823
 7573SOL     OW23617   5.542   6.473   5.804
 7573SOL    HW123618   5.569   6.461   5.709
 7573SOL    HW223619   5.598   6.413   5.862
 7574SOL     OW23620   6.411   1.351   4.290
 7574SOL    HW123621   6.501   1.314   4.312
 7574SOL    HW223622   6.367   1.293   4.222
 7575SOL     OW23623   6.829   6.403   1.243
 7575SOL    HW123624   6.849   6.481   1.183
 7575SOL    HW223625   6.906   6.390   1.306
 7576SOL     OW23626   5.571   2.817   0.518
 7576SOL    HW123627   5.514   2.870   0.456
 7576SOL    HW223628   5.516   2.745   0.561
 7577SOL     OW23629   0.652   6.955   6.670
 7577SOL    HW123630   0.674   0.002   6.601
 7577SOL    HW223631   0.708   6.874   6.654
 7578SOL     OW23632   0.105   5.757   3.466
 7578SOL    HW123633   0.175   5.786   3.402
 7578SOL    HW223634   0.140   5.682   3.522
 7579SOL     OW23635   6.662   1.439   0.556
 7579SOL    HW123636   6.620   1.349   0.566
 7579SOL    HW223637   6.670   1.462   0.459
 7580SOL     OW23638   1.999   4.662   3.832
 7580SOL    HW123639   2.071   4.730   3.826
 7580SOL    HW223640   2.039   4.571   3.843
 7581SOL     OW23641   0.040   1.010   1.625
 7581SOL    HW123642   6.977   0.958   1.627
 7581SOL    HW223643   0.088   0.992   1.539
 7582SOL     OW23644   3.377   1.962   4.283
 7582SOL    HW123645   3.447   1.909   4.330
 7582SOL    HW223646   3.325   2.015   4.350
 7583SOL     OW23647   4.950   3.528   3.873
 7583SOL    HW123648   4.927   3.621   3.847
 7583SOL    HW223649   5.026   3.529   3.938
 7584SOL     OW23650   0.762   1.244   3.181
 7584SOL    HW123651   0.833   1.175   3.169
 7584SOL    HW223652   0.701   1.243   3.103
 7585SOL     OW23653   1.272   2.200   6.722
 7585SOL    HW123654   1.352   2.153   6.684
 7585SOL    HW223655   1.222   2.139   6.782
 7586SOL     OW23656   1.305   1.134   2.295
 7586SOL    HW123657   1.211   1.148   2.264
 7586SOL    HW223658   1.347   1.223   2.316
 7587SOL     OW23659   3.310   1.099   0.719
 7587SOL    HW123660   3.259   1.185   0.716
 7587SOL    HW223661   3.377   1.102   0.792
 7588SOL     OW23662   1.451   2.425   4.397
 7588SOL    HW123663   1.403   2.417   4.484
 7588SOL    HW223664   1.416   2.356   4.333
 7589SOL     OW23665   0.278   1.221   2.947
 7589SOL    HW123666   0.226   1.201   3.030
 7589SOL    HW223667   0.229   1.291   2.894
 7590SOL     OW23668   0.000   1.616   0.267
 7590SOL    HW123669   6.972   1.700   0.288
 7590SOL    HW223670   0.098   1.632   0.283
 7591SOL     OW23671   4.184   3.117   6.448
 7591SOL    HW123672   4.176   3.217   6.444
 7591SOL    HW223673   4.267   3.093   6.499
 7592SOL     OW23674   6.579   6.099   4.952
 7592SOL    HW123675   6.652   6.167   4.946
 7592SOL    HW223676   6.552   6.069   4.860
 7593SOL     OW23677   0.352   1.221   5.835
 7593SOL    HW123678   0.377   1.317   5.836
 7593SOL    HW223679   0.263   1.210   5.791
 7594SOL     OW23680   0.399   4.316   1.342
 7594SOL    HW123681   0.360   4.353   1.426
 7594SOL    HW223682   0.433   4.223   1.358
 7595SOL     OW23683   6.112   2.736   6.098
 7595SOL    HW123684   6.113   2.806   6.170
 7595SOL    HW223685   6.052   2.766   6.024
 7596SOL     OW23686   3.172   0.847   5.177
 7596SOL    HW123687   3.128   0.838   5.088
 7596SOL    HW223688   3.152   0.937   5.215
 7597SOL     OW23689   1.691   4.896   2.026
 7597SOL    HW123690   1.771   4.853   2.068
 7597SOL    HW223691   1.663   4.842   1.946
 7598SOL     OW23692   6.056   0.682   3.244
 7598SOL    HW123693   6.016   0.642   3.326
 7598SOL    HW223694   5.994   0.751   3.206
 7599SOL     OW23695   4.093   3.558   0.879
 7599SOL    HW123696   4.017   3.495   0.892
 7599SOL    HW223697   4.125   3.592   0.967
 7600SOL     OW23698   1.105   1.675   4.027
 7600SOL    HW123699   1.029   1.694   3.966
 7600SOL    HW223700   1.191   1.696   3.980
 7601SOL     OW23701   3.950   5.781   2.076
 7601SOL    HW123702   3.933   5.709   2.008
 7601SOL    HW223703   3.894   5.860   2.056
 7602SOL     OW23704   0.091   1.640   0.634
 7602SOL    HW123705   0.005   1.658   0.585
 7602SOL    HW223706   0.092   1.691   0.720
 7603SOL     OW23707   2.334   0.613   6.272
 7603SOL    HW123708   2.364   0.685   6.209
 7603SOL    HW223709   2.380   0.623   6.360
 7604SOL     OW23710   1.133   2.401   4.807
 7604SOL    HW123711   1.130   2.301   4.795
 7604SOL    HW223712   1.040   2.435   4.823
 7605SOL     OW23713   3.137   0.059   6.931
 7605SOL    HW123714   3.062   0.077   6.867
 7605SOL    HW223715   3.101   0.013   7.013
 7606SOL     OW23716   6.402   1.201   3.690
 7606SOL    HW123717   6.478   1.255   3.727
 7606SOL    HW223718   6.330   1.195   3.758
 7607SOL     OW23719   3.262   6.156   5.929
 7607SOL    HW123720   3.220   6.241   5.896
 7607SOL    HW223721   3.320   6.176   6.008
 7608SOL     OW23722   5.939   2.760   5.877
 7608SOL    HW123723   5.903   2.667   5.883
 7608SOL    HW223724   5.871   2.825   5.911
 7609SOL     OW23725   0.612   2.211   4.767
 7609SOL    HW123726   0.516   2.187   4.757
 7609SOL    HW223727   0.669   2.136   4.733
 7610SOL     OW23728   3.439   4.779   6.258
 7610SOL    HW123729   3.524   4.727   6.261
 7610SOL    HW223730   3.456   4.869   6.217
 7611SOL     OW23731   4.724   3.130   1.519
 7611SOL    HW123732   4.655   3.157   1.586
 7611SOL    HW223733   4.690   3.052   1.466
 7612SOL     OW23734   3.206   1.828   3.189
 7612SOL    HW123735   3.232   1.912   3.237
 7612SOL    HW223736   3.148   1.851   3.111
 7613SOL     OW23737   1.277   1.860   2.306
 7613SOL    HW123738   1.372   1.862   2.336
 7613SOL    HW223739   1.223   1.800   2.366
 7614SOL     OW23740   5.002   3.230   0.645
 7614SOL    HW123741   4.996   3.137   0.610
 7614SOL    HW223742   5.071   3.234   0.717
 7615SOL     OW23743   5.242   3.082   4.583
 7615SOL    HW123744   5.319   3.035   4.626
 7615SOL    HW223745   5.158   3.031   4.601
 7616SOL     OW23746   6.147   6.769   3.433
 7616SOL    HW123747   6.162   6.864   3.407
 7616SOL    HW223748   6.107   6.764   3.524
 7617SOL     OW23749   4.999   5.185   3.266
 7617SOL    HW123750   4.995   5.278   3.229
 7617SOL    HW223751   5.072   5.134   3.220
 7618SOL     OW23752   2.932   2.745   0.225
 7618SOL    HW123753   2.856   2.682   0.240
 7618SOL    HW223754   2.975   2.767   0.313
 7619SOL     OW23755   0.552   2.378   4.231
 7619SOL    HW123756   0.601   2.426   4.304
 7619SOL    HW223757   0.463   2.421   4.216
 7620SOL     OW23758   3.903   4.122   1.226
 7620SOL    HW123759   3.854   4.158   1.306
 7620SOL    HW223760   3.881   4.025   1.214
 7621SOL     OW23761   0.469   5.756   0.930
 7621SOL    HW123762   0.422   5.844   0.938
 7621SOL    HW223763   0.429   5.690   0.994
 7622SOL     OW23764   3.941   4.563   0.591
 7622SOL    HW123765   3.888   4.632   0.639
 7622SOL    HW223766   3.932   4.576   0.492
 7623SOL     OW23767   4.930   5.090   1.416
 7623SOL    HW123768   4.977   5.167   1.459
 7623SOL    HW223769   4.932   5.011   1.477
 7624SOL     OW23770   0.586   2.801   1.886
 7624SOL    HW123771   0.611   2.720   1.833
 7624SOL    HW223772   0.517   2.776   1.954
 7625SOL     OW23773   5.203   2.221   0.240
 7625SOL    HW123774   5.297   2.191   0.223
 7625SOL    HW223775   5.175   2.192   0.331
 7626SOL     OW23776   5.341   0.271   5.029
 7626SOL    HW123777   5.269   0.286   4.961
 7626SOL    HW223778   5.336   0.343   5.098
 7627SOL     OW23779   2.919   1.719   6.993
 7627SOL    HW123780   2.899   1.692   0.064
 7627SOL    HW223781   2.843   1.773   6.956
 7628SOL     OW23782   3.715   2.815   0.525
 7628SOL    HW123783   3.659   2.798   0.444
 7628SOL    HW223784   3.747   2.729   0.563
 7629SOL     OW23785   6.034   3.188   4.296
 7629SOL    HW123786   5.944   3.144   4.305
 7629SOL    HW223787   6.025   3.286   4.309
 7630SOL     OW23788   1.915   0.242   5.109
 7630SOL    HW123789   1.948   0.306   5.178
 7630SOL    HW223790   1.872   0.293   5.034
 7631SOL     OW23791   1.877   0.044   5.306
 7631SOL    HW123792   1.931   0.096   5.372
 7631SOL    HW223793   1.859   0.100   5.226
 7632SOL     OW23794   4.737   5.701   0.956
 7632SOL    HW123795   4.783   5.677   1.041
 7632SOL    HW223796   4.803   5.741   0.892
 7633SOL     OW23797   6.414   1.059   1.036
 7633SOL    HW123798   6.377   0.983   0.982
 7633SOL    HW223799   6.350   1.080   1.111
 7634SOL     OW23800   1.103   2.165   0.569
 7634SOL    HW123801   1.151   2.160   0.481
 7634SOL    HW223802   1.014   2.120   0.560
 7635SOL     OW23803   2.847   5.195   6.044
 7635SOL    HW123804   2.774   5.129   6.054
 7635SOL    HW223805   2.854   5.225   5.949
 7636SOL     OW23806   0.692   3.948   5.037
 7636SOL    HW123807   0.631   3.936   5.116
 7636SOL    HW223808   0.774   3.892   5.050
 7637SOL     OW23809   0.382   6.322   4.544
 7637SOL    HW123810   0.412   6.415   4.567
 7637SOL    HW223811   0.360   6.272   4.628
 7638SOL     OW23812   0.961   5.470   1.827
 7638SOL    HW123813   0.888   5.511   1.771
 7638SOL    HW223814   1.049   5.509   1.801
 7639SOL     OW23815   1.086   1.405   0.619
 7639SOL    HW123816   1.113   1.314   0.650
 7639SOL    HW223817   1.154   1.439   0.553
 7640SOL     OW23818   3.277   1.026   6.356
 7640SOL    HW123819   3.243   0.932   6.345
 7640SOL    HW223820   3.202   1.090   6.344
 7641SOL     OW23821   0.075   3.906   2.873
 7641SOL    HW123822   0.048   3.968   2.947
 7641SOL    HW223823   0.125   3.829   2.911
 7642SOL     OW23824   5.998   1.366   3.391
 7642SOL    HW123825   5.994   1.466   3.381
 7642SOL    HW223826   6.093   1.338   3.405
 7643SOL     OW23827   5.061   2.801   2.895
 7643SOL    HW123828   5.125   2.871   2.927
 7643SOL    HW223829   5.024   2.751   2.974
 7644SOL     OW23830   5.001   3.444   1.503
 7644SOL    HW123831   5.038   3.509   1.570
 7644SOL    HW223832   5.062   3.439   1.425
 7645SOL     OW23833   3.223   3.817   6.146
 7645SOL    HW123834   3.212   3.880   6.069
 7645SOL    HW223835   3.178   3.855   6.227
 7646SOL     OW23836   0.715   2.217   2.896
 7646SOL    HW123837   0.785   2.184   2.833
 7646SOL    HW223838   0.676   2.302   2.861
 7647SOL     OW23839   6.786   2.757   5.048
 7647SOL    HW123840   6.755   2.842   5.090
 7647SOL    HW223841   6.832   2.700   5.117
 7648SOL     OW23842   2.339   2.217   2.816
 7648SOL    HW123843   2.434   2.235   2.790
 7648SOL    HW223844   2.279   2.240   2.739
 7649SOL     OW23845   6.221   0.603   5.271
 7649SOL    HW123846   6.128   0.567   5.276
 7649SOL    HW223847   6.266   0.595   5.360
 7650SOL     OW23848   4.057   1.126   1.552
 7650SOL    HW123849   4.132   1.077   1.506
 7650SOL    HW223850   4.095   1.201   1.606
 7651SOL     OW23851   2.592   5.123   4.970
 7651SOL    HW123852   2.613   5.182   5.049
 7651SOL    HW223853   2.493   5.111   4.963
 7652SOL     OW23854   5.788   1.249   4.637
 7652SOL    HW123855   5.784   1.289   4.728
 7652SOL    HW223856   5.776   1.321   4.569
 7653SOL     OW23857   0.791   2.012   6.924
 7653SOL    HW123858   0.723   1.941   6.942
 7653SOL    HW223859   0.746   2.089   6.878
 7654SOL     OW23860   5.879   3.005   5.694
 7654SOL    HW123861   5.797   3.000   5.637
 7654SOL    HW223862   5.958   2.972   5.641
 7655SOL     OW23863   2.986   0.732   3.457
 7655SOL    HW123864   3.034   0.815   3.428
 7655SOL    HW223865   2.981   0.668   3.381
 7656SOL     OW23866   6.725   3.691   6.971
 7656SOL    HW123867   6.790   3.623   6.938
 7656SOL    HW223868   6.659   3.648   0.010
 7657SOL     OW23869   1.925   3.600   4.766
 7657SOL    HW123870   1.869   3.668   4.814
 7657SOL    HW223871   1.942   3.630   4.673
 7658SOL     OW23872   2.572   0.689   0.765
 7658SOL    HW123873   2.664   0.705   0.800
 7658SOL    HW223874   2.573   0.688   0.665
 7659SOL     OW23875   4.231   3.758   5.342
 7659SOL    HW123876   4.209   3.741   5.438
 7659SOL    HW223877   4.255   3.855   5.330
 7660SOL     OW23878   6.870   4.439   4.511
 7660SOL    HW123879   6.874   4.413   4.607
 7660SOL    HW223880   6.885   4.537   4.502
 7661SOL     OW23881   4.853   2.957   5.494
 7661SOL    HW123882   4.811   2.883   5.548
 7661SOL    HW223883   4.851   3.042   5.547
 7662SOL     OW23884   1.027   2.043   2.404
 7662SOL    HW123885   1.019   2.038   2.305
 7662SOL    HW223886   0.999   2.133   2.436
 7663SOL     OW23887   6.325   5.238   5.608
 7663SOL    HW123888   6.382   5.214   5.529
 7663SOL    HW223889   6.346   5.331   5.638
 7664SOL     OW23890   3.743   2.165   3.243
 7664SOL    HW123891   3.782   2.081   3.280
 7664SOL    HW223892   3.651   2.179   3.281
 7665SOL     OW23893   4.195   1.867   4.406
 7665SOL    HW123894   4.294   1.882   4.400
 7665SOL    HW223895   4.154   1.878   4.315
 7666SOL     OW23896   6.075   5.704   3.546
 7666SOL    HW123897   6.090   5.801   3.527
 7666SOL    HW223898   5.980   5.690   3.574
 7667SOL     OW23899   4.977   6.245   2.361
 7667SOL    HW123900   4.995   6.209   2.270
 7667SOL    HW223901   4.890   6.209   2.395
 7668SOL     OW23902   2.053   5.048   1.326
 7668SOL    HW123903   2.030   5.146   1.325
 7668SOL    HW223904   2.074   5.020   1.420
 7669SOL     OW23905   2.675   6.805   6.271
 7669SOL    HW123906   2.767   6.802   6.310
 7669SOL    HW223907   2.679   6.835   6.176
 7670SOL     OW23908   0.565   6.946   6.945
 7670SOL    HW123909   0.516   7.019   6.991
 7670SOL    HW223910   0.618   6.984   6.869
 7671SOL     OW23911   4.852   0.854   1.355
 7671SOL    HW123912   4.761   0.887   1.380
 7671SOL    HW223913   4.918   0.928   1.366
 7672SOL     OW23914   5.256   4.626   2.833
 7672SOL    HW123915   5.194   4.563   2.785
 7672SOL    HW223916   5.314   4.672   2.766
 7673SOL     OW23917   0.938   5.222   3.886
 7673SOL    HW123918   0.925   5.306   3.832
 7673SOL    HW223919   0.988   5.155   3.832
 7674SOL     OW23920   4.361   0.190   4.577
 7674SOL    HW123921   4.460   0.203   4.570
 7674SOL    HW223922   4.327   0.238   4.657
 7675SOL     OW23923   3.512   6.450   2.693
 7675SOL    HW123924   3.413   6.446   2.679
 7675SOL    HW223925   3.552   6.360   2.678
 7676SOL     OW23926   3.020   2.946   5.620
 7676SOL    HW123927   3.009   2.850   5.646
 7676SOL    HW223928   2.980   3.005   5.690
 7677SOL     OW23929   5.788   4.830   1.838
 7677SOL    HW123930   5.836   4.775   1.769
 7677SOL    HW223931   5.749   4.911   1.794
 7678SOL     OW23932   1.254   1.408   5.560
 7678SOL    HW123933   1.158   1.437   5.565
 7678SOL    HW223934   1.258   1.309   5.545
 7679SOL     OW23935   1.580   5.437   5.244
 7679SOL    HW123936   1.577   5.423   5.145
 7679SOL    HW223937   1.670   5.473   5.271
 7680SOL     OW23938   1.598   0.836   5.230
 7680SOL    HW123939   1.611   0.739   5.247
 7680SOL    HW223940   1.681   0.874   5.188
 7681SOL     OW23941   2.806   3.335   6.536
 7681SOL    HW123942   2.782   3.350   6.632
 7681SOL    HW223943   2.761   3.405   6.480
 7682SOL     OW23944   3.041   1.791   2.981
 7682SOL    HW123945   3.039   1.834   2.892
 7682SOL    HW223946   2.983   1.709   2.980
 7683SOL     OW23947   0.711   1.164   4.606
 7683SOL    HW123948   0.684   1.182   4.701
 7683SOL    HW223949   0.638   1.115   4.559
 7684SOL     OW23950   3.994   2.233   1.474
 7684SOL    HW123951   3.897   2.227   1.499
 7684SOL    HW223952   4.051   2.216   1.554
 7685SOL     OW23953   3.062   1.169   0.378
 7685SOL    HW123954   3.161   1.152   0.378
 7685SOL    HW223955   3.021   1.121   0.455
 7686SOL     OW23956   5.477   0.857   4.051
 7686SOL    HW123957   5.411   0.870   4.125
 7686SOL    HW223958   5.530   0.941   4.038
 7687SOL     OW23959   5.847   5.455   5.019
 7687SOL    HW123960   5.922   5.517   4.997
 7687SOL    HW223961   5.818   5.407   4.936
 7688SOL     OW23962   0.832   5.093   6.740
 7688SOL    HW123963   0.905   5.158   6.720
 7688SOL    HW223964   0.827   5.077   6.839
 7689SOL     OW23965   4.741   0.194   1.981
 7689SOL    HW123966   4.733   0.095   1.970
 7689SOL    HW223967   4.651   0.237   1.974
 7690SOL     OW23968   6.537   5.029   0.845
 7690SOL    HW123969   6.543   5.089   0.766
 7690SOL    HW223970   6.600   5.061   0.917
 7691SOL     OW23971   4.558   4.810   3.477
 7691SOL    HW123972   4.547   4.736   3.410
 7691SOL    HW223973   4.578   4.895   3.428
 7692SOL     OW23974   1.408   6.532   2.253
 7692SOL    HW123975   1.351   6.524   2.172
 7692SOL    HW223976   1.488   6.587   2.233
 7693SOL     OW23977   2.767   1.323   1.104
 7693SOL    HW123978   2.831   1.267   1.156
 7693SOL    HW223979   2.747   1.407   1.155
 7694SOL     OW23980   6.136   2.336   4.794
 7694SOL    HW123981   6.043   2.301   4.803
 7694SOL    HW223982   6.143   2.425   4.838
 7695SOL     OW23983   5.876   0.608   2.525
 7695SOL    HW123984   5.958   0.664   2.528
 7695SOL    HW223985   5.802   0.653   2.575
 7696SOL     OW23986   0.472   2.843   6.538
 7696SOL    HW123987   0.408   2.845   6.461
 7696SOL    HW223988   0.472   2.933   6.582
 7697SOL     OW23989   4.165   0.347   2.755
 7697SOL    HW123990   4.179   0.400   2.838
 7697SOL    HW223991   4.077   0.299   2.761
 7698SOL     OW23992   6.286   1.704   0.125
 7698SOL    HW123993   6.297   1.659   0.036
 7698SOL    HW223994   6.281   1.803   0.111
 7699SOL     OW23995   3.559   5.103   5.854
 7699SOL    HW123996   3.468   5.080   5.821
 7699SOL    HW223997   3.618   5.023   5.850
 7700SOL     OW23998   5.118   5.558   2.710
 7700SOL    HW123999   5.048   5.540   2.778
 7700SOL    HW224000   5.207   5.525   2.743
 7701SOL     OW24001   0.029   2.529   5.786
 7701SOL    HW124002   0.119   2.554   5.819
 7701SOL    HW224003   7.002   2.611   5.757
 7702SOL     OW24004   4.725   0.094   4.429
 7702SOL    HW124005   4.687   0.186   4.443
 7702SOL    HW224006   4.809   0.085   4.483
 7703SOL     OW24007   6.616   6.324   4.633
 7703SOL    HW124008   6.529   6.370   4.651
 7703SOL    HW224009   6.647   6.346   4.541
 7704SOL     OW24010   6.109   1.327   4.260
 7704SOL    HW124011   6.146   1.276   4.182
 7704SOL    HW224012   6.069   1.263   4.326
 7705SOL     OW24013   2.175   5.103   0.334
 7705SOL    HW124014   2.142   5.158   0.410
 7705SOL    HW224015   2.108   5.104   0.260
 7706SOL     OW24016   3.638   3.235   2.343
 7706SOL    HW124017   3.581   3.315   2.330
 7706SOL    HW224018   3.602   3.159   2.289
 7707SOL     OW24019   6.596   5.680   6.655
 7707SOL    HW124020   6.614   5.766   6.608
 7707SOL    HW224021   6.682   5.641   6.687
 7708SOL     OW24022   2.181   6.757   5.028
 7708SOL    HW124023   2.150   6.664   5.011
 7708SOL    HW224024   2.103   6.817   5.043
 7709SOL     OW24025   0.396   4.988   1.394
 7709SOL    HW124026   0.321   4.946   1.446
 7709SOL    HW224027   0.367   5.001   1.299
 7710SOL     OW24028   1.531   3.510   0.503
 7710SOL    HW124029   1.504   3.556   0.588
 7710SOL    HW224030   1.625   3.536   0.480
 7711SOL     OW24031   6.323   4.566   5.324
 7711SOL    HW124032   6.309   4.481   5.374
 7711SOL    HW224033   6.406   4.559   5.268
 7712SOL     OW24034   6.425   4.583   6.209
 7712SOL    HW124035   6.425   4.627   6.119
 7712SOL    HW224036   6.491   4.629   6.268
 7713SOL     OW24037   1.819   4.843   0.289
 7713SOL    HW124038   1.865   4.756   0.272
 7713SOL    HW224039   1.816   4.861   0.387
 7714SOL     OW24040   6.701   0.772   4.725
 7714SOL    HW124041   6.725   0.868   4.713
 7714SOL    HW224042   6.771   0.715   4.682
 7715SOL     OW24043   2.361   2.752   5.843
 7715SOL    HW124044   2.358   2.659   5.879
 7715SOL    HW224045   2.340   2.817   5.916
 7716SOL     OW24046   0.991   5.524   5.632
 7716SOL    HW124047   1.049   5.498   5.555
 7716SOL    HW224048   1.048   5.557   5.707
 7717SOL     OW24049   1.810   1.972   6.790
 7717SOL    HW124050   1.861   1.927   6.716
 7717SOL    HW224051   1.714   1.943   6.785
 7718SOL     OW24052   1.396   4.487   2.693
 7718SOL    HW124053   1.387   4.486   2.793
 7718SOL    HW224054   1.315   4.445   2.653
 7719SOL     OW24055   1.835   3.769   5.033
 7719SOL    HW124056   1.871   3.862   5.041
 7719SOL    HW224057   1.737   3.772   5.013
 7720SOL     OW24058   6.324   1.565   6.913
 7720SOL    HW124059   6.390   1.492   6.929
 7720SOL    HW224060   6.245   1.528   6.863
 7721SOL     OW24061   0.778   0.923   2.720
 7721SOL    HW124062   0.783   0.824   2.705
 7721SOL    HW224063   0.808   0.971   2.638
 7722SOL     OW24064   2.151   5.729   3.921
 7722SOL    HW124065   2.157   5.784   3.838
 7722SOL    HW224066   2.059   5.736   3.960
 7723SOL     OW24067   4.867   3.930   0.446
 7723SOL    HW124068   4.787   3.914   0.503
 7723SOL    HW224069   4.890   3.847   0.396
 7724SOL     OW24070   2.688   4.215   1.530
 7724SOL    HW124071   2.601   4.214   1.480
 7724SOL    HW224072   2.720   4.122   1.544
 7725SOL     OW24073   5.496   3.268   3.303
 7725SOL    HW124074   5.435   3.210   3.357
 7725SOL    HW224075   5.441   3.336   3.253
 7726SOL     OW24076   0.299   3.296   6.310
 7726SOL    HW124077   0.225   3.228   6.310
 7726SOL    HW224078   0.285   3.360   6.234
 7727SOL     OW24079   4.904   2.501   2.232
 7727SOL    HW124080   4.924   2.403   2.227
 7727SOL    HW224081   4.881   2.525   2.326
 7728SOL     OW24082   2.153   3.233   5.064
 7728SOL    HW124083   2.233   3.178   5.038
 7728SOL    HW224084   2.138   3.227   5.162
 7729SOL     OW24085   5.525   2.209   3.653
 7729SOL    HW124086   5.538   2.152   3.734
 7729SOL    HW224087   5.562   2.161   3.573
 7730SOL     OW24088   6.413   4.097   5.253
 7730SOL    HW124089   6.332   4.096   5.312
 7730SOL    HW224090   6.485   4.152   5.296
 7731SOL     OW24091   5.766   6.684   0.647
 7731SOL    HW124092   5.850   6.680   0.593
 7731SOL    HW224093   5.701   6.747   0.603
 7732SOL     OW24094   4.497   0.323   6.430
 7732SOL    HW124095   4.434   0.287   6.499
 7732SOL    HW224096   4.520   0.250   6.365
 7733SOL     OW24097   6.480   6.131   2.137
 7733SOL    HW124098   6.393   6.179   2.126
 7733SOL    HW224099   6.545   6.166   2.069
 7734SOL     OW24100   3.263   3.945   5.350
 7734SOL    HW124101   3.252   3.880   5.274
 7734SOL    HW224102   3.336   4.010   5.328
 7735SOL     OW24103   6.925   6.082   0.461
 7735SOL    HW124104   6.953   6.022   0.386
 7735SOL    HW224105   6.872   6.158   0.425
 7736SOL     OW24106   3.018   3.082   0.545
 7736SOL    HW124107   3.064   3.076   0.634
 7736SOL    HW224108   2.927   3.120   0.557
 7737SOL     OW24109   4.061   4.601   1.717
 7737SOL    HW124110   3.986   4.664   1.737
 7737SOL    HW224111   4.025   4.520   1.671
 7738SOL     OW24112   2.938   6.501   6.764
 7738SOL    HW124113   2.890   6.565   6.703
 7738SOL    HW224114   2.905   6.408   6.748
 7739SOL     OW24115   1.404   2.129   1.011
 7739SOL    HW124116   1.388   2.214   0.959
 7739SOL    HW224117   1.337   2.060   0.982
 7740SOL     OW24118   1.335   0.993   4.420
 7740SOL    HW124119   1.348   1.064   4.350
 7740SOL    HW224120   1.323   1.035   4.509
 7741SOL     OW24121   1.680   4.354   6.166
 7741SOL    HW124122   1.713   4.298   6.241
 7741SOL    HW224123   1.669   4.297   6.084
 7742SOL     OW24124   3.841   1.484   4.211
 7742SOL    HW124125   3.761   1.514   4.261
 7742SOL    HW224126   3.825   1.493   4.113
 7743SOL     OW24127   5.042   1.269   6.244
 7743SOL    HW124128   5.111   1.251   6.173
 7743SOL    HW224129   5.062   1.212   6.324
 7744SOL     OW24130   0.567   6.135   4.412
 7744SOL    HW124131   0.515   6.200   4.466
 7744SOL    HW224132   0.615   6.183   4.339
 7745SOL     OW24133   1.765   6.462   0.239
 7745SOL    HW124134   1.839   6.512   0.195
 7745SOL    HW224135   1.692   6.526   0.264
 7746SOL     OW24136   1.344   6.276   0.853
 7746SOL    HW124137   1.358   6.317   0.762
 7746SOL    HW224138   1.301   6.186   0.842
 7747SOL     OW24139   0.855   5.880   0.823
 7747SOL    HW124140   0.834   5.977   0.810
 7747SOL    HW224141   0.793   5.825   0.766
 7748SOL     OW24142   4.221   2.838   5.482
 7748SOL    HW124143   4.195   2.886   5.566
 7748SOL    HW224144   4.139   2.813   5.431
 7749SOL     OW24145   3.556   3.348   4.151
 7749SOL    HW124146   3.487   3.316   4.215
 7749SOL    HW224147   3.580   3.274   4.088
 7750SOL     OW24148   5.596   5.131   5.252
 7750SOL    HW124149   5.647   5.068   5.192
 7750SOL    HW224150   5.644   5.218   5.255
 7751SOL     OW24151   0.097   0.991   5.105
 7751SOL    HW124152   0.025   0.924   5.089
 7751SOL    HW224153   0.186   0.947   5.094
 7752SOL     OW24154   5.900   5.599   5.506
 7752SOL    HW124155   5.894   5.670   5.435
 7752SOL    HW224156   5.995   5.576   5.523
 7753SOL     OW24157   1.807   0.908   4.236
 7753SOL    HW124158   1.777   0.900   4.331
 7753SOL    HW224159   1.732   0.880   4.175
 7754SOL     OW24160   5.843   0.343   0.634
 7754SOL    HW124161   5.886   0.312   0.719
 7754SOL    HW224162   5.744   0.338   0.643
 7755SOL     OW24163   0.373   5.911   5.330
 7755SOL    HW124164   0.385   5.812   5.325
 7755SOL    HW224165   0.445   5.956   5.277
 7756SOL     OW24166   2.926   5.080   2.420
 7756SOL    HW124167   2.964   5.082   2.327
 7756SOL    HW224168   2.980   5.018   2.477
 7757SOL     OW24169   4.540   6.319   5.597
 7757SOL    HW124170   4.582   6.400   5.637
 7757SOL    HW224171   4.559   6.316   5.499
 7758SOL     OW24172   2.502   2.256   5.954
 7758SOL    HW124173   2.412   2.214   5.964
 7758SOL    HW224174   2.523   2.270   5.857
 7759SOL     OW24175   2.214   0.418   4.220
 7759SOL    HW124176   2.195   0.516   4.216
 7759SOL    HW224177   2.268   0.397   4.302
 7760SOL     OW24178   5.135   2.898   1.875
 7760SOL    HW124179   5.048   2.931   1.839
 7760SOL    HW224180   5.166   2.958   1.949
 7761SOL     OW24181   2.845   0.118   6.819
 7761SOL    HW124182   2.821   0.171   6.738
 7761SOL    HW224183   2.853   0.179   6.898
 7762SOL     OW24184   4.277   1.712   0.129
 7762SOL    HW124185   4.271   1.675   0.036
 7762SOL    HW224186   4.232   1.802   0.132
 7763SOL     OW24187   2.002   2.116   0.896
 7763SOL    HW124188   1.954   2.095   0.982
 7763SOL    HW224189   2.073   2.047   0.879
 7764SOL     OW24190   3.954   2.948   2.024
 7764SOL    HW124191   3.975   3.020   2.091
 7764SOL    HW224192   4.022   2.875   2.032
 7765SOL     OW24193   6.163   3.215   2.886
 7765SOL    HW124194   6.178   3.136   2.826
 7765SOL    HW224195   6.079   3.262   2.860
 7766SOL     OW24196   6.016   1.727   6.885
 7766SOL    HW124197   6.031   1.765   6.976
 7766SOL    HW224198   6.092   1.754   6.825
 7767SOL     OW24199   3.884   6.101   4.022
 7767SOL    HW124200   3.845   6.014   4.052
 7767SOL    HW224201   3.869   6.112   3.924
 7768SOL     OW24202   3.697   4.879   2.182
 7768SOL    HW124203   3.622   4.840   2.129
 7768SOL    HW224204   3.667   4.891   2.277
 7769SOL     OW24205   5.353   1.967   0.497
 7769SOL    HW124206   5.277   1.928   0.445
 7769SOL    HW224207   5.440   1.934   0.459
 7770SOL     OW24208   3.169   4.726   1.512
 7770SOL    HW124209   3.091   4.741   1.573
 7770SOL    HW224210   3.252   4.711   1.566
 7771SOL     OW24211   2.866   2.138   5.399
 7771SOL    HW124212   2.913   2.073   5.458
 7771SOL    HW224213   2.911   2.227   5.404
 7772SOL     OW24214   4.838   0.787   4.046
 7772SOL    HW124215   4.791   0.874   4.028
 7772SOL    HW224216   4.783   0.733   4.110
 7773SOL     OW24217   4.111   3.944   5.540
 7773SOL    HW124218   4.106   4.042   5.562
 7773SOL    HW224219   4.159   3.896   5.613
 7774SOL     OW24220   5.258   1.521   6.085
 7774SOL    HW124221   5.260   1.611   6.042
 7774SOL    HW224222   5.253   1.532   6.185
 7775SOL     OW24223   3.188   6.887   2.443
 7775SOL    HW124224   3.220   6.815   2.381
 7775SOL    HW224225   3.237   6.880   2.530
 7776SOL     OW24226   3.789   3.424   6.139
 7776SOL    HW124227   3.697   3.448   6.172
 7776SOL    HW224228   3.838   3.507   6.113
 7777SOL     OW24229   2.473   1.216   6.953
 7777SOL    HW124230   2.432   1.155   7.020
 7777SOL    HW224231   2.408   1.288   6.928
 7778SOL     OW24232   5.731   0.096   6.524
 7778SOL    HW124233   5.826   0.069   6.506
 7778SOL    HW224234   5.708   0.174   6.467
 7779SOL     OW24235   3.538   2.231   0.683
 7779SOL    HW124236   3.602   2.282   0.740
 7779SOL    HW224237   3.567   2.234   0.587
 7780SOL     OW24238   1.825   6.217   4.594
 7780SOL    HW124239   1.851   6.284   4.524
 7780SOL    HW224240   1.870   6.130   4.575
 7781SOL     OW24241   1.417   3.643   5.834
 7781SOL    HW124242   1.436   3.561   5.779
 7781SOL    HW224243   1.493   3.659   5.897
 7782SOL     OW24244   2.412   4.054   6.551
 7782SOL    HW124245   2.377   4.033   6.460
 7782SOL    HW224246   2.336   4.063   6.615
 7783SOL     OW24247   2.455   6.304   6.845
 7783SOL    HW124248   2.358   6.281   6.853
 7783SOL    HW224249   2.466   6.401   6.827
 7784SOL     OW24250   0.838   2.916   6.781
 7784SOL    HW124251   0.809   3.012   6.784
 7784SOL    HW224252   0.934   2.911   6.754
 7785SOL     OW24253   2.294   6.395   4.267
 7785SOL    HW124254   2.369   6.450   4.231
 7785SOL    HW224255   2.217   6.454   4.290
 7786SOL     OW24256   2.973   4.733   5.324
 7786SOL    HW124257   2.909   4.726   5.401
 7786SOL    HW224258   2.951   4.663   5.256
 7787SOL     OW24259   2.213   2.888   4.860
 7787SOL    HW124260   2.277   2.944   4.914
 7787SOL    HW224261   2.121   2.896   4.900
 7788SOL     OW24262   0.993   1.513   1.749
 7788SOL    HW124263   0.955   1.605   1.763
 7788SOL    HW224264   0.919   1.451   1.723
 7789SOL     OW24265   2.497   0.342   1.258
 7789SOL    HW124266   2.561   0.417   1.241
 7789SOL    HW224267   2.403   0.374   1.242
 7790SOL     OW24268   6.620   3.863   2.832
 7790SOL    HW124269   6.540   3.816   2.795
 7790SOL    HW224270   6.593   3.953   2.866
 7791SOL     OW24271   2.765   5.180   4.640
 7791SOL    HW124272   2.734   5.105   4.698
 7791SOL    HW224273   2.718   5.264   4.666
 7792SOL     OW24274   2.219   6.159   6.206
 7792SOL    HW124275   2.318   6.161   6.195
 7792SOL    HW224276   2.196   6.157   6.304
 7793SOL     OW24277   1.338   1.077   5.919
 7793SOL    HW124278   1.290   1.017   5.856
 7793SOL    HW224279   1.274   1.111   5.988
 7794SOL     OW24280   5.197   5.406   4.694
 7794SOL    HW124281   5.124   5.409   4.762
 7794SOL    HW224282   5.222   5.499   4.668
 7795SOL     OW24283   2.153   4.046   5.833
 7795SOL    HW124284   2.126   4.051   5.736
 7795SOL    HW224285   2.202   3.961   5.850
 7796SOL     OW24286   3.717   4.018   3.487
 7796SOL    HW124287   3.664   3.937   3.511
 7796SOL    HW224288   3.807   4.014   3.530
 7797SOL     OW24289   0.219   6.565   2.635
 7797SOL    HW124290   0.277   6.577   2.715
 7797SOL    HW224291   0.124   6.553   2.663
 7798SOL     OW24292   3.573   5.537   0.135
 7798SOL    HW124293   3.631   5.513   0.057
 7798SOL    HW224294   3.611   5.617   0.181
 7799SOL     OW24295   0.200   5.452   0.962
 7799SOL    HW124296   0.135   5.497   0.901
 7799SOL    HW224297   0.173   5.356   0.973
 7800SOL     OW24298   0.342   4.957   1.809
 7800SOL    HW124299   0.329   4.862   1.783
 7800SOL    HW224300   0.439   4.981   1.803
 7801SOL     OW24301   2.551   1.437   0.183
 7801SOL    HW124302   2.460   1.397   0.172
 7801SOL    HW224303   2.587   1.462   0.093
 7802SOL     OW24304   5.709   2.554   1.677
 7802SOL    HW124305   5.687   2.641   1.722
 7802SOL    HW224306   5.790   2.514   1.720
 7803SOL     OW24307   3.736   3.850   6.014
 7803SOL    HW124308   3.678   3.779   5.975
 7803SOL    HW224309   3.755   3.920   5.944
 7804SOL     OW24310   5.114   1.591   5.052
 7804SOL    HW124311   5.202   1.601   5.005
 7804SOL    HW224312   5.119   1.517   5.118
 7805SOL     OW24313   5.347   2.531   1.943
 7805SOL    HW124314   5.410   2.486   1.880
 7805SOL    HW224315   5.388   2.532   2.035
 7806SOL     OW24316   5.385   2.859   6.332
 7806SOL    HW124317   5.438   2.782   6.369
 7806SOL    HW224318   5.366   2.843   6.235
 7807SOL     OW24319   6.760   3.995   6.377
 7807SOL    HW124320   6.846   4.000   6.428
 7807SOL    HW224321   6.686   4.032   6.434
 7808SOL     OW24322   0.301   1.285   4.597
 7808SOL    HW124323   0.334   1.263   4.505
 7808SOL    HW224324   0.379   1.303   4.657
 7809SOL     OW24325   2.171   5.513   4.517
 7809SOL    HW124326   2.182   5.475   4.425
 7809SOL    HW224327   2.260   5.539   4.554
 7810SOL     OW24328   3.136   0.461   5.413
 7810SOL    HW124329   3.066   0.503   5.356
 7810SOL    HW224330   3.096   0.433   5.501
 7811SOL     OW24331   5.183   4.618   3.549
 7811SOL    HW124332   5.148   4.534   3.591
 7811SOL    HW224333   5.252   4.595   3.481
 7812SOL     OW24334   1.893   1.436   4.503
 7812SOL    HW124335   1.928   1.489   4.426
 7812SOL    HW224336   1.799   1.464   4.523
 7813SOL     OW24337   6.009   2.972   6.717
 7813SOL    HW124338   6.083   2.935   6.661
 7813SOL    HW224339   6.009   2.927   6.806
 7814SOL     OW24340   6.411   3.012   3.641
 7814SOL    HW124341   6.503   3.002   3.678
 7814SOL    HW224342   6.406   2.967   3.552
 7815SOL     OW24343   6.034   1.742   6.525
 7815SOL    HW124344   6.125   1.708   6.547
 7815SOL    HW224345   6.040   1.806   6.447
 7816SOL     OW24346   0.212   3.551   5.802
 7816SOL    HW124347   0.242   3.514   5.714
 7816SOL    HW224348   0.255   3.500   5.876
 7817SOL     OW24349   5.764   4.070   4.818
 7817SOL    HW124350   5.802   4.037   4.731
 7817SOL    HW224351   5.807   4.156   4.843
 7818SOL     OW24352   6.403   6.547   1.650
 7818SOL    HW124353   6.455   6.571   1.569
 7818SOL    HW224354   6.306   6.535   1.626
 7819SOL     OW24355   6.678   2.513   1.259
 7819SOL    HW124356   6.636   2.541   1.346
 7819SOL    HW224357   6.617   2.447   1.214
 7820SOL     OW24358   1.727   1.793   6.298
 7820SOL    HW124359   1.726   1.715   6.236
 7820SOL    HW224360   1.817   1.836   6.298
 7821SOL     OW24361   3.783   5.596   1.159
 7821SOL    HW124362   3.736   5.523   1.207
 7821SOL    HW224363   3.880   5.574   1.151
 7822SOL     OW24364   1.034   5.565   4.923
 7822SOL    HW124365   1.115   5.621   4.936
 7822SOL    HW224366   0.966   5.589   4.993
 7823SOL     OW24367   2.322   4.334   5.083
 7823SOL    HW124368   2.343   4.236   5.087
 7823SOL    HW224369   2.350   4.377   5.169
 7824SOL     OW24370   0.248   2.336   5.404
 7824SOL    HW124371   0.285   2.263   5.347
 7824SOL    HW224372   0.168   2.302   5.454
 7825SOL     OW24373   2.225   1.973   6.554
 7825SOL    HW124374   2.259   1.884   6.584
 7825SOL    HW224375   2.291   2.044   6.579
 7826SOL     OW24376   6.578   2.575   6.677
 7826SOL    HW124377   6.559   2.576   6.775
 7826SOL    HW224378   6.590   2.669   6.645
 7827SOL     OW24379   6.982   6.506   2.755
 7827SOL    HW124380   6.940   6.438   2.696
 7827SOL    HW224381   6.911   6.565   2.794
 7828SOL     OW24382   0.084   3.818   6.785
 7828SOL    HW124383   0.113   3.867   6.867
 7828SOL    HW224384   0.148   3.836   6.711
 7829SOL     OW24385   3.383   2.741   1.560
 7829SOL    HW124386   3.457   2.808   1.550
 7829SOL    HW224387   3.363   2.727   1.657
 7830SOL     OW24388   2.900   5.428   4.464
 7830SOL    HW124389   2.930   5.366   4.536
 7830SOL    HW224390   2.976   5.447   4.402
 7831SOL     OW24391   1.753   2.095   1.024
 7831SOL    HW124392   1.775   2.192   1.019
 7831SOL    HW224393   1.707   2.076   1.111
 7832SOL     OW24394   5.604   0.412   5.077
 7832SOL    HW124395   5.541   0.459   5.016
 7832SOL    HW224396   5.616   0.318   5.047
 7833SOL     OW24397   1.939   0.377   4.146
 7833SOL    HW124398   1.887   0.461   4.158
 7833SOL    HW224399   2.034   0.393   4.173
 7834SOL     OW24400   6.424   2.614   4.599
 7834SOL    HW124401   6.406   2.519   4.575
 7834SOL    HW224402   6.467   2.660   4.521
 7835SOL     OW24403   4.318   2.004   5.318
 7835SOL    HW124404   4.315   2.100   5.289
 7835SOL    HW224405   4.282   1.946   5.244
 7836SOL     OW24406   3.642   4.158   5.094
 7836SOL    HW124407   3.707   4.169   5.018
 7836SOL    HW224408   3.558   4.116   5.060
 7837SOL     OW24409   6.183   6.559   0.317
 7837SOL    HW124410   6.128   6.552   0.234
 7837SOL    HW224411   6.266   6.611   0.298
 7838SOL     OW24412   5.387   5.488   1.004
 7838SOL    HW124413   5.361   5.559   1.069
 7838SOL    HW224414   5.446   5.527   0.934
 7839SOL     OW24415   6.147   4.219   4.867
 7839SOL    HW124416   6.212   4.145   4.880
 7839SOL    HW224417   6.131   4.232   4.769
 7840SOL     OW24418   2.233   4.029   3.198
 7840SOL    HW124419   2.301   3.956   3.190
 7840SOL    HW224420   2.154   4.007   3.140
 7841SOL     OW24421   5.235   1.956   5.758
 7841SOL    HW124422   5.316   1.970   5.701
 7841SOL    HW224423   5.183   2.042   5.763
 7842SOL     OW24424   1.798   1.392   2.514
 7842SOL    HW124425   1.787   1.294   2.503
 7842SOL    HW224426   1.852   1.411   2.596
 7843SOL     OW24427   0.439   6.445   3.655
 7843SOL    HW124428   0.516   6.477   3.710
 7843SOL    HW224429   0.375   6.394   3.713
 7844SOL     OW24430   3.599   1.287   2.504
 7844SOL    HW124431   3.538   1.341   2.561
 7844SOL    HW224432   3.689   1.281   2.547
 7845SOL     OW24433   6.172   1.996   1.451
 7845SOL    HW124434   6.161   1.898   1.468
 7845SOL    HW224435   6.090   2.031   1.406
 7846SOL     OW24436   1.166   2.546   6.954
 7846SOL    HW124437   1.159   2.583   0.024
 7846SOL    HW224438   1.262   2.534   6.930
 7847SOL     OW24439   5.979   2.126   4.255
 7847SOL    HW124440   5.939   2.139   4.345
 7847SOL    HW224441   6.040   2.202   4.234
 7848SOL     OW24442   2.516   5.013   0.458
 7848SOL    HW124443   2.529   4.980   0.552
 7848SOL    HW224444   2.580   4.965   0.398
 7849SOL     OW24445   4.790   3.870   5.768
 7849SOL    HW124446   4.879   3.839   5.735
 7849SOL    HW224447   4.727   3.881   5.691
 7850SOL     OW24448   6.719   1.345   3.390
 7850SOL    HW124449   6.725   1.427   3.446
 7850SOL    HW224450   6.738   1.265   3.446
 7851SOL     OW24451   0.899   4.349   1.554
 7851SOL    HW124452   0.976   4.374   1.495
 7851SOL    HW224453   0.933   4.332   1.647
 7852SOL     OW24454   2.206   1.854   0.274
 7852SOL    HW124455   2.128   1.915   0.287
 7852SOL    HW224456   2.219   1.799   0.357
 7853SOL     OW24457   4.157   2.842   1.489
 7853SOL    HW124458   4.255   2.833   1.469
 7853SOL    HW224459   4.110   2.870   1.406
 7854SOL     OW24460   4.665   1.804   5.763
 7854SOL    HW124461   4.743   1.808   5.826
 7854SOL    HW224462   4.593   1.865   5.796
 7855SOL     OW24463   5.373   7.003   4.238
 7855SOL    HW124464   5.373   0.037   4.156
 7855SOL    HW224465   5.316   0.023   4.308
 7856SOL     OW24466   1.882   5.300   4.758
 7856SOL    HW124467   1.897   5.263   4.667
 7856SOL    HW224468   1.970   5.327   4.798
 7857SOL     OW24469   5.300   4.114   6.856
 7857SOL    HW124470   5.391   4.152   6.871
 7857SOL    HW224471   5.231   4.177   6.890
 7858SOL     OW24472   0.683   5.116   5.848
 7858SOL    HW124473   0.604   5.143   5.793
 7858SOL    HW224474   0.670   5.022   5.880
 7859SOL     OW24475   5.300   2.495   6.312
 7859SOL    HW124476   5.207   2.531   6.313
 7859SOL    HW224477   5.363   2.566   6.341
 7860SOL     OW24478   2.759   0.795   5.138
 7860SOL    HW124479   2.705   0.799   5.054
 7860SOL    HW224480   2.821   0.873   5.142
 7861SOL     OW24481   2.691   6.436   1.283
 7861SOL    HW124482   2.691   6.474   1.191
 7861SOL    HW224483   2.785   6.435   1.319
 7862SOL     OW24484   2.978   6.256   1.325
 7862SOL    HW124485   2.920   6.231   1.247
 7862SOL    HW224486   3.049   6.320   1.295
 7863SOL     OW24487   0.098   4.352   3.728
 7863SOL    HW124488   0.011   4.329   3.684
 7863SOL    HW224489   0.173   4.311   3.677
 7864SOL     OW24490   2.413   6.498   5.919
 7864SOL    HW124491   2.343   6.437   5.956
 7864SOL    HW224492   2.466   6.450   5.849
 7865SOL     OW24493   6.309   6.461   3.928
 7865SOL    HW124494   6.211   6.481   3.915
 7865SOL    HW224495   6.320   6.367   3.960
 7866SOL     OW24496   1.713   0.581   6.382
 7866SOL    HW124497   1.754   0.672   6.395
 7866SOL    HW224498   1.717   0.531   6.468
 7867SOL     OW24499   5.454   0.364   3.586
 7867SOL    HW124500   5.383   0.299   3.557
 7867SOL    HW224501   5.543   0.332   3.556
 7868SOL     OW24502   3.702   6.426   0.999
 7868SOL    HW124503   3.681   6.371   1.079
 7868SOL    HW224504   3.800   6.446   0.997
 7869SOL     OW24505   5.027   4.112   5.604
 7869SOL    HW124506   5.090   4.118   5.681
 7869SOL    HW224507   5.056   4.038   5.543
 7870SOL     OW24508   4.712   6.394   4.846
 7870SOL    HW124509   4.740   6.488   4.825
 7870SOL    HW224510   4.739   6.372   4.940
 7871SOL     OW24511   5.250   1.479   2.092
 7871SOL    HW124512   5.188   1.491   2.170
 7871SOL    HW224513   5.200   1.440   2.015
 7872SOL     OW24514   1.974   5.875   2.601
 7872SOL    HW124515   1.936   5.783   2.597
 7872SOL    HW224516   2.017   5.889   2.690
 7873SOL     OW24517   0.011   1.337   0.205
 7873SOL    HW124518   6.986   1.319   0.291
 7873SOL    HW224519   0.042   1.432   0.203
 7874SOL     OW24520   5.632   2.659   1.059
 7874SOL    HW124521   5.553   2.684   1.002
 7874SOL    HW224522   5.602   2.600   1.133
 7875SOL     OW24523   4.347   4.289   6.573
 7875SOL    HW124524   4.298   4.205   6.552
 7875SOL    HW224525   4.312   4.363   6.515
 7876SOL     OW24526   0.581   0.279   2.604
 7876SOL    HW124527   0.510   0.349   2.597
 7876SOL    HW224528   0.556   0.214   2.676
 7877SOL     OW24529   6.591   1.370   2.830
 7877SOL    HW124530   6.540   1.320   2.761
 7877SOL    HW224531   6.678   1.401   2.791
 7878SOL     OW24532   4.704   4.665   3.652
 7878SOL    HW124533   4.737   4.716   3.732
 7878SOL    HW224534   4.656   4.727   3.590
 7879SOL     OW24535   2.688   4.784   3.418
 7879SOL    HW124536   2.601   4.788   3.467
 7879SOL    HW224537   2.671   4.772   3.320
 7880SOL     OW24538   1.689   3.861   1.563
 7880SOL    HW124539   1.663   3.905   1.477
 7880SOL    HW224540   1.663   3.920   1.640
 7881SOL     OW24541   4.904   3.710   4.304
 7881SOL    HW124542   4.871   3.746   4.392
 7881SOL    HW224543   4.967   3.634   4.322
 7882SOL     OW24544   1.809   3.065   1.297
 7882SOL    HW124545   1.887   3.121   1.324
 7882SOL    HW224546   1.781   3.008   1.374
 7883SOL     OW24547   0.981   1.394   4.924
 7883SOL    HW124548   1.001   1.388   5.022
 7883SOL    HW224549   0.885   1.418   4.911
 7884SOL     OW24550   0.278   3.198   4.836
 7884SOL    HW124551   0.256   3.112   4.790
 7884SOL    HW224552   0.370   3.193   4.875
 7885SOL     OW24553   6.105   5.214   6.954
 7885SOL    HW124554   6.126   5.294   6.898
 7885SOL    HW224555   6.189   5.165   6.976
 7886SOL     OW24556   4.700   5.527   6.759
 7886SOL    HW124557   4.780   5.508   6.703
 7886SOL    HW224558   4.719   5.603   6.820
 7887SOL     OW24559   4.761   2.251   0.184
 7887SOL    HW124560   4.810   2.334   0.155
 7887SOL    HW224561   4.801   2.216   0.269
 7888SOL     OW24562   4.701   0.663   4.484
 7888SOL    HW124563   4.747   0.712   4.558
 7888SOL    HW224564   4.606   0.646   4.509
 7889SOL     OW24565   0.168   6.011   2.407
 7889SOL    HW124566   0.224   6.050   2.333
 7889SOL    HW224567   0.170   5.911   2.400
 7890SOL     OW24568   1.794   3.990   2.563
 7890SOL    HW124569   1.809   3.932   2.484
 7890SOL    HW224570   1.807   4.086   2.538
 7891SOL     OW24571   2.637   4.741   1.965
 7891SOL    HW124572   2.710   4.673   1.969
 7891SOL    HW224573   2.599   4.744   1.873
 7892SOL     OW24574   2.228   2.259   5.573
 7892SOL    HW124575   2.196   2.319   5.646
 7892SOL    HW224576   2.251   2.314   5.493
 7893SOL     OW24577   6.413   6.334   0.823
 7893SOL    HW124578   6.399   6.278   0.741
 7893SOL    HW224579   6.408   6.431   0.799
 7894SOL     OW24580   2.582   6.353   1.932
 7894SOL    HW124581   2.663   6.390   1.886
 7894SOL    HW224582   2.501   6.403   1.903
 7895SOL     OW24583   6.291   1.069   4.398
 7895SOL    HW124584   6.206   1.018   4.415
 7895SOL    HW224585   6.275   1.166   4.415
 7896SOL     OW24586   5.120   4.358   5.540
 7896SOL    HW124587   5.078   4.270   5.557
 7896SOL    HW224588   5.145   4.401   5.627
 7897SOL     OW24589   2.563   3.716   6.781
 7897SOL    HW124590   2.556   3.626   6.739
 7897SOL    HW224591   2.637   3.767   6.739
 7898SOL     OW24592   4.328   2.211   3.764
 7898SOL    HW124593   4.421   2.180   3.743
 7898SOL    HW224594   4.269   2.198   3.684
 7899SOL     OW24595   5.732   2.163   2.723
 7899SOL    HW124596   5.649   2.161   2.668
 7899SOL    HW224597   5.710   2.191   2.816
 7900SOL     OW24598   1.911   5.676   1.172
 7900SOL    HW124599   1.975   5.600   1.167
 7900SOL    HW224600   1.947   5.755   1.122
 7901SOL     OW24601   6.518   6.455   6.567
 7901SOL    HW124602   6.447   6.505   6.517
 7901SOL    HW224603   6.548   6.376   6.514
 7902SOL     OW24604   4.381   4.291   0.634
 7902SOL    HW124605   4.457   4.320   0.576
 7902SOL    HW224606   4.312   4.244   0.578
 7903SOL     OW24607   6.587   1.362   0.053
 7903SOL    HW124608   6.608   1.458   0.037
 7903SOL    HW224609   6.521   1.354   0.127
 7904SOL     OW24610   6.940   1.227   2.574
 7904SOL    HW124611   6.864   1.168   2.545
 7904SOL    HW224612   6.903   1.313   2.611
 7905SOL     OW24613   4.233   0.662   1.366
 7905SOL    HW124614   4.287   0.724   1.309
 7905SOL    HW224615   4.147   0.706   1.390
 7906SOL     OW24616   5.338   6.055   0.082
 7906SOL    HW124617   5.415   6.095   0.032
 7906SOL    HW224618   5.269   6.022   0.017
 7907SOL     OW24619   6.925   2.969   3.552
 7907SOL    HW124620   6.894   3.009   3.466
 7907SOL    HW224621   6.848   2.964   3.617
 7908SOL     OW24622   6.716   1.920   3.798
 7908SOL    HW124623   6.777   1.845   3.824
 7908SOL    HW224624   6.646   1.886   3.735
 7909SOL     OW24625   4.818   4.019   5.047
 7909SOL    HW124626   4.789   3.996   4.954
 7909SOL    HW224627   4.795   4.114   5.067
 7910SOL     OW24628   4.761   3.348   5.876
 7910SOL    HW124629   4.678   3.404   5.879
 7910SOL    HW224630   4.825   3.387   5.811
 7911SOL     OW24631   6.598   4.723   0.222
 7911SOL    HW124632   6.569   4.628   0.228
 7911SOL    HW224633   6.553   4.777   0.293
 7912SOL     OW24634   5.762   4.592   6.370
 7912SOL    HW124635   5.849   4.624   6.408
 7912SOL    HW224636   5.752   4.627   6.277
 7913SOL     OW24637   6.642   5.359   6.694
 7913SOL    HW124638   6.549   5.390   6.675
 7913SOL    HW224639   6.673   5.399   6.780
 7914SOL     OW24640   5.927   3.861   1.368
 7914SOL    HW124641   5.942   3.792   1.298
 7914SOL    HW224642   5.829   3.882   1.375
 7915SOL     OW24643   4.039   1.854   3.420
 7915SOL    HW124644   4.024   1.952   3.406
 7915SOL    HW224645   4.029   1.832   3.517
 7916SOL     OW24646   5.676   3.078   5.537
 7916SOL    HW124647   5.591   3.129   5.522
 7916SOL    HW224648   5.715   3.051   5.450
 7917SOL     OW24649   3.476   3.797   4.212
 7917SOL    HW124650   3.380   3.776   4.190
 7917SOL    HW224651   3.503   3.882   4.166
 7918SOL     OW24652   6.220   1.312   2.697
 7918SOL    HW124653   6.233   1.412   2.698
 7918SOL    HW224654   6.125   1.291   2.722
 7919SOL     OW24655   5.151   5.436   2.160
 7919SOL    HW124656   5.082   5.370   2.190
 7919SOL    HW224657   5.125   5.527   2.190
 7920SOL     OW24658   0.520   5.175   1.551
 7920SOL    HW124659   0.452   5.109   1.518
 7920SOL    HW224660   0.563   5.221   1.473
 7921SOL     OW24661   1.981   6.716   1.703
 7921SOL    HW124662   1.907   6.747   1.643
 7921SOL    HW224663   2.037   6.648   1.655
 7922SOL     OW24664   1.246   5.710   6.084
 7922SOL    HW124665   1.165   5.668   6.042
 7922SOL    HW224666   1.281   5.782   6.024
 7923SOL     OW24667   1.229   1.318   3.559
 7923SOL    HW124668   1.273   1.322   3.469
 7923SOL    HW224669   1.130   1.313   3.548
 7924SOL     OW24670   3.019   6.997   3.542
 7924SOL    HW124671   3.072   6.913   3.548
 7924SOL    HW224672   2.995   0.005   3.634
 7925SOL     OW24673   6.479   1.555   6.330
 7925SOL    HW124674   6.417   1.497   6.277
 7925SOL    HW224675   6.426   1.628   6.374
 7926SOL     OW24676   3.312   0.568   2.408
 7926SOL    HW124677   3.350   0.646   2.357
 7926SOL    HW224678   3.216   0.555   2.381
 7927SOL     OW24679   4.009   4.858   4.997
 7927SOL    HW124680   3.986   4.931   4.933
 7927SOL    HW224681   4.090   4.809   4.963
 7928SOL     OW24682   1.708   5.293   2.427
 7928SOL    HW124683   1.654   5.376   2.415
 7928SOL    HW224684   1.683   5.248   2.512
 7929SOL     OW24685   4.127   3.498   4.397
 7929SOL    HW124686   4.061   3.430   4.366
 7929SOL    HW224687   4.119   3.580   4.341
 7930SOL     OW24688   4.694   5.529   3.889
 7930SOL    HW124689   4.724   5.624   3.896
 7930SOL    HW224690   4.615   5.524   3.828
 7931SOL     OW24691   2.328   1.985   0.506
 7931SOL    HW124692   2.349   1.918   0.577
 7931SOL    HW224693   2.254   2.044   0.537
 7932SOL     OW24694   1.902   6.891   0.204
 7932SOL    HW124695   1.924   6.803   0.163
 7932SOL    HW224696   1.804   6.910   0.192
 7933SOL     OW24697   1.089   0.263   6.787
 7933SOL    HW124698   1.073   0.305   6.876
 7933SOL    HW224699   1.160   0.193   6.795
 7934SOL     OW24700   3.083   3.860   0.058
 7934SOL    HW124701   2.985   3.867   0.075
 7934SOL    HW224702   3.125   3.951   0.062
 7935SOL     OW24703   4.629   6.533   1.620
 7935SOL    HW124704   4.685   6.500   1.544
 7935SOL    HW224705   4.589   6.456   1.669
 7936SOL     OW24706   4.257   6.020   3.002
 7936SOL    HW124707   4.186   5.965   2.959
 7936SOL    HW224708   4.344   5.970   2.999
 7937SOL     OW24709   6.343   6.421   5.618
 7937SOL    HW124710   6.348   6.349   5.687
 7937SOL    HW224711   6.402   6.497   5.644
 7938SOL     OW24712   4.405   5.456   4.720
 7938SOL    HW124713   4.361   5.487   4.804
 7938SOL    HW224714   4.489   5.406   4.743
 7939SOL     OW24715   1.154   0.953   5.772
 7939SOL    HW124716   1.151   0.861   5.809
 7939SOL    HW224717   1.061   0.984   5.752
 7940SOL     OW24718   2.337   5.708   1.234
 7940SOL    HW124719   2.416   5.651   1.212
 7940SOL    HW224720   2.276   5.659   1.296
 7941SOL     OW24721   0.182   0.939   0.540
 7941SOL    HW124722   0.171   0.942   0.440
 7941SOL    HW224723   0.148   1.024   0.580
 7942SOL     OW24724   0.549   0.053   1.657
 7942SOL    HW124725   0.473   0.041   1.721
 7942SOL    HW224726   0.635   0.040   1.705
 7943SOL     OW24727   5.597   2.141   0.934
 7943SOL    HW124728   5.567   2.157   0.840
 7943SOL    HW224729   5.697   2.148   0.938
 7944SOL     OW24730   0.607   4.083   1.037
 7944SOL    HW124731   0.693   4.133   1.045
 7944SOL    HW224732   0.535   4.145   1.006
 7945SOL     OW24733   5.386   6.447   2.879
 7945SOL    HW124734   5.287   6.450   2.871
 7945SOL    HW224735   5.424   6.391   2.804
 7946SOL     OW24736   2.111   2.384   5.790
 7946SOL    HW124737   2.084   2.475   5.757
 7946SOL    HW224738   2.053   2.359   5.868
 7947SOL     OW24739   4.475   2.812   6.609
 7947SOL    HW124740   4.435   2.738   6.664
 7947SOL    HW224741   4.497   2.778   6.518
 7948SOL     OW24742   6.930   6.675   0.265
 7948SOL    HW124743   7.022   6.651   0.234
 7948SOL    HW224744   6.934   6.708   0.359
 7949SOL     OW24745   5.197   5.081   3.681
 7949SOL    HW124746   5.115   5.138   3.687
 7949SOL    HW224747   5.271   5.124   3.732
 7950SOL     OW24748   4.069   5.125   3.948
 7950SOL    HW124749   4.037   5.033   3.923
 7950SOL    HW224750   4.087   5.128   4.047
 7951SOL     OW24751   3.732   3.495   0.701
 7951SOL    HW124752   3.791   3.415   0.714
 7951SOL    HW224753   3.690   3.492   0.610
 7952SOL     OW24754   6.063   3.465   0.960
 7952SOL    HW124755   6.060   3.396   1.032
 7952SOL    HW224756   6.157   3.496   0.947
 7953SOL     OW24757   2.370   2.522   3.505
 7953SOL    HW124758   2.462   2.498   3.473
 7953SOL    HW224759   2.305   2.512   3.429
 7954SOL     OW24760   4.155   5.621   4.481
 7954SOL    HW124761   4.096   5.612   4.561
 7954SOL    HW224762   4.212   5.703   4.491
 7955SOL     OW24763   0.390   6.495   6.328
 7955SOL    HW124764   0.400   6.397   6.311
 7955SOL    HW224765   0.360   6.509   6.423
 7956SOL     OW24766   6.655   6.239   3.973
 7956SOL    HW124767   6.584   6.257   4.041
 7956SOL    HW224768   6.614   6.196   3.892
 7957SOL     OW24769   1.152   1.479   1.113
 7957SOL    HW124770   1.083   1.445   1.048
 7957SOL    HW224771   1.131   1.444   1.205
 7958SOL     OW24772   3.171   4.857   3.471
 7958SOL    HW124773   3.130   4.806   3.395
 7958SOL    HW224774   3.270   4.864   3.456
 7959SOL     OW24775   6.379   4.806   0.400
 7959SOL    HW124776   6.343   4.891   0.439
 7959SOL    HW224777   6.423   4.752   0.471
 7960SOL     OW24778   2.765   1.554   1.271
 7960SOL    HW124779   2.826   1.632   1.255
 7960SOL    HW224780   2.753   1.541   1.369
 7961SOL     OW24781   1.509   5.936   6.099
 7961SOL    HW124782   1.429   5.941   6.038
 7961SOL    HW224783   1.586   5.898   6.049
 7962SOL     OW24784   1.858   0.703   2.104
 7962SOL    HW124785   1.784   0.660   2.052
 7962SOL    HW224786   1.927   0.738   2.040
 7963SOL     OW24787   0.883   1.014   5.809
 7963SOL    HW124788   0.846   1.080   5.875
 7963SOL    HW224789   0.852   0.922   5.833
 7964SOL     OW24790   5.495   5.357   3.651
 7964SOL    HW124791   5.438   5.345   3.570
 7964SOL    HW224792   5.455   5.428   3.710
 7965SOL     OW24793   5.172   2.510   0.221
 7965SOL    HW124794   5.189   2.411   0.225
 7965SOL    HW224795   5.127   2.532   0.135
 7966SOL     OW24796   6.996   5.256   3.923
 7966SOL    HW124797   6.964   5.161   3.921
 7966SOL    HW224798   6.924   5.316   3.888
 7967SOL     OW24799   3.264   6.379   2.575
 7967SOL    HW124800   3.170   6.400   2.544
 7967SOL    HW224801   3.296   6.296   2.529
 7968SOL     OW24802   2.205   2.382   3.674
 7968SOL    HW124803   2.270   2.439   3.624
 7968SOL    HW224804   2.255   2.314   3.728
 7969SOL     OW24805   3.740   1.501   3.509
 7969SOL    HW124806   3.771   1.583   3.556
 7969SOL    HW224807   3.818   1.452   3.471
 7970SOL     OW24808   0.371   4.121   2.976
 7970SOL    HW124809   0.402   4.207   3.017
 7970SOL    HW224810   0.295   4.139   2.914
 7971SOL     OW24811   3.455   0.162   0.987
 7971SOL    HW124812   3.389   0.180   1.060
 7971SOL    HW224813   3.542   0.207   1.008
 7972SOL     OW24814   6.817   4.601   1.468
 7972SOL    HW124815   6.872   4.654   1.532
 7972SOL    HW224816   6.758   4.538   1.518
 7973SOL     OW24817   4.904   3.291   3.753
 7973SOL    HW124818   4.923   3.378   3.799
 7973SOL    HW224819   4.835   3.305   3.681
 7974SOL     OW24820   5.179   0.424   4.235
 7974SOL    HW124821   5.203   0.330   4.211
 7974SOL    HW224822   5.262   0.475   4.258
 7975SOL     OW24823   3.235   1.013   4.358
 7975SOL    HW124824   3.294   1.074   4.305
 7975SOL    HW224825   3.168   0.970   4.297
 7976SOL     OW24826   1.147   6.154   5.434
 7976SOL    HW124827   1.218   6.130   5.501
 7976SOL    HW224828   1.107   6.242   5.458
 7977SOL     OW24829   5.244   6.236   1.921
 7977SOL    HW124830   5.297   6.177   1.861
 7977SOL    HW224831   5.284   6.328   1.923
 7978SOL     OW24832   4.562   3.546   5.857
 7978SOL    HW124833   4.543   3.591   5.769
 7978SOL    HW224834   4.549   3.612   5.931
 7979SOL     OW24835   2.730   0.198   4.277
 7979SOL    HW124836   2.805   0.177   4.339
 7979SOL    HW224837   2.661   0.126   4.282
 7980SOL     OW24838   3.259   6.033   0.196
 7980SOL    HW124839   3.351   5.996   0.200
 7980SOL    HW224840   3.200   5.970   0.145
 7981SOL     OW24841   1.357   5.155   2.284
 7981SOL    HW124842   1.258   5.166   2.289
 7981SOL    HW224843   1.385   5.149   2.188
 7982SOL     OW24844   6.593   2.041   0.592
 7982SOL    HW124845   6.537   1.973   0.640
 7982SOL    HW224846   6.601   2.015   0.496
 7983SOL     OW24847   5.404   1.786   2.391
 7983SOL    HW124848   5.368   1.877   2.369
 7983SOL    HW224849   5.444   1.745   2.309
 7984SOL     OW24850   0.239   2.654   2.369
 7984SOL    HW124851   0.160   2.613   2.415
 7984SOL    HW224852   0.285   2.584   2.314
 7985SOL     OW24853   0.870   1.294   2.450
 7985SOL    HW124854   0.782   1.329   2.417
 7985SOL    HW224855   0.871   1.194   2.443
 7986SOL     OW24856   3.955   1.017   6.443
 7986SOL    HW124857   3.982   1.004   6.538
 7986SOL    HW224858   3.917   1.109   6.431
 7987SOL     OW24859   0.424   2.491   5.515
 7987SOL    HW124860   0.523   2.479   5.507
 7987SOL    HW224861   0.378   2.417   5.465
 7988SOL     OW24862   2.577   2.028   4.657
 7988SOL    HW124863   2.671   2.015   4.623
 7988SOL    HW224864   2.573   2.001   4.754
 7989SOL     OW24865   3.317   2.363   5.900
 7989SOL    HW124866   3.301   2.339   5.804
 7989SOL    HW224867   3.314   2.462   5.910
 7990SOL     OW24868   1.095   2.777   4.676
 7990SOL    HW124869   1.176   2.749   4.625
 7990SOL    HW224870   1.066   2.868   4.646
 7991SOL     OW24871   0.256   2.519   5.973
 7991SOL    HW124872   0.333   2.471   5.932
 7991SOL    HW224873   0.288   2.573   6.051
 7992SOL     OW24874   1.853   0.133   0.801
 7992SOL    HW124875   1.946   0.141   0.835
 7992SOL    HW224876   1.798   0.210   0.833
 7993SOL     OW24877   1.916   5.612   6.840
 7993SOL    HW124878   1.969   5.672   6.899
 7993SOL    HW224879   1.963   5.525   6.829
 7994SOL     OW24880   4.730   1.239   3.274
 7994SOL    HW124881   4.650   1.186   3.245
 7994SOL    HW224882   4.699   1.323   3.318
 7995SOL     OW24883   3.014   5.361   4.015
 7995SOL    HW124884   3.049   5.435   3.958
 7995SOL    HW224885   3.062   5.276   3.993
 7996SOL     OW24886   3.628   0.031   4.983
 7996SOL    HW124887   3.620   0.114   4.927
 7996SOL    HW224888   3.553   6.990   4.960
 7997SOL     OW24889   5.850   2.476   1.014
 7997SOL    HW124890   5.802   2.563   1.006
 7997SOL    HW224891   5.947   2.489   0.994
 7998SOL     OW24892   5.537   4.107   0.440
 7998SOL    HW124893   5.549   4.109   0.539
 7998SOL    HW224894   5.619   4.067   0.398
 7999SOL     OW24895   1.709   6.886   5.397
 7999SOL    HW124896   1.779   6.951   5.368
 7999SOL    HW224897   1.618   6.919   5.371
 8000SOL     OW24898   6.396   6.829   5.626
 8000SOL    HW124899   6.468   6.765   5.652
 8000SOL    HW224900   6.419   6.921   5.660
 8001SOL     OW24901   2.059   6.936   1.283
 8001SOL    HW124902   2.044   6.852   1.232
 8001SOL    HW224903   2.148   6.974   1.258
 8002SOL     OW24904   5.989   3.044   4.969
 8002SOL    HW124905   6.075   2.993   4.968
 8002SOL    HW224906   5.991   3.110   5.044
 8003SOL     OW24907   3.656   5.024   3.141
 8003SOL    HW124908   3.681   4.996   3.233
 8003SOL    HW224909   3.633   5.121   3.140
 8004SOL     OW24910   2.234   4.234   2.986
 8004SOL    HW124911   2.258   4.163   3.052
 8004SOL    HW224912   2.286   4.317   3.006
 8005SOL     OW24913   3.498   0.723   1.518
 8005SOL    HW124914   3.433   0.684   1.584
 8005SOL    HW224915   3.590   0.723   1.557
 8006SOL     OW24916   2.593   6.022   0.379
 8006SOL    HW124917   2.605   6.071   0.465
 8006SOL    HW224918   2.506   5.974   0.379
 8007SOL     OW24919   0.262   0.515   4.259
 8007SOL    HW124920   0.240   0.485   4.166
 8007SOL    HW224921   0.342   0.465   4.291
 8008SOL     OW24922   6.052   0.019   0.271
 8008SOL    HW124923   5.952   0.020   0.281
 8008SOL    HW224924   6.076   0.035   0.176
 8009SOL     OW24925   6.853   7.008   3.926
 8009SOL    HW124926   6.763   6.967   3.941
 8009SOL    HW224927   6.848   0.051   3.850
 8010SOL     OW24928   2.189   2.194   0.615
 8010SOL    HW124929   2.192   2.293   0.603
 8010SOL    HW224930   2.097   2.168   0.644
 8011SOL     OW24931   3.304   2.439   1.116
 8011SOL    HW124932   3.290   2.482   1.205
 8011SOL    HW224933   3.258   2.350   1.115
 8012SOL     OW24934   2.510   6.691   1.741
 8012SOL    HW124935   2.604   6.661   1.757
 8012SOL    HW224936   2.485   6.673   1.646
 8013SOL     OW24937   5.531   5.105   4.573
 8013SOL    HW124938   5.445   5.115   4.623
 8013SOL    HW224939   5.515   5.119   4.475
 8014SOL     OW24940   1.941   6.756   6.706
 8014SOL    HW124941   1.857   6.716   6.668
 8014SOL    HW224942   2.011   6.760   6.636
 8015SOL     OW24943   2.733   2.595   0.689
 8015SOL    HW124944   2.649   2.542   0.701
 8015SOL    HW224945   2.774   2.612   0.779
 8016SOL     OW24946   4.400   6.771   0.066
 8016SOL    HW124947   4.369   6.858   0.026
 8016SOL    HW224948   4.382   6.697   0.002
 8017SOL     OW24949   6.638   3.818   4.857
 8017SOL    HW124950   6.596   3.904   4.887
 8017SOL    HW224951   6.712   3.793   4.920
 8018SOL     OW24952   4.504   1.623   5.621
 8018SOL    HW124953   4.526   1.526   5.606
 8018SOL    HW224954   4.588   1.673   5.641
 8019SOL     OW24955   1.700   5.831   0.541
 8019SOL    HW124956   1.785   5.862   0.498
 8019SOL    HW224957   1.675   5.742   0.504
 8020SOL     OW24958   5.294   5.320   6.634
 8020SOL    HW124959   5.333   5.405   6.668
 8020SOL    HW224960   5.198   5.335   6.607
 8021SOL     OW24961   0.516   1.077   0.783
 8021SOL    HW124962   0.608   1.065   0.820
 8021SOL    HW224963   0.468   1.147   0.836
 8022SOL     OW24964   4.273   6.704   3.070
 8022SOL    HW124965   4.175   6.689   3.062
 8022SOL    HW224966   4.306   6.662   3.155
 8023SOL     OW24967   6.159   5.919   2.359
 8023SOL    HW124968   6.114   5.958   2.279
 8023SOL    HW224969   6.214   5.840   2.332
 8024SOL     OW24970   4.485   5.560   5.733
 8024SOL    HW124971   4.479   5.553   5.832
 8024SOL    HW224972   4.397   5.590   5.696
 8025SOL     OW24973   3.772   5.849   6.374
 8025SOL    HW124974   3.868   5.852   6.344
 8025SOL    HW224975   3.766   5.800   6.460
 8026SOL     OW24976   1.763   3.378   6.186
 8026SOL    HW124977   1.835   3.434   6.226
 8026SOL    HW224978   1.803   3.316   6.119
 8027SOL     OW24979   4.603   2.003   4.879
 8027SOL    HW124980   4.700   2.016   4.899
 8027SOL    HW224981   4.584   1.905   4.871
 8028SOL     OW24982   4.866   5.319   6.425
 8028SOL    HW124983   4.843   5.393   6.362
 8028SOL    HW224984   4.894   5.238   6.374
 8029SOL     OW24985   3.941   4.282   0.694
 8029SOL    HW124986   3.918   4.378   0.711
 8029SOL    HW224987   3.893   4.224   0.761
 8030SOL     OW24988   6.020   4.251   6.049
 8030SOL    HW124989   5.922   4.248   6.028
 8030SOL    HW224990   6.058   4.338   6.017
 8031SOL     OW24991   3.823   5.377   1.589
 8031SOL    HW124992   3.725   5.392   1.592
 8031SOL    HW224993   3.871   5.464   1.575
 8032SOL     OW24994   5.445   4.200   5.340
 8032SOL    HW124995   5.353   4.161   5.332
 8032SOL    HW224996   5.468   4.249   5.256
 8033SOL     OW24997   5.499   2.227   0.250
 8033SOL    HW124998   5.538   2.269   0.169
 8033SOL    HW224999   5.489   2.296   0.322
 8034SOL     OW25000   5.161   0.051   4.699
 8034SOL    HW125001   5.166   0.118   4.773
 8034SOL    HW225002   5.165   0.098   4.611
 8035SOL     OW25003   5.470   6.352   0.280
 8035SOL    HW125004   5.459   6.363   0.182
 8035SOL    HW225005   5.503   6.438   0.320
 8036SOL     OW25006   2.293   3.782   1.828
 8036SOL    HW125007   2.200   3.773   1.864
 8036SOL    HW225008   2.340   3.694   1.833
 8037SOL     OW25009   1.518   2.617   0.615
 8037SOL    HW125010   1.462   2.699   0.600
 8037SOL    HW225011   1.614   2.643   0.625
 8038SOL     OW25012   0.442   2.185   3.432
 8038SOL    HW125013   0.396   2.207   3.519
 8038SOL    HW225014   0.388   2.116   3.383
 8039SOL     OW25015   2.242   0.019   3.310
 8039SOL    HW125016   2.190   6.980   3.252
 8039SOL    HW225017   2.327   0.044   3.264
 8040SOL     OW25018   0.448   5.539   1.165
 8040SOL    HW125019   0.427   5.504   1.074
 8040SOL    HW225020   0.544   5.519   1.188
 8041SOL     OW25021   4.498   1.337   0.798
 8041SOL    HW125022   4.530   1.397   0.724
 8041SOL    HW225023   4.437   1.268   0.760
 8042SOL     OW25024   3.405   2.877   2.422
 8042SOL    HW125025   3.421   2.870   2.520
 8042SOL    HW225026   3.313   2.913   2.406
 8043SOL     OW25027   2.648   0.483   1.673
 8043SOL    HW125028   2.624   0.536   1.754
 8043SOL    HW225029   2.584   0.407   1.662
 8044SOL     OW25030   3.101   3.479   1.307
 8044SOL    HW125031   3.053   3.561   1.338
 8044SOL    HW225032   3.183   3.505   1.257
 8045SOL     OW25033   5.795   2.508   3.466
 8045SOL    HW125034   5.749   2.505   3.377
 8045SOL    HW225035   5.815   2.603   3.490
 8046SOL     OW25036   6.068   4.407   5.707
 8046SOL    HW125037   5.971   4.386   5.697
 8046SOL    HW225038   6.088   4.496   5.667
 8047SOL     OW25039   3.763   5.901   4.386
 8047SOL    HW125040   3.746   5.996   4.411
 8047SOL    HW225041   3.813   5.898   4.299
 8048SOL     OW25042   6.470   0.057   5.729
 8048SOL    HW125043   6.398   0.126   5.727
 8048SOL    HW225044   6.518   0.061   5.817
 8049SOL     OW25045   1.307   6.638   1.157
 8049SOL    HW125046   1.325   6.572   1.231
 8049SOL    HW225047   1.389   6.693   1.142
 8050SOL     OW25048   1.756   3.274   0.920
 8050SOL    HW125049   1.664   3.313   0.919
 8050SOL    HW225050   1.753   3.183   0.879
 8051SOL     OW25051   4.884   0.879   2.852
 8051SOL    HW125052   4.801   0.866   2.905
 8051SOL    HW225053   4.953   0.925   2.909
 8052SOL     OW25054   3.118   1.528   2.798
 8052SOL    HW125055   3.135   1.567   2.888
 8052SOL    HW225056   3.042   1.577   2.754
 8053SOL     OW25057   3.936   3.960   2.731
 8053SOL    HW125058   3.994   3.903   2.673
 8053SOL    HW225059   3.867   3.903   2.775
 8054SOL     OW25060   4.760   0.028   4.157
 8054SOL    HW125061   4.849   0.064   4.129
 8054SOL    HW225062   4.754   0.030   4.257
 8055SOL     OW25063   1.482   6.774   6.312
 8055SOL    HW125064   1.560   6.802   6.257
 8055SOL    HW225065   1.421   6.717   6.257
 8056SOL     OW25066   4.560   1.802   3.314
 8056SOL    HW125067   4.468   1.786   3.279
 8056SOL    HW225068   4.554   1.844   3.405
 8057SOL     OW25069   2.948   6.998   3.115
 8057SOL    HW125070   2.931   6.998   3.213
 8057SOL    HW225071   2.871   6.954   3.068
 8058SOL     OW25072   3.074   0.793   2.588
 8058SOL    HW125073   2.985   0.801   2.543
 8058SOL    HW225074   3.146   0.800   2.519
 8059SOL     OW25075   2.949   2.247   4.748
 8059SOL    HW125076   3.023   2.242   4.815
 8059SOL    HW225077   2.987   2.259   4.656
 8060SOL     OW25078   6.441   0.710   4.792
 8060SOL    HW125079   6.409   0.766   4.868
 8060SOL    HW225080   6.541   0.721   4.782
 8061SOL     OW25081   6.567   5.660   2.872
 8061SOL    HW125082   6.519   5.726   2.929
 8061SOL    HW225083   6.550   5.680   2.775
 8062SOL     OW25084   1.401   4.302   3.817
 8062SOL    HW125085   1.320   4.307   3.758
 8062SOL    HW225086   1.442   4.211   3.808
 8063SOL     OW25087   3.099   3.380   6.685
 8063SOL    HW125088   3.175   3.394   6.622
 8063SOL    HW225089   3.022   3.339   6.635
 8064SOL     OW25090   0.269   3.400   0.485
 8064SOL    HW125091   0.199   3.332   0.507
 8064SOL    HW225092   0.245   3.488   0.525
 8065SOL     OW25093   4.506   0.456   4.097
 8065SOL    HW125094   4.522   0.358   4.095
 8065SOL    HW225095   4.488   0.489   4.004
 8066SOL     OW25096   1.631   0.919   1.407
 8066SOL    HW125097   1.717   0.875   1.432
 8066SOL    HW225098   1.570   0.853   1.365
 8067SOL     OW25099   4.674   2.621   1.508
 8067SOL    HW125100   4.718   2.597   1.421
 8067SOL    HW225101   4.609   2.550   1.533
 8068SOL     OW25102   0.892   4.162   5.035
 8068SOL    HW125103   0.931   4.161   5.127
 8068SOL    HW225104   0.820   4.093   5.028
 8069SOL     OW25105   1.482   6.294   1.383
 8069SOL    HW125106   1.542   6.340   1.448
 8069SOL    HW225107   1.387   6.321   1.400
 8070SOL     OW25108   3.824   6.517   1.847
 8070SOL    HW125109   3.784   6.547   1.760
 8070SOL    HW225110   3.770   6.552   1.923
 8071SOL     OW25111   3.422   0.005   6.074
 8071SOL    HW125112   3.425   6.994   5.980
 8071SOL    HW225113   3.328   7.022   6.108
 8072SOL     OW25114   4.957   1.327   0.531
 8072SOL    HW125115   4.861   1.298   0.530
 8072SOL    HW225116   4.968   1.404   0.593
 8073SOL     OW25117   4.223   6.311   5.670
 8073SOL    HW125118   4.321   6.302   5.684
 8073SOL    HW225119   4.202   6.308   5.572
 8074SOL     OW25120   3.489   3.726   0.183
 8074SOL    HW125121   3.491   3.821   0.152
 8074SOL    HW225122   3.582   3.689   0.182
 8075SOL     OW25123   6.954   1.076   3.041
 8075SOL    HW125124   6.860   1.077   3.007
 8075SOL    HW225125   7.010   1.015   2.984
 8076SOL     OW25126   6.017   2.530   5.085
 8076SOL    HW125127   5.999   2.437   5.117
 8076SOL    HW225128   6.111   2.556   5.108
 8077SOL     OW25129   0.914   0.116   0.971
 8077SOL    HW125130   0.832   0.096   1.025
 8077SOL    HW225131   0.994   0.115   1.031
 8078SOL     OW25132   6.144   2.618   0.990
 8078SOL    HW125133   6.076   2.689   0.969
 8078SOL    HW225134   6.226   2.661   1.028
 8079SOL     OW25135   6.687   2.135   2.716
 8079SOL    HW125136   6.735   2.093   2.639
 8079SOL    HW225137   6.626   2.207   2.683
 8080SOL     OW25138   2.922   4.209   0.629
 8080SOL    HW125139   2.868   4.140   0.677
 8080SOL    HW225140   2.865   4.289   0.611
 8081SOL     OW25141   6.040   0.573   4.840
 8081SOL    HW125142   6.072   0.532   4.926
 8081SOL    HW225143   6.118   0.584   4.778
 8082SOL     OW25144   0.085   2.414   3.518
 8082SOL    HW125145   0.148   2.342   3.546
 8082SOL    HW225146   7.018   2.399   3.559
 8083SOL     OW25147   4.456   2.484   3.263
 8083SOL    HW125148   4.417   2.404   3.217
 8083SOL    HW225149   4.418   2.491   3.355
 8084SOL     OW25150   6.946   6.590   1.807
 8084SOL    HW125151   6.899   6.501   1.805
 8084SOL    HW225152   6.999   6.601   1.723
 8085SOL     OW25153   6.096   0.839   1.077
 8085SOL    HW125154   6.150   0.896   1.014
 8085SOL    HW225155   6.030   0.785   1.024
 8086SOL     OW25156   3.813   1.027   4.822
 8086SOL    HW125157   3.874   0.998   4.748
 8086SOL    HW225158   3.767   0.946   4.860
 8087SOL     OW25159   2.956   2.309   1.377
 8087SOL    HW125160   2.895   2.253   1.433
 8087SOL    HW225161   2.935   2.405   1.391
 8088SOL     OW25162   5.161   0.921   2.261
 8088SOL    HW125163   5.182   0.830   2.297
 8088SOL    HW225164   5.217   0.989   2.308
 8089SOL     OW25165   5.558   3.255   0.455
 8089SOL    HW125166   5.497   3.316   0.404
 8089SOL    HW225167   5.517   3.165   0.462
 8090SOL     OW25168   5.262   1.739   5.892
 8090SOL    HW125169   5.164   1.729   5.913
 8090SOL    HW225170   5.275   1.819   5.833
 8091SOL     OW25171   2.931   4.617   6.498
 8091SOL    HW125172   2.832   4.608   6.489
 8091SOL    HW225173   2.967   4.671   6.422
 8092SOL     OW25174   1.408   1.472   4.920
 8092SOL    HW125175   1.322   1.505   4.881
 8092SOL    HW225176   1.427   1.520   5.006
 8093SOL     OW25177   5.582   5.285   0.796
 8093SOL    HW125178   5.680   5.265   0.783
 8093SOL    HW225179   5.570   5.383   0.812
 8094SOL     OW25180   1.162   4.106   5.997
 8094SOL    HW125181   1.142   4.074   6.089
 8094SOL    HW225182   1.260   4.124   5.988
 8095SOL     OW25183   5.679   3.435   4.747
 8095SOL    HW125184   5.696   3.527   4.784
 8095SOL    HW225185   5.667   3.440   4.648
 8096SOL     OW25186   3.459   6.258   1.829
 8096SOL    HW125187   3.421   6.172   1.795
 8096SOL    HW225188   3.472   6.321   1.752
 8097SOL     OW25189   5.141   1.159   3.275
 8097SOL    HW125190   5.110   1.253   3.282
 8097SOL    HW225191   5.206   1.139   3.348
 8098SOL     OW25192   2.984   6.215   4.219
 8098SOL    HW125193   2.996   6.314   4.229
 8098SOL    HW225194   2.903   6.186   4.270
 8099SOL     OW25195   4.695   6.733   5.016
 8099SOL    HW125196   4.760   6.709   4.944
 8099SOL    HW225197   4.701   6.666   5.090
 8100SOL     OW25198   0.051   6.652   0.530
 8100SOL    HW125199   0.051   6.611   0.622
 8100SOL    HW225200   0.043   6.751   0.538
 8101SOL     OW25201   1.395   6.319   3.636
 8101SOL    HW125202   1.363   6.404   3.678
 8101SOL    HW225203   1.385   6.325   3.536
 8102SOL     OW25204   6.786   5.779   5.876
 8102SOL    HW125205   6.787   5.844   5.800
 8102SOL    HW225206   6.833   5.695   5.848
 8103SOL     OW25207   3.540   1.622   2.525
 8103SOL    HW125208   3.486   1.655   2.604
 8103SOL    HW225209   3.617   1.568   2.558
 8104SOL     OW25210   2.613   6.714   6.530
 8104SOL    HW125211   2.591   6.786   6.464
 8104SOL    HW225212   2.708   6.685   6.517
 8105SOL     OW25213   2.399   1.934   3.457
 8105SOL    HW125214   2.385   2.032   3.474
 8105SOL    HW225215   2.487   1.921   3.410
 8106SOL     OW25216   0.960   4.208   4.014
 8106SOL    HW125217   0.971   4.231   4.111
 8106SOL    HW225218   0.936   4.291   3.963
 8107SOL     OW25219   2.123   6.340   5.746
 8107SOL    HW125220   2.117   6.244   5.720
 8107SOL    HW225221   2.166   6.348   5.836
 8108SOL     OW25222   1.033   3.545   4.384
 8108SOL    HW125223   1.044   3.451   4.352
 8108SOL    HW225224   0.954   3.586   4.339
 8109SOL     OW25225   1.366   4.611   4.782
 8109SOL    HW125226   1.464   4.624   4.794
 8109SOL    HW225227   1.336   4.657   4.698
 8110SOL     OW25228   2.267   6.134   0.597
 8110SOL    HW125229   2.310   6.168   0.681
 8110SOL    HW225230   2.241   6.212   0.540
 8111SOL     OW25231   3.024   5.204   4.765
 8111SOL    HW125232   3.073   5.125   4.728
 8111SOL    HW225233   2.926   5.189   4.757
 8112SOL     OW25234   2.330   0.700   5.224
 8112SOL    HW125235   2.262   0.665   5.159
 8112SOL    HW225236   2.344   0.798   5.207
 8113SOL     OW25237   3.355   2.674   6.371
 8113SOL    HW125238   3.329   2.683   6.467
 8113SOL    HW225239   3.451   2.700   6.360
 8114SOL     OW25240   2.207   2.745   2.201
 8114SOL    HW125241   2.222   2.792   2.288
 8114SOL    HW225242   2.206   2.812   2.127
 8115SOL     OW25243   3.449   1.427   1.222
 8115SOL    HW125244   3.412   1.339   1.254
 8115SOL    HW225245   3.429   1.498   1.289
 8116SOL     OW25246   6.130   0.189   5.167
 8116SOL    HW125247   6.046   0.197   5.220
 8116SOL    HW225248   6.208   0.186   5.229
 8117SOL     OW25249   1.823   1.924   5.111
 8117SOL    HW125250   1.860   1.959   5.197
 8117SOL    HW225251   1.733   1.965   5.094
 8118SOL     OW25252   0.634   3.240   5.331
 8118SOL    HW125253   0.650   3.150   5.372
 8118SOL    HW225254   0.717   3.271   5.285
 8119SOL     OW25255   0.617   6.223   2.770
 8119SOL    HW125256   0.651   6.185   2.856
 8119SOL    HW225257   0.676   6.194   2.695
 8120SOL     OW25258   4.285   4.263   1.206
 8120SOL    HW125259   4.296   4.174   1.250
 8120SOL    HW225260   4.308   4.255   1.109
 8121SOL     OW25261   6.606   0.555   2.590
 8121SOL    HW125262   6.701   0.529   2.572
 8121SOL    HW225263   6.552   0.544   2.507
 8122SOL     OW25264   6.369   6.524   2.027
 8122SOL    HW125265   6.419   6.609   2.046
 8122SOL    HW225266   6.284   6.546   1.980
 8123SOL     OW25267   1.680   6.489   6.883
 8123SOL    HW125268   1.732   6.404   6.873
 8123SOL    HW225269   1.743   6.563   6.906
 8124SOL     OW25270   1.227   5.852   1.805
 8124SOL    HW125271   1.220   5.892   1.714
 8124SOL    HW225272   1.314   5.881   1.847
 8125SOL     OW25273   5.899   4.693   3.009
 8125SOL    HW125274   5.927   4.756   3.082
 8125SOL    HW225275   5.943   4.604   3.024
 8126SOL     OW25276   5.751   4.391   2.355
 8126SOL    HW125277   5.732   4.486   2.380
 8126SOL    HW225278   5.666   4.341   2.343
 8127SOL     OW25279   2.102   5.079   7.001
 8127SOL    HW125280   2.132   4.990   6.965
 8127SOL    HW225281   2.034   5.064   0.051
 8128SOL     OW25282   3.545   2.618   5.490
 8128SOL    HW125283   3.475   2.565   5.442
 8128SOL    HW225284   3.602   2.666   5.423
 8129SOL     OW25285   5.382   0.551   6.020
 8129SOL    HW125286   5.399   0.512   5.929
 8129SOL    HW225287   5.421   0.643   6.024
 8130SOL     OW25288   1.860   6.273   6.809
 8130SOL    HW125289   1.958   6.289   6.807
 8130SOL    HW225290   1.839   6.199   6.872
 8131SOL     OW25291   2.920   0.829   0.685
 8131SOL    HW125292   2.897   0.842   0.781
 8131SOL    HW225293   3.019   0.824   0.675
 8132SOL     OW25294   5.870   5.277   3.881
 8132SOL    HW125295   5.895   5.344   3.811
 8132SOL    HW225296   5.779   5.242   3.862
 8133SOL     OW25297   2.225   5.266   2.582
 8133SOL    HW125298   2.253   5.197   2.515
 8133SOL    HW225299   2.244   5.357   2.547
 8134SOL     OW25300   1.950   2.444   3.783
 8134SOL    HW125301   1.923   2.413   3.873
 8134SOL    HW225302   2.029   2.391   3.751
 8135SOL     OW25303   4.135   5.395   2.033
 8135SOL    HW125304   4.224   5.428   2.063
 8135SOL    HW225305   4.083   5.363   2.112
 8136SOL     OW25306   4.080   5.645   2.274
 8136SOL    HW125307   4.036   5.556   2.263
 8136SOL    HW225308   4.042   5.709   2.207
 8137SOL     OW25309   2.181   4.488   4.873
 8137SOL    HW125310   2.205   4.433   4.953
 8137SOL    HW225311   2.155   4.580   4.902
 8138SOL     OW25312   5.032   0.942   2.638
 8138SOL    HW125313   4.954   0.929   2.699
 8138SOL    HW225314   5.001   0.989   2.555
 8139SOL     OW25315   1.788   2.012   3.424
 8139SOL    HW125316   1.790   2.112   3.429
 8139SOL    HW225317   1.783   1.974   3.517
 8140SOL     OW25318   4.970   0.892   0.793
 8140SOL    HW125319   4.922   0.807   0.816
 8140SOL    HW225320   5.041   0.908   0.861
 8141SOL     OW25321   4.993   1.675   5.944
 8141SOL    HW125322   4.950   1.765   5.956
 8141SOL    HW225323   4.967   1.615   6.019
 8142SOL     OW25324   2.220   5.515   0.361
 8142SOL    HW125325   2.307   5.467   0.348
 8142SOL    HW225326   2.197   5.516   0.458
 8143SOL     OW25327   5.519   4.683   0.808
 8143SOL    HW125328   5.610   4.725   0.801
 8143SOL    HW225329   5.529   4.588   0.839
 8144SOL     OW25330   0.241   4.867   5.962
 8144SOL    HW125331   0.246   4.949   6.019
 8144SOL    HW225332   0.325   4.814   5.972
 8145SOL     OW25333   5.182   5.563   0.038
 8145SOL    HW125334   5.146   5.647   0.079
 8145SOL    HW225335   5.231   5.586   6.977
 8146SOL     OW25336   5.777   0.316   4.481
 8146SOL    HW125337   5.786   0.248   4.409
 8146SOL    HW225338   5.848   0.386   4.469
 8147SOL     OW25339   1.529   0.683   5.883
 8147SOL    HW125340   1.441   0.649   5.914
 8147SOL    HW225341   1.527   0.783   5.879
 8148SOL     OW25342   4.025   4.856   0.332
 8148SOL    HW125343   4.106   4.873   0.275
 8148SOL    HW225344   3.954   4.922   0.309
 8149SOL     OW25345   1.444   6.141   4.401
 8149SOL    HW125346   1.470   6.124   4.496
 8149SOL    HW225347   1.518   6.191   4.354
 8150SOL     OW25348   0.981   3.130   0.696
 8150SOL    HW125349   0.891   3.167   0.674
 8150SOL    HW225350   0.987   3.110   0.794
 8151SOL     OW25351   6.168   4.531   3.716
 8151SOL    HW125352   6.223   4.498   3.793
 8151SOL    HW225353   6.212   4.503   3.630
 8152SOL     OW25354   4.445   2.132   3.162
 8152SOL    HW125355   4.534   2.133   3.209
 8152SOL    HW225356   4.453   2.183   3.076
 8153SOL     OW25357   6.969   2.266   4.040
 8153SOL    HW125358   6.998   2.216   4.122
 8153SOL    HW225359   0.023   2.273   3.976
 8154SOL     OW25360   2.138   1.402   3.479
 8154SOL    HW125361   2.132   1.484   3.422
 8154SOL    HW225362   2.099   1.420   3.569
 8155SOL     OW25363   1.417   5.137   2.000
 8155SOL    HW125364   1.319   5.116   2.005
 8155SOL    HW225365   1.463   5.068   1.944
 8156SOL     OW25366   6.016   5.254   1.390
 8156SOL    HW125367   5.943   5.259   1.458
 8156SOL    HW225368   6.102   5.231   1.436
 8157SOL     OW25369   6.658   2.730   5.990
 8157SOL    HW125370   6.754   2.708   5.971
 8157SOL    HW225371   6.649   2.758   6.085
 8158SOL     OW25372   6.047   4.934   6.465
 8158SOL    HW125373   6.050   4.907   6.561
 8158SOL    HW225374   6.079   4.858   6.408
 8159SOL     OW25375   3.038   6.067   5.431
 8159SOL    HW125376   3.072   6.160   5.441
 8159SOL    HW225377   3.115   6.003   5.438
 8160SOL     OW25378   5.310   1.129   3.520
 8160SOL    HW125379   5.382   1.193   3.547
 8160SOL    HW225380   5.349   1.038   3.509
 8161SOL     OW25381   5.792   3.190   0.769
 8161SOL    HW125382   5.708   3.208   0.820
 8161SOL    HW225383   5.772   3.133   0.690
 8162SOL     OW25384   0.412   4.636   6.353
 8162SOL    HW125385   0.422   4.663   6.448
 8162SOL    HW225386   0.370   4.545   6.348
 8163SOL     OW25387   4.733   4.549   5.082
 8163SOL    HW125388   4.728   4.550   4.982
 8163SOL    HW225389   4.804   4.612   5.113
 8164SOL     OW25390   5.923   0.920   0.032
 8164SOL    HW125391   5.954   1.002   7.008
 8164SOL    HW225392   5.837   0.889   7.015
 8165SOL     OW25393   0.393   1.896   6.482
 8165SOL    HW125394   0.341   1.952   6.547
 8165SOL    HW225395   0.409   1.948   6.398
 8166SOL     OW25396   1.496   2.330   4.770
 8166SOL    HW125397   1.425   2.363   4.709
 8166SOL    HW225398   1.584   2.372   4.745
 8167SOL     OW25399   0.324   2.844   4.211
 8167SOL    HW125400   0.225   2.858   4.205
 8167SOL    HW225401   0.363   2.843   4.119
 8168SOL     OW25402   2.600   0.762   1.594
 8168SOL    HW125403   2.630   0.666   1.593
 8168SOL    HW225404   2.548   0.781   1.511
 8169SOL     OW25405   5.226   2.499   1.334
 8169SOL    HW125406   5.296   2.559   1.373
 8169SOL    HW225407   5.238   2.406   1.370
 8170SOL     OW25408   6.578   4.801   2.701
 8170SOL    HW125409   6.488   4.763   2.681
 8170SOL    HW225410   6.607   4.860   2.626
 8171SOL     OW25411   2.000   1.350   0.532
 8171SOL    HW125412   1.927   1.395   0.583
 8171SOL    HW225413   2.006   1.391   0.441
 8172SOL     OW25414   0.818   2.571   1.813
 8172SOL    HW125415   0.790   2.585   1.907
 8172SOL    HW225416   0.886   2.498   1.808
 8173SOL     OW25417   5.537   1.238   1.809
 8173SOL    HW125418   5.489   1.321   1.835
 8173SOL    HW225419   5.543   1.232   1.710
 8174SOL     OW25420   2.664   5.377   2.606
 8174SOL    HW125421   2.734   5.421   2.662
 8174SOL    HW225422   2.611   5.314   2.663
 8175SOL     OW25423   0.542   2.012   4.482
 8175SOL    HW125424   0.597   2.002   4.400
 8175SOL    HW225425   0.447   2.034   4.457
 8176SOL     OW25426   2.058   4.234   0.918
 8176SOL    HW125427   2.103   4.267   0.835
 8176SOL    HW225428   2.124   4.232   0.993
 8177SOL     OW25429   3.732   1.474   2.691
 8177SOL    HW125430   3.796   1.455   2.616
 8177SOL    HW225431   3.739   1.402   2.759
 8178SOL     OW25432   2.087   6.681   1.174
 8178SOL    HW125433   2.171   6.636   1.206
 8178SOL    HW225434   2.098   6.710   1.079
 8179SOL     OW25435   5.375   0.870   3.290
 8179SOL    HW125436   5.276   0.887   3.286
 8179SOL    HW225437   5.404   0.865   3.386
 8180SOL     OW25438   4.856   6.165   6.963
 8180SOL    HW125439   4.939   6.142   6.913
 8180SOL    HW225440   4.879   6.181   0.037
 8181SOL     OW25441   0.468   0.801   1.088
 8181SOL    HW125442   0.437   0.844   1.003
 8181SOL    HW225443   0.560   0.834   1.109
 8182SOL     OW25444   3.016   3.278   4.395
 8182SOL    HW125445   2.960   3.268   4.313
 8182SOL    HW225446   3.084   3.350   4.381
 8183SOL     OW25447   6.993   0.367   5.181
 8183SOL    HW125448   6.920   0.397   5.244
 8183SOL    HW225449   6.957   0.364   5.088
 8184SOL     OW25450   0.876   6.206   6.836
 8184SOL    HW125451   0.872   6.274   6.909
 8184SOL    HW225452   0.808   6.228   6.766
 8185SOL     OW25453   0.831   0.124   0.028
 8185SOL    HW125454   0.913   0.174   0.001
 8185SOL    HW225455   0.753   0.186   0.030
 8186SOL     OW25456   1.497   5.601   6.807
 8186SOL    HW125457   1.561   5.676   6.790
 8186SOL    HW225458   1.490   5.545   6.725
 8187SOL     OW25459   1.303   0.626   6.013
 8187SOL    HW125460   1.358   0.555   6.057
 8187SOL    HW225461   1.262   0.685   6.082
 8188SOL     OW25462   2.664   2.129   3.961
 8188SOL    HW125463   2.694   2.223   3.976
 8188SOL    HW225464   2.743   2.069   3.958
 8189SOL     OW25465   4.941   4.546   3.923
 8189SOL    HW125466   4.939   4.504   3.832
 8189SOL    HW225467   5.019   4.608   3.929
 8190SOL     OW25468   6.199   3.935   3.251
 8190SOL    HW125469   6.223   3.949   3.156
 8190SOL    HW225470   6.260   3.867   3.292
 8191SOL     OW25471   4.121   5.015   1.586
 8191SOL    HW125472   4.153   5.002   1.679
 8191SOL    HW225473   4.159   4.943   1.527
 8192SOL     OW25474   1.511   4.723   3.728
 8192SOL    HW125475   1.485   4.673   3.645
 8192SOL    HW225476   1.457   4.688   3.805
 8193SOL     OW25477   0.208   3.959   5.193
 8193SOL    HW125478   0.212   4.041   5.250
 8193SOL    HW225479   0.159   3.887   5.242
 8194SOL     OW25480   4.853   6.563   1.851
 8194SOL    HW125481   4.772   6.565   1.791
 8194SOL    HW225482   4.838   6.496   1.923
 8195SOL     OW25483   5.590   6.536   3.243
 8195SOL    HW125484   5.598   6.581   3.154
 8195SOL    HW225485   5.628   6.443   3.237
 8196SOL     OW25486   4.567   0.221   0.235
 8196SOL    HW125487   4.645   0.274   0.200
 8196SOL    HW225488   4.524   0.272   0.309
 8197SOL     OW25489   5.235   1.740   1.676
 8197SOL    HW125490   5.159   1.674   1.684
 8197SOL    HW225491   5.203   1.830   1.704
 8198SOL     OW25492   2.054   0.431   2.426
 8198SOL    HW125493   2.154   0.432   2.429
 8198SOL    HW225494   2.023   0.449   2.332
 8199SOL     OW25495   5.584   2.681   5.922
 8199SOL    HW125496   5.632   2.648   5.841
 8199SOL    HW225497   5.643   2.744   5.972
 8200SOL     OW25498   4.182   3.462   1.185
 8200SOL    HW125499   4.183   3.382   1.126
 8200SOL    HW225500   4.249   3.451   1.258
 8201SOL     OW25501   0.443   6.965   5.288
 8201SOL    HW125502   0.387   6.988   5.208
 8201SOL    HW225503   0.391   6.986   5.371
 8202SOL     OW25504   0.589   6.267   2.251
 8202SOL    HW125505   0.541   6.341   2.299
 8202SOL    HW225506   0.628   6.203   2.318
 8203SOL     OW25507   1.513   3.381   0.884
 8203SOL    HW125508   1.453   3.304   0.904
 8203SOL    HW225509   1.482   3.426   0.800
 8204SOL     OW25510   4.366   3.409   1.372
 8204SOL    HW125511   4.288   3.404   1.434
 8204SOL    HW225512   4.435   3.471   1.410
 8205SOL     OW25513   0.850   3.425   0.634
 8205SOL    HW125514   0.824   3.449   0.728
 8205SOL    HW225515   0.943   3.386   0.634
 8206SOL     OW25516   4.414   1.303   6.753
 8206SOL    HW125517   4.509   1.308   6.722
 8206SOL    HW225518   4.355   1.354   6.691
 8207SOL     OW25519   3.879   3.026   4.552
 8207SOL    HW125520   3.829   3.040   4.466
 8207SOL    HW225521   3.966   3.076   4.549
 8208SOL     OW25522   1.433   1.275   0.214
 8208SOL    HW125523   1.470   1.187   0.245
 8208SOL    HW225524   1.401   1.266   0.120
 8209SOL     OW25525   6.450   0.616   5.480
 8209SOL    HW125526   6.477   0.572   5.566
 8209SOL    HW225527   6.495   0.705   5.472
 8210SOL     OW25528   2.027   3.058   0.291
 8210SOL    HW125529   2.055   3.015   0.377
 8210SOL    HW225530   2.108   3.097   0.246
 8211SOL     OW25531   2.882   4.223   1.016
 8211SOL    HW125532   2.882   4.282   1.097
 8211SOL    HW225533   2.976   4.198   0.993
 8212SOL     OW25534   1.937   2.409   3.206
 8212SOL    HW125535   1.906   2.348   3.279
 8212SOL    HW225536   1.878   2.398   3.126
 8213SOL     OW25537   0.197   4.899   1.544
 8213SOL    HW125538   0.224   4.897   1.641
 8213SOL    HW225539   0.104   4.863   1.535
 8214SOL     OW25540   5.748   4.396   3.525
 8214SOL    HW125541   5.677   4.408   3.456
 8214SOL    HW225542   5.803   4.480   3.530
 8215SOL     OW25543   3.989   5.078   4.823
 8215SOL    HW125544   3.988   5.170   4.862
 8215SOL    HW225545   4.072   5.065   4.770
 8216SOL     OW25546   5.096   4.592   4.258
 8216SOL    HW125547   5.088   4.495   4.283
 8216SOL    HW225548   5.005   4.634   4.259
 8217SOL     OW25549   2.066   6.004   0.750
 8217SOL    HW125550   2.146   6.020   0.693
 8217SOL    HW225551   1.989   5.976   0.692
 8218SOL     OW25552   0.453   1.849   0.087
 8218SOL    HW125553   0.482   1.849   7.014
 8218SOL    HW225554   0.515   1.793   0.141
 8219SOL     OW25555   5.618   1.949   6.412
 8219SOL    HW125556   5.553   2.024   6.398
 8219SOL    HW225557   5.671   1.935   6.328
 8220SOL     OW25558   3.529   3.802   2.471
 8220SOL    HW125559   3.492   3.792   2.563
 8220SOL    HW225560   3.617   3.754   2.465
 8221SOL     OW25561   5.291   6.051   3.777
 8221SOL    HW125562   5.323   6.135   3.732
 8221SOL    HW225563   5.371   5.994   3.800
 8222SOL     OW25564   5.929   1.737   1.774
 8222SOL    HW125565   5.864   1.661   1.778
 8222SOL    HW225566   6.021   1.704   1.794
 8223SOL     OW25567   0.634   4.248   6.245
 8223SOL    HW125568   0.598   4.304   6.319
 8223SOL    HW225569   0.647   4.304   6.163
 8224SOL     OW25570   0.809   2.715   2.353
 8224SOL    HW125571   0.765   2.802   2.334
 8224SOL    HW225572   0.758   2.666   2.424
 8225SOL     OW25573   4.912   1.288   6.592
 8225SOL    HW125574   4.981   1.340   6.642
 8225SOL    HW225575   4.956   1.215   6.541
 8226SOL     OW25576   5.006   0.652   1.126
 8226SOL    HW125577   4.984   0.566   1.173
 8226SOL    HW225578   4.928   0.714   1.131
 8227SOL     OW25579   6.514   3.083   3.175
 8227SOL    HW125580   6.557   3.118   3.259
 8227SOL    HW225581   6.417   3.106   3.176
 8228SOL     OW25582   0.324   2.152   4.825
 8228SOL    HW125583   0.272   2.207   4.891
 8228SOL    HW225584   0.282   2.160   4.735
 8229SOL     OW25585   3.008   5.573   6.846
 8229SOL    HW125586   3.054   5.540   6.928
 8229SOL    HW225587   2.916   5.605   6.870
 8230SOL     OW25588   4.529   0.470   5.084
 8230SOL    HW125589   4.435   0.503   5.070
 8230SOL    HW225590   4.549   0.399   5.017
 8231SOL     OW25591   5.321   5.227   1.109
 8231SOL    HW125592   5.353   5.320   1.092
 8231SOL    HW225593   5.338   5.170   1.028
 8232SOL     OW25594   4.142   1.360   0.023
 8232SOL    HW125595   4.149   1.305   0.106
 8232SOL    HW225596   4.231   1.401   0.003
 8233SOL     OW25597   0.715   5.381   5.981
 8233SOL    HW125598   0.687   5.460   6.035
 8233SOL    HW225599   0.652   5.305   5.999
 8234SOL     OW25600   2.984   2.380   0.068
 8234SOL    HW125601   3.011   2.445   0.139
 8234SOL    HW225602   3.040   2.297   0.076
 8235SOL     OW25603   3.890   3.359   0.932
 8235SOL    HW125604   3.898   3.356   1.032
 8235SOL    HW225605   3.811   3.416   0.907
 8236SOL     OW25606   6.806   2.748   0.003
 8236SOL    HW125607   6.804   2.732   0.102
 8236SOL    HW225608   6.818   2.846   7.008
 8237SOL     OW25609   4.171   5.694   5.193
 8237SOL    HW125610   4.117   5.776   5.211
 8237SOL    HW225611   4.266   5.720   5.173
 8238SOL     OW25612   2.223   3.634   0.150
 8238SOL    HW125613   2.213   3.546   0.105
 8238SOL    HW225614   2.280   3.624   0.231
 8239SOL     OW25615   6.416   1.913   5.469
 8239SOL    HW125616   6.470   1.995   5.487
 8239SOL    HW225617   6.334   1.913   5.527
 8240SOL     OW25618   3.120   4.020   2.467
 8240SOL    HW125619   3.204   4.046   2.514
 8240SOL    HW225620   3.081   3.940   2.512
 8241SOL     OW25621   3.457   0.223   0.672
 8241SOL    HW125622   3.510   0.202   0.754
 8241SOL    HW225623   3.399   0.145   0.648
 8242SOL     OW25624   0.889   4.517   5.929
 8242SOL    HW125625   0.804   4.473   5.899
 8242SOL    HW225626   0.966   4.476   5.881
 8243SOL     OW25627   0.258   2.832   5.973
 8243SOL    HW125628   0.239   2.752   5.916
 8243SOL    HW225629   0.177   2.855   6.026
 8244SOL     OW25630   0.514   6.523   4.181
 8244SOL    HW125631   0.457   6.572   4.116
 8244SOL    HW225632   0.538   6.433   4.144
 8245SOL     OW25633   4.550   1.740   0.941
 8245SOL    HW125634   4.636   1.785   0.966
 8245SOL    HW225635   4.484   1.809   0.913
 8246SOL     OW25636   5.905   4.038   6.260
 8246SOL    HW125637   5.938   4.118   6.211
 8246SOL    HW225638   5.841   3.987   6.203
 8247SOL     OW25639   0.730   0.430   1.316
 8247SOL    HW125640   0.787   0.511   1.302
 8247SOL    HW225641   0.788   0.348   1.312
 8248SOL     OW25642   5.821   4.741   3.961
 8248SOL    HW125643   5.774   4.729   4.048
 8248SOL    HW225644   5.903   4.797   3.975
 8249SOL     OW25645   2.099   4.742   4.289
 8249SOL    HW125646   2.123   4.772   4.197
 8249SOL    HW225647   2.004   4.769   4.309
 8250SOL     OW25648   3.606   4.116   3.228
 8250SOL    HW125649   3.518   4.149   3.263
 8250SOL    HW225650   3.663   4.085   3.305
 8251SOL     OW25651   5.287   2.202   5.003
 8251SOL    HW125652   5.261   2.239   4.914
 8251SOL    HW225653   5.276   2.103   5.003
 8252SOL     OW25654   2.856   3.168   5.769
 8252SOL    HW125655   2.843   3.170   5.868
 8252SOL    HW225656   2.889   3.256   5.738
 8253SOL     OW25657   3.402   2.811   5.223
 8253SOL    HW125658   3.358   2.735   5.271
 8253SOL    HW225659   3.371   2.898   5.261
 8254SOL     OW25660   4.059   4.862   4.405
 8254SOL    HW125661   4.102   4.838   4.492
 8254SOL    HW225662   4.107   4.817   4.330
 8255SOL     OW25663   4.378   5.841   3.878
 8255SOL    HW125664   4.344   5.885   3.795
 8255SOL    HW225665   4.425   5.908   3.934
 8256SOL     OW25666   5.593   1.261   3.761
 8256SOL    HW125667   5.494   1.272   3.769
 8256SOL    HW225668   5.621   1.285   3.668
 8257SOL     OW25669   5.977   4.818   3.240
 8257SOL    HW125670   6.069   4.842   3.208
 8257SOL    HW225671   5.948   4.883   3.310
 8258SOL     OW25672   4.693   1.246   0.524
 8258SOL    HW125673   4.663   1.162   0.478
 8258SOL    HW225674   4.652   1.325   0.477
 8259SOL     OW25675   3.530   1.629   3.909
 8259SOL    HW125676   3.554   1.721   3.877
 8259SOL    HW225677   3.602   1.596   3.970
 8260SOL     OW25678   2.751   6.869   1.899
 8260SOL    HW125679   2.714   6.956   1.866
 8260SOL    HW225680   2.735   6.798   1.831
 8261SOL     OW25681   5.454   1.273   0.912
 8261SOL    HW125682   5.413   1.341   0.972
 8261SOL    HW225683   5.493   1.319   0.832
 8262SOL     OW25684   0.962   2.323   1.501
 8262SOL    HW125685   1.024   2.394   1.534
 8262SOL    HW225686   0.876   2.327   1.551
 8263SOL     OW25687   6.963   1.208   1.372
 8263SOL    HW125688   0.007   1.134   1.374
 8263SOL    HW225689   7.002   1.289   1.418
 8264SOL     OW25690   1.139   6.152   2.250
 8264SOL    HW125691   1.207   6.208   2.297
 8264SOL    HW225692   1.116   6.193   2.162
 8265SOL     OW25693   1.680   0.284   1.648
 8265SOL    HW125694   1.581   0.279   1.639
 8265SOL    HW225695   1.704   0.348   1.720
 8266SOL     OW25696   2.234   6.481   2.987
 8266SOL    HW125697   2.208   6.576   2.968
 8266SOL    HW225698   2.252   6.470   3.084
 8267SOL     OW25699   1.875   3.545   1.163
 8267SOL    HW125700   1.796   3.486   1.173
 8267SOL    HW225701   1.950   3.495   1.120
 8268SOL     OW25702   2.270   0.066   6.611
 8268SOL    HW125703   2.281   0.161   6.581
 8268SOL    HW225704   2.244   0.010   6.532
 8269SOL     OW25705   5.829   1.710   0.895
 8269SOL    HW125706   5.870   1.664   0.816
 8269SOL    HW225707   5.731   1.692   0.897
 8270SOL     OW25708   3.351   6.661   3.853
 8270SOL    HW125709   3.251   6.654   3.857
 8270SOL    HW225710   3.387   6.675   3.945
 8271SOL     OW25711   6.576   1.625   2.987
 8271SOL    HW125712   6.646   1.616   2.916
 8271SOL    HW225713   6.535   1.535   3.005
 8272SOL     OW25714   4.393   0.644   2.309
 8272SOL    HW125715   4.430   0.556   2.279
 8272SOL    HW225716   4.467   0.712   2.309
 8273SOL     OW25717   1.921   0.137   1.155
 8273SOL    HW125718   1.966   0.199   1.090
 8273SOL    HW225719   1.990   0.096   1.215
 8274SOL     OW25720   4.342   5.185   3.073
 8274SOL    HW125721   4.288   5.153   2.995
 8274SOL    HW225722   4.425   5.230   3.040
 8275SOL     OW25723   4.588   2.208   5.999
 8275SOL    HW125724   4.632   2.200   6.089
 8275SOL    HW225725   4.641   2.268   5.940
 8276SOL     OW25726   0.787   2.216   4.045
 8276SOL    HW125727   0.740   2.270   4.114
 8276SOL    HW225728   0.863   2.167   4.086
 8277SOL     OW25729   6.564   0.617   6.665
 8277SOL    HW125730   6.609   0.527   6.673
 8277SOL    HW225731   6.624   0.687   6.704
 8278SOL     OW25732   2.567   1.960   0.061
 8278SOL    HW125733   2.546   2.045   0.107
 8278SOL    HW225734   2.563   1.884   0.126
 8279SOL     OW25735   0.851   6.306   4.489
 8279SOL    HW125736   0.824   6.393   4.530
 8279SOL    HW225737   0.799   6.292   4.405
 8280SOL     OW25738   3.115   2.639   6.939
 8280SOL    HW125739   3.123   2.720   6.996
 8280SOL    HW225740   3.031   2.589   6.964
 8281SOL     OW25741   1.174   5.671   1.430
 8281SOL    HW125742   1.192   5.574   1.412
 8281SOL    HW225743   1.258   5.724   1.416
 8282SOL     OW25744   5.599   3.028   6.300
 8282SOL    HW125745   5.513   2.986   6.328
 8282SOL    HW225746   5.673   2.962   6.306
 8283SOL     OW25747   1.416   4.512   6.030
 8283SOL    HW125748   1.388   4.422   6.063
 8283SOL    HW225749   1.468   4.501   5.946
 8284SOL     OW25750   0.653   4.458   1.991
 8284SOL    HW125751   0.583   4.523   1.963
 8284SOL    HW225752   0.631   4.367   1.955
 8285SOL     OW25753   4.113   3.309   4.882
 8285SOL    HW125754   4.174   3.243   4.927
 8285SOL    HW225755   4.022   3.268   4.873
 8286SOL     OW25756   6.395   2.334   5.613
 8286SOL    HW125757   6.463   2.406   5.628
 8286SOL    HW225758   6.360   2.303   5.702
 8287SOL     OW25759   1.137   5.339   4.599
 8287SOL    HW125760   1.073   5.399   4.648
 8287SOL    HW225761   1.122   5.348   4.501
 8288SOL     OW25762   2.641   2.286   3.187
 8288SOL    HW125763   2.684   2.199   3.162
 8288SOL    HW225764   2.635   2.345   3.107
 8289SOL     OW25765   0.819   0.256   0.570
 8289SOL    HW125766   0.830   0.320   0.494
 8289SOL    HW225767   0.837   0.163   0.539
 8290SOL     OW25768   6.840   1.722   0.472
 8290SOL    HW125769   6.782   1.785   0.421
 8290SOL    HW225770   6.820   1.731   0.570
 8291SOL     OW25771   4.824   0.282   6.737
 8291SOL    HW125772   4.920   0.304   6.720
 8291SOL    HW225773   4.783   0.353   6.794
 8292SOL     OW25774   2.640   6.517   0.348
 8292SOL    HW125775   2.609   6.611   0.333
 8292SOL    HW225776   2.597   6.457   0.280
 8293SOL     OW25777   4.430   6.987   6.505
 8293SOL    HW125778   4.416   0.002   6.597
 8293SOL    HW225779   4.461   6.892   6.512
 8294SOL     OW25780   6.330   3.187   6.451
 8294SOL    HW125781   6.376   3.179   6.540
 8294SOL    HW225782   6.235   3.217   6.466
 8295SOL     OW25783   5.493   5.266   2.254
 8295SOL    HW125784   5.438   5.259   2.171
 8295SOL    HW225785   5.439   5.238   2.333
 8296SOL     OW25786   1.523   6.232   6.513
 8296SOL    HW125787   1.491   6.326   6.516
 8296SOL    HW225788   1.497   6.191   6.425
 8297SOL     OW25789   6.442   2.526   3.268
 8297SOL    HW125790   6.424   2.621   3.242
 8297SOL    HW225791   6.479   2.477   3.188
 8298SOL     OW25792   5.191   1.314   1.677
 8298SOL    HW125793   5.193   1.256   1.758
 8298SOL    HW225794   5.247   1.395   1.693
 8299SOL     OW25795   0.265   3.037   1.896
 8299SOL    HW125796   0.304   2.952   1.862
 8299SOL    HW225797   0.331   3.111   1.882
 8300SOL     OW25798   0.696   4.436   5.328
 8300SOL    HW125799   0.726   4.428   5.423
 8300SOL    HW225800   0.776   4.433   5.268
 8301SOL     OW25801   4.245   2.412   1.047
 8301SOL    HW125802   4.226   2.372   1.136
 8301SOL    HW225803   4.190   2.494   1.034
 8302SOL     OW25804   5.896   6.524   6.695
 8302SOL    HW125805   5.971   6.547   6.756
 8302SOL    HW225806   5.914   6.563   6.604
 8303SOL     OW25807   0.232   0.168   4.696
 8303SOL    HW125808   0.310   0.106   4.687
 8303SOL    HW225809   0.149   0.114   4.712
 8304SOL     OW25810   0.856   3.516   5.934
 8304SOL    HW125811   0.945   3.551   5.902
 8304SOL    HW225812   0.831   3.561   6.020
 8305SOL     OW25813   3.524   5.591   3.764
 8305SOL    HW125814   3.480   5.576   3.853
 8305SOL    HW225815   3.607   5.536   3.758
 8306SOL     OW25816   0.505   2.138   5.803
 8306SOL    HW125817   0.408   2.159   5.815
 8306SOL    HW225818   0.520   2.041   5.823
 8307SOL     OW25819   3.487   5.119   0.802
 8307SOL    HW125820   3.503   5.167   0.888
 8307SOL    HW225821   3.451   5.183   0.734
 8308SOL     OW25822   4.294   6.770   1.591
 8308SOL    HW125823   4.194   6.759   1.591
 8308SOL    HW225824   4.324   6.797   1.499
 8309SOL     OW25825   5.991   5.553   3.048
 8309SOL    HW125826   5.983   5.652   3.063
 8309SOL    HW225827   5.901   5.510   3.055
 8310SOL     OW25828   0.879   4.194   0.643
 8310SOL    HW125829   0.897   4.104   0.681
 8310SOL    HW225830   0.816   4.244   0.703
 8311SOL     OW25831   0.190   0.746   6.410
 8311SOL    HW125832   0.219   0.653   6.435
 8311SOL    HW225833   0.270   0.803   6.396
 8312SOL     OW25834   4.807   6.369   1.458
 8312SOL    HW125835   4.871   6.445   1.454
 8312SOL    HW225836   4.857   6.284   1.476
 8313SOL     OW25837   3.903   1.851   3.027
 8313SOL    HW125838   3.855   1.827   2.942
 8313SOL    HW225839   3.919   1.768   3.081
 8314SOL     OW25840   5.167   6.746   1.074
 8314SOL    HW125841   5.194   6.690   0.995
 8314SOL    HW225842   5.164   6.842   1.047
 8315SOL     OW25843   4.441   3.160   0.804
 8315SOL    HW125844   4.532   3.177   0.766
 8315SOL    HW225845   4.427   3.216   0.886
 8316SOL     OW25846   0.447   3.952   1.271
 8316SOL    HW125847   0.505   3.978   1.194
 8316SOL    HW225848   0.351   3.946   1.241
 8317SOL     OW25849   2.152   3.306   2.662
 8317SOL    HW125850   2.072   3.308   2.602
 8317SOL    HW225851   2.212   3.383   2.640
 8318SOL     OW25852   4.239   1.830   5.115
 8318SOL    HW125853   4.305   1.761   5.146
 8318SOL    HW225854   4.264   1.862   5.024
 8319SOL     OW25855   3.489   1.214   5.407
 8319SOL    HW125856   3.579   1.237   5.370
 8319SOL    HW225857   3.419   1.270   5.361
 8320SOL     OW25858   3.394   4.752   1.098
 8320SOL    HW125859   3.395   4.809   1.181
 8320SOL    HW225860   3.337   4.672   1.113
 8321SOL     OW25861   0.465   1.223   6.838
 8321SOL    HW125862   0.404   1.302   6.849
 8321SOL    HW225863   0.553   1.242   6.881
 8322SOL     OW25864   6.650   0.052   6.811
 8322SOL    HW125865   6.565   0.103   6.824
 8322SOL    HW225866   6.707   0.063   6.892
 8323SOL     OW25867   0.342   0.454   2.543
 8323SOL    HW125868   0.337   0.517   2.621
 8323SOL    HW225869   0.261   0.465   2.486
 8324SOL     OW25870   6.282   0.561   2.301
 8324SOL    HW125871   6.229   0.522   2.225
 8324SOL    HW225872   6.222   0.618   2.357
 8325SOL     OW25873   3.983   3.283   4.277
 8325SOL    HW125874   3.990   3.184   4.265
 8325SOL    HW225875   3.917   3.303   4.349
 8326SOL     OW25876   4.401   3.532   5.595
 8326SOL    HW125877   4.421   3.446   5.641
 8326SOL    HW225878   4.434   3.529   5.500
 8327SOL     OW25879   5.132   2.256   5.520
 8327SOL    HW125880   5.171   2.286   5.608
 8327SOL    HW225881   5.080   2.331   5.479
 8328SOL     OW25882   2.564   3.767   6.062
 8328SOL    HW125883   2.518   3.843   6.015
 8328SOL    HW225884   2.650   3.799   6.102
 8329SOL     OW25885   0.177   2.584   5.310
 8329SOL    HW125886   0.199   2.491   5.340
 8329SOL    HW225887   0.250   2.618   5.249
 8330SOL     OW25888   1.947   6.508   0.617
 8330SOL    HW125889   1.905   6.592   0.582
 8330SOL    HW225890   2.016   6.476   0.552
 8331SOL     OW25891   3.322   0.018   1.383
 8331SOL    HW125892   3.345   0.057   1.294
 8331SOL    HW225893   3.248   6.974   1.372
 8332SOL     OW25894   4.687   5.153   2.177
 8332SOL    HW125895   4.626   5.128   2.252
 8332SOL    HW225896   4.649   5.230   2.126
 8333SOL     OW25897   0.246   5.881   6.685
 8333SOL    HW125898   0.193   5.862   6.767
 8333SOL    HW225899   0.343   5.871   6.705
 8334SOL     OW25900   5.645   1.409   4.084
 8334SOL    HW125901   5.632   1.494   4.136
 8334SOL    HW225902   5.567   1.349   4.099
 8335SOL     OW25903   6.391   5.559   5.966
 8335SOL    HW125904   6.361   5.471   6.002
 8335SOL    HW225905   6.467   5.594   6.020
 8336SOL     OW25906   6.717   1.041   2.928
 8336SOL    HW125907   6.710   1.095   2.845
 8336SOL    HW225908   6.643   0.974   2.931
 8337SOL     OW25909   0.571   6.314   4.027
 8337SOL    HW125910   0.561   6.223   3.987
 8337SOL    HW225911   0.619   6.374   3.962
 8338SOL     OW25912   1.773   4.664   1.324
 8338SOL    HW125913   1.687   4.694   1.365
 8338SOL    HW225914   1.848   4.681   1.389
 8339SOL     OW25915   6.597   0.635   3.031
 8339SOL    HW125916   6.579   0.597   3.122
 8339SOL    HW225917   6.540   0.588   2.963
 8340SOL     OW25918   4.816   3.942   0.963
 8340SOL    HW125919   4.788   4.027   0.918
 8340SOL    HW225920   4.872   3.964   1.044
 8341SOL     OW25921   1.632   6.913   0.192
 8341SOL    HW125922   1.606   6.874   0.280
 8341SOL    HW225923   1.650   7.010   0.201
 8342SOL     OW25924   3.805   0.471   0.993
 8342SOL    HW125925   3.887   0.495   0.942
 8342SOL    HW225926   3.732   0.535   0.970
 8343SOL     OW25927   1.790   5.352   6.008
 8343SOL    HW125928   1.764   5.259   6.034
 8343SOL    HW225929   1.825   5.400   6.088
 8344SOL     OW25930   4.627   6.362   6.068
 8344SOL    HW125931   4.582   6.445   6.101
 8344SOL    HW225932   4.726   6.372   6.076
 8345SOL     OW25933   5.462   1.935   3.512
 8345SOL    HW125934   5.474   1.919   3.414
 8345SOL    HW225935   5.418   1.856   3.554
 8346SOL     OW25936   2.445   4.720   0.397
 8346SOL    HW125937   2.541   4.692   0.391
 8346SOL    HW225938   2.389   4.644   0.429
 8347SOL     OW25939   2.858   6.855   5.136
 8347SOL    HW125940   2.935   6.825   5.192
 8347SOL    HW225941   2.797   6.912   5.191
 8348SOL     OW25942   1.532   0.559   1.643
 8348SOL    HW125943   1.593   0.638   1.634
 8348SOL    HW225944   1.467   0.558   1.568
 8349SOL     OW25945   5.521   3.854   1.132
 8349SOL    HW125946   5.477   3.817   1.050
 8349SOL    HW225947   5.593   3.918   1.105
 8350SOL     OW25948   6.011   0.808   4.991
 8350SOL    HW125949   5.992   0.741   4.920
 8350SOL    HW225950   5.925   0.841   5.030
 8351SOL     OW25951   3.638   5.565   4.144
 8351SOL    HW125952   3.633   5.488   4.081
 8351SOL    HW225953   3.712   5.550   4.209
 8352SOL     OW25954   6.375   0.185   1.994
 8352SOL    HW125955   6.341   0.122   2.064
 8352SOL    HW225956   6.429   0.134   1.927
 8353SOL     OW25957   5.811   3.868   2.159
 8353SOL    HW125958   5.856   3.822   2.082
 8353SOL    HW225959   5.879   3.919   2.211
 8354SOL     OW25960   3.218   1.439   6.627
 8354SOL    HW125961   3.289   1.449   6.697
 8354SOL    HW225962   3.129   1.459   6.667
 8355SOL     OW25963   3.150   0.644   6.972
 8355SOL    HW125964   3.108   0.724   7.015
 8355SOL    HW225965   3.162   0.662   6.875
 8356SOL     OW25966   0.873   6.441   0.030
 8356SOL    HW125967   0.955   6.486   7.018
 8356SOL    HW225968   0.881   6.427   0.129
 8357SOL     OW25969   3.590   5.426   5.332
 8357SOL    HW125970   3.561   5.518   5.306
 8357SOL    HW225971   3.689   5.418   5.320
 8358SOL     OW25972   1.651   2.246   5.572
 8358SOL    HW125973   1.627   2.193   5.653
 8358SOL    HW225974   1.600   2.212   5.494
 8359SOL     OW25975   4.066   5.962   4.669
 8359SOL    HW125976   4.117   6.024   4.609
 8359SOL    HW225977   3.969   5.985   4.666
 8360SOL     OW25978   3.927   0.233   2.798
 8360SOL    HW125979   3.891   0.140   2.794
 8360SOL    HW225980   3.867   0.294   2.748
 8361SOL     OW25981   2.058   1.618   2.168
 8361SOL    HW125982   2.037   1.690   2.234
 8361SOL    HW225983   2.001   1.629   2.086
 8362SOL     OW25984   3.076   2.375   0.436
 8362SOL    HW125985   2.976   2.380   0.442
 8362SOL    HW225986   3.106   2.282   0.458
 8363SOL     OW25987   1.166   2.781   0.816
 8363SOL    HW125988   1.215   2.855   0.770
 8363SOL    HW225989   1.068   2.801   0.816
 8364SOL     OW25990   6.440   3.299   2.607
 8364SOL    HW125991   6.507   3.228   2.629
 8364SOL    HW225992   6.352   3.256   2.588
 8365SOL     OW25993   2.236   3.490   0.733
 8365SOL    HW125994   2.301   3.475   0.808
 8365SOL    HW225995   2.215   3.403   0.689
 8366SOL     OW25996   4.736   6.130   2.209
 8366SOL    HW125997   4.793   6.054   2.243
 8366SOL    HW225998   4.715   6.192   2.285
 8367SOL     OW25999   4.582   6.480   3.793
 8367SOL    HW126000   4.650   6.465   3.865
 8367SOL    HW226001   4.523   6.400   3.785
 8368SOL     OW26002   2.807   5.651   6.144
 8368SOL    HW126003   2.903   5.669   6.165
 8368SOL    HW226004   2.790   5.669   6.048
 8369SOL     OW26005   1.968   0.599   0.334
 8369SOL    HW126006   1.991   0.502   0.332
 8369SOL    HW226007   1.984   0.636   0.426
 8370SOL     OW26008   2.719   1.864   5.903
 8370SOL    HW126009   2.696   1.945   5.958
 8370SOL    HW226010   2.736   1.786   5.963
 8371SOL     OW26011   1.406   3.308   0.039
 8371SOL    HW126012   1.467   3.376   0.080
 8371SOL    HW226013   1.321   3.303   0.092
 8372SOL     OW26014   0.517   0.128   2.816
 8372SOL    HW126015   0.446   0.113   2.885
 8372SOL    HW226016   0.594   0.066   2.833
 8373SOL     OW26017   0.808   6.225   5.326
 8373SOL    HW126018   0.752   6.206   5.407
 8373SOL    HW226019   0.842   6.139   5.288
 8374SOL     OW26020   6.837   1.012   6.918
 8374SOL    HW126021   6.932   0.991   6.941
 8374SOL    HW226022   6.797   1.070   6.989
 8375SOL     OW26023   3.394   5.695   6.134
 8375SOL    HW126024   3.487   5.729   6.121
 8375SOL    HW226025   3.371   5.631   6.060
 8376SOL     OW26026   2.529   0.607   4.403
 8376SOL    HW126027   2.588   0.632   4.480
 8376SOL    HW226028   2.465   0.536   4.431
 8377SOL     OW26029   5.652   5.767   1.049
 8377SOL    HW126030   5.554   5.787   1.046
 8377SOL    HW226031   5.703   5.852   1.039
 8378SOL     OW26032   5.463   3.519   3.154
 8378SOL    HW126033   5.486   3.616   3.148
 8378SOL    HW226034   5.425   3.488   3.067
 8379SOL     OW26035   6.480   3.917   2.099
 8379SOL    HW126036   6.574   3.906   2.130
 8379SOL    HW226037   6.477   3.983   2.024
 8380SOL     OW26038   6.150   1.491   2.441
 8380SOL    HW126039   6.052   1.486   2.458
 8380SOL    HW226040   6.199   1.491   2.529
 8381SOL     OW26041   0.919   5.055   4.659
 8381SOL    HW126042   0.952   5.129   4.717
 8381SOL    HW226043   0.870   5.094   4.580
 8382SOL     OW26044   1.477   1.683   2.170
 8382SOL    HW126045   1.395   1.729   2.138
 8382SOL    HW226046   1.467   1.658   2.266
 8383SOL     OW26047   2.699   2.329   6.702
 8383SOL    HW126048   2.716   2.365   6.794
 8383SOL    HW226049   2.767   2.366   6.639
 8384SOL     OW26050   0.036   6.711   1.104
 8384SOL    HW126051   0.060   6.691   1.199
 8384SOL    HW226052   6.968   6.754   1.100
 8385SOL     OW26053   5.487   2.366   1.776
 8385SOL    HW126054   5.469   2.286   1.720
 8385SOL    HW226055   5.548   2.429   1.727
 8386SOL     OW26056   0.813   4.125   2.781
 8386SOL    HW126057   0.745   4.084   2.842
 8386SOL    HW226058   0.903   4.090   2.804
 8387SOL     OW26059   1.681   1.307   1.145
 8387SOL    HW126060   1.590   1.329   1.109
 8387SOL    HW226061   1.709   1.377   1.210
 8388SOL     OW26062   2.806   6.226   1.541
 8388SOL    HW126063   2.748   6.149   1.515
 8388SOL    HW226064   2.856   6.258   1.461
 8389SOL     OW26065   5.442   2.916   2.104
 8389SOL    HW126066   5.492   2.858   2.039
 8389SOL    HW226067   5.398   2.991   2.053
 8390SOL     OW26068   3.959   2.331   6.001
 8390SOL    HW126069   3.884   2.327   6.067
 8390SOL    HW226070   3.981   2.239   5.970
 8391SOL     OW26071   6.258   0.106   0.682
 8391SOL    HW126072   6.333   0.090   0.618
 8391SOL    HW226073   6.183   0.152   0.635
 8392SOL     OW26074   6.099   3.605   4.724
 8392SOL    HW126075   6.060   3.625   4.634
 8392SOL    HW226076   6.150   3.518   4.719
 8393SOL     OW26077   4.934   0.366   2.048
 8393SOL    HW126078   4.857   0.305   2.029
 8393SOL    HW226079   4.938   0.437   1.979
 8394SOL     OW26080   6.271   3.923   2.283
 8394SOL    HW126081   6.339   3.941   2.212
 8394SOL    HW226082   6.313   3.932   2.373
 8395SOL     OW26083   2.306   0.524   5.409
 8395SOL    HW126084   2.251   0.551   5.488
 8395SOL    HW226085   2.311   0.601   5.344
 8396SOL     OW26086   4.174   5.595   4.163
 8396SOL    HW126087   4.273   5.596   4.150
 8396SOL    HW226088   4.152   5.544   4.246
 8397SOL     OW26089   6.541   1.378   3.874
 8397SOL    HW126090   6.613   1.446   3.886
 8397SOL    HW226091   6.454   1.416   3.906
 8398SOL     OW26092   5.079   1.976   6.161
 8398SOL    HW126093   5.006   1.945   6.100
 8398SOL    HW226094   5.046   1.975   6.256
 8399SOL     OW26095   6.845   5.954   6.927
 8399SOL    HW126096   6.855   5.909   7.015
 8399SOL    HW226097   6.935   5.964   6.884
 8400SOL     OW26098   1.426   2.203   4.248
 8400SOL    HW126099   1.414   2.237   4.155
 8400SOL    HW226100   1.502   2.138   4.250
 8401SOL     OW26101   2.750   0.051   5.323
 8401SOL    HW126102   2.659   0.023   5.292
 8401SOL    HW226103   2.758   0.150   5.320
 8402SOL     OW26104   4.684   0.845   6.047
 8402SOL    HW126105   4.755   0.912   6.023
 8402SOL    HW226106   4.602   0.894   6.077
 8403SOL     OW26107   6.506   4.343   4.195
 8403SOL    HW126108   6.600   4.309   4.196
 8403SOL    HW226109   6.504   4.437   4.162
 8404SOL     OW26110   2.511   1.870   6.143
 8404SOL    HW126111   2.605   1.886   6.172
 8404SOL    HW226112   2.450   1.937   6.185
 8405SOL     OW26113   3.616   1.610   5.577
 8405SOL    HW126114   3.669   1.530   5.603
 8405SOL    HW226115   3.676   1.676   5.531
 8406SOL     OW26116   4.916   0.852   6.437
 8406SOL    HW126117   4.845   0.894   6.380
 8406SOL    HW226118   4.948   0.768   6.394
 8407SOL     OW26119   3.885   6.484   3.515
 8407SOL    HW126120   3.853   6.500   3.608
 8407SOL    HW226121   3.910   6.571   3.473
 8408SOL     OW26122   5.560   6.830   1.112
 8408SOL    HW126123   5.609   6.768   1.173
 8408SOL    HW226124   5.590   6.813   1.017
 8409SOL     OW26125   4.475   2.342   1.901
 8409SOL    HW126126   4.573   2.352   1.921
 8409SOL    HW226127   4.443   2.422   1.851
 8410SOL     OW26128   6.750   1.699   1.678
 8410SOL    HW126129   6.804   1.717   1.760
 8410SOL    HW226130   6.748   1.600   1.661
 8411SOL     OW26131   0.331   5.990   0.905
 8411SOL    HW126132   0.279   6.055   0.849
 8411SOL    HW226133   0.352   6.032   0.994
 8412SOL     OW26134   3.120   3.079   0.799
 8412SOL    HW126135   3.176   3.151   0.760
 8412SOL    HW226136   3.075   3.112   0.882
 8413SOL     OW26137   4.231   5.367   5.830
 8413SOL    HW126138   4.241   5.393   5.734
 8413SOL    HW226139   4.228   5.449   5.887
 8414SOL     OW26140   1.493   1.171   2.552
 8414SOL    HW126141   1.568   1.188   2.488
 8414SOL    HW226142   1.501   1.077   2.586
 8415SOL     OW26143   2.862   6.913   4.372
 8415SOL    HW126144   2.807   6.918   4.455
 8415SOL    HW226145   2.919   6.995   4.366
 8416SOL     OW26146   5.985   1.727   4.789
 8416SOL    HW126147   6.032   1.640   4.777
 8416SOL    HW226148   5.970   1.744   4.887
 8417SOL     OW26149   1.025   2.883   5.092
 8417SOL    HW126150   1.111   2.933   5.077
 8417SOL    HW226151   1.045   2.797   5.139
 8418SOL     OW26152   0.569   5.506   2.012
 8418SOL    HW126153   0.583   5.416   1.971
 8418SOL    HW226154   0.562   5.498   2.111
 8419SOL     OW26155   5.504   0.672   2.791
 8419SOL    HW126156   5.422   0.668   2.734
 8419SOL    HW226157   5.480   0.702   2.883
 8420SOL     OW26158   3.412   6.497   2.345
 8420SOL    HW126159   3.392   6.478   2.441
 8420SOL    HW226160   3.495   6.449   2.317
 8421SOL     OW26161   4.170   6.136   5.869
 8421SOL    HW126162   4.116   6.053   5.861
 8421SOL    HW226163   4.158   6.192   5.787
 8422SOL     OW26164   4.797   2.522   2.488
 8422SOL    HW126165   4.709   2.566   2.472
 8422SOL    HW226166   4.782   2.430   2.524
 8423SOL     OW26167   5.436   4.461   5.805
 8423SOL    HW126168   5.438   4.366   5.773
 8423SOL    HW226169   5.386   4.466   5.891
 8424SOL     OW26170   1.849   0.090   3.401
 8424SOL    HW126171   1.938   0.083   3.447
 8424SOL    HW226172   1.833   0.184   3.371
 8425SOL     OW26173   3.118   3.621   3.650
 8425SOL    HW126174   3.059   3.664   3.582
 8425SOL    HW226175   3.063   3.570   3.715
 8426SOL     OW26176   3.876   3.272   2.445
 8426SOL    HW126177   3.786   3.250   2.409
 8426SOL    HW226178   3.916   3.191   2.488
 8427SOL     OW26179   3.128   3.168   3.230
 8427SOL    HW126180   3.110   3.103   3.304
 8427SOL    HW226181   3.226   3.189   3.227
 8428SOL     OW26182   0.167   0.511   0.483
 8428SOL    HW126183   0.131   0.442   0.545
 8428SOL    HW226184   0.176   0.599   0.531
 8429SOL     OW26185   2.128   5.678   6.255
 8429SOL    HW126186   2.164   5.761   6.213
 8429SOL    HW226187   2.166   5.598   6.208
 8430SOL     OW26188   4.532   5.990   4.055
 8430SOL    HW126189   4.537   5.933   4.137
 8430SOL    HW226190   4.487   6.077   4.077
 8431SOL     OW26191   2.436   2.851   6.483
 8431SOL    HW126192   2.478   2.773   6.437
 8431SOL    HW226193   2.450   2.934   6.428
 8432SOL     OW26194   6.666   5.576   5.648
 8432SOL    HW126195   6.752   5.604   5.690
 8432SOL    HW226196   6.676   5.572   5.549
 8433SOL     OW26197   4.651   2.240   1.367
 8433SOL    HW126198   4.571   2.299   1.376
 8433SOL    HW226199   4.633   2.171   1.296
 8434SOL     OW26200   1.982   5.731   4.591
 8434SOL    HW126201   1.976   5.824   4.556
 8434SOL    HW226202   2.026   5.672   4.524
 8435SOL     OW26203   5.101   0.534   2.608
 8435SOL    HW126204   5.126   0.437   2.618
 8435SOL    HW226205   5.030   0.557   2.676
 8436SOL     OW26206   2.372   6.313   3.538
 8436SOL    HW126207   2.405   6.404   3.514
 8436SOL    HW226208   2.275   6.318   3.561
 8437SOL     OW26209   2.249   2.925   2.425
 8437SOL    HW126210   2.253   2.992   2.351
 8437SOL    HW226211   2.229   2.972   2.511
 8438SOL     OW26212   1.532   3.831   3.082
 8438SOL    HW126213   1.631   3.825   3.098
 8438SOL    HW226214   1.511   3.789   2.994
 8439SOL     OW26215   6.043   4.831   3.615
 8439SOL    HW126216   6.027   4.756   3.680
 8439SOL    HW226217   6.124   4.811   3.561
 8440SOL     OW26218   2.119   1.679   3.396
 8440SOL    HW126219   2.172   1.703   3.477
 8440SOL    HW226220   2.096   1.763   3.346
 8441SOL     OW26221   5.742   6.339   5.274
 8441SOL    HW126222   5.841   6.329   5.277
 8441SOL    HW226223   5.700   6.251   5.254
 8442SOL     OW26224   3.670   0.858   4.977
 8442SOL    HW126225   3.663   0.763   4.948
 8442SOL    HW226226   3.601   0.876   5.048
 8443SOL     OW26227   1.733   4.767   3.537
 8443SOL    HW126228   1.807   4.704   3.514
 8443SOL    HW226229   1.703   4.750   3.631
 8444SOL     OW26230   4.497   6.312   2.958
 8444SOL    HW126231   4.411   6.305   3.008
 8444SOL    HW226232   4.507   6.405   2.921
 8445SOL     OW26233   3.300   6.801   6.749
 8445SOL    HW126234   3.205   6.783   6.774
 8445SOL    HW226235   3.349   6.715   6.738
 8446SOL     OW26236   0.316   6.483   5.218
 8446SOL    HW126237   0.359   6.569   5.246
 8446SOL    HW226238   0.291   6.489   5.122
 8447SOL     OW26239   4.339   1.668   2.717
 8447SOL    HW126240   4.361   1.765   2.731
 8447SOL    HW226241   4.260   1.643   2.772
 8448SOL     OW26242   4.653   6.757   3.355
 8448SOL    HW126243   4.641   6.697   3.275
 8448SOL    HW226244   4.741   6.804   3.348
 8449SOL     OW26245   1.937   2.686   3.143
 8449SOL    HW126246   1.950   2.588   3.127
 8449SOL    HW226247   1.997   2.715   3.218
 8450SOL     OW26248   6.756   0.807   0.238
 8450SOL    HW126249   6.744   0.904   0.257
 8450SOL    HW226250   6.667   0.762   0.236
 8451SOL     OW26251   4.243   1.698   1.225
 8451SOL    HW126252   4.147   1.670   1.223
 8451SOL    HW226253   4.297   1.630   1.274
 8452SOL     OW26254   4.879   1.956   4.917
 8452SOL    HW126255   4.909   1.864   4.895
 8452SOL    HW226256   4.922   2.021   4.854
 8453SOL     OW26257   1.050   6.049   6.713
 8453SOL    HW126258   0.981   6.082   6.777
 8453SOL    HW226259   1.019   5.963   6.673
 8454SOL     OW26260   0.741   3.973   6.995
 8454SOL    HW126261   0.781   3.942   0.059
 8454SOL    HW226262   0.661   4.030   7.014
 8455SOL     OW26263   1.125   0.646   2.439
 8455SOL    HW126264   1.138   0.629   2.341
 8455SOL    HW226265   1.180   0.581   2.492
 8456SOL     OW26266   5.228   0.747   3.038
 8456SOL    HW126267   5.230   0.828   2.978
 8456SOL    HW226268   5.321   0.726   3.068
 8457SOL     OW26269   6.106   6.457   4.641
 8457SOL    HW126270   6.068   6.377   4.686
 8457SOL    HW226271   6.203   6.466   4.663
 8458SOL     OW26272   0.405   0.204   0.068
 8458SOL    HW126273   0.371   0.285   0.114
 8458SOL    HW226274   0.345   0.180   7.015
 8459SOL     OW26275   1.383   5.771   3.296
 8459SOL    HW126276   1.426   5.781   3.206
 8459SOL    HW226277   1.336   5.683   3.301
 8460SOL     OW26278   3.421   4.125   4.705
 8460SOL    HW126279   3.472   4.040   4.717
 8460SOL    HW226280   3.423   4.177   4.791
 8461SOL     OW26281   0.005   2.954   4.680
 8461SOL    HW126282   6.967   3.025   4.645
 8461SOL    HW226283   7.007   2.867   4.635
 8462SOL     OW26284   2.759   1.693   1.703
 8462SOL    HW126285   2.729   1.775   1.655
 8462SOL    HW226286   2.844   1.713   1.753
 8463SOL     OW26287   6.001   0.984   2.518
 8463SOL    HW126288   6.050   0.910   2.473
 8463SOL    HW226289   6.032   1.072   2.483
 8464SOL     OW26290   5.907   3.183   4.563
 8464SOL    HW126291   5.966   3.104   4.573
 8464SOL    HW226292   5.957   3.266   4.589
 8465SOL     OW26293   1.282   1.882   0.685
 8465SOL    HW126294   1.250   1.821   0.613
 8465SOL    HW226295   1.281   1.976   0.652
 8466SOL     OW26296   0.979   6.052   3.215
 8466SOL    HW126297   1.047   5.995   3.262
 8466SOL    HW226298   0.907   6.078   3.279
 8467SOL     OW26299   2.617   5.293   0.927
 8467SOL    HW126300   2.702   5.241   0.920
 8467SOL    HW226301   2.638   5.388   0.950
 8468SOL     OW26302   4.190   2.140   6.752
 8468SOL    HW126303   4.217   2.144   6.656
 8468SOL    HW226304   4.238   2.064   6.797
 8469SOL     OW26305   3.415   3.128   6.583
 8469SOL    HW126306   3.339   3.097   6.526
 8469SOL    HW226307   3.379   3.169   6.667
 8470SOL     OW26308   2.822   3.119   0.011
 8470SOL    HW126309   2.765   3.199   0.031
 8470SOL    HW226310   2.904   3.122   0.068
 8471SOL     OW26311   2.897   0.615   3.954
 8471SOL    HW126312   2.897   0.688   3.885
 8471SOL    HW226313   2.991   0.590   3.975
 8472SOL     OW26314   0.374   6.952   4.449
 8472SOL    HW126315   0.398   6.978   4.543
 8472SOL    HW226316   0.299   6.886   4.450
 8473SOL     OW26317   6.760   5.184   6.533
 8473SOL    HW126318   6.725   5.256   6.593
 8473SOL    HW226319   6.824   5.224   6.467
 8474SOL     OW26320   3.453   3.126   1.562
 8474SOL    HW126321   3.490   3.219   1.556
 8474SOL    HW226322   3.356   3.127   1.538
 8475SOL     OW26323   6.043   1.724   2.821
 8475SOL    HW126324   6.048   1.781   2.903
 8475SOL    HW226325   5.970   1.757   2.761
 8476SOL     OW26326   5.131   0.781   1.810
 8476SOL    HW126327   5.230   0.797   1.805
 8476SOL    HW226328   5.091   0.840   1.879
 8477SOL     OW26329   2.515   6.956   1.279
 8477SOL    HW126330   2.565   6.887   1.228
 8477SOL    HW226331   2.564   0.021   1.276
 8478SOL     OW26332   1.745   0.524   5.986
 8478SOL    HW126333   1.694   0.438   5.983
 8478SOL    HW226334   1.688   0.599   5.953
 8479SOL     OW26335   6.150   1.053   0.669
 8479SOL    HW126336   6.208   1.111   0.726
 8479SOL    HW226337   6.198   1.030   0.584
 8480SOL     OW26338   3.196   0.501   1.526
 8480SOL    HW126339   3.282   0.466   1.490
 8480SOL    HW226340   3.124   0.433   1.515
 8481SOL     OW26341   3.138   1.387   4.601
 8481SOL    HW126342   3.154   1.407   4.504
 8481SOL    HW226343   3.046   1.349   4.612
 8482SOL     OW26344   1.345   0.022   2.029
 8482SOL    HW126345   1.381   6.983   2.099
 8482SOL    HW226346   1.288   6.992   1.965
 8483SOL     OW26347   3.612   5.658   1.567
 8483SOL    HW126348   3.562   5.595   1.626
 8483SOL    HW226349   3.701   5.680   1.609
 8484SOL     OW26350   0.536   4.816   4.433
 8484SOL    HW126351   0.475   4.818   4.513
 8484SOL    HW226352   0.571   4.723   4.420
 8485SOL     OW26353   2.205   4.227   6.972
 8485SOL    HW126354   2.267   4.153   6.998
 8485SOL    HW226355   2.211   4.301   0.016
 8486SOL     OW26356   5.742   0.864   2.185
 8486SOL    HW126357   5.727   0.888   2.281
 8486SOL    HW226358   5.836   0.886   2.159
 8487SOL     OW26359   5.219   0.353   1.774
 8487SOL    HW126360   5.161   0.280   1.738
 8487SOL    HW226361   5.235   0.338   1.872
 8488SOL     OW26362   5.235   4.310   4.567
 8488SOL    HW126363   5.319   4.287   4.616
 8488SOL    HW226364   5.199   4.396   4.601
 8489SOL     OW26365   5.077   4.847   1.438
 8489SOL    HW126366   5.016   4.799   1.375
 8489SOL    HW226367   5.120   4.924   1.390
 8490SOL     OW26368   4.180   5.363   3.210
 8490SOL    HW126369   4.244   5.295   3.174
 8490SOL    HW226370   4.177   5.356   3.309
 8491SOL     OW26371   2.662   0.286   2.049
 8491SOL    HW126372   2.646   0.377   2.009
 8491SOL    HW226373   2.724   0.295   2.127
 8492SOL     OW26374   6.356   2.425   5.334
 8492SOL    HW126375   6.367   2.396   5.429
 8492SOL    HW226376   6.315   2.351   5.280
 8493SOL     OW26377   4.372   1.485   6.967
 8493SOL    HW126378   4.456   1.539   6.971
 8493SOL    HW226379   4.373   1.427   6.886
 8494SOL     OW26380   2.636   5.609   0.097
 8494SOL    HW126381   2.730   5.642   0.086
 8494SOL    HW226382   2.598   5.588   0.007
 8495SOL     OW26383   6.702   2.526   0.764
 8495SOL    HW126384   6.708   2.445   0.822
 8495SOL    HW226385   6.789   2.576   0.769
 8496SOL     OW26386   0.093   1.979   3.248
 8496SOL    HW126387   0.024   1.935   3.190
 8496SOL    HW226388   0.049   2.022   3.326
 8497SOL     OW26389   6.048   5.027   3.785
 8497SOL    HW126390   6.102   5.108   3.761
 8497SOL    HW226391   6.059   4.957   3.715
 8498SOL     OW26392   0.086   0.202   1.098
 8498SOL    HW126393   0.179   0.186   1.066
 8498SOL    HW226394   0.087   0.275   1.167
 8499SOL     OW26395   2.994   4.347   6.487
 8499SOL    HW126396   2.933   4.426   6.483
 8499SOL    HW226397   3.055   4.348   6.408
 8500SOL     OW26398   2.410   6.946   6.303
 8500SOL    HW126399   2.486   6.890   6.273
 8500SOL    HW226400   2.434   0.020   6.293
 8501SOL     OW26401   2.122   3.551   6.560
 8501SOL    HW126402   2.041   3.526   6.507
 8501SOL    HW226403   2.163   3.634   6.521
 8502SOL     OW26404   6.759   6.278   2.046
 8502SOL    HW126405   6.835   6.296   1.983
 8502SOL    HW226406   6.782   6.313   2.137
 8503SOL     OW26407   2.878   4.795   3.642
 8503SOL    HW126408   2.799   4.829   3.591
 8503SOL    HW226409   2.962   4.820   3.593
 8504SOL     OW26410   1.681   5.244   3.327
 8504SOL    HW126411   1.660   5.151   3.358
 8504SOL    HW226412   1.682   5.306   3.406
 8505SOL     OW26413   5.063   4.180   3.859
 8505SOL    HW126414   4.963   4.187   3.856
 8505SOL    HW226415   5.092   4.160   3.952
 8506SOL     OW26416   1.149   6.802   0.558
 8506SOL    HW126417   1.182   6.815   0.652
 8506SOL    HW226418   1.058   6.763   0.560
 8507SOL     OW26419   1.846   1.378   6.358
 8507SOL    HW126420   1.915   1.310   6.335
 8507SOL    HW226421   1.891   1.461   6.390
 8508SOL     OW26422   0.168   1.956   5.619
 8508SOL    HW126423   0.201   2.014   5.693
 8508SOL    HW226424   0.074   1.982   5.597
 8509SOL     OW26425   5.849   1.729   4.030
 8509SOL    HW126426   5.835   1.824   4.003
 8509SOL    HW226427   5.794   1.708   4.111
 8510SOL     OW26428   5.394   5.565   3.211
 8510SOL    HW126429   5.420   5.658   3.233
 8510SOL    HW226430   5.430   5.503   3.282
 8511SOL     OW26431   6.752   4.578   1.069
 8511SOL    HW126432   6.711   4.490   1.092
 8511SOL    HW226433   6.850   4.575   1.089
 8512SOL     OW26434   4.431   2.113   0.139
 8512SOL    HW126435   4.438   2.203   0.097
 8512SOL    HW226436   4.363   2.059   0.091
 8513SOL     OW26437   5.728   4.003   1.040
 8513SOL    HW126438   5.823   3.991   1.010
 8513SOL    HW226439   5.720   4.090   1.089
 8514SOL     OW26440   2.845   1.604   4.771
 8514SOL    HW126441   2.780   1.668   4.811
 8514SOL    HW226442   2.808   1.569   4.684
 8515SOL     OW26443   0.708   1.249   6.960
 8515SOL    HW126444   0.779   1.302   6.914
 8515SOL    HW226445   0.731   1.152   6.959
 8516SOL     OW26446   5.837   3.301   2.672
 8516SOL    HW126447   5.832   3.326   2.575
 8516SOL    HW226448   5.768   3.231   2.692
 8517SOL     OW26449   1.886   2.594   5.322
 8517SOL    HW126450   1.975   2.636   5.337
 8517SOL    HW226451   1.849   2.561   5.410
 8518SOL     OW26452   5.156   5.018   6.499
 8518SOL    HW126453   5.131   4.987   6.591
 8518SOL    HW226454   5.252   5.043   6.497
 8519SOL     OW26455   1.586   4.391   1.173
 8519SOL    HW126456   1.551   4.398   1.080
 8519SOL    HW226457   1.685   4.380   1.171
 8520SOL     OW26458   3.808   4.104   4.586
 8520SOL    HW126459   3.852   4.068   4.504
 8520SOL    HW226460   3.742   4.174   4.560
 8521SOL     OW26461   1.208   6.655   5.571
 8521SOL    HW126462   1.174   6.635   5.663
 8521SOL    HW226463   1.282   6.592   5.549
 8522SOL     OW26464   1.259   6.944   0.328
 8522SOL    HW126465   1.219   6.997   0.403
 8522SOL    HW226466   1.300   6.861   0.364
 8523SOL     OW26467   2.543   0.035   6.543
 8523SOL    HW126468   2.508   7.005   6.465
 8523SOL    HW226469   2.467   0.060   6.603
 8524SOL     OW26470   1.184   5.058   4.966
 8524SOL    HW126471   1.252   5.086   5.033
 8524SOL    HW226472   1.127   5.137   4.942
 8525SOL     OW26473   6.576   4.713   1.358
 8525SOL    HW126474   6.668   4.672   1.357
 8525SOL    HW226475   6.508   4.642   1.346
 8526SOL     OW26476   2.306   6.552   0.633
 8526SOL    HW126477   2.332   6.646   0.615
 8526SOL    HW226478   2.286   6.541   0.731
 8527SOL     OW26479   3.423   0.428   6.537
 8527SOL    HW126480   3.479   0.485   6.477
 8527SOL    HW226481   3.415   0.337   6.497
 8528SOL     OW26482   4.522   2.148   1.111
 8528SOL    HW126483   4.454   2.081   1.081
 8528SOL    HW226484   4.553   2.201   1.032
 8529SOL     OW26485   1.332   6.167   0.089
 8529SOL    HW126486   1.369   6.248   0.133
 8529SOL    HW226487   1.240   6.186   0.053
 8530SOL     OW26488   2.914   3.335   4.140
 8530SOL    HW126489   2.946   3.429   4.154
 8530SOL    HW226490   2.819   3.337   4.108
 8531SOL     OW26491   6.793   6.059   3.656
 8531SOL    HW126492   6.879   6.013   3.677
 8531SOL    HW226493   6.717   6.006   3.694
 8532SOL     OW26494   3.761   6.465   4.446
 8532SOL    HW126495   3.757   6.366   4.457
 8532SOL    HW226496   3.714   6.491   4.361
 8533SOL     OW26497   1.340   6.030   6.685
 8533SOL    HW126498   1.244   6.050   6.668
 8533SOL    HW226499   1.396   6.107   6.653
 8534SOL     OW26500   4.432   2.033   3.991
 8534SOL    HW126501   4.468   1.959   4.048
 8534SOL    HW226502   4.416   2.114   4.047
 8535SOL     OW26503   5.490   0.876   3.534
 8535SOL    HW126504   5.588   0.890   3.549
 8535SOL    HW226505   5.461   0.791   3.580
 8536SOL     OW26506   0.606   1.256   4.842
 8536SOL    HW126507   0.531   1.190   4.832
 8536SOL    HW226508   0.629   1.265   4.939
 8537SOL     OW26509   6.186   1.055   3.368
 8537SOL    HW126510   6.162   1.056   3.271
 8537SOL    HW226511   6.226   1.143   3.393
 8538SOL     OW26512   1.323   1.838   0.275
 8538SOL    HW126513   1.296   1.770   0.207
 8538SOL    HW226514   1.423   1.849   0.272
 8539SOL     OW26515   5.896   2.597   3.165
 8539SOL    HW126516   5.812   2.630   3.121
 8539SOL    HW226517   5.921   2.508   3.127
 8540SOL     OW26518   4.319   0.209   6.662
 8540SOL    HW126519   4.303   0.167   6.751
 8540SOL    HW226520   4.288   0.305   6.664
 8541SOL     OW26521   2.249   2.170   4.024
 8541SOL    HW126522   2.311   2.246   4.003
 8541SOL    HW226523   2.154   2.200   4.013
 8542SOL     OW26524   4.241   4.518   6.405
 8542SOL    HW126525   4.261   4.546   6.311
 8542SOL    HW226526   4.148   4.480   6.409
 8543SOL     OW26527   2.376   2.617   0.446
 8543SOL    HW126528   2.344   2.592   0.355
 8543SOL    HW226529   2.437   2.546   0.481
 8544SOL     OW26530   5.148   2.806   3.904
 8544SOL    HW126531   5.055   2.839   3.888
 8544SOL    HW226532   5.210   2.849   3.839
 8545SOL     OW26533   4.937   6.085   5.474
 8545SOL    HW126534   4.857   6.059   5.529
 8545SOL    HW226535   5.020   6.053   5.519
 8546SOL     OW26536   5.234   1.764   3.513
 8546SOL    HW126537   5.205   1.818   3.434
 8546SOL    HW226538   5.250   1.670   3.485
 8547SOL     OW26539   1.222   5.091   4.369
 8547SOL    HW126540   1.128   5.125   4.383
 8547SOL    HW226541   1.272   5.099   4.455
 8548SOL     OW26542   5.196   1.196   5.538
 8548SOL    HW126543   5.120   1.193   5.603
 8548SOL    HW226544   5.275   1.242   5.580
 8549SOL     OW26545   6.581   3.691   3.952
 8549SOL    HW126546   6.559   3.675   4.048
 8549SOL    HW226547   6.633   3.776   3.943
 8550SOL     OW26548   1.890   5.485   6.206
 8550SOL    HW126549   1.946   5.562   6.176
 8550SOL    HW226550   1.919   5.455   6.297
 8551SOL     OW26551   3.664   4.264   6.458
 8551SOL    HW126552   3.692   4.196   6.391
 8551SOL    HW226553   3.741   4.322   6.482
 8552SOL     OW26554   3.300   5.911   3.098
 8552SOL    HW126555   3.280   6.009   3.100
 8552SOL    HW226556   3.231   5.864   3.044
 8553SOL     OW26557   4.809   6.869   0.419
 8553SOL    HW126558   4.846   6.959   0.398
 8553SOL    HW226559   4.715   6.878   0.451
 8554SOL     OW26560   0.219   4.129   6.776
 8554SOL    HW126561   0.275   4.066   6.722
 8554SOL    HW226562   0.176   4.196   6.715
 8555SOL     OW26563   1.047   1.324   3.871
 8555SOL    HW126564   0.975   1.293   3.808
 8555SOL    HW226565   1.005   1.359   3.954
 8556SOL     OW26566   6.852   0.833   3.942
 8556SOL    HW126567   6.824   0.773   4.017
 8556SOL    HW226568   6.790   0.911   3.936
 8557SOL     OW26569   6.718   6.910   1.628
 8557SOL    HW126570   6.734   7.008   1.617
 8557SOL    HW226571   6.776   6.874   1.701
 8558SOL     OW26572   1.966   5.407   2.496
 8558SOL    HW126573   2.048   5.353   2.518
 8558SOL    HW226574   1.895   5.346   2.461
 8559SOL     OW26575   0.936   0.446   1.690
 8559SOL    HW126576   0.885   0.530   1.673
 8559SOL    HW226577   0.887   0.390   1.757
 8560SOL     OW26578   6.723   1.514   0.293
 8560SOL    HW126579   6.820   1.493   0.289
 8560SOL    HW226580   6.703   1.593   0.235
 8561SOL     OW26581   4.876   6.460   2.969
 8561SOL    HW126582   4.959   6.469   2.915
 8561SOL    HW226583   4.849   6.364   2.974
 8562SOL     OW26584   3.829   6.644   4.657
 8562SOL    HW126585   3.796   6.582   4.586
 8562SOL    HW226586   3.765   6.719   4.669
 8563SOL     OW26587   2.586   3.090   6.723
 8563SOL    HW126588   2.582   3.091   6.623
 8563SOL    HW226589   2.538   3.009   6.758
 8564SOL     OW26590   0.718   7.003   3.701
 8564SOL    HW126591   0.690   6.912   3.671
 8564SOL    HW226592   0.681   7.020   3.793
 8565SOL     OW26593   3.827   0.212   0.427
 8565SOL    HW126594   3.742   0.161   0.435
 8565SOL    HW226595   3.810   0.298   0.378
 8566SOL     OW26596   1.139   1.976   2.918
 8566SOL    HW126597   1.059   1.970   2.978
 8566SOL    HW226598   1.111   2.012   2.829
 8567SOL     OW26599   5.705   1.410   0.818
 8567SOL    HW126600   5.791   1.373   0.852
 8567SOL    HW226601   5.677   1.488   0.875
 8568SOL     OW26602   5.500   1.831   0.140
 8568SOL    HW126603   5.545   1.810   0.227
 8568SOL    HW226604   5.557   1.896   0.088
 8569SOL     OW26605   4.851   1.300   4.211
 8569SOL    HW126606   4.921   1.256   4.154
 8569SOL    HW226607   4.894   1.340   4.292
 8570SOL     OW26608   0.559   3.986   6.253
 8570SOL    HW126609   0.596   4.078   6.265
 8570SOL    HW226610   0.464   3.992   6.221
 8571SOL     OW26611   6.620   4.206   4.625
 8571SOL    HW126612   6.679   4.143   4.574
 8571SOL    HW226613   6.663   4.296   4.630
 8572SOL     OW26614   1.817   5.115   5.409
 8572SOL    HW126615   1.734   5.133   5.461
 8572SOL    HW226616   1.893   5.168   5.448
 8573SOL     OW26617   4.411   5.725   6.042
 8573SOL    HW126618   4.390   5.762   6.132
 8573SOL    HW226619   4.511   5.723   6.029
 8574SOL     OW26620   0.049   3.648   5.553
 8574SOL    HW126621   0.091   3.664   5.643
 8574SOL    HW226622   6.979   3.613   5.566
 8575SOL     OW26623   2.703   2.796   0.504
 8575SOL    HW126624   2.694   2.742   0.588
 8575SOL    HW226625   2.720   2.735   0.427
 8576SOL     OW26626   1.125   0.064   1.651
 8576SOL    HW126627   1.127   0.152   1.603
 8576SOL    HW226628   1.048   0.061   1.714
 8577SOL     OW26629   6.195   5.355   3.118
 8577SOL    HW126630   6.125   5.419   3.085
 8577SOL    HW226631   6.160   5.262   3.113
 8578SOL     OW26632   4.262   0.479   3.872
 8578SOL    HW126633   4.274   0.502   3.968
 8578SOL    HW226634   4.313   0.395   3.850
 8579SOL     OW26635   1.222   4.749   3.531
 8579SOL    HW126636   1.157   4.710   3.597
 8579SOL    HW226637   1.298   4.686   3.519
 8580SOL     OW26638   1.624   6.326   1.629
 8580SOL    HW126639   1.540   6.299   1.674
 8580SOL    HW226640   1.664   6.405   1.676
 8581SOL     OW26641   3.291   1.725   1.124
 8581SOL    HW126642   3.342   1.708   1.040
 8581SOL    HW226643   3.309   1.818   1.156
 8582SOL     OW26644   4.478   4.507   2.242
 8582SOL    HW126645   4.500   4.415   2.211
 8582SOL    HW226646   4.479   4.570   2.164
 8583SOL     OW26647   6.040   0.007   5.797
 8583SOL    HW126648   6.020   6.981   5.712
 8583SOL    HW226649   5.959   0.060   5.824
 8584SOL     OW26650   0.338   5.321   0.340
 8584SOL    HW126651   0.329   5.416   0.369
 8584SOL    HW226652   0.251   5.273   0.356
 8585SOL     OW26653   0.111   0.912   0.234
 8585SOL    HW126654   0.064   0.868   0.157
 8585SOL    HW226655   0.151   0.999   0.202
 8586SOL     OW26656   3.790   5.798   2.721
 8586SOL    HW126657   3.854   5.721   2.728
 8586SOL    HW226658   3.696   5.763   2.715
 8587SOL     OW26659   0.002   1.682   2.563
 8587SOL    HW126660   0.071   1.737   2.610
 8587SOL    HW226661   0.044   1.632   2.488
 8588SOL     OW26662   4.153   2.636   0.379
 8588SOL    HW126663   4.199   2.725   0.381
 8588SOL    HW226664   4.092   2.632   0.300
 8589SOL     OW26665   3.512   0.816   4.288
 8589SOL    HW126666   3.449   0.892   4.272
 8589SOL    HW226667   3.520   0.761   4.206
 8590SOL     OW26668   6.420   5.218   4.766
 8590SOL    HW126669   6.428   5.187   4.860
 8590SOL    HW226670   6.448   5.314   4.759
 8591SOL     OW26671   1.333   3.595   6.116
 8591SOL    HW126672   1.392   3.549   6.050
 8591SOL    HW226673   1.287   3.527   6.172
 8592SOL     OW26674   0.181   4.186   1.192
 8592SOL    HW126675   0.234   4.231   1.264
 8592SOL    HW226676   0.088   4.222   1.193
 8593SOL     OW26677   1.790   6.931   2.219
 8593SOL    HW126678   1.871   6.981   2.248
 8593SOL    HW226679   1.724   6.994   2.177
 8594SOL     OW26680   3.031   3.502   3.863
 8594SOL    HW126681   3.001   3.538   3.951
 8594SOL    HW226682   3.129   3.485   3.865
 8595SOL     OW26683   1.865   2.206   2.273
 8595SOL    HW126684   1.950   2.239   2.233
 8595SOL    HW226685   1.788   2.254   2.232
 8596SOL     OW26686   5.632   5.380   1.449
 8596SOL    HW126687   5.652   5.357   1.354
 8596SOL    HW226688   5.700   5.337   1.509
 8597SOL     OW26689   2.771   1.467   0.858
 8597SOL    HW126690   2.697   1.454   0.793
 8597SOL    HW226691   2.755   1.410   0.939
 8598SOL     OW26692   6.139   3.745   1.065
 8598SOL    HW126693   6.086   3.810   1.010
 8598SOL    HW226694   6.079   3.701   1.131
 8599SOL     OW26695   1.166   2.781   3.216
 8599SOL    HW126696   1.213   2.860   3.254
 8599SOL    HW226697   1.216   2.698   3.240
 8600SOL     OW26698   6.586   4.981   6.532
 8600SOL    HW126699   6.493   5.013   6.519
 8600SOL    HW226700   6.647   5.059   6.544
 8601SOL     OW26701   0.077   0.007   4.053
 8601SOL    HW126702   0.092   0.105   4.051
 8601SOL    HW226703   7.001   7.010   4.047
 8602SOL     OW26704   2.591   5.609   2.249
 8602SOL    HW126705   2.597   5.702   2.213
 8602SOL    HW226706   2.540   5.551   2.186
 8603SOL     OW26707   4.038   3.033   6.898
 8603SOL    HW126708   4.034   3.124   6.857
 8603SOL    HW226709   3.981   3.031   6.980
 8604SOL     OW26710   5.709   2.954   3.721
 8604SOL    HW126711   5.800   2.995   3.734
 8604SOL    HW226712   5.641   3.027   3.711
 8605SOL     OW26713   2.484   5.815   3.327
 8605SOL    HW126714   2.418   5.884   3.296
 8605SOL    HW226715   2.482   5.809   3.427
 8606SOL     OW26716   3.865   4.911   6.038
 8606SOL    HW126717   3.778   4.861   6.044
 8606SOL    HW226718   3.886   4.951   6.127
 8607SOL     OW26719   4.332   5.791   1.988
 8607SOL    HW126720   4.265   5.747   1.928
 8607SOL    HW226721   4.286   5.860   2.043
 8608SOL     OW26722   3.901   5.326   2.706
 8608SOL    HW126723   3.886   5.382   2.786
 8608SOL    HW226724   3.917   5.231   2.734
 8609SOL     OW26725   3.347   0.312   5.119
 8609SOL    HW126726   3.351   0.323   5.219
 8609SOL    HW226727   3.433   0.346   5.079
 8610SOL     OW26728   1.046   6.624   3.377
 8610SOL    HW126729   1.019   6.532   3.349
 8610SOL    HW226730   1.143   6.637   3.356
 8611SOL     OW26731   1.877   2.258   4.859
 8611SOL    HW126732   1.843   2.305   4.778
 8611SOL    HW226733   1.815   2.275   4.936
 8612SOL     OW26734   3.772   3.164   6.743
 8612SOL    HW126735   3.752   3.087   6.804
 8612SOL    HW226736   3.741   3.142   6.650
 8613SOL     OW26737   1.800   1.814   1.168
 8613SOL    HW126738   1.880   1.761   1.199
 8613SOL    HW226739   1.819   1.911   1.181
 8614SOL     OW26740   1.155   2.699   2.693
 8614SOL    HW126741   1.081   2.700   2.626
 8614SOL    HW226742   1.237   2.739   2.652
 8615SOL     OW26743   4.136   2.129   5.963
 8615SOL    HW126744   4.154   2.146   5.866
 8615SOL    HW226745   4.041   2.100   5.974
 8616SOL     OW26746   1.050   4.575   0.365
 8616SOL    HW126747   1.028   4.483   0.395
 8616SOL    HW226748   1.048   4.579   0.265
 8617SOL     OW26749   5.791   2.793   0.760
 8617SOL    HW126750   5.720   2.863   0.760
 8617SOL    HW226751   5.752   2.707   0.796
 8618SOL     OW26752   4.367   6.960   3.045
 8618SOL    HW126753   4.333   6.866   3.045
 8618SOL    HW226754   4.353   7.000   2.954
 8619SOL     OW26755   4.441   4.874   7.001
 8619SOL    HW126756   4.529   4.920   6.987
 8619SOL    HW226757   4.390   4.873   6.915
 8620SOL     OW26758   5.624   6.482   2.125
 8620SOL    HW126759   5.630   6.567   2.178
 8620SOL    HW226760   5.530   6.447   2.129
 8621SOL     OW26761   5.997   1.379   3.727
 8621SOL    HW126762   5.913   1.385   3.781
 8621SOL    HW226763   6.040   1.469   3.722
 8622SOL     OW26764   4.719   5.418   0.184
 8622SOL    HW126765   4.745   5.459   0.272
 8622SOL    HW226766   4.646   5.352   0.198
 8623SOL     OW26767   1.106   3.414   3.048
 8623SOL    HW126768   1.084   3.450   3.139
 8623SOL    HW226769   1.125   3.490   2.986
 8624SOL     OW26770   0.984   3.796   2.994
 8624SOL    HW126771   0.897   3.817   2.949
 8624SOL    HW226772   1.027   3.717   2.951
 8625SOL     OW26773   4.264   1.151   4.433
 8625SOL    HW126774   4.247   1.057   4.462
 8625SOL    HW226775   4.250   1.213   4.510
 8626SOL     OW26776   3.328   3.263   4.295
 8626SOL    HW126777   3.242   3.245   4.247
 8626SOL    HW226778   3.341   3.196   4.368
 8627SOL     OW26779   0.942   1.043   1.102
 8627SOL    HW126780   1.013   1.094   1.053
 8627SOL    HW226781   0.984   0.988   1.174
 8628SOL     OW26782   6.076   0.882   6.783
 8628SOL    HW126783   6.080   0.973   6.823
 8628SOL    HW226784   6.023   0.886   6.698
 8629SOL     OW26785   1.102   4.518   4.175
 8629SOL    HW126786   1.160   4.525   4.094
 8629SOL    HW226787   1.152   4.551   4.255
 8630SOL     OW26788   5.839   4.351   4.097
 8630SOL    HW126789   5.739   4.359   4.090
 8630SOL    HW226790   5.867   4.262   4.063
 8631SOL     OW26791   3.917   6.267   4.901
 8631SOL    HW126792   3.839   6.321   4.931
 8631SOL    HW226793   3.889   6.206   4.827
 8632SOL     OW26794   3.348   0.878   3.464
 8632SOL    HW126795   3.266   0.929   3.438
 8632SOL    HW226796   3.328   0.781   3.467
 8633SOL     OW26797   5.448   1.197   4.042
 8633SOL    HW126798   5.476   1.118   3.987
 8633SOL    HW226799   5.367   1.173   4.095
 8634SOL     OW26800   6.814   4.484   1.780
 8634SOL    HW126801   6.751   4.450   1.711
 8634SOL    HW226802   6.765   4.541   1.846
 8635SOL     OW26803   5.892   3.741   5.932
 8635SOL    HW126804   5.960   3.797   5.884
 8635SOL    HW226805   5.825   3.707   5.867
 8636SOL     OW26806   6.691   5.840   0.489
 8636SOL    HW126807   6.600   5.823   0.451
 8636SOL    HW226808   6.686   5.915   0.555
 8637SOL     OW26809   1.875   0.876   0.633
 8637SOL    HW126810   1.963   0.860   0.589
 8637SOL    HW226811   1.806   0.896   0.564
 8638SOL     OW26812   2.679   4.598   0.298
 8638SOL    HW126813   2.725   4.646   0.372
 8638SOL    HW226814   2.705   4.639   0.210
 8639SOL     OW26815   5.541   3.724   1.769
 8639SOL    HW126816   5.549   3.822   1.786
 8639SOL    HW226817   5.508   3.709   1.675
 8640SOL     OW26818   4.856   4.452   0.480
 8640SOL    HW126819   4.801   4.525   0.520
 8640SOL    HW226820   4.916   4.490   0.410
 8641SOL     OW26821   7.007   4.249   3.364
 8641SOL    HW126822   6.944   4.278   3.436
 8641SOL    HW226823   0.014   4.329   3.312
 8642SOL     OW26824   4.509   0.937   2.106
 8642SOL    HW126825   4.520   0.907   2.201
 8642SOL    HW226826   4.514   1.037   2.103
 8643SOL     OW26827   4.427   0.618   6.625
 8643SOL    HW126828   4.515   0.570   6.627
 8643SOL    HW226829   4.380   0.598   6.539
 8644SOL     OW26830   5.514   2.383   4.713
 8644SOL    HW126831   5.489   2.476   4.742
 8644SOL    HW226832   5.540   2.384   4.617
 8645SOL     OW26833   6.483   3.869   1.387
 8645SOL    HW126834   6.561   3.813   1.418
 8645SOL    HW226835   6.398   3.821   1.409
 8646SOL     OW26836   5.081   0.920   0.166
 8646SOL    HW126837   5.052   0.831   0.200
 8646SOL    HW226838   5.002   0.980   0.159
 8647SOL     OW26839   3.692   4.601   0.088
 8647SOL    HW126840   3.634   4.658   0.145
 8647SOL    HW226841   3.721   4.654   0.008
 8648SOL     OW26842   5.506   0.653   4.655
 8648SOL    HW126843   5.557   0.710   4.591
 8648SOL    HW226844   5.552   0.565   4.666
 8649SOL     OW26845   6.097   3.825   5.619
 8649SOL    HW126846   6.104   3.896   5.548
 8649SOL    HW226847   6.145   3.856   5.702
 8650SOL     OW26848   2.167   5.010   3.903
 8650SOL    HW126849   2.109   4.984   3.826
 8650SOL    HW226850   2.150   4.948   3.980
 8651SOL     OW26851   3.973   1.736   0.077
 8651SOL    HW126852   4.063   1.728   0.120
 8651SOL    HW226853   3.932   1.824   0.103
 8652SOL     OW26854   2.022   3.718   3.411
 8652SOL    HW126855   2.100   3.776   3.437
 8652SOL    HW226856   2.034   3.686   3.317
 8653SOL     OW26857   0.562   2.444   6.661
 8653SOL    HW126858   0.608   2.532   6.677
 8653SOL    HW226859   0.471   2.446   6.702
 8654SOL     OW26860   0.295   6.679   3.131
 8654SOL    HW126861   0.357   6.726   3.194
 8654SOL    HW226862   0.215   6.646   3.181
 8655SOL     OW26863   5.664   6.460   4.431
 8655SOL    HW126864   5.668   6.425   4.337
 8655SOL    HW226865   5.679   6.559   4.430
 8656SOL     OW26866   6.255   1.153   1.221
 8656SOL    HW126867   6.226   1.114   1.309
 8656SOL    HW226868   6.272   1.251   1.233
 8657SOL     OW26869   4.918   5.068   6.326
 8657SOL    HW126870   4.960   5.074   6.417
 8657SOL    HW226871   4.877   4.977   6.314
 8658SOL     OW26872   5.542   4.682   0.360
 8658SOL    HW126873   5.500   4.761   0.403
 8658SOL    HW226874   5.486   4.652   0.283
 8659SOL     OW26875   4.449   0.672   2.966
 8659SOL    HW126876   4.374   0.685   2.900
 8659SOL    HW226877   4.510   0.601   2.933
 8660SOL     OW26878   5.864   3.796   0.402
 8660SOL    HW126879   5.864   3.895   0.386
 8660SOL    HW226880   5.919   3.775   0.483
 8661SOL     OW26881   6.312   4.317   1.769
 8661SOL    HW126882   6.322   4.388   1.699
 8661SOL    HW226883   6.250   4.246   1.735
 8662SOL     OW26884   6.404   6.366   1.185
 8662SOL    HW126885   6.331   6.366   1.253
 8662SOL    HW226886   6.369   6.329   1.099
 8663SOL     OW26887   2.117   5.509   1.100
 8663SOL    HW126888   2.061   5.449   1.044
 8663SOL    HW226889   2.188   5.551   1.044
 8664SOL     OW26890   4.026   5.987   0.076
 8664SOL    HW126891   3.986   6.065   0.030
 8664SOL    HW226892   4.063   6.015   0.165
 8665SOL     OW26893   4.288   5.490   4.977
 8665SOL    HW126894   4.338   5.575   4.991
 8665SOL    HW226895   4.241   5.465   5.062
 8666SOL     OW26896   4.959   2.458   5.404
 8666SOL    HW126897   4.862   2.445   5.423
 8666SOL    HW226898   4.979   2.555   5.391
 8667SOL     OW26899   5.322   1.767   3.145
 8667SOL    HW126900   5.339   1.801   3.052
 8667SOL    HW226901   5.277   1.837   3.199
 8668SOL     OW26902   5.086   2.413   4.292
 8668SOL    HW126903   5.091   2.513   4.295
 8668SOL    HW226904   5.177   2.375   4.279
 8669SOL     OW26905   4.165   0.701   6.066
 8669SOL    HW126906   4.238   0.640   6.097
 8669SOL    HW226907   4.202   0.764   5.997
 8670SOL     OW26908   3.855   5.545   4.354
 8670SOL    HW126909   3.886   5.460   4.397
 8670SOL    HW226910   3.933   5.604   4.335
 8671SOL     OW26911   5.971   6.837   3.677
 8671SOL    HW126912   5.908   6.793   3.613
 8671SOL    HW226913   5.968   6.790   3.765
 8672SOL     OW26914   3.116   5.188   4.432
 8672SOL    HW126915   3.210   5.221   4.421
 8672SOL    HW226916   3.115   5.113   4.497
 8673SOL     OW26917   7.007   1.936   0.599
 8673SOL    HW126918   0.058   1.947   0.533
 8673SOL    HW226919   6.953   2.020   0.604
 8674SOL     OW26920   0.083   0.343   2.862
 8674SOL    HW126921   0.127   0.255   2.842
 8674SOL    HW226922   0.152   0.414   2.872
 8675SOL     OW26923   2.543   1.762   3.898
 8675SOL    HW126924   2.506   1.852   3.924
 8675SOL    HW226925   2.632   1.774   3.855
 8676SOL     OW26926   3.795   0.461   2.625
 8676SOL    HW126927   3.706   0.457   2.670
 8676SOL    HW226928   3.794   0.403   2.544
 8677SOL     OW26929   2.707   4.402   6.059
 8677SOL    HW126930   2.776   4.461   6.018
 8677SOL    HW226931   2.717   4.309   6.023
 8678SOL     OW26932   1.468   0.207   6.567
 8678SOL    HW126933   1.441   0.294   6.526
 8678SOL    HW226934   1.434   0.132   6.510
 8679SOL     OW26935   6.494   1.822   5.204
 8679SOL    HW126936   6.491   1.845   5.302
 8679SOL    HW226937   6.586   1.794   5.179
 8680SOL     OW26938   1.922   3.471   0.171
 8680SOL    HW126939   1.941   3.465   0.269
 8680SOL    HW226940   2.006   3.452   0.120
 8681SOL     OW26941   4.215   4.549   0.656
 8681SOL    HW126942   4.117   4.530   0.655
 8681SOL    HW226943   4.266   4.463   0.653
 8682SOL     OW26944   2.685   6.583   2.753
 8682SOL    HW126945   2.609   6.582   2.688
 8682SOL    HW226946   2.650   6.588   2.846
 8683SOL     OW26947   1.064   2.741   1.190
 8683SOL    HW126948   1.164   2.748   1.192
 8683SOL    HW226949   1.032   2.699   1.275
 8684SOL     OW26950   6.289   2.639   5.193
 8684SOL    HW126951   6.322   2.566   5.253
 8684SOL    HW226952   6.339   2.636   5.106
 8685SOL     OW26953   0.902   1.768   6.801
 8685SOL    HW126954   0.847   1.750   6.883
 8685SOL    HW226955   0.995   1.733   6.816
 8686SOL     OW26956   0.113   1.957   2.609
 8686SOL    HW126957   0.201   1.916   2.586
 8686SOL    HW226958   0.110   1.976   2.707
 8687SOL     OW26959   3.098   6.605   2.260
 8687SOL    HW126960   3.191   6.571   2.249
 8687SOL    HW226961   3.062   6.635   2.172
 8688SOL     OW26962   2.919   6.957   1.180
 8688SOL    HW126963   2.847   6.888   1.180
 8688SOL    HW226964   2.879   0.024   1.203
 8689SOL     OW26965   4.302   5.563   0.320
 8689SOL    HW126966   4.386   5.579   0.268
 8689SOL    HW226967   4.225   5.554   0.257
 8690SOL     OW26968   1.006   2.059   3.429
 8690SOL    HW126969   1.070   2.117   3.479
 8690SOL    HW226970   0.924   2.111   3.405
 8691SOL     OW26971   4.990   2.662   6.613
 8691SOL    HW126972   5.058   2.613   6.667
 8691SOL    HW226973   5.023   2.672   6.519
 8692SOL     OW26974   2.973   2.056   3.422
 8692SOL    HW126975   2.935   1.966   3.404
 8692SOL    HW226976   2.899   2.120   3.442
 8693SOL     OW26977   5.839   2.324   0.635
 8693SOL    HW126978   5.747   2.333   0.596
 8693SOL    HW226979   5.832   2.300   0.732
 8694SOL     OW26980   5.049   7.020   6.708
 8694SOL    HW126981   5.067   7.019   6.806
 8694SOL    HW226982   4.950   7.016   6.692
 8695SOL     OW26983   5.190   2.803   5.553
 8695SOL    HW126984   5.166   2.837   5.644
 8695SOL    HW226985   5.268   2.741   5.561
 8696SOL     OW26986   3.415   5.529   0.975
 8696SOL    HW126987   3.391   5.624   0.958
 8696SOL    HW226988   3.513   5.516   0.958
 8697SOL     OW26989   6.545   3.276   1.251
 8697SOL    HW126990   6.599   3.242   1.174
 8697SOL    HW226991   6.580   3.237   1.336
 8698SOL     OW26992   5.587   5.790   4.460
 8698SOL    HW126993   5.609   5.858   4.529
 8698SOL    HW226994   5.606   5.827   4.369
 8699SOL     OW26995   0.784   1.822   5.680
 8699SOL    HW126996   0.750   1.774   5.599
 8699SOL    HW226997   0.819   1.912   5.652
 8700SOL     OW26998   1.909   0.760   4.824
 8700SOL    HW126999   1.947   0.668   4.810
 8700SOL    HW227000   1.979   0.820   4.861
 8701SOL     OW27001   0.945   1.059   5.387
 8701SOL    HW127002   0.888   1.071   5.305
 8701SOL    HW227003   1.038   1.090   5.366
 8702SOL     OW27004   5.521   4.873   0.580
 8702SOL    HW127005   5.517   4.796   0.644
 8702SOL    HW227006   5.608   4.920   0.590
 8703SOL     OW27007   3.193   5.521   1.178
 8703SOL    HW127008   3.101   5.481   1.181
 8703SOL    HW227009   3.239   5.492   1.094
 8704SOL     OW27010   6.862   4.422   2.457
 8704SOL    HW127011   6.891   4.392   2.548
 8704SOL    HW227012   6.863   4.522   2.452
 8705SOL     OW27013   5.165   0.715   6.236
 8705SOL    HW127014   5.100   0.660   6.290
 8705SOL    HW227015   5.122   0.742   6.150
 8706SOL     OW27016   4.642   2.195   6.958
 8706SOL    HW127017   4.558   2.245   6.936
 8706SOL    HW227018   4.667   2.213   0.030
 8707SOL     OW27019   4.656   2.778   6.832
 8707SOL    HW127020   4.596   2.810   6.759
 8707SOL    HW227021   4.627   2.818   6.919
 8708SOL     OW27022   3.538   0.987   1.713
 8708SOL    HW127023   3.499   1.004   1.622
 8708SOL    HW227024   3.520   1.065   1.772
 8709SOL     OW27025   0.194   4.404   0.139
 8709SOL    HW127026   0.131   4.460   0.085
 8709SOL    HW227027   0.245   4.343   0.079
 8710SOL     OW27028   1.508   3.477   2.761
 8710SOL    HW127029   1.437   3.429   2.812
 8710SOL    HW227030   1.481   3.485   2.665
 8711SOL     OW27031   6.461   0.497   2.824
 8711SOL    HW127032   6.362   0.498   2.804
 8711SOL    HW227033   6.511   0.517   2.740
 8712SOL     OW27034   3.215   1.716   4.380
 8712SOL    HW127035   3.181   1.809   4.366
 8712SOL    HW227036   3.277   1.714   4.458
 8713SOL     OW27037   6.963   4.411   3.999
 8713SOL    HW127038   0.009   4.385   3.930
 8713SOL    HW227039   6.884   4.451   3.953
 8714SOL     OW27040   1.576   0.953   5.904
 8714SOL    HW127041   1.627   0.975   5.987
 8714SOL    HW227042   1.486   0.997   5.907
 8715SOL     OW27043   5.978   1.221   1.385
 8715SOL    HW127044   5.975   1.262   1.294
 8715SOL    HW227045   5.948   1.126   1.379
 8716SOL     OW27046   0.520   1.598   1.612
 8716SOL    HW127047   0.544   1.509   1.650
 8716SOL    HW227048   0.604   1.644   1.582
 8717SOL     OW27049   4.109   3.698   2.051
 8717SOL    HW127050   4.025   3.679   2.102
 8717SOL    HW227051   4.186   3.707   2.115
 8718SOL     OW27052   6.735   2.283   4.603
 8718SOL    HW127053   6.779   2.356   4.551
 8718SOL    HW227054   6.638   2.280   4.581
 8719SOL     OW27055   1.556   0.595   5.371
 8719SOL    HW127056   1.574   0.588   5.469
 8719SOL    HW227057   1.582   0.510   5.326
 8720SOL     OW27058   6.230   5.301   5.030
 8720SOL    HW127059   6.311   5.250   5.057
 8720SOL    HW227060   6.254   5.398   5.018
 8721SOL     OW27061   6.345   1.632   4.529
 8721SOL    HW127062   6.315   1.659   4.621
 8721SOL    HW227063   6.268   1.643   4.465
 8722SOL     OW27064   3.498   1.799   0.581
 8722SOL    HW127065   3.439   1.728   0.543
 8722SOL    HW227066   3.594   1.774   0.566
 8723SOL     OW27067   6.479   5.445   0.519
 8723SOL    HW127068   6.564   5.486   0.486
 8723SOL    HW227069   6.411   5.516   0.532
 8724SOL     OW27070   5.483   0.121   5.806
 8724SOL    HW127071   5.502   0.105   5.903
 8724SOL    HW227072   5.523   0.047   5.752
 8725SOL     OW27073   2.288   0.374   0.322
 8725SOL    HW127074   2.279   0.342   0.416
 8725SOL    HW227075   2.210   0.342   0.268
 8726SOL     OW27076   6.065   6.779   1.454
 8726SOL    HW127077   5.992   6.812   1.393
 8726SOL    HW227078   6.153   6.795   1.411
 8727SOL     OW27079   6.572   6.418   1.881
 8727SOL    HW127080   6.500   6.473   1.923
 8727SOL    HW227081   6.615   6.360   1.951
 8728SOL     OW27082   3.102   6.771   5.238
 8728SOL    HW127083   3.079   6.692   5.182
 8728SOL    HW227084   3.131   6.740   5.329
 8729SOL     OW27085   4.206   5.630   3.175
 8729SOL    HW127086   4.173   5.653   3.266
 8729SOL    HW227087   4.216   5.531   3.167
 8730SOL     OW27088   0.146   5.740   2.367
 8730SOL    HW127089   0.080   5.679   2.322
 8730SOL    HW227090   0.227   5.750   2.309
 8731SOL     OW27091   1.341   2.247   3.299
 8731SOL    HW127092   1.311   2.242   3.394
 8731SOL    HW227093   1.281   2.308   3.248
 8732SOL     OW27094   5.173   4.270   1.851
 8732SOL    HW127095   5.144   4.174   1.857
 8732SOL    HW227096   5.240   4.288   1.923
 8733SOL     OW27097   0.867   6.332   2.171
 8733SOL    HW127098   0.787   6.273   2.157
 8733SOL    HW227099   0.895   6.329   2.266
 8734SOL     OW27100   0.670   5.369   1.258
 8734SOL    HW127101   0.761   5.333   1.280
 8734SOL    HW227102   0.624   5.308   1.194
 8735SOL     OW27103   0.402   2.080   0.241
 8735SOL    HW127104   0.404   2.175   0.210
 8735SOL    HW227105   0.430   2.020   0.166
 8736SOL     OW27106   1.024   5.770   6.969
 8736SOL    HW127107   1.072   5.858   6.974
 8736SOL    HW227108   1.076   5.707   6.912
 8737SOL     OW27109   3.596   6.152   5.883
 8737SOL    HW127110   3.611   6.057   5.854
 8737SOL    HW227111   3.627   6.163   5.977
 8738SOL     OW27112   1.690   4.001   4.065
 8738SOL    HW127113   1.677   3.993   4.164
 8738SOL    HW227114   1.787   4.017   4.045
 8739SOL     OW27115   6.727   3.555   5.889
 8739SOL    HW127116   6.650   3.491   5.886
 8739SOL    HW227117   6.741   3.595   5.799
 8740SOL     OW27118   2.926   0.588   6.242
 8740SOL    HW127119   2.929   0.576   6.143
 8740SOL    HW227120   2.997   0.653   6.270
 8741SOL     OW27121   1.500   2.862   2.200
 8741SOL    HW127122   1.580   2.862   2.261
 8741SOL    HW227123   1.488   2.771   2.162
 8742SOL     OW27124   4.963   6.598   1.452
 8742SOL    HW127125   5.039   6.595   1.517
 8742SOL    HW227126   4.910   6.681   1.466
 8743SOL     OW27127   2.120   5.805   1.934
 8743SOL    HW127128   2.126   5.784   2.032
 8743SOL    HW227129   2.103   5.902   1.922
 8744SOL     OW27130   4.726   2.560   6.685
 8744SOL    HW127131   4.809   2.591   6.638
 8744SOL    HW227132   4.705   2.622   6.760
 8745SOL     OW27133   6.014   1.929   5.085
 8745SOL    HW127134   6.012   1.967   4.992
 8745SOL    HW227135   6.078   1.853   5.088
 8746SOL     OW27136   4.848   4.935   5.937
 8746SOL    HW127137   4.945   4.945   5.958
 8746SOL    HW227138   4.817   5.014   5.885
 8747SOL     OW27139   0.838   2.762   3.845
 8747SOL    HW127140   0.779   2.736   3.921
 8747SOL    HW227141   0.845   2.686   3.781
 8748SOL     OW27142   1.416   0.722   6.529
 8748SOL    HW127143   1.456   0.759   6.612
 8748SOL    HW227144   1.474   0.744   6.451
 8749SOL     OW27145   3.380   1.102   3.919
 8749SOL    HW127146   3.449   1.083   3.849
 8749SOL    HW227147   3.417   1.168   3.984
 8750SOL     OW27148   2.037   2.354   5.206
 8750SOL    HW127149   1.966   2.421   5.230
 8750SOL    HW227150   2.082   2.382   5.122
 8751SOL     OW27151   0.609   0.058   1.973
 8751SOL    HW127152   0.620   0.086   2.068
 8751SOL    HW227153   0.512   0.058   1.949
 8752SOL     OW27154   2.528   3.629   6.317
 8752SOL    HW127155   2.508   3.676   6.231
 8752SOL    HW227156   2.448   3.635   6.377
 8753SOL     OW27157   5.320   1.269   5.297
 8753SOL    HW127158   5.262   1.266   5.378
 8753SOL    HW227159   5.262   1.272   5.215
 8754SOL     OW27160   0.684   1.552   5.831
 8754SOL    HW127161   0.671   1.532   5.734
 8754SOL    HW227162   0.772   1.597   5.845
 8755SOL     OW27163   2.424   0.833   0.313
 8755SOL    HW127164   2.358   0.766   0.344
 8755SOL    HW227165   2.514   0.790   0.303
 8756SOL     OW27166   2.082   2.686   3.832
 8756SOL    HW127167   2.057   2.684   3.929
 8756SOL    HW227168   2.035   2.611   3.784
 8757SOL     OW27169   4.491   6.272   4.787
 8757SOL    HW127170   4.577   6.300   4.830
 8757SOL    HW227171   4.492   6.174   4.772
 8758SOL     OW27172   5.435   6.619   1.686
 8758SOL    HW127173   5.495   6.539   1.692
 8758SOL    HW227174   5.340   6.589   1.683
 8759SOL     OW27175   4.718   0.639   5.875
 8759SOL    HW127176   4.704   0.716   5.937
 8759SOL    HW227177   4.814   0.609   5.881
 8760SOL     OW27178   1.821   2.000   4.785
 8760SOL    HW127179   1.731   2.008   4.742
 8760SOL    HW227180   1.860   2.091   4.798
 8761SOL     OW27181   5.221   0.527   6.976
 8761SOL    HW127182   5.278   0.573   0.022
 8761SOL    HW227183   5.177   0.596   6.918
 8762SOL     OW27184   1.585   3.441   1.148
 8762SOL    HW127185   1.569   3.529   1.192
 8762SOL    HW227186   1.544   3.441   1.056
 8763SOL     OW27187   6.583   6.229   5.632
 8763SOL    HW127188   6.518   6.156   5.610
 8763SOL    HW227189   6.618   6.215   5.725
 8764SOL     OW27190   5.032   1.593   4.196
 8764SOL    HW127191   4.993   1.524   4.257
 8764SOL    HW227192   4.968   1.612   4.121
 8765SOL     OW27193   5.529   6.797   4.904
 8765SOL    HW127194   5.610   6.850   4.877
 8765SOL    HW227195   5.466   6.856   4.955
 8766SOL     OW27196   2.927   4.934   3.314
 8766SOL    HW127197   2.949   4.899   3.222
 8766SOL    HW227198   2.875   4.865   3.364
 8767SOL     OW27199   4.520   1.263   2.954
 8767SOL    HW127200   4.535   1.361   2.968
 8767SOL    HW227201   4.502   1.219   3.042
 8768SOL     OW27202   1.666   3.277   0.618
 8768SOL    HW127203   1.711   3.337   0.684
 8768SOL    HW227204   1.611   3.332   0.555
 8769SOL     OW27205   0.877   0.035   5.758
 8769SOL    HW127206   0.937   6.981   5.734
 8769SOL    HW227207   0.923   0.121   5.735
 8770SOL     OW27208   4.943   4.696   1.724
 8770SOL    HW127209   5.004   4.642   1.781
 8770SOL    HW227210   4.924   4.646   1.639
 8771SOL     OW27211   1.865   1.288   6.650
 8771SOL    HW127212   1.955   1.320   6.677
 8771SOL    HW227213   1.851   1.304   6.552
 8772SOL     OW27214   5.929   1.285   6.612
 8772SOL    HW127215   5.894   1.242   6.696
 8772SOL    HW227216   5.855   1.333   6.566
 8773SOL     OW27217   3.484   2.101   3.351
 8773SOL    HW127218   3.490   2.058   3.261
 8773SOL    HW227219   3.389   2.126   3.369
 8774SOL     OW27220   0.973   1.768   0.697
 8774SOL    HW127221   0.943   1.830   0.769
 8774SOL    HW227222   1.073   1.767   0.694
 8775SOL     OW27223   5.822   6.830   3.180
 8775SOL    HW127224   5.833   6.805   3.277
 8775SOL    HW227225   5.751   6.773   3.139
 8776SOL     OW27226   3.189   3.260   5.009
 8776SOL    HW127227   3.270   3.317   5.019
 8776SOL    HW227228   3.194   3.183   5.072
 8777SOL     OW27229   6.381   5.447   1.879
 8777SOL    HW127230   6.370   5.373   1.946
 8777SOL    HW227231   6.301   5.450   1.820
 8778SOL     OW27232   0.235   1.950   3.572
 8778SOL    HW127233   0.222   1.856   3.540
 8778SOL    HW227234   0.164   2.008   3.532
 8779SOL     OW27235   1.825   4.239   1.420
 8779SOL    HW127236   1.870   4.217   1.507
 8779SOL    HW227237   1.751   4.304   1.436
 8780SOL     OW27238   0.810   5.422   4.305
 8780SOL    HW127239   0.825   5.373   4.219
 8780SOL    HW227240   0.816   5.521   4.288
 8781SOL     OW27241   0.378   1.576   2.960
 8781SOL    HW127242   0.462   1.589   3.012
 8781SOL    HW227243   0.299   1.600   3.018
 8782SOL     OW27244   4.544   1.603   2.550
 8782SOL    HW127245   4.613   1.671   2.526
 8782SOL    HW227246   4.471   1.646   2.602
 8783SOL     OW27247   6.022   4.120   4.247
 8783SOL    HW127248   5.981   4.186   4.310
 8783SOL    HW227249   6.012   4.153   4.153
 8784SOL     OW27250   5.660   5.412   5.563
 8784SOL    HW127251   5.745   5.463   5.572
 8784SOL    HW227252   5.654   5.373   5.471
 8785SOL     OW27253   5.582   4.172   6.391
 8785SOL    HW127254   5.660   4.214   6.345
 8785SOL    HW227255   5.578   4.203   6.486
 8786SOL     OW27256   1.419   6.398   0.248
 8786SOL    HW127257   1.324   6.427   0.236
 8786SOL    HW227258   1.480   6.476   0.230
 8787SOL     OW27259   2.146   3.249   1.850
 8787SOL    HW127260   2.223   3.307   1.878
 8787SOL    HW227261   2.070   3.306   1.821
 8788SOL     OW27262   6.766   1.832   5.103
 8788SOL    HW127263   6.828   1.874   5.169
 8788SOL    HW227264   6.783   1.869   5.011
 8789SOL     OW27265   6.656   0.165   6.307
 8789SOL    HW127266   6.611   0.205   6.387
 8789SOL    HW227267   6.617   0.206   6.223
 8790SOL     OW27268   0.057   1.875   6.572
 8790SOL    HW127269   0.028   1.962   6.611
 8790SOL    HW227270   7.016   1.847   6.500
 8791SOL     OW27271   4.758   6.732   5.553
 8791SOL    HW127272   4.767   6.757   5.650
 8791SOL    HW227273   4.776   6.813   5.497
 8792SOL     OW27274   4.168   0.070   3.273
 8792SOL    HW127275   4.146   7.000   3.304
 8792SOL    HW227276   4.229   0.065   3.194
 8793SOL     OW27277   2.288   6.048   3.906
 8793SOL    HW127278   2.289   6.143   3.936
 8793SOL    HW227279   2.229   6.039   3.826
 8794SOL     OW27280   1.809   6.552   2.925
 8794SOL    HW127281   1.893   6.598   2.898
 8794SOL    HW227282   1.740   6.620   2.951
 8795SOL     OW27283   1.854   6.284   5.648
 8795SOL    HW127284   1.786   6.252   5.714
 8795SOL    HW227285   1.937   6.312   5.697
 8796SOL     OW27286   4.543   2.194   5.441
 8796SOL    HW127287   4.592   2.107   5.436
 8796SOL    HW227288   4.484   2.204   5.361
 8797SOL     OW27289   0.789   6.469   6.262
 8797SOL    HW127290   0.851   6.430   6.194
 8797SOL    HW227291   0.695   6.449   6.235
 8798SOL     OW27292   5.327   3.648   5.302
 8798SOL    HW127293   5.324   3.584   5.224
 8798SOL    HW227294   5.240   3.644   5.351
 8799SOL     OW27295   2.926   4.834   2.965
 8799SOL    HW127296   3.024   4.854   2.957
 8799SOL    HW227297   2.903   4.758   2.905
 8800SOL     OW27298   4.805   4.816   6.287
 8800SOL    HW127299   4.769   4.794   6.378
 8800SOL    HW227300   4.778   4.744   6.223
 8801SOL     OW27301   2.434   1.194   4.263
 8801SOL    HW127302   2.342   1.160   4.244
 8801SOL    HW227303   2.502   1.128   4.230
 8802SOL     OW27304   1.743   6.428   2.488
 8802SOL    HW127305   1.683   6.484   2.544
 8802SOL    HW227306   1.705   6.421   2.395
 8803SOL     OW27307   2.373   5.835   0.004
 8803SOL    HW127308   2.356   5.843   0.102
 8803SOL    HW227309   2.465   5.800   7.011
 8804SOL     OW27310   3.890   0.393   1.338
 8804SOL    HW127311   3.931   0.470   1.388
 8804SOL    HW227312   3.959   0.351   1.279
 8805SOL     OW27313   0.994   0.554   3.303
 8805SOL    HW127314   1.044   0.495   3.367
 8805SOL    HW227315   1.014   0.527   3.209
 8806SOL     OW27316   1.582   5.022   0.278
 8806SOL    HW127317   1.579   5.088   0.353
 8806SOL    HW227318   1.662   4.963   0.289
 8807SOL     OW27319   6.872   6.041   5.798
 8807SOL    HW127320   6.970   6.025   5.787
 8807SOL    HW227321   6.828   6.042   5.709
 8808SOL     OW27322   5.638   1.114   0.210
 8808SOL    HW127323   5.732   1.136   0.187
 8808SOL    HW227324   5.578   1.139   0.134
 8809SOL     OW27325   5.426   4.174   1.748
 8809SOL    HW127326   5.416   4.091   1.802
 8809SOL    HW227327   5.350   4.237   1.768
 8810SOL     OW27328   4.877   1.534   3.496
 8810SOL    HW127329   4.786   1.511   3.461
 8810SOL    HW227330   4.880   1.517   3.594
 8811SOL     OW27331   2.913   1.781   3.438
 8811SOL    HW127332   2.946   1.698   3.394
 8811SOL    HW227333   2.851   1.756   3.513
 8812SOL     OW27334   0.935   1.135   0.736
 8812SOL    HW127335   0.919   1.060   0.800
 8812SOL    HW227336   0.924   1.102   0.643
 8813SOL     OW27337   1.100   6.530   1.831
 8813SOL    HW127338   1.037   6.608   1.826
 8813SOL    HW227339   1.047   6.446   1.848
 8814SOL     OW27340   6.509   0.869   6.931
 8814SOL    HW127341   6.494   0.781   6.975
 8814SOL    HW227342   6.541   0.855   6.837
 8815SOL     OW27343   0.276   5.956   1.945
 8815SOL    HW127344   0.352   6.016   1.920
 8815SOL    HW227345   0.190   6.007   1.942
 8816SOL     OW27346   1.381   5.808   1.340
 8816SOL    HW127347   1.434   5.731   1.305
 8816SOL    HW227348   1.443   5.879   1.374
 8817SOL     OW27349   1.272   5.700   4.930
 8817SOL    HW127350   1.310   5.692   5.023
 8817SOL    HW227351   1.345   5.683   4.863
 8818SOL     OW27352   0.290   4.529   4.412
 8818SOL    HW127353   0.377   4.508   4.368
 8818SOL    HW227354   0.248   4.607   4.367
 8819SOL     OW27355   4.619   6.598   4.179
 8819SOL    HW127356   4.659   6.518   4.224
 8819SOL    HW227357   4.526   6.612   4.213
 8820SOL     OW27358   1.961   2.632   4.084
 8820SOL    HW127359   1.929   2.679   4.166
 8820SOL    HW227360   1.894   2.563   4.057
 8821SOL     OW27361   2.743   0.768   6.589
 8821SOL    HW127362   2.814   0.835   6.613
 8821SOL    HW227363   2.675   0.763   6.662
 8822SOL     OW27364   0.849   1.672   3.445
 8822SOL    HW127365   0.883   1.594   3.393
 8822SOL    HW227366   0.927   1.727   3.476
 8823SOL     OW27367   1.773   6.851   0.793
 8823SOL    HW127368   1.861   6.854   0.746
 8823SOL    HW227369   1.714   6.924   0.758
 8824SOL     OW27370   3.215   3.945   0.537
 8824SOL    HW127371   3.184   3.854   0.567
 8824SOL    HW227372   3.182   3.962   0.444
 8825SOL     OW27373   1.615   0.966   1.999
 8825SOL    HW127374   1.645   1.061   1.994
 8825SOL    HW227375   1.624   0.924   1.909
 8826SOL     OW27376   5.480   0.865   6.716
 8826SOL    HW127377   5.427   0.785   6.689
 8826SOL    HW227378   5.560   0.836   6.768
 8827SOL     OW27379   2.134   1.523   3.171
 8827SOL    HW127380   2.127   1.580   3.090
 8827SOL    HW227381   2.142   1.580   3.252
 8828SOL     OW27382   2.438   6.105   2.962
 8828SOL    HW127383   2.474   6.116   3.055
 8828SOL    HW227384   2.442   6.193   2.915
 8829SOL     OW27385   0.318   2.425   6.783
 8829SOL    HW127386   0.274   2.366   6.851
 8829SOL    HW227387   0.253   2.493   6.749
 8830SOL     OW27388   0.890   1.235   0.291
 8830SOL    HW127389   0.926   1.199   0.205
 8830SOL    HW227390   0.883   1.162   0.358
 8831SOL     OW27391   5.950   0.662   2.873
 8831SOL    HW127392   5.867   0.613   2.848
 8831SOL    HW227393   5.926   0.748   2.918
 8832SOL     OW27394   6.703   0.425   2.301
 8832SOL    HW127395   6.739   0.369   2.226
 8832SOL    HW227396   6.780   0.461   2.354
 8833SOL     OW27397   2.716   5.255   4.369
 8833SOL    HW127398   2.696   5.179   4.432
 8833SOL    HW227399   2.778   5.319   4.413
 8834SOL     OW27400   6.142   3.026   4.648
 8834SOL    HW127401   6.213   3.022   4.578
 8834SOL    HW227402   6.184   3.020   4.739
 8835SOL     OW27403   6.720   6.567   5.456
 8835SOL    HW127404   6.719   6.485   5.400
 8835SOL    HW227405   6.812   6.608   5.454
 8836SOL     OW27406   4.376   1.291   0.341
 8836SOL    HW127407   4.355   1.389   0.335
 8836SOL    HW227408   4.462   1.272   0.293
 8837SOL     OW27409   0.407   0.699   1.738
 8837SOL    HW127410   0.432   0.663   1.649
 8837SOL    HW227411   0.361   0.787   1.726
 8838SOL     OW27412   2.878   5.301   3.334
 8838SOL    HW127413   2.936   5.235   3.287
 8838SOL    HW227414   2.885   5.288   3.433
 8839SOL     OW27415   6.407   6.069   3.359
 8839SOL    HW127416   6.497   6.031   3.339
 8839SOL    HW227417   6.399   6.160   3.318
 8840SOL     OW27418   5.750   2.515   2.382
 8840SOL    HW127419   5.836   2.471   2.410
 8840SOL    HW227420   5.708   2.559   2.461
 8841SOL     OW27421   1.113   1.721   5.107
 8841SOL    HW127422   1.037   1.735   5.043
 8841SOL    HW227423   1.120   1.624   5.130
 8842SOL     OW27424   2.657   2.605   1.634
 8842SOL    HW127425   2.647   2.524   1.693
 8842SOL    HW227426   2.684   2.683   1.690
 8843SOL     OW27427   1.303   2.872   4.862
 8843SOL    HW127428   1.353   2.840   4.782
 8843SOL    HW227429   1.212   2.830   4.863
 8844SOL     OW27430   5.895   1.247   5.848
 8844SOL    HW127431   5.869   1.299   5.767
 8844SOL    HW227432   5.980   1.197   5.831
 8845SOL     OW27433   4.725   3.940   0.179
 8845SOL    HW127434   4.734   4.021   0.237
 8845SOL    HW227435   4.782   3.951   0.097
 8846SOL     OW27436   1.850   4.427   4.439
 8846SOL    HW127437   1.885   4.344   4.395
 8846SOL    HW227438   1.923   4.468   4.494
 8847SOL     OW27439   2.837   0.080   2.242
 8847SOL    HW127440   2.911   0.056   2.304
 8847SOL    HW227441   2.818   0.002   2.181
 8848SOL     OW27442   1.950   0.415   2.184
 8848SOL    HW127443   1.994   0.353   2.119
 8848SOL    HW227444   1.939   0.505   2.140
 8849SOL     OW27445   2.304   6.677   2.227
 8849SOL    HW127446   2.268   6.708   2.316
 8849SOL    HW227447   2.393   6.633   2.241
 8850SOL     OW27448   3.366   2.537   6.930
 8850SOL    HW127449   3.377   2.513   6.834
 8850SOL    HW227450   3.279   2.584   6.943
 8851SOL     OW27451   1.570   4.434   2.289
 8851SOL    HW127452   1.618   4.458   2.204
 8851SOL    HW227453   1.540   4.517   2.335
 8852SOL     OW27454   1.097   1.625   6.196
 8852SOL    HW127455   1.109   1.539   6.247
 8852SOL    HW227456   1.186   1.654   6.160
 8853SOL     OW27457   3.646   0.911   0.753
 8853SOL    HW127458   3.608   0.925   0.844
 8853SOL    HW227459   3.607   0.829   0.711
 8854SOL     OW27460   1.464   3.101   4.816
 8854SOL    HW127461   1.558   3.077   4.791
 8854SOL    HW227462   1.423   3.024   4.866
 8855SOL     OW27463   5.616   5.057   1.043
 8855SOL    HW127464   5.527   5.026   1.008
 8855SOL    HW227465   5.657   4.985   1.098
 8856SOL     OW27466   0.817   5.687   6.199
 8856SOL    HW127467   0.833   5.768   6.255
 8856SOL    HW227468   0.719   5.674   6.185
 8857SOL     OW27469   6.442   0.946   5.007
 8857SOL    HW127470   6.421   1.015   4.938
 8857SOL    HW227471   6.359   0.924   5.058
 8858SOL     OW27472   6.205   4.741   4.498
 8858SOL    HW127473   6.140   4.801   4.545
 8858SOL    HW227474   6.293   4.745   4.544
 8859SOL     OW27475   0.652   0.877   3.597
 8859SOL    HW127476   0.596   0.805   3.556
 8859SOL    HW227477   0.632   0.964   3.551
 8860SOL     OW27478   6.411   2.569   1.757
 8860SOL    HW127479   6.436   2.495   1.694
 8860SOL    HW227480   6.486   2.584   1.822
 8861SOL     OW27481   4.296   1.981   1.266
 8861SOL    HW127482   4.391   1.957   1.288
 8861SOL    HW227483   4.252   1.905   1.219
 8862SOL     OW27484   4.691   5.019   5.247
 8862SOL    HW127485   4.723   4.967   5.326
 8862SOL    HW227486   4.755   5.093   5.227
 8863SOL     OW27487   2.002   3.951   3.740
 8863SOL    HW127488   2.092   3.977   3.704
 8863SOL    HW227489   2.012   3.870   3.797
 8864SOL     OW27490   5.567   1.625   5.569
 8864SOL    HW127491   5.646   1.684   5.585
 8864SOL    HW227492   5.586   1.533   5.602
 8865SOL     OW27493   2.309   1.698   6.403
 8865SOL    HW127494   2.320   1.700   6.304
 8865SOL    HW227495   2.375   1.760   6.445
 8866SOL     OW27496   5.779   5.936   1.800
 8866SOL    HW127497   5.833   5.971   1.723
 8866SOL    HW227498   5.738   6.013   1.849
 8867SOL     OW27499   6.482   3.728   2.546
 8867SOL    HW127500   6.464   3.714   2.644
 8867SOL    HW227501   6.465   3.643   2.497
 8868SOL     OW27502   6.764   3.563   3.145
 8868SOL    HW127503   6.723   3.472   3.143
 8868SOL    HW227504   6.720   3.619   3.215
 8869SOL     OW27505   3.143   6.349   3.803
 8869SOL    HW127506   3.086   6.270   3.825
 8869SOL    HW227507   3.154   6.356   3.704
 8870SOL     OW27508   1.645   0.075   2.064
 8870SOL    HW127509   1.556   0.044   2.032
 8870SOL    HW227510   1.715   0.053   1.996
 8871SOL     OW27511   0.419   0.948   3.016
 8871SOL    HW127512   0.344   0.983   2.960
 8871SOL    HW227513   0.504   0.993   2.989
 8872SOL     OW27514   0.304   4.588   5.000
 8872SOL    HW127515   0.294   4.612   4.903
 8872SOL    HW227516   0.302   4.489   5.010
 8873SOL     OW27517   1.522   0.913   2.254
 8873SOL    HW127518   1.552   0.936   2.162
 8873SOL    HW227519   1.451   0.977   2.283
 8874SOL     OW27520   2.656   5.624   0.605
 8874SOL    HW127521   2.665   5.533   0.565
 8874SOL    HW227522   2.688   5.692   0.539
 8875SOL     OW27523   0.264   3.191   3.676
 8875SOL    HW127524   0.313   3.237   3.750
 8875SOL    HW227525   0.179   3.239   3.656
 8876SOL     OW27526   3.616   0.598   6.396
 8876SOL    HW127527   3.685   0.573   6.328
 8876SOL    HW227528   3.651   0.582   6.488
 8877SOL     OW27529   1.806   3.805   1.176
 8877SOL    HW127530   1.818   3.706   1.167
 8877SOL    HW227531   1.895   3.849   1.188
 8878SOL     OW27532   4.309   4.278   0.932
 8878SOL    HW127533   4.358   4.267   0.845
 8878SOL    HW227534   4.219   4.236   0.924
 8879SOL     OW27535   6.353   4.632   2.656
 8879SOL    HW127536   6.332   4.718   2.610
 8879SOL    HW227537   6.290   4.618   2.732
 8880SOL     OW27538   4.466   6.966   3.834
 8880SOL    HW127539   4.557   6.974   3.793
 8880SOL    HW227540   4.473   6.971   3.934
 8881SOL     OW27541   3.862   5.290   4.178
 8881SOL    HW127542   3.888   5.277   4.273
 8881SOL    HW227543   3.935   5.337   4.129
 8882SOL     OW27544   4.297   0.587   0.851
 8882SOL    HW127545   4.271   0.679   0.879
 8882SOL    HW227546   4.381   0.561   0.899
 8883SOL     OW27547   0.271   6.202   4.775
 8883SOL    HW127548   0.329   6.226   4.853
 8883SOL    HW227549   0.292   6.109   4.745
 8884SOL     OW27550   5.399   3.724   4.943
 8884SOL    HW127551   5.483   3.758   4.986
 8884SOL    HW227552   5.383   3.629   4.972
 8885SOL     OW27553   6.016   5.714   0.374
 8885SOL    HW127554   6.003   5.636   0.313
 8885SOL    HW227555   5.940   5.778   0.365
 8886SOL     OW27556   3.065   5.886   0.069
 8886SOL    HW127557   3.051   5.873   0.167
 8886SOL    HW227558   3.084   5.797   0.027
 8887SOL     OW27559   4.827   1.856   1.042
 8887SOL    HW127560   4.847   1.768   1.085
 8887SOL    HW227561   4.891   1.925   1.078
 8888SOL     OW27562   2.637   1.796   3.083
 8888SOL    HW127563   2.676   1.704   3.073
 8888SOL    HW227564   2.600   1.806   3.175
 8889SOL     OW27565   0.571   6.495   6.093
 8889SOL    HW127566   0.492   6.485   6.155
 8889SOL    HW227567   0.547   6.461   6.003
 8890SOL     OW27568   0.375   0.028   6.635
 8890SOL    HW127569   0.411   6.957   6.638
 8890SOL    HW227570   0.448   0.093   6.655
 8891SOL     OW27571   6.019   4.752   0.055
 8891SOL    HW127572   5.923   4.737   0.078
 8891SOL    HW227573   6.057   4.670   0.013
 8892SOL     OW27574   3.050   5.702   3.357
 8892SOL    HW127575   2.992   5.687   3.437
 8892SOL    HW227576   3.011   5.653   3.279
 8893SOL     OW27577   1.486   5.253   4.957
 8893SOL    HW127578   1.420   5.256   5.032
 8893SOL    HW227579   1.527   5.343   4.944
 8894SOL     OW27580   4.200   1.964   0.051
 8894SOL    HW127581   4.207   1.974   6.974
 8894SOL    HW227582   4.118   2.012   0.083
 8895SOL     OW27583   0.527   3.635   1.261
 8895SOL    HW127584   0.509   3.579   1.180
 8895SOL    HW227585   0.462   3.711   1.264
 8896SOL     OW27586   0.454   2.137   4.136
 8896SOL    HW127587   0.474   2.232   4.115
 8896SOL    HW227588   0.403   2.132   4.222
 8897SOL     OW27589   2.223   4.069   4.011
 8897SOL    HW127590   2.196   3.985   4.058
 8897SOL    HW227591   2.259   4.135   4.077
 8898SOL     OW27592   4.946   3.802   2.870
 8898SOL    HW127593   4.895   3.771   2.790
 8898SOL    HW227594   4.985   3.723   2.917
 8899SOL     OW27595   6.833   3.380   6.084
 8899SOL    HW127596   6.787   3.445   6.024
 8899SOL    HW227597   6.923   3.357   6.045
 8900SOL     OW27598   5.350   2.761   4.079
 8900SOL    HW127599   5.314   2.772   3.986
 8900SOL    HW227600   5.283   2.713   4.135
 8901SOL     OW27601   0.912   2.967   4.405
 8901SOL    HW127602   0.955   3.028   4.472
 8901SOL    HW227603   0.931   3.000   4.313
 8902SOL     OW27604   0.732   4.215   0.239
 8902SOL    HW127605   0.706   4.308   0.265
 8902SOL    HW227606   0.706   4.152   0.312
 8903SOL     OW27607   1.243   0.552   4.798
 8903SOL    HW127608   1.235   0.588   4.891
 8903SOL    HW227609   1.326   0.496   4.791
 8904SOL     OW27610   0.552   1.341   3.339
 8904SOL    HW127611   0.581   1.413   3.401
 8904SOL    HW227612   0.620   1.329   3.266
 8905SOL     OW27613   1.664   3.781   2.179
 8905SOL    HW127614   1.715   3.782   2.266
 8905SOL    HW227615   1.674   3.691   2.136
 8906SOL     OW27616   6.989   0.023   0.664
 8906SOL    HW127617   6.965   0.089   0.592
 8906SOL    HW227618   6.934   0.040   0.745
 8907SOL     OW27619   3.870   3.191   4.891
 8907SOL    HW127620   3.877   3.104   4.842
 8907SOL    HW227621   3.776   3.206   4.920
 8908SOL     OW27622   1.641   6.036   0.849
 8908SOL    HW127623   1.682   6.108   0.793
 8908SOL    HW227624   1.582   5.979   0.793
 8909SOL     OW27625   2.800   0.808   0.095
 8909SOL    HW127626   2.844   0.798   0.005
 8909SOL    HW227627   2.785   0.905   0.114
 8910SOL     OW27628   1.684   2.207   3.933
 8910SOL    HW127629   1.584   2.206   3.938
 8910SOL    HW227630   1.715   2.124   3.888
 8911SOL     OW27631   4.795   1.656   4.082
 8911SOL    HW127632   4.754   1.565   4.068
 8911SOL    HW227633   4.753   1.721   4.018
 8912SOL     OW27634   3.478   3.785   4.468
 8912SOL    HW127635   3.386   3.809   4.498
 8912SOL    HW227636   3.486   3.797   4.369
 8913SOL     OW27637   5.130   6.094   6.862
 8913SOL    HW127638   5.108   6.014   6.806
 8913SOL    HW227639   5.153   6.171   6.803
 8914SOL     OW27640   4.915   6.632   6.266
 8914SOL    HW127641   4.897   6.628   6.168
 8914SOL    HW227642   4.934   6.726   6.293
 8915SOL     OW27643   0.965   1.275   3.491
 8915SOL    HW127644   0.982   1.178   3.476
 8915SOL    HW227645   0.892   1.286   3.559
 8916SOL     OW27646   5.378   1.433   6.683
 8916SOL    HW127647   5.460   1.393   6.645
 8916SOL    HW227648   5.403   1.511   6.741
 8917SOL     OW27649   5.872   1.828   0.278
 8917SOL    HW127650   5.811   1.793   0.349
 8917SOL    HW227651   5.957   1.775   0.278
 8918SOL     OW27652   1.125   4.303   1.731
 8918SOL    HW127653   1.143   4.380   1.791
 8918SOL    HW227654   1.148   4.217   1.777
 8919SOL     OW27655   5.565   4.237   6.835
 8919SOL    HW127656   5.591   4.281   6.749
 8919SOL    HW227657   5.626   4.160   6.853
 8920SOL     OW27658   6.803   1.212   0.088
 8920SOL    HW127659   6.875   1.273   0.120
 8920SOL    HW227660   6.719   1.265   0.074
 8921SOL     OW27661   1.358   3.113   0.912
 8921SOL    HW127662   1.384   3.066   0.996
 8921SOL    HW227663   1.331   3.046   0.843
 8922SOL     OW27664   3.401   0.695   3.736
 8922SOL    HW127665   3.468   0.742   3.678
 8922SOL    HW227666   3.375   0.609   3.693
 8923SOL     OW27667   1.775   2.421   5.053
 8923SOL    HW127668   1.678   2.423   5.079
 8923SOL    HW227669   1.806   2.515   5.036
 8924SOL     OW27670   4.870   5.156   4.635
 8924SOL    HW127671   4.784   5.110   4.654
 8924SOL    HW227672   4.944   5.088   4.630
 8925SOL     OW27673   1.490   0.797   3.567
 8925SOL    HW127674   1.399   0.797   3.526
 8925SOL    HW227675   1.506   0.885   3.612
 8926SOL     OW27676   6.732   2.962   5.221
 8926SOL    HW127677   6.831   2.973   5.225
 8926SOL    HW227678   6.701   2.910   5.301
 8927SOL     OW27679   6.644   1.783   6.335
 8927SOL    HW127680   6.637   1.845   6.257
 8927SOL    HW227681   6.608   1.693   6.310
 8928SOL     OW27682   2.128   6.784   5.342
 8928SOL    HW127683   2.174   6.873   5.350
 8928SOL    HW227684   2.060   6.788   5.268
 8929SOL     OW27685   0.180   2.195   4.598
 8929SOL    HW127686   0.095   2.150   4.627
 8929SOL    HW227687   0.166   2.294   4.595
 8930SOL     OW27688   1.813   4.710   3.998
 8930SOL    HW127689   1.775   4.625   4.035
 8930SOL    HW227690   1.886   4.687   3.933
 8931SOL     OW27691   3.946   2.973   1.354
 8931SOL    HW127692   3.862   2.926   1.383
 8931SOL    HW227693   3.967   3.047   1.419
 8932SOL     OW27694   6.817   2.546   3.091
 8932SOL    HW127695   6.845   2.540   2.995
 8932SOL    HW227696   6.889   2.506   3.148
 8933SOL     OW27697   3.910   2.041   6.098
 8933SOL    HW127698   3.946   1.990   6.175
 8933SOL    HW227699   3.850   2.114   6.131
 8934SOL     OW27700   2.831   5.680   4.465
 8934SOL    HW127701   2.836   5.580   4.470
 8934SOL    HW227702   2.908   5.714   4.410
 8935SOL     OW27703   0.053   4.843   1.146
 8935SOL    HW127704   0.006   4.819   1.061
 8935SOL    HW227705   0.033   4.774   1.216
 8936SOL     OW27706   2.075   2.879   0.770
 8936SOL    HW127707   2.038   2.924   0.852
 8936SOL    HW227708   2.134   2.803   0.799
 8937SOL     OW27709   0.395   6.593   5.661
 8937SOL    HW127710   0.343   6.631   5.585
 8937SOL    HW227711   0.355   6.623   5.748
 8938SOL     OW27712   6.657   5.303   1.357
 8938SOL    HW127713   6.620   5.325   1.267
 8938SOL    HW227714   6.594   5.242   1.405
 8939SOL     OW27715   4.927   2.162   4.746
 8939SOL    HW127716   5.013   2.142   4.698
 8939SOL    HW227717   4.913   2.261   4.747
 8940SOL     OW27718   6.447   0.850   3.844
 8940SOL    HW127719   6.520   0.803   3.893
 8940SOL    HW227720   6.478   0.872   3.751
 8941SOL     OW27721   5.551   2.152   6.090
 8941SOL    HW127722   5.559   2.179   5.994
 8941SOL    HW227723   5.491   2.072   6.097
 8942SOL     OW27724   0.314   2.166   5.205
 8942SOL    HW127725   0.275   2.078   5.231
 8942SOL    HW227726   0.265   2.202   5.126
 8943SOL     OW27727   4.757   3.128   1.216
 8943SOL    HW127728   4.737   3.164   1.306
 8943SOL    HW227729   4.692   3.166   1.149
 8944SOL     OW27730   4.495   5.852   0.397
 8944SOL    HW127731   4.561   5.782   0.425
 8944SOL    HW227732   4.509   5.935   0.449
 8945SOL     OW27733   2.300   0.785   4.642
 8945SOL    HW127734   2.340   0.697   4.667
 8945SOL    HW227735   2.229   0.809   4.708
 8946SOL     OW27736   3.550   1.627   5.179
 8946SOL    HW127737   3.638   1.668   5.155
 8946SOL    HW227738   3.486   1.698   5.209
 8947SOL     OW27739   3.634   3.579   5.624
 8947SOL    HW127740   3.656   3.658   5.567
 8947SOL    HW227741   3.673   3.497   5.583
 8948SOL     OW27742   5.374   4.594   3.367
 8948SOL    HW127743   5.419   4.675   3.405
 8948SOL    HW227744   5.346   4.614   3.273
 8949SOL     OW27745   1.522   0.007   6.948
 8949SOL    HW127746   1.528   7.001   0.021
 8949SOL    HW227747   1.612   7.019   6.904
 8950SOL     OW27748   5.138   3.044   5.437
 8950SOL    HW127749   5.043   3.047   5.408
 8950SOL    HW227750   5.152   2.965   5.498
 8951SOL     OW27751   1.607   3.132   5.415
 8951SOL    HW127752   1.643   3.046   5.381
 8951SOL    HW227753   1.623   3.204   5.347
 8952SOL     OW27754   1.327   1.271   3.277
 8952SOL    HW127755   1.376   1.336   3.335
 8952SOL    HW227756   1.316   1.309   3.186
 8953SOL     OW27757   1.650   3.328   0.247
 8953SOL    HW127758   1.581   3.397   0.226
 8953SOL    HW227759   1.740   3.361   0.218
 8954SOL     OW27760   1.100   5.911   6.242
 8954SOL    HW127761   1.022   5.941   6.186
 8954SOL    HW227762   1.169   5.869   6.182
 8955SOL     OW27763   6.860   4.341   3.598
 8955SOL    HW127764   6.777   4.335   3.653
 8955SOL    HW227765   6.882   4.437   3.582
 8956SOL     OW27766   0.753   1.132   6.329
 8956SOL    HW127767   0.654   1.147   6.332
 8956SOL    HW227768   0.798   1.215   6.295
 8957SOL     OW27769   3.050   4.777   1.788
 8957SOL    HW127770   2.993   4.737   1.861
 8957SOL    HW227771   3.146   4.776   1.817
 8958SOL     OW27772   1.494   6.794   4.283
 8958SOL    HW127773   1.557   6.741   4.225
 8958SOL    HW227774   1.529   6.795   4.377
 8959SOL     OW27775   1.287   4.786   0.864
 8959SOL    HW127776   1.268   4.860   0.799
 8959SOL    HW227777   1.379   4.797   0.901
 8960SOL     OW27778   3.939   5.545   1.910
 8960SOL    HW127779   4.009   5.489   1.955
 8960SOL    HW227780   3.850   5.499   1.916
 8961SOL     OW27781   1.169   2.258   4.166
 8961SOL    HW127782   1.214   2.194   4.103
 8961SOL    HW227783   1.225   2.268   4.248
 8962SOL     OW27784   6.120   0.568   3.664
 8962SOL    HW127785   6.059   0.514   3.607
 8962SOL    HW227786   6.166   0.636   3.607
 8963SOL     OW27787   5.430   0.326   4.460
 8963SOL    HW127788   5.465   0.233   4.461
 8963SOL    HW227789   5.506   0.391   4.453
 8964SOL     OW27790   5.006   4.941   2.310
 8964SOL    HW127791   5.051   4.856   2.335
 8964SOL    HW227792   5.046   4.976   2.226
 8965SOL     OW27793   1.255   4.962   1.541
 8965SOL    HW127794   1.217   4.936   1.630
 8965SOL    HW227795   1.352   4.983   1.550
 8966SOL     OW27796   1.919   2.361   6.007
 8966SOL    HW127797   1.822   2.379   5.987
 8966SOL    HW227798   1.956   2.437   6.061
 8967SOL     OW27799   3.970   0.476   0.641
 8967SOL    HW127800   3.875   0.447   0.653
 8967SOL    HW227801   3.996   0.538   0.715
 8968SOL     OW27802   5.210   6.312   1.426
 8968SOL    HW127803   5.165   6.380   1.368
 8968SOL    HW227804   5.213   6.225   1.377
 8969SOL     OW27805   5.914   0.767   3.726
 8969SOL    HW127806   5.992   0.803   3.777
 8969SOL    HW227807   5.936   0.676   3.691
 8970SOL     OW27808   3.703   2.282   1.398
 8970SOL    HW127809   3.663   2.366   1.434
 8970SOL    HW227810   3.726   2.294   1.302
 8971SOL     OW27811   3.650   5.803   2.315
 8971SOL    HW127812   3.733   5.857   2.328
 8971SOL    HW227813   3.673   5.719   2.267
 8972SOL     OW27814   5.675   6.270   5.912
 8972SOL    HW127815   5.761   6.258   5.962
 8972SOL    HW227816   5.620   6.187   5.921
 8973SOL     OW27817   1.621   4.827   0.733
 8973SOL    HW127818   1.608   4.877   0.818
 8973SOL    HW227819   1.541   4.840   0.674
 8974SOL     OW27820   0.838   4.070   6.153
 8974SOL    HW127821   0.794   4.128   6.222
 8974SOL    HW227822   0.936   4.063   6.174
 8975SOL     OW27823   2.756   0.204   0.931
 8975SOL    HW127824   2.855   0.194   0.935
 8975SOL    HW227825   2.723   0.172   0.843
 8976SOL     OW27826   1.848   5.228   4.513
 8976SOL    HW127827   1.774   5.248   4.448
 8976SOL    HW227828   1.925   5.187   4.464
 8977SOL     OW27829   5.538   1.332   5.649
 8977SOL    HW127830   5.467   1.369   5.710
 8977SOL    HW227831   5.563   1.241   5.680
 8978SOL     OW27832   6.016   6.071   0.513
 8978SOL    HW127833   6.072   6.147   0.480
 8978SOL    HW227834   5.959   6.102   0.589
 8979SOL     OW27835   1.954   3.993   5.056
 8979SOL    HW127836   2.011   4.015   4.977
 8979SOL    HW227837   2.004   4.012   5.140
 8980SOL     OW27838   3.333   3.513   4.997
 8980SOL    HW127839   3.413   3.571   4.981
 8980SOL    HW227840   3.251   3.560   4.965
 8981SOL     OW27841   3.493   1.296   4.922
 8981SOL    HW127842   3.423   1.346   4.871
 8981SOL    HW227843   3.451   1.219   4.970
 8982SOL     OW27844   2.787   3.488   0.841
 8982SOL    HW127845   2.859   3.506   0.909
 8982SOL    HW227846   2.776   3.389   0.830
 8983SOL     OW27847   3.775   5.459   6.914
 8983SOL    HW127848   3.767   5.502   6.824
 8983SOL    HW227849   3.775   5.359   6.903
 8984SOL     OW27850   2.212   5.619   3.236
 8984SOL    HW127851   2.287   5.561   3.268
 8984SOL    HW227852   2.229   5.647   3.142
 8985SOL     OW27853   3.549   2.534   0.542
 8985SOL    HW127854   3.631   2.534   0.599
 8985SOL    HW227855   3.497   2.618   0.557
 8986SOL     OW27856   3.486   4.874   2.964
 8986SOL    HW127857   3.494   4.892   2.866
 8986SOL    HW227858   3.544   4.938   3.015
 8987SOL     OW27859   5.285   5.858   2.983
 8987SOL    HW127860   5.293   5.760   2.966
 8987SOL    HW227861   5.304   5.877   3.079
 8988SOL     OW27862   0.749   5.734   3.468
 8988SOL    HW127863   0.715   5.712   3.377
 8988SOL    HW227864   0.689   5.692   3.537
 8989SOL     OW27865   5.074   2.658   6.355
 8989SOL    HW127866   5.007   2.593   6.319
 8989SOL    HW227867   5.053   2.750   6.320
 8990SOL     OW27868   0.814   4.811   3.983
 8990SOL    HW127869   0.887   4.825   3.916
 8990SOL    HW227870   0.848   4.828   4.075
 8991SOL     OW27871   1.740   2.231   4.455
 8991SOL    HW127872   1.661   2.289   4.437
 8991SOL    HW227873   1.816   2.288   4.486
 8992SOL     OW27874   5.733   1.993   0.089
 8992SOL    HW127875   5.795   1.963   0.161
 8992SOL    HW227876   5.695   2.082   0.112
 8993SOL     OW27877   3.891   3.349   6.374
 8993SOL    HW127878   3.909   3.251   6.373
 8993SOL    HW227879   3.853   3.378   6.287
 8994SOL     OW27880   2.056   4.486   4.626
 8994SOL    HW127881   2.092   4.514   4.715
 8994SOL    HW227882   2.131   4.456   4.568
 8995SOL     OW27883   6.907   1.672   1.883
 8995SOL    HW127884   6.939   1.579   1.902
 8995SOL    HW227885   6.985   1.735   1.886
 8996SOL     OW27886   5.316   3.917   6.652
 8996SOL    HW127887   5.311   3.824   6.688
 8996SOL    HW227888   5.309   3.982   6.727
 8997SOL     OW27889   4.845   0.753   5.172
 8997SOL    HW127890   4.786   0.833   5.177
 8997SOL    HW227891   4.789   0.670   5.181
 8998SOL     OW27892   6.388   3.948   4.023
 8998SOL    HW127893   6.475   3.949   4.072
 8998SOL    HW227894   6.314   3.966   4.088
 8999SOL     OW27895   4.485   6.913   5.797
 8999SOL    HW127896   4.454   6.959   5.713
 8999SOL    HW227897   4.411   6.855   5.831
 9000SOL     OW27898   1.348   3.798   1.409
 9000SOL    HW127899   1.358   3.893   1.379
 9000SOL    HW227900   1.306   3.796   1.500
 9001SOL     OW27901   0.351   4.779   2.136
 9001SOL    HW127902   0.395   4.857   2.091
 9001SOL    HW227903   0.400   4.758   2.221
 9002SOL     OW27904   1.016   4.500   5.403
 9002SOL    HW127905   1.086   4.548   5.350
 9002SOL    HW227906   1.019   4.403   5.381
 9003SOL     OW27907   5.444   2.925   1.299
 9003SOL    HW127908   5.378   2.872   1.247
 9003SOL    HW227909   5.405   2.951   1.387
 9004SOL     OW27910   4.243   4.923   0.899
 9004SOL    HW127911   4.248   5.008   0.952
 9004SOL    HW227912   4.313   4.924   0.829
 9005SOL     OW27913   5.571   1.169   6.016
 9005SOL    HW127914   5.572   1.264   6.046
 9005SOL    HW227915   5.569   1.165   5.916
 9006SOL     OW27916   3.262   0.016   0.866
 9006SOL    HW127917   3.351   0.024   0.911
 9006SOL    HW227918   3.273   6.989   0.780
 9007SOL     OW27919   2.351   0.974   2.681
 9007SOL    HW127920   2.391   1.022   2.759
 9007SOL    HW227921   2.252   0.976   2.688
 9008SOL     OW27922   0.501   5.173   2.918
 9008SOL    HW127923   0.550   5.117   2.851
 9008SOL    HW227924   0.567   5.225   2.972
 9009SOL     OW27925   3.456   5.303   1.160
 9009SOL    HW127926   3.531   5.333   1.220
 9009SOL    HW227927   3.422   5.381   1.108
 9010SOL     OW27928   1.769   6.926   4.374
 9010SOL    HW127929   1.803   6.996   4.312
 9010SOL    HW227930   1.765   6.838   4.326
 9011SOL     OW27931   4.053   0.732   2.025
 9011SOL    HW127932   3.991   0.675   2.079
 9011SOL    HW227933   4.016   0.825   2.021
 9012SOL     OW27934   2.444   5.828   0.690
 9012SOL    HW127935   2.367   5.838   0.754
 9012SOL    HW227936   2.489   5.740   0.706
 9013SOL     OW27937   1.073   6.980   4.428
 9013SOL    HW127938   1.088   6.892   4.473
 9013SOL    HW227939   0.977   6.987   4.399
 9014SOL     OW27940   5.932   3.035   1.651
 9014SOL    HW127941   5.985   3.056   1.733
 9014SOL    HW227942   5.847   2.990   1.677
 9015SOL     OW27943   4.817   2.571   1.235
 9015SOL    HW127944   4.880   2.503   1.199
 9015SOL    HW227945   4.767   2.614   1.160
 9016SOL     OW27946   5.726   5.007   6.494
 9016SOL    HW127947   5.821   5.005   6.465
 9016SOL    HW227948   5.719   4.968   6.586
 9017SOL     OW27949   3.759   1.270   4.884
 9017SOL    HW127950   3.779   1.175   4.864
 9017SOL    HW227951   3.661   1.286   4.876
 9018SOL     OW27952   3.933   3.579   6.769
 9018SOL    HW127953   3.962   3.582   6.673
 9018SOL    HW227954   4.013   3.565   6.827
 9019SOL     OW27955   1.178   3.641   2.890
 9019SOL    HW127956   1.189   3.614   2.794
 9019SOL    HW227957   1.253   3.701   2.916
 9020SOL     OW27958   6.495   5.160   1.521
 9020SOL    HW127959   6.518   5.074   1.568
 9020SOL    HW227960   6.397   5.175   1.526
 9021SOL     OW27961   6.970   0.394   4.179
 9021SOL    HW127962   6.872   0.393   4.201
 9021SOL    HW227963   6.982   0.423   4.084
 9022SOL     OW27964   3.681   2.440   7.017
 9022SOL    HW127965   3.646   2.390   0.073
 9022SOL    HW227966   3.762   2.393   6.980
 9023SOL     OW27967   3.926   3.075   1.106
 9023SOL    HW127968   3.907   3.024   1.189
 9023SOL    HW227969   3.934   3.173   1.127
 9024SOL     OW27970   0.892   4.801   5.567
 9024SOL    HW127971   0.863   4.798   5.662
 9024SOL    HW227972   0.972   4.743   5.554
 9025SOL     OW27973   0.384   5.632   0.693
 9025SOL    HW127974   0.415   5.663   0.783
 9025SOL    HW227975   0.329   5.703   0.650
 9026SOL     OW27976   3.962   1.480   0.435
 9026SOL    HW127977   3.933   1.385   0.443
 9026SOL    HW227978   3.911   1.525   0.361
 9027SOL     OW27979   1.173   3.919   3.667
 9027SOL    HW127980   1.105   3.966   3.724
 9027SOL    HW227981   1.228   3.858   3.724
 9028SOL     OW27982   3.481   3.295   5.175
 9028SOL    HW127983   3.404   3.357   5.163
 9028SOL    HW227984   3.533   3.289   5.090
 9029SOL     OW27985   4.373   0.782   4.681
 9029SOL    HW127986   4.305   0.781   4.753
 9029SOL    HW227987   4.396   0.877   4.658
 9030SOL     OW27988   2.389   2.425   4.005
 9030SOL    HW127989   2.297   2.414   4.042
 9030SOL    HW227990   2.391   2.504   3.943
 9031SOL     OW27991   4.427   0.616   4.464
 9031SOL    HW127992   4.396   0.671   4.386
 9031SOL    HW227993   4.383   0.650   4.547
 9032SOL     OW27994   4.477   3.762   1.212
 9032SOL    HW127995   4.486   3.684   1.274
 9032SOL    HW227996   4.558   3.820   1.220
 9033SOL     OW27997   0.483   5.262   2.307
 9033SOL    HW127998   0.541   5.337   2.275
 9033SOL    HW227999   0.427   5.229   2.232
 9034SOL     OW28000   3.494   6.036   5.231
 9034SOL    HW128001   3.460   6.110   5.290
 9034SOL    HW228002   3.579   5.999   5.269
 9035SOL     OW28003   1.928   6.028   0.045
 9035SOL    HW128004   1.924   6.087   0.126
 9035SOL    HW228005   1.836   5.995   0.023
 9036SOL     OW28006   1.542   3.802   5.018
 9036SOL    HW128007   1.504   3.731   5.078
 9036SOL    HW228008   1.493   3.888   5.034
 9037SOL     OW28009   0.811   2.690   4.309
 9037SOL    HW128010   0.755   2.638   4.373
 9037SOL    HW228011   0.851   2.769   4.356
 9038SOL     OW28012   4.737   2.996   6.483
 9038SOL    HW128013   4.713   3.064   6.551
 9038SOL    HW228014   4.667   2.993   6.412
 9039SOL     OW28015   3.400   4.693   6.809
 9039SOL    HW128016   3.466   4.619   6.807
 9039SOL    HW228017   3.316   4.665   6.762
 9040SOL     OW28018   2.594   1.900   1.984
 9040SOL    HW128019   2.616   1.996   1.964
 9040SOL    HW228020   2.638   1.874   2.070
 9041SOL     OW28021   0.826   2.060   1.208
 9041SOL    HW128022   0.822   2.115   1.125
 9041SOL    HW228023   0.893   2.099   1.272
 9042SOL     OW28024   3.980   5.880   5.192
 9042SOL    HW128025   4.031   5.949   5.243
 9042SOL    HW228026   3.982   5.901   5.095
 9043SOL     OW28027   2.313   1.442   7.005
 9043SOL    HW128028   2.379   1.463   6.933
 9043SOL    HW228029   2.290   1.526   0.032
 9044SOL     OW28030   0.795   0.692   0.272
 9044SOL    HW128031   0.699   0.708   0.296
 9044SOL    HW228032   0.808   0.713   0.175
 9045SOL     OW28033   4.269   0.524   3.423
 9045SOL    HW128034   4.216   0.448   3.384
 9045SOL    HW228035   4.231   0.610   3.391
 9046SOL     OW28036   4.084   3.437   2.430
 9046SOL    HW128037   4.128   3.447   2.520
 9046SOL    HW228038   4.001   3.382   2.440
 9047SOL     OW28039   1.603   4.075   5.225
 9047SOL    HW128040   1.654   4.126   5.156
 9047SOL    HW228041   1.520   4.126   5.249
 9048SOL     OW28042   6.123   2.152   6.339
 9048SOL    HW128043   6.156   2.237   6.380
 9048SOL    HW228044   6.137   2.155   6.240
 9049SOL     OW28045   3.361   6.204   6.210
 9049SOL    HW128046   3.322   6.126   6.259
 9049SOL    HW228047   3.460   6.195   6.206
 9050SOL     OW28048   0.571   4.201   1.935
 9050SOL    HW128049   0.659   4.198   1.888
 9050SOL    HW228050   0.528   4.111   1.931
 9051SOL     OW28051   2.543   1.188   1.274
 9051SOL    HW128052   2.604   1.112   1.255
 9051SOL    HW228053   2.572   1.269   1.223
 9052SOL     OW28054   1.864   2.928   4.227
 9052SOL    HW128055   1.899   2.952   4.317
 9052SOL    HW228056   1.879   3.004   4.163
 9053SOL     OW28057   2.178   1.333   1.152
 9053SOL    HW128058   2.254   1.277   1.119
 9053SOL    HW228059   2.137   1.382   1.075
 9054SOL     OW28060   2.993   5.769   3.842
 9054SOL    HW128061   3.092   5.774   3.857
 9054SOL    HW228062   2.946   5.779   3.930
 9055SOL     OW28063   6.786   4.129   4.890
 9055SOL    HW128064   6.860   4.071   4.923
 9055SOL    HW228065   6.701   4.076   4.886
 9056SOL     OW28066   6.289   2.390   2.708
 9056SOL    HW128067   6.300   2.424   2.801
 9056SOL    HW228068   6.376   2.353   2.676
 9057SOL     OW28069   4.859   1.794   4.375
 9057SOL    HW128070   4.861   1.764   4.279
 9057SOL    HW228071   4.892   1.888   4.381
 9058SOL     OW28072   1.475   0.479   6.220
 9058SOL    HW128073   1.550   0.483   6.286
 9058SOL    HW228074   1.406   0.415   6.253
 9059SOL     OW28075   1.636   2.355   2.186
 9059SOL    HW128076   1.664   2.418   2.258
 9059SOL    HW228077   1.635   2.402   2.098
 9060SOL     OW28078   5.392   3.365   4.643
 9060SOL    HW128079   5.338   3.282   4.652
 9060SOL    HW228080   5.461   3.368   4.715
 9061SOL     OW28081   4.475   5.468   2.357
 9061SOL    HW128082   4.459   5.439   2.452
 9061SOL    HW228083   4.511   5.562   2.357
 9062SOL     OW28084   1.377   5.402   1.656
 9062SOL    HW128085   1.317   5.351   1.596
 9062SOL    HW228086   1.332   5.487   1.684
 9063SOL     OW28087   2.770   1.791   3.731
 9063SOL    HW128088   2.841   1.751   3.789
 9063SOL    HW228089   2.745   1.726   3.659
 9064SOL     OW28090   6.520   3.597   0.160
 9064SOL    HW128091   6.461   3.553   0.227
 9064SOL    HW228092   6.501   3.560   0.069
 9065SOL     OW28093   3.048   0.756   0.282
 9065SOL    HW128094   3.049   0.677   0.343
 9065SOL    HW228095   2.956   0.769   0.246
 9066SOL     OW28096   5.289   6.997   0.125
 9066SOL    HW128097   5.223   6.997   0.049
 9066SOL    HW228098   5.371   0.026   0.098
 9067SOL     OW28099   1.617   6.773   3.271
 9067SOL    HW128100   1.626   6.674   3.256
 9067SOL    HW228101   1.578   6.789   3.362
 9068SOL     OW28102   1.314   6.100   5.644
 9068SOL    HW128103   1.331   6.005   5.671
 9068SOL    HW228104   1.253   6.143   5.710
 9069SOL     OW28105   1.751   2.521   5.868
 9069SOL    HW128106   1.699   2.599   5.833
 9069SOL    HW228107   1.848   2.533   5.844
 9070SOL     OW28108   1.800   3.757   4.545
 9070SOL    HW128109   1.723   3.743   4.607
 9070SOL    HW228110   1.866   3.819   4.589
 9071SOL     OW28111   6.442   6.583   0.051
 9071SOL    HW128112   6.419   6.523   6.996
 9071SOL    HW228113   6.509   6.651   0.021
 9072SOL     OW28114   6.869   3.799   0.778
 9072SOL    HW128115   6.806   3.847   0.839
 9072SOL    HW228116   6.819   3.761   0.700
 9073SOL     OW28117   2.271   0.935   2.042
 9073SOL    HW128118   2.307   0.925   2.135
 9073SOL    HW228119   2.325   0.879   1.979
 9074SOL     OW28120   1.080   6.785   2.770
 9074SOL    HW128121   1.039   6.835   2.846
 9074SOL    HW228122   1.018   6.785   2.692
 9075SOL     OW28123   6.434   0.872   2.131
 9075SOL    HW128124   6.479   0.789   2.164
 9075SOL    HW228125   6.356   0.847   2.074
 9076SOL     OW28126   6.941   1.083   5.684
 9076SOL    HW128127   6.890   1.056   5.602
 9076SOL    HW228128   6.971   1.001   5.732
 9077SOL     OW28129   5.185   6.587   2.186
 9077SOL    HW128130   5.094   6.547   2.196
 9077SOL    HW228131   5.208   6.594   2.089
 9078SOL     OW28132   3.871   3.475   4.823
 9078SOL    HW128133   3.858   3.398   4.761
 9078SOL    HW228134   3.968   3.485   4.846
 9079SOL     OW28135   3.424   6.533   4.644
 9079SOL    HW128136   3.482   6.456   4.670
 9079SOL    HW228137   3.328   6.503   4.642
 9080SOL     OW28138   5.624   2.575   6.974
 9080SOL    HW128139   5.549   2.625   7.018
 9080SOL    HW228140   5.700   2.638   6.956
 9081SOL     OW28141   5.373   6.481   1.934
 9081SOL    HW128142   5.465   6.502   1.901
 9081SOL    HW228143   5.312   6.558   1.914
 9082SOL     OW28144   2.982   0.972   3.788
 9082SOL    HW128145   2.977   0.963   3.689
 9082SOL    HW228146   3.068   0.933   3.821
 9083SOL     OW28147   4.981   4.393   5.306
 9083SOL    HW128148   4.969   4.492   5.310
 9083SOL    HW228149   5.033   4.361   5.385
 9084SOL     OW28150   3.196   3.980   3.109
 9084SOL    HW128151   3.246   3.940   3.033
 9084SOL    HW228152   3.259   4.028   3.170
 9085SOL     OW28153   2.153   2.216   1.425
 9085SOL    HW128154   2.169   2.126   1.465
 9085SOL    HW228155   2.213   2.228   1.346
 9086SOL     OW28156   0.734   3.787   1.459
 9086SOL    HW128157   0.787   3.722   1.513
 9086SOL    HW228158   0.688   3.739   1.384
 9087SOL     OW28159   5.014   3.956   2.202
 9087SOL    HW128160   5.068   3.920   2.277
 9087SOL    HW228161   4.981   3.881   2.145
 9088SOL     OW28162   6.599   0.509   6.291
 9088SOL    HW128163   6.687   0.531   6.333
 9088SOL    HW228164   6.526   0.559   6.338
 9089SOL     OW28165   4.356   0.003   6.029
 9089SOL    HW128166   4.259   0.015   6.011
 9089SOL    HW228167   4.408   0.025   5.946
 9090SOL     OW28168   5.401   0.613   4.276
 9090SOL    HW128169   5.440   0.675   4.344
 9090SOL    HW228170   5.461   0.609   4.196
 9091SOL     OW28171   3.144   3.638   6.955
 9091SOL    HW128172   3.197   3.568   7.002
 9091SOL    HW228173   3.121   3.711   7.019
 9092SOL     OW28174   0.161   1.841   0.091
 9092SOL    HW128175   0.257   1.845   0.120
 9092SOL    HW228176   0.144   1.913   0.024
 9093SOL     OW28177   1.466   6.989   5.285
 9093SOL    HW128178   1.392   6.954   5.227
 9093SOL    HW228179   1.521   0.032   5.233
 9094SOL     OW28180   0.630   3.471   1.994
 9094SOL    HW128181   0.716   3.517   1.972
 9094SOL    HW228182   0.615   3.475   2.093
 9095SOL     OW28183   5.568   6.133   5.226
 9095SOL    HW128184   5.603   6.052   5.180
 9095SOL    HW228185   5.536   6.199   5.157
 9096SOL     OW28186   6.317   5.522   2.752
 9096SOL    HW128187   6.234   5.472   2.777
 9096SOL    HW228188   6.309   5.617   2.783
 9097SOL     OW28189   0.901   3.036   5.593
 9097SOL    HW128190   0.842   3.032   5.673
 9097SOL    HW228191   0.990   2.997   5.614
 9098SOL     OW28192   2.104   3.435   4.646
 9098SOL    HW128193   2.117   3.353   4.702
 9098SOL    HW228194   2.091   3.514   4.705
 9099SOL     OW28195   2.124   3.386   0.028
 9099SOL    HW128196   2.155   3.430   6.966
 9099SOL    HW228197   2.059   3.313   0.005
 9100SOL     OW28198   1.047   4.550   2.768
 9100SOL    HW128199   1.106   4.593   2.837
 9100SOL    HW228200   0.985   4.618   2.730
 9101SOL     OW28201   1.940   1.353   1.880
 9101SOL    HW128202   1.993   1.364   1.797
 9101SOL    HW228203   2.001   1.340   1.958
 9102SOL     OW28204   4.525   5.745   2.404
 9102SOL    HW128205   4.545   5.756   2.307
 9102SOL    HW228206   4.548   5.829   2.453
 9103SOL     OW28207   6.413   1.894   0.305
 9103SOL    HW128208   6.327   1.945   0.311
 9103SOL    HW228209   6.413   1.822   0.375
 9104SOL     OW28210   6.533   0.683   0.240
 9104SOL    HW128211   6.486   0.735   0.312
 9104SOL    HW228212   6.500   0.589   0.239
 9105SOL     OW28213   2.058   0.518   6.361
 9105SOL    HW128214   2.007   0.467   6.292
 9105SOL    HW228215   2.129   0.573   6.316
 9106SOL     OW28216   1.477   4.780   6.877
 9106SOL    HW128217   1.479   4.833   6.793
 9106SOL    HW228218   1.570   4.769   6.912
 9107SOL     OW28219   2.387   1.248   0.369
 9107SOL    HW128220   2.451   1.181   0.407
 9107SOL    HW228221   2.400   1.336   0.414
 9108SOL     OW28222   5.729   5.165   5.975
 9108SOL    HW128223   5.751   5.172   5.878
 9108SOL    HW228224   5.814   5.149   6.027
 9109SOL     OW28225   5.145   3.015   2.515
 9109SOL    HW128226   5.052   2.983   2.498
 9109SOL    HW228227   5.164   3.095   2.459
 9110SOL     OW28228   1.405   5.467   4.532
 9110SOL    HW128229   1.410   5.432   4.626
 9110SOL    HW228230   1.314   5.449   4.494
 9111SOL     OW28231   4.468   3.233   5.408
 9111SOL    HW128232   4.473   3.145   5.362
 9111SOL    HW228233   4.439   3.220   5.503
 9112SOL     OW28234   1.556   5.371   2.059
 9112SOL    HW128235   1.538   5.345   2.154
 9112SOL    HW228236   1.547   5.291   2.000
 9113SOL     OW28237   4.709   2.138   3.315
 9113SOL    HW128238   4.750   2.047   3.315
 9113SOL    HW228239   4.781   2.207   3.300
 9114SOL     OW28240   1.399   6.134   4.870
 9114SOL    HW128241   1.309   6.097   4.848
 9114SOL    HW228242   1.459   6.127   4.790
 9115SOL     OW28243   5.473   4.789   4.166
 9115SOL    HW128244   5.405   4.730   4.123
 9115SOL    HW228245   5.483   4.874   4.114
 9116SOL     OW28246   0.693   6.669   3.591
 9116SOL    HW128247   0.775   6.705   3.547
 9116SOL    HW228248   0.698   6.688   3.689
 9117SOL     OW28249   3.942   0.760   6.794
 9117SOL    HW128250   3.939   0.746   6.893
 9117SOL    HW228251   4.016   0.822   6.770
 9118SOL     OW28252   6.276   4.012   0.952
 9118SOL    HW128253   6.307   3.957   1.029
 9118SOL    HW228254   6.196   4.066   0.979
 9119SOL     OW28255   3.566   0.656   0.649
 9119SOL    HW128256   3.493   0.622   0.590
 9119SOL    HW228257   3.632   0.583   0.665
 9120SOL     OW28258   5.775   3.015   5.265
 9120SOL    HW128259   5.698   3.072   5.237
 9120SOL    HW228260   5.759   2.921   5.234
 9121SOL     OW28261   3.197   0.081   5.014
 9121SOL    HW128262   3.247   0.166   5.030
 9121SOL    HW228263   3.161   0.046   5.100
 9122SOL     OW28264   2.413   4.338   2.329
 9122SOL    HW128265   2.501   4.308   2.291
 9122SOL    HW228266   2.426   4.424   2.379
 9123SOL     OW28267   1.244   0.989   4.007
 9123SOL    HW128268   1.316   1.057   3.993
 9123SOL    HW228269   1.169   1.030   4.058
 9124SOL     OW28270   3.055   5.629   1.561
 9124SOL    HW128271   3.082   5.658   1.653
 9124SOL    HW228272   3.036   5.710   1.505
 9125SOL     OW28273   4.673   6.778   0.892
 9125SOL    HW128274   4.761   6.781   0.846
 9125SOL    HW228275   4.600   6.803   0.827
 9126SOL     OW28276   3.723   4.330   0.140
 9126SOL    HW128277   3.713   4.430   0.139
 9126SOL    HW228278   3.789   4.303   0.209
 9127SOL     OW28279   6.966   3.989   5.728
 9127SOL    HW128280   6.953   3.988   5.629
 9127SOL    HW228281   0.040   4.008   5.749
 9128SOL     OW28282   5.601   3.442   5.540
 9128SOL    HW128283   5.580   3.533   5.504
 9128SOL    HW228284   5.524   3.381   5.521
 9129SOL     OW28285   1.618   2.114   0.452
 9129SOL    HW128286   1.532   2.154   0.485
 9129SOL    HW228287   1.691   2.139   0.515
 9130SOL     OW28288   2.744   3.913   5.225
 9130SOL    HW128289   2.652   3.926   5.188
 9130SOL    HW228290   2.774   3.996   5.271
 9131SOL     OW28291   5.574   2.979   0.762
 9131SOL    HW128292   5.538   2.982   0.855
 9131SOL    HW228293   5.525   2.909   0.709
 9132SOL     OW28294   0.296   4.439   3.922
 9132SOL    HW128295   0.208   4.432   3.875
 9132SOL    HW228296   0.346   4.353   3.911
 9133SOL     OW28297   4.560   1.014   0.721
 9133SOL    HW128298   4.529   0.947   0.654
 9133SOL    HW228299   4.651   1.049   0.695
 9134SOL     OW28300   4.185   5.253   0.788
 9134SOL    HW128301   4.204   5.224   0.882
 9134SOL    HW228302   4.086   5.254   0.773
 9135SOL     OW28303   0.166   6.834   2.923
 9135SOL    HW128304   0.136   6.898   2.994
 9135SOL    HW228305   0.166   6.741   2.959
 9136SOL     OW28306   6.257   4.642   6.948
 9136SOL    HW128307   6.297   4.601   0.008
 9136SOL    HW228308   6.330   4.671   6.886
 9137SOL     OW28309   5.100   6.495   6.419
 9137SOL    HW128310   5.029   6.542   6.366
 9137SOL    HW228311   5.087   6.396   6.411
 9138SOL     OW28312   3.338   3.546   1.176
 9138SOL    HW128313   3.395   3.469   1.146
 9138SOL    HW228314   3.316   3.604   1.098
 9139SOL     OW28315   6.471   0.010   1.274
 9139SOL    HW128316   6.384   6.983   1.277
 9139SOL    HW228317   6.478   0.059   1.187
 9140SOL     OW28318   0.951   4.421   2.989
 9140SOL    HW128319   0.853   4.437   2.986
 9140SOL    HW228320   0.989   4.430   2.896
 9141SOL     OW28321   6.353   5.841   5.451
 9141SOL    HW128322   6.263   5.858   5.411
 9141SOL    HW228323   6.416   5.913   5.423
 9142SOL     OW28324   1.178   4.329   3.650
 9142SOL    HW128325   1.209   4.324   3.555
 9142SOL    HW228326   1.155   4.424   3.672
 9143SOL     OW28327   6.981   3.925   2.437
 9143SOL    HW128328   6.922   3.879   2.503
 9143SOL    HW228329   6.946   4.016   2.417
 9144SOL     OW28330   2.549   4.369   5.576
 9144SOL    HW128331   2.471   4.307   5.571
 9144SOL    HW228332   2.629   4.326   5.534
 9145SOL     OW28333   1.411   6.341   5.976
 9145SOL    HW128334   1.377   6.277   6.045
 9145SOL    HW228335   1.339   6.358   5.908
 9146SOL     OW28336   5.954   2.765   2.868
 9146SOL    HW128337   5.909   2.849   2.898
 9146SOL    HW228338   6.002   2.782   2.782
 9147SOL     OW28339   4.195   0.177   4.328
 9147SOL    HW128340   4.234   0.185   4.420
 9147SOL    HW228341   4.099   0.149   4.335
 9148SOL     OW28342   5.952   6.393   1.789
 9148SOL    HW128343   5.919   6.331   1.861
 9148SOL    HW228344   5.929   6.356   1.699
 9149SOL     OW28345   0.281   3.802   2.152
 9149SOL    HW128346   0.315   3.749   2.074
 9149SOL    HW228347   0.282   3.744   2.233
 9150SOL     OW28348   2.785   2.577   1.190
 9150SOL    HW128349   2.687   2.592   1.183
 9150SOL    HW228350   2.814   2.588   1.285
 9151SOL     OW28351   1.932   3.220   3.726
 9151SOL    HW128352   1.863   3.194   3.793
 9151SOL    HW228353   1.932   3.153   3.651
 9152SOL     OW28354   2.258   4.661   3.243
 9152SOL    HW128355   2.304   4.578   3.210
 9152SOL    HW228356   2.160   4.655   3.224
 9153SOL     OW28357   6.474   4.203   0.247
 9153SOL    HW128358   6.556   4.207   0.304
 9153SOL    HW228359   6.463   4.110   0.212
 9154SOL     OW28360   5.959   4.851   2.432
 9154SOL    HW128361   5.972   4.761   2.392
 9154SOL    HW228362   5.862   4.871   2.440
 9155SOL     OW28363   1.146   6.468   2.566
 9155SOL    HW128364   1.143   6.546   2.504
 9155SOL    HW228365   1.187   6.390   2.519
 9156SOL     OW28366   6.820   3.934   0.014
 9156SOL    HW128367   6.920   3.936   0.013
 9156SOL    HW228368   6.787   3.841   7.019
 9157SOL     OW28369   2.062   5.250   6.071
 9157SOL    HW128370   2.059   5.189   6.150
 9157SOL    HW228371   1.974   5.297   6.062
 9158SOL     OW28372   6.799   3.327   4.819
 9158SOL    HW128373   6.847   3.405   4.777
 9158SOL    HW228374   6.700   3.341   4.811
 9159SOL     OW28375   3.767   1.481   3.940
 9159SOL    HW128376   3.729   1.393   3.913
 9159SOL    HW228377   3.799   1.531   3.859
 9160SOL     OW28378   0.041   4.567   1.011
 9160SOL    HW128379   0.136   4.538   0.998
 9160SOL    HW228380   0.021   4.576   1.108
 9161SOL     OW28381   6.601   4.424   1.602
 9161SOL    HW128382   6.503   4.440   1.615
 9161SOL    HW228383   6.615   4.339   1.551
 9162SOL     OW28384   4.523   2.099   1.568
 9162SOL    HW128385   4.567   2.140   1.488
 9162SOL    HW228386   4.593   2.070   1.633
 9163SOL     OW28387   1.549   2.452   3.422
 9163SOL    HW128388   1.457   2.413   3.420
 9163SOL    HW228389   1.609   2.398   3.363
 9164SOL     OW28390   2.996   0.004   0.150
 9164SOL    HW128391   3.034   0.034   0.238
 9164SOL    HW228392   2.941   6.944   0.163
 9165SOL     OW28393   5.153   1.695   6.319
 9165SOL    HW128394   5.199   1.779   6.290
 9165SOL    HW228395   5.175   1.676   6.415
 9166SOL     OW28396   5.166   5.930   1.490
 9166SOL    HW128397   5.197   6.015   1.533
 9166SOL    HW228398   5.244   5.881   1.452
 9167SOL     OW28399   1.629   1.514   4.497
 9167SOL    HW128400   1.580   1.548   4.577
 9167SOL    HW228401   1.614   1.416   4.487
 9168SOL     OW28402   6.625   5.891   4.461
 9168SOL    HW128403   6.672   5.935   4.384
 9168SOL    HW228404   6.544   5.844   4.427
 9169SOL     OW28405   6.518   5.728   0.816
 9169SOL    HW128406   6.554   5.808   0.768
 9169SOL    HW228407   6.488   5.754   0.907
 9170SOL     OW28408   1.458   1.383   6.130
 9170SOL    HW128409   1.474   1.306   6.069
 9170SOL    HW228410   1.396   1.448   6.087
 9171SOL     OW28411   3.355   4.807   0.325
 9171SOL    HW128412   3.309   4.780   0.240
 9171SOL    HW228413   3.420   4.737   0.352
 9172SOL     OW28414   4.926   1.507   3.773
 9172SOL    HW128415   4.868   1.429   3.796
 9172SOL    HW228416   5.022   1.483   3.787
 9173SOL     OW28417   5.640   3.227   5.144
 9173SOL    HW128418   5.630   3.326   5.155
 9173SOL    HW228419   5.641   3.204   5.047
 9174SOL     OW28420   0.706   4.474   0.305
 9174SOL    HW128421   0.714   4.557   0.250
 9174SOL    HW228422   0.693   4.498   0.401
 9175SOL     OW28423   2.209   0.223   6.995
 9175SOL    HW128424   2.283   0.156   6.994
 9175SOL    HW228425   2.156   0.215   6.910
 9176SOL     OW28426   1.564   1.566   2.434
 9176SOL    HW128427   1.636   1.498   2.443
 9176SOL    HW228428   1.561   1.622   2.516
 9177SOL     OW28429   0.480   4.173   3.827
 9177SOL    HW128430   0.525   4.165   3.916
 9177SOL    HW228431   0.531   4.119   3.759
 9178SOL     OW28432   2.346   5.925   0.436
 9178SOL    HW128433   2.305   6.012   0.464
 9178SOL    HW228434   2.363   5.869   0.517
 9179SOL     OW28435   3.440   5.398   4.617
 9179SOL    HW128436   3.478   5.306   4.612
 9179SOL    HW228437   3.351   5.395   4.661
 9180SOL     OW28438   6.840   0.696   5.282
 9180SOL    HW128439   6.915   0.715   5.346
 9180SOL    HW228440   6.864   0.730   5.191
 9181SOL     OW28441   2.720   2.054   3.566
 9181SOL    HW128442   2.745   2.142   3.606
 9181SOL    HW228443   2.760   1.980   3.620
 9182SOL     OW28444   1.344   1.428   2.606
 9182SOL    HW128445   1.296   1.460   2.525
 9182SOL    HW228446   1.435   1.394   2.580
 9183SOL     OW28447   0.518   1.971   6.208
 9183SOL    HW128448   0.599   1.993   6.153
 9183SOL    HW228449   0.460   1.906   6.159
 9184SOL     OW28450   3.770   3.312   0.314
 9184SOL    HW128451   3.852   3.361   0.286
 9184SOL    HW228452   3.795   3.218   0.338
 9185SOL     OW28453   1.164   0.708   0.015
 9185SOL    HW128454   1.119   0.706   6.948
 9185SOL    HW228455   1.262   0.698   0.003
 9186SOL     OW28456   5.786   1.041   6.151
 9186SOL    HW128457   5.718   1.090   6.097
 9186SOL    HW228458   5.758   1.040   6.247
 9187SOL     OW28459   5.561   2.189   0.653
 9187SOL    HW128460   5.473   2.216   0.615
 9187SOL    HW228461   5.588   2.101   0.612
 9188SOL     OW28462   1.508   0.499   1.924
 9188SOL    HW128463   1.525   0.514   1.827
 9188SOL    HW228464   1.477   0.584   1.967
 9189SOL     OW28465   3.978   1.388   4.556
 9189SOL    HW128466   4.073   1.362   4.570
 9189SOL    HW228467   3.941   1.337   4.479
 9190SOL     OW28468   6.579   2.148   5.541
 9190SOL    HW128469   6.627   2.144   5.628
 9190SOL    HW228470   6.510   2.220   5.543
 9191SOL     OW28471   5.365   6.344   0.808
 9191SOL    HW128472   5.344   6.397   0.891
 9191SOL    HW228473   5.348   6.401   0.728
 9192SOL     OW28474   5.781   4.678   4.611
 9192SOL    HW128475   5.711   4.733   4.567
 9192SOL    HW228476   5.814   4.724   4.693
 9193SOL     OW28477   3.592   2.851   3.762
 9193SOL    HW128478   3.638   2.936   3.788
 9193SOL    HW228479   3.513   2.836   3.822
 9194SOL     OW28480   3.125   5.733   2.392
 9194SOL    HW128481   3.063   5.757   2.466
 9194SOL    HW228482   3.170   5.646   2.413
 9195SOL     OW28483   6.608   3.319   3.050
 9195SOL    HW128484   6.605   3.219   3.056
 9195SOL    HW228485   6.534   3.351   2.991
 9196SOL     OW28486   4.381   0.259   3.758
 9196SOL    HW128487   4.382   0.170   3.802
 9196SOL    HW228488   4.370   0.247   3.659
 9197SOL     OW28489   3.298   3.442   6.247
 9197SOL    HW128490   3.281   3.352   6.206
 9197SOL    HW228491   3.284   3.513   6.178
 9198SOL     OW28492   5.105   2.528   4.859
 9198SOL    HW128493   5.082   2.583   4.939
 9198SOL    HW228494   5.024   2.478   4.828
 9199SOL     OW28495   1.525   3.518   6.301
 9199SOL    HW128496   1.464   3.554   6.230
 9199SOL    HW228497   1.615   3.501   6.263
 9200SOL     OW28498   6.075   6.926   0.535
 9200SOL    HW128499   6.080   6.988   0.458
 9200SOL    HW228500   6.139   6.955   0.606
 9201SOL     OW28501   1.672   4.068   3.248
 9201SOL    HW128502   1.670   4.017   3.334
 9201SOL    HW228503   1.741   4.029   3.187
 9202SOL     OW28504   3.183   5.568   3.920
 9202SOL    HW128505   3.233   5.496   3.967
 9202SOL    HW228506   3.242   5.649   3.912
 9203SOL     OW28507   4.928   0.595   6.307
 9203SOL    HW128508   4.832   0.623   6.300
 9203SOL    HW228509   4.933   0.501   6.340
 9204SOL     OW28510   4.645   4.380   1.692
 9204SOL    HW128511   4.599   4.468   1.686
 9204SOL    HW228512   4.598   4.322   1.759
 9205SOL     OW28513   4.891   3.182   2.660
 9205SOL    HW128514   4.939   3.146   2.740
 9205SOL    HW228515   4.860   3.105   2.603
 9206SOL     OW28516   0.546   6.874   3.236
 9206SOL    HW128517   0.492   6.798   3.274
 9206SOL    HW228518   0.642   6.848   3.232
 9207SOL     OW28519   4.180   6.497   6.928
 9207SOL    HW128520   4.253   6.560   6.900
 9207SOL    HW228521   4.185   6.415   6.871
 9208SOL     OW28522   4.641   4.719   2.547
 9208SOL    HW128523   4.545   4.732   2.572
 9208SOL    HW228524   4.661   4.774   2.465
 9209SOL     OW28525   3.894   0.849   2.960
 9209SOL    HW128526   3.948   0.770   2.990
 9209SOL    HW228527   3.873   0.840   2.863
 9210SOL     OW28528   1.367   0.062   0.729
 9210SOL    HW128529   1.312   0.095   0.653
 9210SOL    HW228530   1.326   7.001   0.766
 9211SOL     OW28531   4.843   1.532   6.449
 9211SOL    HW128532   4.892   1.577   6.375
 9211SOL    HW228533   4.879   1.439   6.462
 9212SOL     OW28534   5.882   3.644   4.944
 9212SOL    HW128535   5.908   3.645   5.040
 9212SOL    HW228536   5.950   3.594   4.891
 9213SOL     OW28537   6.330   6.819   2.425
 9213SOL    HW128538   6.318   6.814   2.524
 9213SOL    HW228539   6.407   6.878   2.403
 9214SOL     OW28540   1.764   2.518   5.546
 9214SOL    HW128541   1.751   2.422   5.572
 9214SOL    HW228542   1.693   2.574   5.587
 9215SOL     OW28543   0.689   2.655   2.637
 9215SOL    HW128544   0.630   2.680   2.714
 9215SOL    HW228545   0.776   2.622   2.672
 9216SOL     OW28546   2.687   5.733   4.910
 9216SOL    HW128547   2.762   5.719   4.845
 9216SOL    HW228548   2.724   5.745   5.002
 9217SOL     OW28549   4.569   1.297   6.087
 9217SOL    HW128550   4.575   1.273   6.183
 9217SOL    HW228551   4.524   1.223   6.037
 9218SOL     OW28552   6.359   5.257   6.642
 9218SOL    HW128553   6.366   5.336   6.581
 9218SOL    HW228554   6.264   5.245   6.671
 9219SOL     OW28555   3.787   2.861   5.495
 9219SOL    HW128556   3.749   2.832   5.407
 9219SOL    HW228557   3.833   2.783   5.539
 9220SOL     OW28558   0.964   6.467   3.773
 9220SOL    HW128559   1.054   6.479   3.814
 9220SOL    HW228560   0.969   6.396   3.702
 9221SOL     OW28561   2.432   1.317   1.015
 9221SOL    HW128562   2.459   1.388   1.079
 9221SOL    HW228563   2.399   1.359   0.930
 9222SOL     OW28564   1.751   3.114   3.922
 9222SOL    HW128565   1.699   3.029   3.931
 9222SOL    HW228566   1.693   3.191   3.947
 9223SOL     OW28567   0.556   3.180   4.918
 9223SOL    HW128568   0.607   3.109   4.869
 9223SOL    HW228569   0.550   3.155   5.015
 9224SOL     OW28570   2.221   4.327   3.648
 9224SOL    HW128571   2.282   4.398   3.613
 9224SOL    HW228572   2.142   4.318   3.588
 9225SOL     OW28573   5.273   6.011   6.563
 9225SOL    HW128574   5.277   5.924   6.514
 9225SOL    HW228575   5.180   6.047   6.560
 9226SOL     OW28576   0.759   0.968   0.900
 9226SOL    HW128577   0.732   0.872   0.910
 9226SOL    HW228578   0.830   0.989   0.967
 9227SOL     OW28579   2.328   4.657   0.746
 9227SOL    HW128580   2.366   4.564   0.746
 9227SOL    HW228581   2.330   4.694   0.839
 9228SOL     OW28582   3.513   3.098   5.561
 9228SOL    HW128583   3.576   3.022   5.577
 9228SOL    HW228584   3.565   3.180   5.538
 9229SOL     OW28585   0.031   5.106   0.080
 9229SOL    HW128586   0.003   5.011   0.084
 9229SOL    HW228587   6.973   5.165   0.076
 9230SOL     OW28588   4.494   1.667   5.037
 9230SOL    HW128589   4.416   1.622   4.994
 9230SOL    HW228590   4.577   1.647   4.985
 9231SOL     OW28591   6.875   5.539   3.621
 9231SOL    HW128592   6.848   5.445   3.640
 9231SOL    HW228593   6.900   5.548   3.524
 9232SOL     OW28594   1.434   5.013   2.541
 9232SOL    HW128595   1.489   5.064   2.608
 9232SOL    HW228596   1.399   5.077   2.472
 9233SOL     OW28597   0.632   6.612   6.678
 9233SOL    HW128598   0.725   6.638   6.705
 9233SOL    HW228599   0.617   6.515   6.697
 9234SOL     OW28600   2.204   4.026   0.613
 9234SOL    HW128601   2.236   4.041   0.519
 9234SOL    HW228602   2.242   3.940   0.648
 9235SOL     OW28603   2.085   2.206   3.518
 9235SOL    HW128604   2.147   2.204   3.440
 9235SOL    HW228605   2.115   2.276   3.583
 9236SOL     OW28606   2.863   3.747   6.671
 9236SOL    HW128607   2.937   3.747   6.605
 9236SOL    HW228608   2.862   3.661   6.721
 9237SOL     OW28609   5.536   4.684   2.972
 9237SOL    HW128610   5.614   4.648   3.023
 9237SOL    HW228611   5.463   4.709   3.035
 9238SOL     OW28612   1.754   2.716   5.094
 9238SOL    HW128613   1.676   2.654   5.086
 9238SOL    HW228614   1.803   2.697   5.179
 9239SOL     OW28615   1.237   4.976   0.024
 9239SOL    HW128616   1.243   4.906   6.975
 9239SOL    HW228617   1.321   5.031   0.024
 9240SOL     OW28618   4.131   2.258   2.665
 9240SOL    HW128619   4.181   2.335   2.704
 9240SOL    HW228620   4.046   2.244   2.716
 9241SOL     OW28621   6.027   6.271   1.181
 9241SOL    HW128622   5.989   6.181   1.203
 9241SOL    HW228623   6.093   6.298   1.252
 9242SOL     OW28624   1.162   2.661   0.477
 9242SOL    HW128625   1.125   2.576   0.513
 9242SOL    HW228626   1.088   2.726   0.459
 9243SOL     OW28627   1.016   0.880   0.276
 9243SOL    HW128628   1.104   0.834   0.285
 9243SOL    HW228629   0.942   0.813   0.282
 9244SOL     OW28630   3.138   6.627   5.451
 9244SOL    HW128631   3.143   6.638   5.550
 9244SOL    HW228632   3.231   6.617   5.414
 9245SOL     OW28633   1.124   4.593   3.785
 9245SOL    HW128634   1.061   4.670   3.790
 9245SOL    HW228635   1.203   4.612   3.844
 9246SOL     OW28636   6.562   0.322   6.110
 9246SOL    HW128637   6.491   0.295   6.045
 9246SOL    HW228638   6.535   0.408   6.153
 9247SOL     OW28639   3.659   6.715   3.004
 9247SOL    HW128640   3.583   6.655   3.027
 9247SOL    HW228641   3.625   6.792   2.948
 9248SOL     OW28642   2.473   1.430   6.463
 9248SOL    HW128643   2.566   1.434   6.426
 9248SOL    HW228644   2.423   1.513   6.437
 9249SOL     OW28645   3.733   5.727   0.919
 9249SOL    HW128646   3.733   5.827   0.924
 9249SOL    HW228647   3.739   5.690   1.012
 9250SOL     OW28648   0.544   2.860   3.769
 9250SOL    HW128649   0.618   2.800   3.737
 9250SOL    HW228650   0.461   2.840   3.716
 9251SOL     OW28651   2.927   2.851   1.417
 9251SOL    HW128652   2.916   2.753   1.430
 9251SOL    HW228653   2.996   2.868   1.346
 9252SOL     OW28654   4.832   2.111   5.800
 9252SOL    HW128655   4.886   2.086   5.719
 9252SOL    HW228656   4.750   2.160   5.771
 9253SOL     OW28657   1.081   5.249   5.313
 9253SOL    HW128658   1.036   5.191   5.380
 9253SOL    HW228659   1.014   5.311   5.272
 9254SOL     OW28660   0.099   4.758   2.982
 9254SOL    HW128661   0.186   4.791   2.945
 9254SOL    HW228662   0.064   4.825   3.048
 9255SOL     OW28663   6.862   4.493   0.539
 9255SOL    HW128664   6.953   4.467   0.508
 9255SOL    HW228665   6.868   4.531   0.632
 9256SOL     OW28666   2.086   6.414   2.044
 9256SOL    HW128667   2.077   6.481   2.118
 9256SOL    HW228668   2.167   6.434   1.990
 9257SOL     OW28669   6.508   6.045   3.795
 9257SOL    HW128670   6.479   5.994   3.714
 9257SOL    HW228671   6.517   5.981   3.872
 9258SOL     OW28672   3.743   5.187   1.196
 9258SOL    HW128673   3.728   5.187   1.097
 9258SOL    HW228674   3.689   5.114   1.238
 9259SOL     OW28675   2.062   1.385   0.053
 9259SOL    HW128676   2.161   1.390   0.044
 9259SOL    HW228677   2.033   1.290   0.050
 9260SOL     OW28678   6.143   3.943   5.100
 9260SOL    HW128679   6.101   3.855   5.123
 9260SOL    HW228680   6.083   4.018   5.131
 9261SOL     OW28681   3.697   2.441   1.704
 9261SOL    HW128682   3.788   2.480   1.697
 9261SOL    HW228683   3.691   2.384   1.786
 9262SOL     OW28684   6.084   5.960   4.760
 9262SOL    HW128685   6.140   6.042   4.751
 9262SOL    HW228686   6.098   5.921   4.851
 9263SOL     OW28687   1.913   4.195   4.321
 9263SOL    HW128688   1.846   4.122   4.312
 9263SOL    HW228689   2.003   4.156   4.340
 9264SOL     OW28690   4.355   4.221   0.043
 9264SOL    HW128691   4.428   4.204   0.109
 9264SOL    HW228692   4.395   4.237   6.975
 9265SOL     OW28693   6.123   2.269   0.295
 9265SOL    HW128694   6.141   2.367   0.302
 9265SOL    HW228695   6.112   2.230   0.387
 9266SOL     OW28696   1.123   4.435   1.397
 9266SOL    HW128697   1.108   4.534   1.395
 9266SOL    HW228698   1.188   4.410   1.326
 9267SOL     OW28699   6.139   0.857   4.518
 9267SOL    HW128700   6.214   0.793   4.539
 9267SOL    HW228701   6.108   0.900   4.602
 9268SOL     OW28702   0.741   0.312   1.857
 9268SOL    HW128703   0.668   0.380   1.846
 9268SOL    HW228704   0.728   0.262   1.943
 9269SOL     OW28705   3.911   1.120   0.231
 9269SOL    HW128706   4.004   1.152   0.217
 9269SOL    HW228707   3.876   1.156   0.318
 9270SOL     OW28708   1.973   0.149   6.163
 9270SOL    HW128709   1.997   0.110   6.251
 9270SOL    HW228710   1.926   0.237   6.177
 9271SOL     OW28711   1.232   6.679   4.768
 9271SOL    HW128712   1.291   6.602   4.744
 9271SOL    HW228713   1.241   6.699   4.865
 9272SOL     OW28714   6.443   6.534   6.000
 9272SOL    HW128715   6.396   6.584   5.927
 9272SOL    HW228716   6.520   6.588   6.033
 9273SOL     OW28717   4.876   4.776   4.184
 9273SOL    HW128718   4.782   4.804   4.165
 9273SOL    HW228719   4.931   4.786   4.102
 9274SOL     OW28720   0.749   2.694   0.298
 9274SOL    HW128721   0.664   2.742   0.276
 9274SOL    HW228722   0.728   2.607   0.344
 9275SOL     OW28723   0.132   0.533   0.071
 9275SOL    HW128724   0.070   0.610   0.056
 9275SOL    HW228725   0.147   0.484   7.008
 9276SOL     OW28726   2.489   5.302   0.485
 9276SOL    HW128727   2.537   5.365   0.424
 9276SOL    HW228728   2.444   5.231   0.432
 9277SOL     OW28729   5.019   5.802   1.692
 9277SOL    HW128730   5.010   5.708   1.658
 9277SOL    HW228731   5.058   5.860   1.621
 9278SOL     OW28732   1.158   0.441   5.315
 9278SOL    HW128733   1.142   0.535   5.347
 9278SOL    HW228734   1.073   0.389   5.323
 9279SOL     OW28735   4.419   5.792   1.514
 9279SOL    HW128736   4.454   5.828   1.601
 9279SOL    HW228737   4.354   5.718   1.533
 9280SOL     OW28738   1.486   6.889   2.487
 9280SOL    HW128739   1.406   6.890   2.547
 9280SOL    HW228740   1.468   6.945   2.406
 9281SOL     OW28741   2.443   5.373   0.153
 9281SOL    HW128742   2.539   5.390   0.175
 9281SOL    HW228743   2.416   5.428   0.074
 9282SOL     OW28744   2.724   6.795   4.923
 9282SOL    HW128745   2.785   6.830   4.994
 9282SOL    HW228746   2.638   6.846   4.924
 9283SOL     OW28747   4.265   6.124   0.687
 9283SOL    HW128748   4.278   6.223   0.699
 9283SOL    HW228749   4.352   6.081   0.667
 9284SOL     OW28750   3.294   3.886   4.918
 9284SOL    HW128751   3.377   3.891   4.864
 9284SOL    HW228752   3.239   3.808   4.889
 9285SOL     OW28753   0.682   5.024   2.755
 9285SOL    HW128754   0.657   5.037   2.659
 9285SOL    HW228755   0.704   4.928   2.771
 9286SOL     OW28756   4.419   6.283   1.387
 9286SOL    HW128757   4.393   6.378   1.398
 9286SOL    HW228758   4.367   6.242   1.312
 9287SOL     OW28759   3.706   4.637   6.302
 9287SOL    HW128760   3.712   4.545   6.263
 9287SOL    HW228761   3.797   4.680   6.302
 9288SOL     OW28762   3.702   1.975   2.560
 9288SOL    HW128763   3.696   2.050   2.495
 9288SOL    HW228764   3.646   1.997   2.641
 9289SOL     OW28765   4.927   6.435   0.473
 9289SOL    HW128766   4.981   6.454   0.391
 9289SOL    HW228767   4.869   6.514   0.494
 9290SOL     OW28768   4.372   0.768   3.992
 9290SOL    HW128769   4.385   0.867   3.994
 9290SOL    HW228770   4.435   0.728   3.926
 9291SOL     OW28771   1.090   4.937   6.186
 9291SOL    HW128772   1.163   4.981   6.134
 9291SOL    HW228773   1.005   4.990   6.177
 9292SOL     OW28774   1.197   1.156   6.377
 9292SOL    HW128775   1.200   1.074   6.434
 9292SOL    HW228776   1.196   1.130   6.281
 9293SOL     OW28777   4.915   2.655   4.599
 9293SOL    HW128778   5.013   2.675   4.601
 9293SOL    HW228779   4.869   2.705   4.672
 9294SOL     OW28780   4.544   1.044   0.026
 9294SOL    HW128781   4.450   1.035   7.015
 9294SOL    HW228782   4.604   1.069   6.972
 9295SOL     OW28783   0.661   1.315   5.108
 9295SOL    HW128784   0.578   1.311   5.164
 9295SOL    HW228785   0.703   1.405   5.117
 9296SOL     OW28786   1.577   4.566   0.396
 9296SOL    HW128787   1.608   4.518   0.313
 9296SOL    HW228788   1.507   4.633   0.371
 9297SOL     OW28789   5.658   5.886   2.396
 9297SOL    HW128790   5.735   5.822   2.404
 9297SOL    HW228791   5.681   5.957   2.331
 9298SOL     OW28792   1.502   5.246   6.709
 9298SOL    HW128793   1.535   5.275   6.799
 9298SOL    HW228794   1.496   5.326   6.649
 9299SOL     OW28795   1.858   2.850   4.722
 9299SOL    HW128796   1.804   2.912   4.666
 9299SOL    HW228797   1.880   2.893   4.810
 9300SOL     OW28798   1.495   5.066   5.307
 9300SOL    HW128799   1.571   5.054   5.244
 9300SOL    HW228800   1.530   5.091   5.398
 9301SOL     OW28801   0.382   4.333   5.010
 9301SOL    HW128802   0.478   4.315   4.990
 9301SOL    HW228803   0.326   4.256   4.978
 9302SOL     OW28804   2.339   3.484   5.358
 9302SOL    HW128805   2.285   3.501   5.276
 9302SOL    HW228806   2.402   3.560   5.373
 9303SOL     OW28807   2.417   4.407   0.851
 9303SOL    HW128808   2.506   4.366   0.866
 9303SOL    HW228809   2.390   4.458   0.933
 9304SOL     OW28810   4.110   5.358   0.228
 9304SOL    HW128811   4.028   5.396   0.184
 9304SOL    HW228812   4.085   5.320   0.317
 9305SOL     OW28813   1.964   1.801   1.478
 9305SOL    HW128814   2.049   1.766   1.438
 9305SOL    HW228815   1.915   1.726   1.521
 9306SOL     OW28816   6.433   5.506   4.704
 9306SOL    HW128817   6.373   5.584   4.683
 9306SOL    HW228818   6.526   5.526   4.672
 9307SOL     OW28819   2.678   2.984   1.724
 9307SOL    HW128820   2.603   2.939   1.773
 9307SOL    HW228821   2.667   2.969   1.626
 9308SOL     OW28822   2.202   3.883   2.165
 9308SOL    HW128823   2.156   3.836   2.089
 9308SOL    HW228824   2.286   3.833   2.188
 9309SOL     OW28825   4.718   5.513   6.249
 9309SOL    HW128826   4.711   5.538   6.345
 9309SOL    HW228827   4.697   5.592   6.192
 9310SOL     OW28828   6.105   5.963   0.183
 9310SOL    HW128829   6.032   5.935   0.246
 9310SOL    HW228830   6.118   5.892   0.114
 9311SOL     OW28831   4.774   3.771   1.789
 9311SOL    HW128832   4.743   3.864   1.808
 9311SOL    HW228833   4.696   3.715   1.760
 9312SOL     OW28834   0.314   2.810   2.573
 9312SOL    HW128835   0.309   2.768   2.483
 9312SOL    HW228836   0.286   2.744   2.643
 9313SOL     OW28837   0.112   0.533   2.083
 9313SOL    HW128838   0.114   0.600   2.157
 9313SOL    HW228839   0.142   0.575   1.998
 9314SOL     OW28840   5.196   3.642   0.675
 9314SOL    HW128841   5.182   3.556   0.626
 9314SOL    HW228842   5.107   3.677   0.706
 9315SOL     OW28843   5.125   0.403   6.048
 9315SOL    HW128844   5.213   0.448   6.035
 9315SOL    HW228845   5.074   0.452   6.119
 9316SOL     OW28846   4.288   0.564   5.596
 9316SOL    HW128847   4.253   0.533   5.507
 9316SOL    HW228848   4.260   0.501   5.667
 9317SOL     OW28849   3.405   6.619   3.264
 9317SOL    HW128850   3.364   6.592   3.177
 9317SOL    HW228851   3.475   6.552   3.289
 9318SOL     OW28852   4.502   6.275   1.663
 9318SOL    HW128853   4.456   6.306   1.580
 9318SOL    HW228854   4.434   6.244   1.730
 9319SOL     OW28855   2.508   3.435   0.522
 9319SOL    HW128856   2.482   3.359   0.462
 9319SOL    HW228857   2.493   3.409   0.617
 9320SOL     OW28858   6.673   6.373   6.896
 9320SOL    HW128859   6.727   6.403   6.975
 9320SOL    HW228860   6.684   6.440   6.822
 9321SOL     OW28861   0.727   3.415   4.919
 9321SOL    HW128862   0.663   3.350   4.878
 9321SOL    HW228863   0.680   3.468   4.990
 9322SOL     OW28864   5.698   3.285   6.431
 9322SOL    HW128865   5.781   3.266   6.483
 9322SOL    HW228866   5.645   3.201   6.420
 9323SOL     OW28867   1.191   2.190   5.271
 9323SOL    HW128868   1.274   2.237   5.299
 9323SOL    HW228869   1.170   2.118   5.338
 9324SOL     OW28870   0.768   4.723   1.975
 9324SOL    HW128871   0.749   4.628   2.001
 9324SOL    HW228872   0.731   4.741   1.884
 9325SOL     OW28873   0.990   4.595   3.504
 9325SOL    HW128874   1.006   4.523   3.437
 9325SOL    HW228875   0.894   4.594   3.531
 9326SOL     OW28876   4.539   4.869   1.836
 9326SOL    HW128877   4.595   4.806   1.889
 9326SOL    HW228878   4.499   4.820   1.758
 9327SOL     OW28879   3.906   0.892   3.772
 9327SOL    HW128880   3.983   0.905   3.835
 9327SOL    HW228881   3.928   0.818   3.708
 9328SOL     OW28882   2.618   6.821   4.254
 9328SOL    HW128883   2.716   6.833   4.273
 9328SOL    HW228884   2.570   6.907   4.274
 9329SOL     OW28885   0.377   5.473   6.552
 9329SOL    HW128886   0.328   5.420   6.621
 9329SOL    HW228887   0.334   5.458   6.463
 9330SOL     OW28888   6.591   6.047   6.302
 9330SOL    HW128889   6.507   6.087   6.264
 9330SOL    HW228890   6.658   6.036   6.229
 9331SOL     OW28891   1.777   3.360   4.802
 9331SOL    HW128892   1.774   3.325   4.708
 9331SOL    HW228893   1.814   3.453   4.801
 9332SOL     OW28894   4.475   6.151   0.909
 9332SOL    HW128895   4.554   6.110   0.861
 9332SOL    HW228896   4.429   6.080   0.962
 9333SOL     OW28897   4.072   4.151   1.010
 9333SOL    HW128898   4.013   4.146   1.091
 9333SOL    HW228899   4.064   4.066   0.957
 9334SOL     OW28900   5.879   5.817   5.840
 9334SOL    HW128901   5.961   5.825   5.897
 9334SOL    HW228902   5.802   5.787   5.898
 9335SOL     OW28903   1.226   3.445   1.549
 9335SOL    HW128904   1.322   3.466   1.566
 9335SOL    HW228905   1.217   3.397   1.461
 9336SOL     OW28906   5.854   6.853   5.236
 9336SOL    HW128907   5.923   6.851   5.164
 9336SOL    HW228908   5.808   6.765   5.240
 9337SOL     OW28909   2.417   0.301   6.528
 9337SOL    HW128910   2.459   0.249   6.454
 9337SOL    HW228911   2.485   0.316   6.601
 9338SOL     OW28912   5.347   6.503   0.559
 9338SOL    HW128913   5.445   6.513   0.541
 9338SOL    HW228914   5.296   6.563   0.498
 9339SOL     OW28915   6.098   3.562   5.510
 9339SOL    HW128916   6.039   3.546   5.430
 9339SOL    HW228917   6.081   3.654   5.546
 9340SOL     OW28918   4.018   5.872   1.580
 9340SOL    HW128919   3.981   5.964   1.592
 9340SOL    HW228920   4.052   5.862   1.486
 9341SOL     OW28921   5.129   4.326   6.967
 9341SOL    HW128922   5.109   4.284   0.033
 9341SOL    HW228923   5.065   4.402   6.951
 9342SOL     OW28924   3.135   0.552   4.346
 9342SOL    HW128925   3.169   0.640   4.380
 9342SOL    HW228926   3.037   0.559   4.329
 9343SOL     OW28927   4.520   4.018   1.541
 9343SOL    HW128928   4.592   4.053   1.481
 9343SOL    HW228929   4.558   3.998   1.631
 9344SOL     OW28930   6.097   5.847   5.352
 9344SOL    HW128931   6.048   5.861   5.438
 9344SOL    HW228932   6.032   5.821   5.281
 9345SOL     OW28933   0.562   6.067   0.543
 9345SOL    HW128934   0.498   6.136   0.510
 9345SOL    HW228935   0.568   6.072   0.643
 9346SOL     OW28936   6.088   5.797   0.640
 9346SOL    HW128937   6.069   5.778   0.544
 9346SOL    HW228938   6.008   5.839   0.683
 9347SOL     OW28939   3.657   5.483   0.835
 9347SOL    HW128940   3.703   5.571   0.847
 9347SOL    HW228941   3.597   5.487   0.755
 9348SOL     OW28942   2.984   5.982   1.711
 9348SOL    HW128943   3.070   5.970   1.760
 9348SOL    HW228944   2.995   5.950   1.617
 9349SOL     OW28945   6.315   5.890   1.697
 9349SOL    HW128946   6.378   5.946   1.643
 9349SOL    HW228947   6.365   5.842   1.769
 9350SOL     OW28948   6.916   0.471   5.897
 9350SOL    HW128949   6.950   0.527   5.821
 9350SOL    HW228950   6.841   0.518   5.942
 9351SOL     OW28951   3.199   1.848   6.398
 9351SOL    HW128952   3.289   1.891   6.390
 9351SOL    HW228953   3.209   1.749   6.402
 9352SOL     OW28954   3.580   2.532   5.933
 9352SOL    HW128955   3.622   2.590   6.002
 9352SOL    HW228956   3.481   2.546   5.933
 9353SOL     OW28957   0.749   3.007   1.334
 9353SOL    HW128958   0.670   3.065   1.314
 9353SOL    HW228959   0.802   3.048   1.408
 9354SOL     OW28960   5.037   2.228   1.665
 9354SOL    HW128961   5.021   2.320   1.702
 9354SOL    HW228962   4.999   2.223   1.572
 9355SOL     OW28963   6.954   0.482   3.286
 9355SOL    HW128964   6.957   0.474   3.386
 9355SOL    HW228965   6.965   0.391   3.246
 9356SOL     OW28966   4.348   4.720   2.392
 9356SOL    HW128967   4.410   4.757   2.323
 9356SOL    HW228968   4.372   4.624   2.410
 9357SOL     OW28969   3.585   2.632   1.230
 9357SOL    HW128970   3.560   2.588   1.317
 9357SOL    HW228971   3.547   2.579   1.154
 9358SOL     OW28972   6.381   4.814   2.248
 9358SOL    HW128973   6.367   4.848   2.341
 9358SOL    HW228974   6.457   4.864   2.206
 9359SOL     OW28975   6.490   3.923   5.921
 9359SOL    HW128976   6.563   3.951   5.859
 9359SOL    HW228977   6.521   3.932   6.016
 9360SOL     OW28978   2.379   1.044   0.146
 9360SOL    HW128979   2.401   1.111   0.217
 9360SOL    HW228980   2.397   0.952   0.181
 9361SOL     OW28981   2.754   6.752   2.252
 9361SOL    HW128982   2.806   6.769   2.336
 9361SOL    HW228983   2.818   6.740   2.175
 9362SOL     OW28984   2.080   1.000   2.747
 9362SOL    HW128985   2.011   0.934   2.717
 9362SOL    HW228986   2.065   1.087   2.701
 9363SOL     OW28987   3.353   5.480   2.119
 9363SOL    HW128988   3.436   5.447   2.164
 9363SOL    HW228989   3.274   5.464   2.179
 9364SOL     OW28990   4.386   4.006   0.535
 9364SOL    HW128991   4.421   3.962   0.453
 9364SOL    HW228992   4.439   4.090   0.553
 9365SOL     OW28993   2.839   1.989   4.571
 9365SOL    HW128994   2.906   2.057   4.602
 9365SOL    HW228995   2.879   1.897   4.578
 9366SOL     OW28996   2.711   1.834   0.993
 9366SOL    HW128997   2.789   1.794   0.943
 9366SOL    HW228998   2.743   1.913   1.046
 9367SOL     OW28999   6.912   5.841   2.864
 9367SOL    HW129000   6.835   5.816   2.923
 9367SOL    HW229001   6.938   5.936   2.882
 9368SOL     OW29002   2.964   1.802   1.853
 9368SOL    HW129003   2.957   1.826   1.950
 9368SOL    HW229004   3.026   1.866   1.808
 9369SOL     OW29005   6.957   2.107   4.653
 9369SOL    HW129006   6.934   2.038   4.585
 9369SOL    HW229007   6.896   2.185   4.644
 9370SOL     OW29008   5.982   0.967   2.876
 9370SOL    HW129009   6.058   0.910   2.844
 9370SOL    HW229010   5.974   1.047   2.816
 9371SOL     OW29011   0.392   6.289   0.480
 9371SOL    HW129012   0.316   6.353   0.471
 9371SOL    HW229013   0.478   6.340   0.480
 9372SOL     OW29014   5.971   6.368   4.392
 9372SOL    HW129015   5.921   6.444   4.349
 9372SOL    HW229016   5.999   6.395   4.484
 9373SOL     OW29017   3.809   1.696   3.661
 9373SOL    HW129018   3.715   1.717   3.633
 9373SOL    HW229019   3.858   1.780   3.679
 9374SOL     OW29020   5.073   3.338   0.176
 9374SOL    HW129021   5.139   3.272   0.141
 9374SOL    HW229022   5.102   3.431   0.154
 9375SOL     OW29023   0.309   1.425   3.255
 9375SOL    HW129024   0.385   1.362   3.275
 9375SOL    HW229025   0.343   1.519   3.255
 9376SOL     OW29026   2.413   3.433   1.403
 9376SOL    HW129027   2.373   3.468   1.488
 9376SOL    HW229028   2.476   3.358   1.425
 9377SOL     OW29029   6.136   5.617   3.787
 9377SOL    HW129030   6.077   5.542   3.818
 9377SOL    HW229031   6.108   5.644   3.694
 9378SOL     OW29032   2.263   0.014   0.534
 9378SOL    HW129033   2.337   0.035   0.470
 9378SOL    HW229034   2.177   0.005   0.485
 9379SOL     OW29035   4.776   5.065   4.277
 9379SOL    HW129036   4.704   5.094   4.340
 9379SOL    HW229037   4.735   5.028   4.194
 9380SOL     OW29038   5.911   0.195   5.392
 9380SOL    HW129039   5.831   0.158   5.345
 9380SOL    HW229040   5.883   0.236   5.478
 9381SOL     OW29041   2.160   1.531   5.589
 9381SOL    HW129042   2.245   1.500   5.631
 9381SOL    HW229043   2.176   1.555   5.494
 9382SOL     OW29044   4.534   2.068   2.497
 9382SOL    HW129045   4.557   2.071   2.399
 9382SOL    HW229046   4.436   2.082   2.508
 9383SOL     OW29047   4.027   6.589   4.348
 9383SOL    HW129048   3.956   6.531   4.387
 9383SOL    HW229049   4.058   6.655   4.417
 9384SOL     OW29050   5.068   6.357   2.610
 9384SOL    HW129051   5.078   6.320   2.517
 9384SOL    HW229052   4.994   6.308   2.657
 9385SOL     OW29053   3.845   1.352   3.141
 9385SOL    HW129054   3.766   1.290   3.136
 9385SOL    HW229055   3.886   1.345   3.232
 9386SOL     OW29056   2.709   6.648   5.694
 9386SOL    HW129057   2.624   6.660   5.643
 9386SOL    HW229058   2.713   6.555   5.731
 9387SOL     OW29059   3.254   6.633   0.648
 9387SOL    HW129060   3.196   6.555   0.627
 9387SOL    HW229061   3.312   6.612   0.727
 9388SOL     OW29062   0.359   0.752   2.825
 9388SOL    HW129063   0.388   0.824   2.888
 9388SOL    HW229064   0.378   0.781   2.731
 9389SOL     OW29065   2.698   0.932   5.835
 9389SOL    HW129066   2.699   1.006   5.903
 9389SOL    HW229067   2.603   0.911   5.810
 9390SOL     OW29068   2.792   5.403   2.220
 9390SOL    HW129069   2.719   5.470   2.228
 9390SOL    HW229070   2.878   5.444   2.252
 9391SOL     OW29071   0.399   1.183   5.493
 9391SOL    HW129072   0.395   1.085   5.512
 9391SOL    HW229073   0.482   1.221   5.534
 9392SOL     OW29074   1.893   6.147   4.944
 9392SOL    HW129075   1.895   6.164   5.043
 9392SOL    HW229076   1.835   6.216   4.900
 9393SOL     OW29077   3.476   2.198   5.360
 9393SOL    HW129078   3.466   2.192   5.261
 9393SOL    HW229079   3.386   2.187   5.403
 9394SOL     OW29080   6.020   3.020   2.687
 9394SOL    HW129081   6.081   3.090   2.648
 9394SOL    HW229082   5.978   3.056   2.770
 9395SOL     OW29083   2.436   3.196   1.067
 9395SOL    HW129084   2.409   3.160   0.978
 9395SOL    HW229085   2.356   3.236   1.112
 9396SOL     OW29086   6.148   6.892   6.009
 9396SOL    HW129087   6.078   6.875   6.079
 9396SOL    HW229088   6.108   6.948   5.936
 9397SOL     OW29089   2.600   6.904   0.690
 9397SOL    HW129090   2.619   6.991   0.646
 9397SOL    HW229091   2.562   6.920   0.782
 9398SOL     OW29092   2.818   1.653   6.499
 9398SOL    HW129093   2.840   1.586   6.429
 9398SOL    HW229094   2.785   1.737   6.456
 9399SOL     OW29095   0.030   0.836   5.803
 9399SOL    HW129096   0.106   0.852   5.867
 9399SOL    HW229097   0.028   0.739   5.779
 9400SOL     OW29098   5.528   3.370   2.486
 9400SOL    HW129099   5.559   3.327   2.401
 9400SOL    HW229100   5.604   3.416   2.530
 9401SOL     OW29101   2.814   6.045   3.332
 9401SOL    HW129102   2.911   6.035   3.311
 9401SOL    HW229103   2.793   5.998   3.417
 9402SOL     OW29104   2.462   5.133   6.386
 9402SOL    HW129105   2.396   5.080   6.440
 9402SOL    HW229106   2.502   5.204   6.443
 9403SOL     OW29107   5.355   1.384   3.673
 9403SOL    HW129108   5.263   1.402   3.706
 9403SOL    HW229109   5.414   1.461   3.694
 9404SOL     OW29110   1.484   4.898   6.625
 9404SOL    HW129111   1.455   4.994   6.632
 9404SOL    HW229112   1.440   4.856   6.545
 9405SOL     OW29113   6.201   0.054   0.950
 9405SOL    HW129114   6.152   0.135   0.984
 9405SOL    HW229115   6.228   0.070   0.855
 9406SOL     OW29116   0.379   1.116   4.865
 9406SOL    HW129117   0.347   1.026   4.836
 9406SOL    HW229118   0.302   1.179   4.871
 9407SOL     OW29119   2.885   5.851   3.003
 9407SOL    HW129120   2.967   5.796   2.987
 9407SOL    HW229121   2.847   5.828   3.092
 9408SOL     OW29122   3.827   1.590   6.320
 9408SOL    HW129123   3.743   1.635   6.290
 9408SOL    HW229124   3.839   1.604   6.418
 9409SOL     OW29125   5.786   3.428   4.143
 9409SOL    HW129126   5.687   3.414   4.141
 9409SOL    HW229127   5.813   3.460   4.234
 9410SOL     OW29128   4.513   6.215   2.673
 9410SOL    HW129129   4.568   6.294   2.701
 9410SOL    HW229130   4.422   6.222   2.712
 9411SOL     OW29131   4.276   5.731   0.571
 9411SOL    HW129132   4.349   5.753   0.635
 9411SOL    HW229133   4.313   5.724   0.478
 9412SOL     OW29134   6.975   2.722   1.461
 9412SOL    HW129135   6.910   2.661   1.506
 9412SOL    HW229136   0.004   2.671   1.392
 9413SOL     OW29137   4.146   6.019   5.343
 9413SOL    HW129138   4.165   6.094   5.279
 9413SOL    HW229139   4.228   5.999   5.396
 9414SOL     OW29140   3.052   1.368   2.318
 9414SOL    HW129141   3.129   1.425   2.347
 9414SOL    HW229142   3.084   1.275   2.299
 9415SOL     OW29143   1.877   6.352   2.729
 9415SOL    HW129144   1.841   6.427   2.785
 9415SOL    HW229145   1.826   6.348   2.643
 9416SOL     OW29146   1.386   1.947   2.029
 9416SOL    HW129147   1.338   1.913   1.949
 9416SOL    HW229148   1.323   1.956   2.106
 9417SOL     OW29149   2.359   5.440   5.751
 9417SOL    HW129150   2.379   5.372   5.821
 9417SOL    HW229151   2.337   5.527   5.795
 9418SOL     OW29152   2.190   4.684   1.295
 9418SOL    HW129153   2.105   4.726   1.264
 9418SOL    HW229154   2.266   4.718   1.240
 9419SOL     OW29155   3.071   6.636   4.980
 9419SOL    HW129156   3.018   6.624   4.896
 9419SOL    HW229157   3.153   6.689   4.960
 9420SOL     OW29158   7.006   1.245   4.975
 9420SOL    HW129159   0.013   1.182   5.047
 9420SOL    HW229160   0.034   1.226   4.891
 9421SOL     OW29161   0.609   4.230   5.591
 9421SOL    HW129162   0.531   4.293   5.600
 9421SOL    HW229163   0.694   4.281   5.601
 9422SOL     OW29164   5.466   0.208   2.199
 9422SOL    HW129165   5.557   0.175   2.176
 9422SOL    HW229166   5.414   0.225   2.116
 9423SOL     OW29167   3.728   0.714   3.890
 9423SOL    HW129168   3.757   0.675   3.977
 9423SOL    HW229169   3.807   0.752   3.842
 9424SOL     OW29170   3.907   6.962   4.873
 9424SOL    HW129171   3.883   6.997   4.782
 9424SOL    HW229172   3.827   6.967   4.933
 9425SOL     OW29173   1.289   3.862   5.121
 9425SOL    HW129174   1.247   3.846   5.032
 9425SOL    HW229175   1.272   3.957   5.149
 9426SOL     OW29176   3.215   0.594   6.672
 9426SOL    HW129177   3.123   0.556   6.662
 9426SOL    HW229178   3.283   0.524   6.650
 9427SOL     OW29179   2.721   5.039   5.316
 9427SOL    HW129180   2.745   4.957   5.264
 9427SOL    HW229181   2.718   5.118   5.255
 9428SOL     OW29182   5.939   0.370   3.116
 9428SOL    HW129183   6.024   0.374   3.063
 9428SOL    HW229184   5.923   0.276   3.148
 9429SOL     OW29185   0.854   4.075   2.237
 9429SOL    HW129186   0.770   4.126   2.254
 9429SOL    HW229187   0.840   3.979   2.260
 9430SOL     OW29188   6.953   6.316   1.827
 9430SOL    HW129189   6.966   6.320   1.728
 9430SOL    HW229190   0.017   6.294   1.871
 9431SOL     OW29191   0.004   4.006   0.677
 9431SOL    HW129192   6.995   3.921   0.719
 9431SOL    HW229193   7.019   3.999   0.577
 9432SOL     OW29194   6.194   0.263   3.035
 9432SOL    HW129195   6.239   0.178   3.008
 9432SOL    HW229196   6.180   0.264   3.134
 9433SOL     OW29197   3.504   4.763   5.326
 9433SOL    HW129198   3.436   4.772   5.253
 9433SOL    HW229199   3.503   4.845   5.384
 9434SOL     OW29200   5.676   4.662   2.424
 9434SOL    HW129201   5.665   4.760   2.409
 9434SOL    HW229202   5.701   4.645   2.519
 9435SOL     OW29203   1.565   1.246   4.504
 9435SOL    HW129204   1.519   1.235   4.592
 9435SOL    HW229205   1.514   1.197   4.433
 9436SOL     OW29206   2.407   3.635   0.340
 9436SOL    HW129207   2.478   3.706   0.342
 9436SOL    HW229208   2.424   3.568   0.412
 9437SOL     OW29209   1.726   5.157   3.697
 9437SOL    HW129210   1.821   5.178   3.721
 9437SOL    HW229211   1.696   5.076   3.746
 9438SOL     OW29212   0.713   6.606   2.149
 9438SOL    HW129213   0.667   6.550   2.080
 9438SOL    HW229214   0.784   6.552   2.194
 9439SOL     OW29215   0.191   3.141   2.172
 9439SOL    HW129216   0.237   3.080   2.108
 9439SOL    HW229217   0.253   3.215   2.198
 9440SOL     OW29218   4.884   6.248   5.774
 9440SOL    HW129219   4.982   6.237   5.757
 9440SOL    HW229220   4.835   6.169   5.737
 9441SOL     OW29221   2.028   5.070   5.152
 9441SOL    HW129222   2.046   4.988   5.098
 9441SOL    HW229223   1.950   5.119   5.112
 9442SOL     OW29224   6.707   2.744   0.295
 9442SOL    HW129225   6.751   2.816   0.348
 9442SOL    HW229226   6.749   2.656   0.315
 9443SOL     OW29227   1.807   4.204   0.849
 9443SOL    HW129228   1.751   4.165   0.922
 9443SOL    HW229229   1.900   4.219   0.883
 9444SOL     OW29230   0.417   3.114   0.085
 9444SOL    HW129231   0.434   3.208   0.112
 9444SOL    HW229232   0.453   3.052   0.155
 9445SOL     OW29233   5.529   4.014   2.130
 9445SOL    HW129234   5.564   3.933   2.177
 9445SOL    HW229235   5.461   4.060   2.187
 9446SOL     OW29236   6.243   6.247   2.125
 9446SOL    HW129237   6.243   6.265   2.224
 9446SOL    HW229238   6.271   6.329   2.076
 9447SOL     OW29239   5.217   3.756   2.002
 9447SOL    HW129240   5.243   3.663   1.976
 9447SOL    HW229241   5.120   3.758   2.027
 9448SOL     OW29242   5.876   6.428   0.408
 9448SOL    HW129243   5.862   6.434   0.506
 9448SOL    HW229244   5.973   6.414   0.389
 9449SOL     OW29245   5.793   5.209   5.720
 9449SOL    HW129246   5.866   5.182   5.657
 9449SOL    HW229247   5.770   5.305   5.705
 9450SOL     OW29248   2.930   5.156   4.238
 9450SOL    HW129249   2.990   5.174   4.316
 9450SOL    HW229250   2.853   5.220   4.239
 9451SOL     OW29251   4.100   5.645   6.669
 9451SOL    HW129252   4.040   5.721   6.692
 9451SOL    HW229253   4.121   5.648   6.571
 9452SOL     OW29254   2.278   3.977   1.474
 9452SOL    HW129255   2.180   3.974   1.455
 9452SOL    HW229256   2.299   3.915   1.549
 9453SOL     OW29257   2.439   5.243   2.748
 9453SOL    HW129258   2.358   5.276   2.699
 9453SOL    HW229259   2.454   5.147   2.726
 9454SOL     OW29260   1.443   3.918   5.914
 9454SOL    HW129261   1.541   3.929   5.901
 9454SOL    HW229262   1.407   3.850   5.851
 9455SOL     OW29263   3.492   1.078   2.837
 9455SOL    HW129264   3.479   1.058   2.934
 9455SOL    HW229265   3.508   1.176   2.825
 9456SOL     OW29266   1.126   3.542   0.851
 9456SOL    HW129267   1.077   3.501   0.775
 9456SOL    HW229268   1.115   3.642   0.848
 9457SOL     OW29269   1.619   3.080   0.153
 9457SOL    HW129270   1.611   3.160   0.212
 9457SOL    HW229271   1.612   2.997   0.208
 9458SOL     OW29272   6.628   5.168   5.516
 9458SOL    HW129273   6.713   5.218   5.537
 9458SOL    HW229274   6.590   5.130   5.600
 9459SOL     OW29275   6.308   5.475   1.490
 9459SOL    HW129276   6.264   5.549   1.541
 9459SOL    HW229277   6.333   5.508   1.399
 9460SOL     OW29278   0.877   1.701   4.870
 9460SOL    HW129279   0.935   1.761   4.815
 9460SOL    HW229280   0.781   1.719   4.848
 9461SOL     OW29281   0.936   0.841   3.333
 9461SOL    HW129282   0.980   0.751   3.329
 9461SOL    HW229283   0.856   0.842   3.274
 9462SOL     OW29284   0.980   3.298   2.152
 9462SOL    HW129285   1.068   3.341   2.167
 9462SOL    HW229286   0.977   3.209   2.199
 9463SOL     OW29287   6.325   1.221   0.246
 9463SOL    HW129288   6.332   1.180   0.155
 9463SOL    HW229289   6.329   1.321   0.237
 9464SOL     OW29290   5.933   6.846   6.212
 9464SOL    HW129291   5.894   6.861   6.303
 9464SOL    HW229292   5.892   6.765   6.171
 9465SOL     OW29293   6.437   0.320   3.654
 9465SOL    HW129294   6.387   0.265   3.721
 9465SOL    HW229295   6.535   0.319   3.675
 9466SOL     OW29296   2.526   3.019   5.889
 9466SOL    HW129297   2.460   3.003   5.815
 9466SOL    HW229298   2.598   2.950   5.885
 9467SOL     OW29299   1.935   2.475   2.139
 9467SOL    HW129300   2.013   2.418   2.166
 9467SOL    HW229301   1.893   2.514   2.220
 9468SOL     OW29302   6.624   2.770   5.719
 9468SOL    HW129303   6.630   2.793   5.816
 9468SOL    HW229304   6.537   2.802   5.682
 9469SOL     OW29305   6.469   5.865   2.140
 9469SOL    HW129306   6.462   5.958   2.174
 9469SOL    HW229307   6.415   5.804   2.197
 9470SOL     OW29308   4.870   3.732   0.259
 9470SOL    HW129309   4.842   3.635   0.262
 9470SOL    HW229310   4.790   3.788   0.236
 9471SOL     OW29311   6.970   2.308   5.885
 9471SOL    HW129312   7.010   2.293   5.975
 9471SOL    HW229313   6.996   2.398   5.851
 9472SOL     OW29314   5.865   4.342   4.802
 9472SOL    HW129315   5.960   4.334   4.830
 9472SOL    HW229316   5.859   4.388   4.713
 9473SOL     OW29317   2.696   5.879   5.804
 9473SOL    HW129318   2.731   5.931   5.882
 9473SOL    HW229319   2.732   5.786   5.806
 9474SOL     OW29320   4.791   4.814   2.156
 9474SOL    HW129321   4.863   4.849   2.216
 9474SOL    HW229322   4.704   4.813   2.206
 9475SOL     OW29323   3.159   3.834   1.133
 9475SOL    HW129324   3.212   3.872   1.208
 9475SOL    HW229325   3.216   3.771   1.080
 9476SOL     OW29326   4.104   3.518   5.336
 9476SOL    HW129327   4.058   3.559   5.415
 9476SOL    HW229328   4.171   3.583   5.300
 9477SOL     OW29329   1.146   2.468   0.961
 9477SOL    HW129330   1.092   2.468   0.877
 9477SOL    HW229331   1.092   2.509   1.035
 9478SOL     OW29332   5.929   4.738   5.518
 9478SOL    HW129333   5.834   4.710   5.531
 9478SOL    HW229334   5.940   4.775   5.425
 9479SOL     OW29335   6.033   5.677   6.592
 9479SOL    HW129336   6.068   5.742   6.660
 9479SOL    HW229337   6.093   5.679   6.512
 9480SOL     OW29338   5.395   4.529   6.834
 9480SOL    HW129339   5.391   4.461   6.761
 9480SOL    HW229340   5.343   4.496   6.913
 9481SOL     OW29341   0.182   4.382   1.549
 9481SOL    HW129342   0.100   4.328   1.532
 9481SOL    HW229343   0.259   4.322   1.569
 9482SOL     OW29344   4.617   0.825   2.333
 9482SOL    HW129345   4.688   0.772   2.380
 9482SOL    HW229346   4.592   0.903   2.389
 9483SOL     OW29347   1.920   1.792   0.888
 9483SOL    HW129348   1.866   1.836   0.816
 9483SOL    HW229349   1.879   1.813   0.978
 9484SOL     OW29350   6.153   1.181   3.794
 9484SOL    HW129351   6.099   1.257   3.756
 9484SOL    HW229352   6.104   1.095   3.780
 9485SOL     OW29353   0.974   1.179   2.786
 9485SOL    HW129354   0.969   1.099   2.846
 9485SOL    HW229355   1.024   1.156   2.703
 9486SOL     OW29356   2.675   5.536   1.015
 9486SOL    HW129357   2.676   5.593   1.097
 9486SOL    HW229358   2.734   5.577   0.945
 9487SOL     OW29359   3.131   4.018   3.445
 9487SOL    HW129360   3.204   3.967   3.401
 9487SOL    HW229361   3.116   3.982   3.537
 9488SOL     OW29362   2.084   6.268   1.078
 9488SOL    HW129363   2.051   6.247   0.986
 9488SOL    HW229364   2.026   6.340   1.118
 9489SOL     OW29365   4.304   4.582   1.339
 9489SOL    HW129366   4.247   4.514   1.386
 9489SOL    HW229367   4.284   4.580   1.241
 9490SOL     OW29368   5.551   0.777   0.950
 9490SOL    HW129369   5.529   0.716   1.026
 9490SOL    HW229370   5.607   0.852   0.982
 9491SOL     OW29371   6.218   5.227   3.972
 9491SOL    HW129372   6.203   5.232   3.874
 9491SOL    HW229373   6.130   5.229   4.020
 9492SOL     OW29374   3.254   3.890   1.937
 9492SOL    HW129375   3.164   3.932   1.947
 9492SOL    HW229376   3.324   3.956   1.966
 9493SOL     OW29377   4.565   5.921   2.952
 9493SOL    HW129378   4.509   5.881   2.879
 9493SOL    HW229379   4.659   5.889   2.944
 9494SOL     OW29380   5.351   3.442   0.040
 9494SOL    HW129381   5.311   3.358   0.002
 9494SOL    HW229382   5.369   3.506   6.988
 9495SOL     OW29383   6.312   1.884   4.705
 9495SOL    HW129384   6.245   1.895   4.631
 9495SOL    HW229385   6.321   1.969   4.755
 9496SOL     OW29386   5.445   4.345   0.074
 9496SOL    HW129387   5.482   4.438   0.085
 9496SOL    HW229388   5.446   4.321   6.999
 9497SOL     OW29389   5.242   4.918   0.513
 9497SOL    HW129390   5.338   4.905   0.536
 9497SOL    HW229391   5.218   5.015   0.524
 9498SOL     OW29392   3.704   6.814   5.460
 9498SOL    HW129393   3.703   6.878   5.383
 9498SOL    HW229394   3.639   6.740   5.443
 9499SOL     OW29395   2.976   3.549   5.249
 9499SOL    HW129396   2.906   3.483   5.219
 9499SOL    HW229397   3.052   3.500   5.292
 9500SOL     OW29398   4.294   6.155   1.801
 9500SOL    HW129399   4.266   6.130   1.894
 9500SOL    HW229400   4.224   6.214   1.760
 9501SOL     OW29401   3.652   1.800   4.743
 9501SOL    HW129402   3.734   1.743   4.748
 9501SOL    HW229403   3.574   1.748   4.779
 9502SOL     OW29404   6.342   2.031   5.098
 9502SOL    HW129405   6.400   1.954   5.126
 9502SOL    HW229406   6.313   2.019   5.003
 9503SOL     OW29407   0.343   0.048   1.887
 9503SOL    HW129408   0.345   0.147   1.874
 9503SOL    HW229409   0.250   0.015   1.868
 9504SOL     OW29410   0.116   2.632   0.613
 9504SOL    HW129411   0.169   2.603   0.692
 9504SOL    HW229412   0.126   2.564   0.540
 9505SOL     OW29413   6.425   3.666   2.797
 9505SOL    HW129414   6.335   3.676   2.840
 9505SOL    HW229415   6.446   3.570   2.785
 9506SOL     OW29416   6.966   3.529   6.871
 9506SOL    HW129417   0.012   3.593   6.908
 9506SOL    HW229418   6.973   3.528   6.771
 9507SOL     OW29419   1.343   1.770   3.919
 9507SOL    HW129420   1.428   1.751   3.968
 9507SOL    HW229421   1.344   1.723   3.831
 9508SOL     OW29422   5.761   1.959   0.535
 9508SOL    HW129423   5.824   1.959   0.612
 9508SOL    HW229424   5.777   2.039   0.478
 9509SOL     OW29425   1.996   6.344   5.418
 9509SOL    HW129426   2.057   6.269   5.391
 9509SOL    HW229427   1.942   6.316   5.498
 9510SOL     OW29428   0.169   4.338   2.556
 9510SOL    HW129429   0.229   4.403   2.510
 9510SOL    HW229430   0.104   4.387   2.614
 9511SOL     OW29431   0.410   2.604   0.101
 9511SOL    HW129432   0.366   2.663   0.169
 9511SOL    HW229433   0.363   2.614   0.013
 9512SOL     OW29434   0.856   1.950   3.914
 9512SOL    HW129435   0.820   1.971   3.823
 9512SOL    HW229436   0.780   1.947   3.979
 9513SOL     OW29437   2.086   3.564   3.656
 9513SOL    HW129438   2.091   3.580   3.557
 9513SOL    HW229439   2.135   3.480   3.679
 9514SOL     OW29440   2.243   3.542   6.831
 9514SOL    HW129441   2.310   3.469   6.814
 9514SOL    HW229442   2.174   3.541   6.758
 9515SOL     OW29443   1.200   6.198   6.091
 9515SOL    HW129444   1.160   6.279   6.134
 9515SOL    HW229445   1.129   6.149   6.040
 9516SOL     OW29446   5.105   3.702   4.086
 9516SOL    HW129447   5.029   3.763   4.062
 9516SOL    HW229448   5.074   3.635   4.153
 9517SOL     OW29449   0.836   5.153   1.279
 9517SOL    HW129450   0.917   5.126   1.332
 9517SOL    HW229451   0.790   5.071   1.245
 9518SOL     OW29452   0.695   2.651   5.991
 9518SOL    HW129453   0.788   2.654   5.953
 9518SOL    HW229454   0.683   2.566   6.042
 9519SOL     OW29455   3.194   3.445   2.717
 9519SOL    HW129456   3.198   3.515   2.645
 9519SOL    HW229457   3.184   3.355   2.675
 9520SOL     OW29458   0.169   0.596   5.461
 9520SOL    HW129459   0.151   0.594   5.363
 9520SOL    HW229460   0.268   0.603   5.477
 9521SOL     OW29461   3.739   6.760   1.297
 9521SOL    HW129462   3.816   6.795   1.243
 9521SOL    HW229463   3.686   6.836   1.334
 9522SOL     OW29464   4.012   5.448   1.045
 9522SOL    HW129465   4.025   5.356   1.083
 9522SOL    HW229466   3.989   5.440   0.948
 9523SOL     OW29467   2.647   4.967   4.758
 9523SOL    HW129468   2.681   4.874   4.771
 9523SOL    HW229469   2.638   5.012   4.847
 9524SOL     OW29470   1.621   4.021   1.040
 9524SOL    HW129471   1.635   4.028   1.139
 9524SOL    HW229472   1.665   3.938   1.007
 9525SOL     OW29473   1.962   2.155   5.553
 9525SOL    HW129474   2.041   2.128   5.497
 9525SOL    HW229475   1.961   2.254   5.563
 9526SOL     OW29476   5.540   5.081   6.843
 9526SOL    HW129477   5.591   5.068   6.928
 9526SOL    HW229478   5.458   5.023   6.845
 9527SOL     OW29479   3.178   6.782   3.603
 9527SOL    HW129480   3.274   6.811   3.598
 9527SOL    HW229481   3.160   6.742   3.693
 9528SOL     OW29482   6.611   1.348   1.213
 9528SOL    HW129483   6.626   1.383   1.121
 9528SOL    HW229484   6.631   1.250   1.215
 9529SOL     OW29485   6.505   1.998   1.771
 9529SOL    HW129486   6.422   2.052   1.789
 9529SOL    HW229487   6.577   2.027   1.833
 9530SOL     OW29488   0.510   5.367   4.259
 9530SOL    HW129489   0.610   5.372   4.257
 9530SOL    HW229490   0.477   5.315   4.181
 9531SOL     OW29491   4.332   4.759   3.626
 9531SOL    HW129492   4.344   4.665   3.659
 9531SOL    HW229493   4.412   4.785   3.571
 9532SOL     OW29494   6.189   5.615   2.031
 9532SOL    HW129495   6.090   5.601   2.022
 9532SOL    HW229496   6.236   5.568   1.957
 9533SOL     OW29497   1.644   5.754   4.089
 9533SOL    HW129498   1.578   5.808   4.141
 9533SOL    HW229499   1.606   5.663   4.071
 9534SOL     OW29500   5.793   5.092   4.572
 9534SOL    HW129501   5.814   5.067   4.477
 9534SOL    HW229502   5.696   5.114   4.580
 9535SOL     OW29503   1.858   1.613   6.120
 9535SOL    HW129504   1.936   1.559   6.149
 9535SOL    HW229505   1.815   1.571   6.040
 9536SOL     OW29506   3.777   3.589   5.183
 9536SOL    HW129507   3.860   3.639   5.158
 9536SOL    HW229508   3.801   3.515   5.246
 9537SOL     OW29509   1.899   1.562   3.907
 9537SOL    HW129510   1.850   1.495   3.963
 9537SOL    HW229511   1.919   1.643   3.962
 9538SOL     OW29512   3.637   0.617   4.510
 9538SOL    HW129513   3.673   0.699   4.465
 9538SOL    HW229514   3.539   0.609   4.493
 9539SOL     OW29515   3.732   2.990   3.259
 9539SOL    HW129516   3.683   3.077   3.254
 9539SOL    HW229517   3.682   2.927   3.319
 9540SOL     OW29518   4.500   5.275   4.130
 9540SOL    HW129519   4.442   5.331   4.189
 9540SOL    HW229520   4.447   5.197   4.096
 9541SOL     OW29521   1.163   0.186   4.754
 9541SOL    HW129522   1.146   0.203   4.851
 9541SOL    HW229523   1.077   0.189   4.704
 9542SOL     OW29524   5.857   4.935   4.336
 9542SOL    HW129525   5.812   4.847   4.322
 9542SOL    HW229526   5.956   4.924   4.327
 9543SOL     OW29527   3.252   0.348   6.220
 9543SOL    HW129528   3.265   0.306   6.310
 9543SOL    HW229529   3.206   0.283   6.159
 9544SOL     OW29530   5.222   4.066   3.494
 9544SOL    HW129531   5.203   3.993   3.429
 9544SOL    HW229532   5.203   4.155   3.452
 9545SOL     OW29533   0.980   4.677   1.810
 9545SOL    HW129534   1.044   4.624   1.865
 9545SOL    HW229535   0.900   4.700   1.865
 9546SOL     OW29536   3.526   0.977   5.559
 9546SOL    HW129537   3.438   0.928   5.555
 9546SOL    HW229538   3.522   1.057   5.499
 9547SOL     OW29539   3.541   5.800   4.613
 9547SOL    HW129540   3.614   5.732   4.608
 9547SOL    HW229541   3.568   5.881   4.560
 9548SOL     OW29542   1.192   5.067   5.649
 9548SOL    HW129543   1.092   5.061   5.648
 9548SOL    HW229544   1.220   5.145   5.705
 9549SOL     OW29545   3.924   1.861   2.654
 9549SOL    HW129546   3.848   1.892   2.597
 9549SOL    HW229547   3.890   1.795   2.722
 9550SOL     OW29548   5.700   2.919   1.663
 9550SOL    HW129549   5.658   3.010   1.667
 9550SOL    HW229550   5.652   2.863   1.595
 9551SOL     OW29551   6.158   2.205   6.066
 9551SOL    HW129552   6.109   2.135   6.013
 9551SOL    HW229553   6.256   2.196   6.050
 9552SOL     OW29554   2.606   1.048   6.651
 9552SOL    HW129555   2.678   1.047   6.721
 9552SOL    HW229556   2.519   1.074   6.692
 9553SOL     OW29557   5.278   2.396   0.663
 9553SOL    HW129558   5.245   2.381   0.756
 9553SOL    HW229559   5.207   2.444   0.610
 9554SOL     OW29560   2.599   6.458   3.934
 9554SOL    HW129561   2.605   6.384   3.867
 9554SOL    HW229562   2.625   6.424   4.024
 9555SOL     OW29563   6.456   1.445   3.310
 9555SOL    HW129564   6.532   1.392   3.350
 9555SOL    HW229565   6.464   1.445   3.211
 9556SOL     OW29566   1.276   4.404   1.172
 9556SOL    HW129567   1.337   4.483   1.159
 9556SOL    HW229568   1.224   4.388   1.088
 9557SOL     OW29569   4.949   6.803   1.751
 9557SOL    HW129570   4.911   6.718   1.788
 9557SOL    HW229571   4.918   6.815   1.657
 9558SOL     OW29572   6.125   6.439   6.055
 9558SOL    HW129573   6.185   6.440   5.975
 9558SOL    HW229574   6.039   6.484   6.031
 9559SOL     OW29575   1.576   4.030   6.548
 9559SOL    HW129576   1.600   3.936   6.573
 9559SOL    HW229577   1.525   4.029   6.462
 9560SOL     OW29578   3.458   0.385   2.111
 9560SOL    HW129579   3.383   0.381   2.046
 9560SOL    HW229580   3.496   0.478   2.113
 9561SOL     OW29581   0.722   6.856   0.962
 9561SOL    HW129582   0.670   6.784   1.008
 9561SOL    HW229583   0.727   6.937   1.022
 9562SOL     OW29584   2.744   5.940   4.526
 9562SOL    HW129585   2.791   5.852   4.521
 9562SOL    HW229586   2.663   5.938   4.467
 9563SOL     OW29587   0.745   6.726   0.092
 9563SOL    HW129588   0.730   6.636   0.051
 9563SOL    HW229589   0.665   6.784   0.075
 9564SOL     OW29590   0.842   0.711   1.306
 9564SOL    HW129591   0.769   0.779   1.309
 9564SOL    HW229592   0.927   0.755   1.277
 9565SOL     OW29593   2.639   1.029   4.116
 9565SOL    HW129594   2.604   0.961   4.181
 9565SOL    HW229595   2.738   1.040   4.129
 9566SOL     OW29596   2.833   6.296   0.658
 9566SOL    HW129597   2.744   6.251   0.652
 9566SOL    HW229598   2.828   6.386   0.615
 9567SOL     OW29599   0.000   4.735   0.355
 9567SOL    HW129600   7.009   4.765   0.261
 9567SOL    HW229601   6.935   4.710   0.395
 9568SOL     OW29602   3.823   1.807   0.459
 9568SOL    HW129603   3.863   1.715   0.457
 9568SOL    HW229604   3.881   1.870   0.407
 9569SOL     OW29605   6.272   0.931   2.355
 9569SOL    HW129606   6.306   0.927   2.261
 9569SOL    HW229607   6.269   0.839   2.393
 9570SOL     OW29608   0.447   2.793   0.642
 9570SOL    HW129609   0.414   2.717   0.699
 9570SOL    HW229610   0.547   2.795   0.644
 9571SOL     OW29611   2.561   2.696   6.234
 9571SOL    HW129612   2.631   2.759   6.198
 9571SOL    HW229613   2.570   2.607   6.190
 9572SOL     OW29614   2.219   3.908   3.444
 9572SOL    HW129615   2.256   3.962   3.369
 9572SOL    HW229616   2.259   3.939   3.530
 9573SOL     OW29617   6.713   0.716   5.650
 9573SOL    HW129618   6.811   0.699   5.650
 9573SOL    HW229619   6.690   0.779   5.576
 9574SOL     OW29620   3.971   3.185   1.518
 9574SOL    HW129621   4.028   3.222   1.591
 9574SOL    HW229622   3.904   3.253   1.489
 9575SOL     OW29623   6.136   0.128   2.537
 9575SOL    HW129624   6.083   0.212   2.530
 9575SOL    HW229625   6.199   0.135   2.615
 9576SOL     OW29626   1.320   1.456   0.401
 9576SOL    HW129627   1.290   1.536   0.349
 9576SOL    HW229628   1.361   1.389   0.339
 9577SOL     OW29629   0.043   6.284   0.239
 9577SOL    HW129630   0.082   6.198   0.205
 9577SOL    HW229631   0.093   6.313   0.321
 9578SOL     OW29632   1.158   2.689   2.344
 9578SOL    HW129633   1.064   2.663   2.367
 9578SOL    HW229634   1.166   2.700   2.245
 9579SOL     OW29635   5.929   0.142   2.151
 9579SOL    HW129636   5.933   0.067   2.217
 9579SOL    HW229637   5.963   0.109   2.062
 9580SOL     OW29638   4.698   4.144   1.361
 9580SOL    HW129639   4.699   4.182   1.269
 9580SOL    HW229640   4.748   4.205   1.423
 9581SOL     OW29641   0.083   0.834   6.717
 9581SOL    HW129642   0.104   0.854   6.621
 9581SOL    HW229643   0.024   0.754   6.722
 9582SOL     OW29644   3.832   6.054   4.672
 9582SOL    HW129645   3.776   6.109   4.609
 9582SOL    HW229646   3.775   5.986   4.717
 9583SOL     OW29647   3.308   4.399   1.352
 9583SOL    HW129648   3.301   4.452   1.436
 9583SOL    HW229649   3.271   4.452   1.275
 9584SOL     OW29650   1.617   4.986   5.056
 9584SOL    HW129651   1.541   5.021   5.000
 9584SOL    HW229652   1.697   5.043   5.043
 9585SOL     OW29653   5.090   6.328   1.710
 9585SOL    HW129654   5.131   6.287   1.629
 9585SOL    HW229655   5.113   6.273   1.791
 9586SOL     OW29656   4.905   4.950   1.674
 9586SOL    HW129657   4.841   4.972   1.747
 9586SOL    HW229658   4.920   4.851   1.671
 9587SOL     OW29659   1.963   6.662   2.188
 9587SOL    HW129660   1.934   6.754   2.161
 9587SOL    HW229661   1.900   6.594   2.150
 9588SOL     OW29662   6.715   6.010   0.969
 9588SOL    HW129663   6.700   6.107   0.984
 9588SOL    HW229664   6.666   5.957   1.038
 9589SOL     OW29665   1.854   3.799   6.427
 9589SOL    HW129666   1.938   3.854   6.428
 9589SOL    HW229667   1.809   3.804   6.516
 9590SOL     OW29668   6.068   2.243   1.891
 9590SOL    HW129669   6.024   2.157   1.916
 9590SOL    HW229670   6.091   2.294   1.973
 9591SOL     OW29671   3.300   6.768   5.915
 9591SOL    HW129672   3.360   6.838   5.876
 9591SOL    HW229673   3.353   6.687   5.938
 9592SOL     OW29674   3.175   4.635   6.648
 9592SOL    HW129675   3.078   4.617   6.634
 9592SOL    HW229676   3.227   4.600   6.571
 9593SOL     OW29677   1.579   1.132   5.650
 9593SOL    HW129678   1.616   1.096   5.736
 9593SOL    HW229679   1.574   1.232   5.655
 9594SOL     OW29680   2.637   6.365   4.180
 9594SOL    HW129681   2.618   6.432   4.251
 9594SOL    HW229682   2.677   6.283   4.221
 9595SOL     OW29683   0.699   3.179   3.134
 9595SOL    HW129684   0.627   3.228   3.086
 9595SOL    HW229685   0.729   3.101   3.078
 9596SOL     OW29686   0.961   5.329   0.368
 9596SOL    HW129687   0.972   5.339   0.467
 9596SOL    HW229688   0.879   5.378   0.338
 9597SOL     OW29689   0.690   4.348   1.378
 9597SOL    HW129690   0.637   4.265   1.395
 9597SOL    HW229691   0.751   4.365   1.455
 9598SOL     OW29692   2.088   3.949   2.710
 9598SOL    HW129693   2.070   4.048   2.709
 9598SOL    HW229694   2.114   3.919   2.618
 9599SOL     OW29695   3.411   6.684   4.116
 9599SOL    HW129696   3.354   6.610   4.152
 9599SOL    HW229697   3.395   6.767   4.169
 9600SOL     OW29698   3.021   6.964   0.920
 9600SOL    HW129699   2.989   6.963   1.015
 9600SOL    HW229700   3.119   6.982   0.918
 9601SOL     OW29701   6.058   4.177   0.969
 9601SOL    HW129702   5.998   4.151   0.894
 9601SOL    HW229703   6.005   4.188   1.053
 9602SOL     OW29704   4.574   4.438   5.912
 9602SOL    HW129705   4.532   4.456   5.823
 9602SOL    HW229706   4.656   4.384   5.900
 9603SOL     OW29707   5.453   6.214   6.491
 9603SOL    HW129708   5.407   6.135   6.532
 9603SOL    HW229709   5.425   6.298   6.537
 9604SOL     OW29710   4.705   0.552   1.807
 9604SOL    HW129711   4.683   0.625   1.872
 9604SOL    HW229712   4.804   0.536   1.808
 9605SOL     OW29713   0.257   5.133   3.067
 9605SOL    HW129714   0.338   5.143   3.009
 9605SOL    HW229715   0.276   5.070   3.141
 9606SOL     OW29716   1.767   0.820   6.950
 9606SOL    HW129717   1.846   0.863   6.907
 9606SOL    HW229718   1.785   0.722   6.961
 9607SOL     OW29719   3.176   1.781   6.871
 9607SOL    HW129720   3.089   1.762   6.917
 9607SOL    HW229721   3.162   1.786   6.773
 9608SOL     OW29722   6.944   4.697   2.783
 9608SOL    HW129723   6.984   4.732   2.868
 9608SOL    HW229724   6.855   4.655   2.803
 9609SOL     OW29725   4.288   2.963   6.853
 9609SOL    HW129726   4.305   2.865   6.869
 9609SOL    HW229727   4.195   2.985   6.882
 9610SOL     OW29728   1.845   4.971   2.703
 9610SOL    HW129729   1.932   5.019   2.714
 9610SOL    HW229730   1.836   4.943   2.607
 9611SOL     OW29731   1.627   6.821   0.454
 9611SOL    HW129732   1.712   6.782   0.488
 9611SOL    HW229733   1.550   6.761   0.480
 9612SOL     OW29734   0.297   3.371   1.640
 9612SOL    HW129735   0.271   3.404   1.549
 9612SOL    HW229736   0.391   3.399   1.660
 9613SOL     OW29737   5.847   6.382   3.504
 9613SOL    HW129738   5.802   6.293   3.510
 9613SOL    HW229739   5.940   6.375   3.541
 9614SOL     OW29740   3.640   1.820   2.343
 9614SOL    HW129741   3.661   1.893   2.408
 9614SOL    HW229742   3.601   1.742   2.393
 9615SOL     OW29743   3.115   2.060   1.465
 9615SOL    HW129744   3.094   2.154   1.438
 9615SOL    HW229745   3.111   2.052   1.564
 9616SOL     OW29746   3.700   3.553   1.061
 9616SOL    HW129747   3.722   3.539   1.157
 9616SOL    HW229748   3.661   3.645   1.049
 9617SOL     OW29749   2.214   3.048   3.636
 9617SOL    HW129750   2.126   3.058   3.589
 9617SOL    HW229751   2.246   2.953   3.627
 9618SOL     OW29752   3.306   0.278   1.181
 9618SOL    HW129753   3.209   0.273   1.208
 9618SOL    HW229754   3.360   0.310   1.258
 9619SOL     OW29755   2.019   0.208   5.539
 9619SOL    HW129756   1.954   0.283   5.553
 9619SOL    HW229757   2.050   0.175   5.628
 9620SOL     OW29758   4.265   0.405   4.742
 9620SOL    HW129759   4.232   0.408   4.837
 9620SOL    HW229760   4.189   0.423   4.680
 9621SOL     OW29761   1.554   2.634   2.015
 9621SOL    HW129762   1.545   2.696   1.937
 9621SOL    HW229763   1.501   2.551   1.998
 9622SOL     OW29764   6.477   1.698   0.479
 9622SOL    HW129765   6.574   1.709   0.497
 9622SOL    HW229766   6.443   1.615   0.524
 9623SOL     OW29767   2.110   3.034   6.582
 9623SOL    HW129768   2.125   3.120   6.533
 9623SOL    HW229769   2.188   3.016   6.642
 9624SOL     OW29770   6.353   3.886   2.967
 9624SOL    HW129771   6.369   3.933   2.880
 9624SOL    HW229772   6.416   3.809   2.975
 9625SOL     OW29773   5.536   5.803   6.982
 9625SOL    HW129774   5.465   5.830   6.916
 9625SOL    HW229775   5.495   5.789   0.049
 9626SOL     OW29776   3.919   5.102   0.728
 9626SOL    HW129777   3.972   5.046   0.664
 9626SOL    HW229778   3.881   5.044   0.800
 9627SOL     OW29779   1.053   6.141   6.457
 9627SOL    HW129780   1.068   6.097   6.546
 9627SOL    HW229781   1.052   6.072   6.385
 9628SOL     OW29782   4.902   5.282   0.982
 9628SOL    HW129783   4.966   5.230   0.925
 9628SOL    HW229784   4.941   5.295   1.073
 9629SOL     OW29785   2.172   0.584   1.627
 9629SOL    HW129786   2.195   0.681   1.634
 9629SOL    HW229787   2.167   0.544   1.718
 9630SOL     OW29788   5.922   6.673   4.883
 9630SOL    HW129789   5.884   6.763   4.905
 9630SOL    HW229790   6.018   6.682   4.858
 9631SOL     OW29791   6.277   0.261   6.013
 9631SOL    HW129792   6.229   0.263   5.925
 9631SOL    HW229793   6.210   0.257   6.087
 9632SOL     OW29794   1.351   6.405   2.814
 9632SOL    HW129795   1.285   6.331   2.824
 9632SOL    HW229796   1.410   6.409   2.894
 9633SOL     OW29797   5.798   4.882   6.825
 9633SOL    HW129798   5.721   4.819   6.816
 9633SOL    HW229799   5.793   4.928   6.914
 9634SOL     OW29800   1.489   6.552   4.020
 9634SOL    HW129801   1.407   6.556   4.077
 9634SOL    HW229802   1.557   6.617   4.055
 9635SOL     OW29803   2.414   5.383   5.143
 9635SOL    HW129804   2.347   5.320   5.183
 9635SOL    HW229805   2.372   5.474   5.133
 9636SOL     OW29806   4.201   1.613   5.636
 9636SOL    HW129807   4.297   1.609   5.608
 9636SOL    HW229808   4.146   1.650   5.562
 9637SOL     OW29809   2.217   2.244   6.431
 9637SOL    HW129810   2.117   2.249   6.430
 9637SOL    HW229811   2.249   2.230   6.524
 9638SOL     OW29812   6.343   3.598   5.608
 9638SOL    HW129813   6.244   3.584   5.610
 9638SOL    HW229814   6.375   3.617   5.701
 9639SOL     OW29815   4.263   1.878   2.274
 9639SOL    HW129816   4.187   1.883   2.209
 9639SOL    HW229817   4.234   1.829   2.356
 9640SOL     OW29818   2.258   2.770   3.645
 9640SOL    HW129819   2.303   2.684   3.622
 9640SOL    HW229820   2.164   2.752   3.674
 9641SOL     OW29821   4.879   0.125   0.343
 9641SOL    HW129822   4.867   0.207   0.287
 9641SOL    HW229823   4.924   0.149   0.429
 9642SOL     OW29824   2.452   0.057   4.566
 9642SOL    HW129825   2.454   6.982   4.587
 9642SOL    HW229826   2.449   0.110   4.650
 9643SOL     OW29827   5.481   3.958   3.498
 9643SOL    HW129828   5.515   3.984   3.408
 9643SOL    HW229829   5.396   4.007   3.517
 9644SOL     OW29830   1.192   2.933   6.143
 9644SOL    HW129831   1.136   2.867   6.195
 9644SOL    HW229832   1.275   2.953   6.194
 9645SOL     OW29833   3.150   5.283   5.268
 9645SOL    HW129834   3.242   5.284   5.229
 9645SOL    HW229835   3.089   5.229   5.210
 9646SOL     OW29836   4.272   5.103   2.825
 9646SOL    HW129837   4.327   5.159   2.763
 9646SOL    HW229838   4.235   5.024   2.775
 9647SOL     OW29839   6.293   3.668   1.442
 9647SOL    HW129840   6.233   3.588   1.449
 9647SOL    HW229841   6.383   3.639   1.411
 9648SOL     OW29842   3.939   1.769   1.179
 9648SOL    HW129843   3.999   1.776   1.099
 9648SOL    HW229844   3.927   1.859   1.219
 9649SOL     OW29845   3.114   6.351   6.919
 9649SOL    HW129846   3.054   6.279   6.955
 9649SOL    HW229847   3.069   6.396   6.842
 9650SOL     OW29848   6.892   5.649   2.647
 9650SOL    HW129849   6.903   5.708   2.727
 9650SOL    HW229850   6.977   5.600   2.629
 9651SOL     OW29851   0.256   1.688   5.975
 9651SOL    HW129852   0.290   1.662   6.065
 9651SOL    HW229853   0.183   1.626   5.947
 9652SOL     OW29854   1.088   5.044   2.033
 9652SOL    HW129855   1.060   5.098   2.113
 9652SOL    HW229856   1.145   4.968   2.063
 9653SOL     OW29857   4.468   4.693   4.592
 9653SOL    HW129858   4.493   4.612   4.644
 9653SOL    HW229859   4.538   4.711   4.523
 9654SOL     OW29860   2.649   2.428   1.872
 9654SOL    HW129861   2.609   2.339   1.894
 9654SOL    HW229862   2.748   2.425   1.885
 9655SOL     OW29863   0.019   1.599   6.209
 9655SOL    HW129864   6.990   1.604   6.295
 9655SOL    HW229865   0.103   1.654   6.217
 9656SOL     OW29866   2.885   6.994   2.739
 9656SOL    HW129867   2.981   7.005   2.716
 9656SOL    HW229868   2.838   6.946   2.665
 9657SOL     OW29869   5.740   0.955   4.725
 9657SOL    HW129870   5.755   0.889   4.651
 9657SOL    HW229871   5.737   1.047   4.687
 9658SOL     OW29872   6.206   2.828   2.541
 9658SOL    HW129873   6.206   2.886   2.623
 9658SOL    HW229874   6.159   2.742   2.561
 9659SOL     OW29875   0.394   4.837   0.371
 9659SOL    HW129876   0.457   4.806   0.442
 9659SOL    HW229877   0.391   4.770   0.298
 9660SOL     OW29878   0.804   5.693   1.055
 9660SOL    HW129879   0.757   5.763   1.001
 9660SOL    HW229880   0.892   5.671   1.012
 9661SOL     OW29881   4.408   0.232   0.874
 9661SOL    HW129882   4.321   0.198   0.840
 9661SOL    HW229883   4.404   0.242   0.973
 9662SOL     OW29884   5.910   2.164   4.815
 9662SOL    HW129885   5.860   2.078   4.805
 9662SOL    HW229886   5.869   2.218   4.888
 9663SOL     OW29887   1.836   5.203   3.100
 9663SOL    HW129888   1.901   5.274   3.073
 9663SOL    HW229889   1.773   5.240   3.168
 9664SOL     OW29890   4.463   6.576   2.881
 9664SOL    HW129891   4.464   6.644   2.808
 9664SOL    HW229892   4.384   6.592   2.940
 9665SOL     OW29893   5.856   4.756   4.868
 9665SOL    HW129894   5.882   4.830   4.930
 9665SOL    HW229895   5.826   4.677   4.921
 9666SOL     OW29896   5.693   4.606   1.950
 9666SOL    HW129897   5.747   4.689   1.959
 9666SOL    HW229898   5.645   4.607   1.862
 9667SOL     OW29899   3.621   3.485   3.770
 9667SOL    HW129900   3.549   3.419   3.790
 9667SOL    HW229901   3.626   3.552   3.843
 9668SOL     OW29902   0.101   1.290   5.720
 9668SOL    HW129903   0.133   1.330   5.635
 9668SOL    HW229904   0.028   1.224   5.701
 9669SOL     OW29905   0.536   0.608   0.373
 9669SOL    HW129906   0.507   0.565   0.458
 9669SOL    HW229907   0.519   0.546   0.296
 9670SOL     OW29908   5.096   4.380   6.192
 9670SOL    HW129909   5.005   4.387   6.150
 9670SOL    HW229910   5.093   4.315   6.268
 9671SOL     OW29911   0.089   5.265   5.501
 9671SOL    HW129912   0.094   5.313   5.414
 9671SOL    HW229913   0.159   5.194   5.505
 9672SOL     OW29914   1.147   6.302   4.598
 9672SOL    HW129915   1.050   6.325   4.587
 9672SOL    HW229916   1.156   6.228   4.664
 9673SOL     OW29917   3.792   4.018   6.684
 9673SOL    HW129918   3.781   3.993   6.780
 9673SOL    HW229919   3.802   3.935   6.629
 9674SOL     OW29920   3.153   6.280   1.555
 9674SOL    HW129921   3.136   6.249   1.648
 9674SOL    HW229922   3.069   6.276   1.502
 9675SOL     OW29923   6.506   1.702   2.335
 9675SOL    HW129924   6.451   1.738   2.260
 9675SOL    HW229925   6.541   1.612   2.311
 9676SOL     OW29926   1.017   3.530   5.022
 9676SOL    HW129927   1.111   3.557   5.000
 9676SOL    HW229928   0.974   3.492   4.940
 9677SOL     OW29929   2.090   4.302   5.867
 9677SOL    HW129930   2.051   4.312   5.959
 9677SOL    HW229931   2.104   4.205   5.847
 9678SOL     OW29932   3.981   3.928   3.377
 9678SOL    HW129933   4.064   3.972   3.342
 9678SOL    HW229934   4.007   3.852   3.436
 9679SOL     OW29935   1.688   2.210   1.787
 9679SOL    HW129936   1.590   2.191   1.790
 9679SOL    HW229937   1.712   2.274   1.860
 9680SOL     OW29938   5.921   5.978   3.271
 9680SOL    HW129939   5.920   6.074   3.244
 9680SOL    HW229940   5.947   5.971   3.367
 9681SOL     OW29941   1.993   0.884   1.430
 9681SOL    HW129942   2.000   0.785   1.427
 9681SOL    HW229943   2.033   0.918   1.515
 9682SOL     OW29944   5.468   4.816   3.527
 9682SOL    HW129945   5.563   4.791   3.548
 9682SOL    HW229946   5.416   4.823   3.611
 9683SOL     OW29947   3.781   5.327   0.267
 9683SOL    HW129948   3.804   5.388   0.343
 9683SOL    HW229949   3.788   5.378   0.181
 9684SOL     OW29950   0.390   3.656   5.025
 9684SOL    HW129951   0.446   3.600   5.087
 9684SOL    HW229952   0.398   3.752   5.050
 9685SOL     OW29953   1.968   3.040   1.026
 9685SOL    HW129954   2.042   3.106   1.030
 9685SOL    HW229955   1.912   3.047   1.109
 9686SOL     OW29956   6.697   0.680   1.527
 9686SOL    HW129957   6.781   0.686   1.581
 9686SOL    HW229958   6.649   0.595   1.548
 9687SOL     OW29959   2.297   1.316   3.175
 9687SOL    HW129960   2.230   1.389   3.189
 9687SOL    HW229961   2.344   1.297   3.261
 9688SOL     OW29962   0.093   1.960   2.890
 9688SOL    HW129963   0.009   1.930   2.933
 9688SOL    HW229964   0.137   2.030   2.946
 9689SOL     OW29965   2.797   6.273   6.699
 9689SOL    HW129966   2.846   6.231   6.623
 9689SOL    HW229967   2.711   6.312   6.665
 9690SOL     OW29968   5.938   4.886   0.393
 9690SOL    HW129969   5.963   4.964   0.336
 9690SOL    HW229970   5.953   4.801   0.342
 9691SOL     OW29971   1.730   5.165   1.921
 9691SOL    HW129972   1.767   5.235   1.982
 9691SOL    HW229973   1.723   5.078   1.971
 9692SOL     OW29974   2.938   5.280   1.953
 9692SOL    HW129975   2.932   5.323   1.863
 9692SOL    HW229976   2.936   5.350   2.024
 9693SOL     OW29977   6.894   5.835   1.577
 9693SOL    HW129978   6.840   5.809   1.496
 9693SOL    HW229979   6.990   5.817   1.559
 9694SOL     OW29980   1.364   2.509   0.358
 9694SOL    HW129981   1.283   2.566   0.372
 9694SOL    HW229982   1.405   2.487   0.446
 9695SOL     OW29983   6.391   3.821   1.120
 9695SOL    HW129984   6.421   3.846   1.212
 9695SOL    HW229985   6.297   3.789   1.123
 9696SOL     OW29986   3.921   2.767   1.632
 9696SOL    HW129987   3.900   2.835   1.702
 9696SOL    HW229988   3.996   2.801   1.575
 9697SOL     OW29989   0.513   4.538   6.919
 9697SOL    HW129990   0.522   4.634   6.944
 9697SOL    HW229991   0.603   4.499   6.900
 9698SOL     OW29992   5.790   0.864   5.290
 9698SOL    HW129993   5.753   0.771   5.286
 9698SOL    HW229994   5.809   0.896   5.197
 9699SOL     OW29995   1.103   3.524   6.378
 9699SOL    HW129996   1.113   3.532   6.477
 9699SOL    HW229997   1.052   3.603   6.343
 9700SOL     OW29998   3.412   4.748   5.865
 9700SOL    HW129999   3.363   4.705   5.941
 9700SOL    HW230000   3.391   4.846   5.864
 9701SOL     OW30001   4.172   5.360   4.626
 9701SOL    HW130002   4.254   5.416   4.643
 9701SOL    HW230003   4.190   5.266   4.652
 9702SOL     OW30004   5.255   1.115   0.822
 9702SOL    HW130005   5.251   1.038   0.886
 9702SOL    HW230006   5.334   1.172   0.842
 9703SOL     OW30007   3.151   5.782   4.621
 9703SOL    HW130008   3.249   5.789   4.640
 9703SOL    HW230009   3.138   5.753   4.527
 9704SOL     OW30010   3.344   6.736   2.700
 9704SOL    HW130011   3.299   6.651   2.728
 9704SOL    HW230012   3.443   6.727   2.715
 9705SOL     OW30013   3.895   4.526   0.907
 9705SOL    HW130014   3.799   4.549   0.916
 9705SOL    HW230015   3.942   4.598   0.856
 9706SOL     OW30016   6.380   2.847   1.973
 9706SOL    HW130017   6.283   2.823   1.984
 9706SOL    HW230018   6.390   2.909   1.896
 9707SOL     OW30019   1.109   4.121   2.395
 9707SOL    HW130020   1.092   4.060   2.472
 9707SOL    HW230021   1.038   4.109   2.326
 9708SOL     OW30022   2.119   1.759   4.009
 9708SOL    HW130023   2.092   1.796   3.921
 9708SOL    HW230024   2.136   1.833   4.073
 9709SOL     OW30025   1.160   5.925   3.398
 9709SOL    HW130026   1.234   5.877   3.350
 9709SOL    HW230027   1.192   5.952   3.489
 9710SOL     OW30028   6.998   1.348   2.994
 9710SOL    HW130029   6.974   1.254   3.018
 9710SOL    HW230030   6.979   1.408   3.072
 9711SOL     OW30031   1.783   3.384   5.820
 9711SOL    HW130032   1.844   3.380   5.741
 9711SOL    HW230033   1.826   3.438   5.893
 9712SOL     OW30034   5.590   1.907   4.501
 9712SOL    HW130035   5.683   1.938   4.483
 9712SOL    HW230036   5.529   1.986   4.505
 9713SOL     OW30037   0.686   4.811   3.468
 9713SOL    HW130038   0.603   4.813   3.412
 9713SOL    HW230039   0.677   4.740   3.539
 9714SOL     OW30040   1.916   2.069   1.771
 9714SOL    HW130041   1.910   2.036   1.865
 9714SOL    HW230042   1.824   2.092   1.737
 9715SOL     OW30043   5.391   5.580   4.992
 9715SOL    HW130044   5.323   5.652   4.987
 9715SOL    HW230045   5.410   5.545   4.900
 9716SOL     OW30046   4.187   1.825   6.477
 9716SOL    HW130047   4.178   1.924   6.491
 9716SOL    HW230048   4.195   1.779   6.565
 9717SOL     OW30049   5.499   5.909   3.891
 9717SOL    HW130050   5.596   5.926   3.905
 9717SOL    HW230051   5.456   5.888   3.978
 9718SOL     OW30052   3.946   3.326   1.192
 9718SOL    HW130053   4.011   3.401   1.202
 9718SOL    HW230054   3.878   3.330   1.265
 9719SOL     OW30055   0.339   2.789   6.824
 9719SOL    HW130056   0.433   2.766   6.800
 9719SOL    HW230057   0.276   2.724   6.782
 9720SOL     OW30058   0.541   6.072   2.427
 9720SOL    HW130059   0.611   6.009   2.394
 9720SOL    HW230060   0.481   6.025   2.492
 9721SOL     OW30061   7.020   3.910   2.158
 9721SOL    HW130062   0.077   3.860   2.124
 9721SOL    HW230063   0.001   3.913   2.258
 9722SOL     OW30064   0.490   0.713   3.435
 9722SOL    HW130065   0.484   0.682   3.341
 9722SOL    HW230066   0.398   0.730   3.471
 9723SOL     OW30067   0.715   0.501   3.353
 9723SOL    HW130068   0.811   0.531   3.350
 9723SOL    HW230069   0.658   0.575   3.389
 9724SOL     OW30070   3.025   2.479   1.683
 9724SOL    HW130071   2.984   2.457   1.771
 9724SOL    HW230072   3.119   2.443   1.680
 9725SOL     OW30073   5.165   3.384   6.211
 9725SOL    HW130074   5.261   3.412   6.209
 9725SOL    HW230075   5.133   3.381   6.305
 9726SOL     OW30076   5.201   0.034   4.426
 9726SOL    HW130077   5.127   6.991   4.412
 9726SOL    HW230078   5.174   0.123   4.390
 9727SOL     OW30079   0.561   2.765   5.770
 9727SOL    HW130080   0.578   2.862   5.783
 9727SOL    HW230081   0.612   2.713   5.839
 9728SOL     OW30082   1.874   6.402   6.292
 9728SOL    HW130083   1.809   6.359   6.355
 9728SOL    HW230084   1.893   6.340   6.216
 9729SOL     OW30085   1.161   4.426   3.168
 9729SOL    HW130086   1.071   4.431   3.125
 9729SOL    HW230087   1.199   4.518   3.179
 9730SOL     OW30088   6.892   3.231   2.647
 9730SOL    HW130089   6.813   3.190   2.693
 9730SOL    HW230090   6.864   3.315   2.601
 9731SOL     OW30091   3.712   5.242   0.930
 9731SOL    HW130092   3.700   5.341   0.923
 9731SOL    HW230093   3.770   5.211   0.855
 9732SOL     OW30094   0.150   6.168   2.655
 9732SOL    HW130095   0.165   6.103   2.581
 9732SOL    HW230096   0.087   6.239   2.625
 9733SOL     OW30097   5.323   4.850   4.923
 9733SOL    HW130098   5.358   4.810   4.838
 9733SOL    HW230099   5.390   4.916   4.959
 9734SOL     OW30100   5.178   2.094   4.014
 9734SOL    HW130101   5.130   2.017   3.974
 9734SOL    HW230102   5.221   2.148   3.941
 9735SOL     OW30103   2.348   5.025   2.039
 9735SOL    HW130104   2.340   5.115   2.082
 9735SOL    HW230105   2.432   4.981   2.070
 9736SOL     OW30106   5.388   1.189   6.955
 9736SOL    HW130107   5.402   1.288   6.962
 9736SOL    HW230108   5.354   1.153   0.019
 9737SOL     OW30109   4.132   2.167   4.934
 9737SOL    HW130110   4.166   2.243   4.990
 9737SOL    HW230111   4.205   2.101   4.920
 9738SOL     OW30112   1.659   1.139   3.179
 9738SOL    HW130113   1.640   1.232   3.147
 9738SOL    HW230114   1.612   1.073   3.120
 9739SOL     OW30115   6.732   5.284   1.932
 9739SOL    HW130116   6.634   5.271   1.918
 9739SOL    HW230117   6.774   5.196   1.956
 9740SOL     OW30118   6.458   3.978   2.484
 9740SOL    HW130119   6.473   3.882   2.504
 9740SOL    HW230120   6.542   4.030   2.502
 9741SOL     OW30121   4.379   1.527   2.367
 9741SOL    HW130122   4.440   1.567   2.435
 9741SOL    HW230123   4.423   1.528   2.277
 9742SOL     OW30124   5.535   0.592   3.291
 9742SOL    HW130125   5.438   0.595   3.316
 9742SOL    HW230126   5.548   0.639   3.203
 9743SOL     OW30127   1.969   3.177   5.686
 9743SOL    HW130128   2.020   3.178   5.772
 9743SOL    HW230129   2.019   3.228   5.617
 9744SOL     OW30130   1.993   0.935   1.959
 9744SOL    HW130131   2.083   0.960   1.995
 9744SOL    HW230132   1.936   1.017   1.951
 9745SOL     OW30133   0.673   2.337   5.005
 9745SOL    HW130134   0.690   2.264   5.071
 9745SOL    HW230135   0.639   2.298   4.919
 9746SOL     OW30136   5.421   0.532   5.391
 9746SOL    HW130137   5.339   0.517   5.446
 9746SOL    HW230138   5.399   0.593   5.315
 9747SOL     OW30139   1.155   0.926   0.592
 9747SOL    HW130140   1.178   1.020   0.614
 9747SOL    HW230141   1.212   0.895   0.515
 9748SOL     OW30142   1.471   5.886   4.268
 9748SOL    HW130143   1.479   5.984   4.289
 9748SOL    HW230144   1.505   5.833   4.345
 9749SOL     OW30145   1.598   3.726   4.749
 9749SOL    HW130146   1.527   3.664   4.715
 9749SOL    HW230147   1.579   3.749   4.845
 9750SOL     OW30148   4.973   4.877   3.393
 9750SOL    HW130149   5.029   4.929   3.328
 9750SOL    HW230150   5.023   4.867   3.479
 9751SOL     OW30151   1.622   2.124   0.780
 9751SOL    HW130152   1.569   2.208   0.768
 9751SOL    HW230153   1.632   2.104   0.877
 9752SOL     OW30154   4.078   0.967   5.775
 9752SOL    HW130155   4.095   0.890   5.714
 9752SOL    HW230156   3.981   0.990   5.774
 9753SOL     OW30157   6.628   5.618   5.364
 9753SOL    HW130158   6.673   5.706   5.378
 9753SOL    HW230159   6.535   5.633   5.331
 9754SOL     OW30160   1.311   1.615   0.113
 9754SOL    HW130161   1.228   1.559   0.110
 9754SOL    HW230162   1.392   1.556   0.109
 9755SOL     OW30163   4.034   3.717   4.849
 9755SOL    HW130164   4.070   3.660   4.775
 9755SOL    HW230165   3.961   3.776   4.814
 9756SOL     OW30166   5.925   3.400   0.059
 9756SOL    HW130167   5.907   3.472   0.126
 9756SOL    HW230168   5.842   3.383   0.005
 9757SOL     OW30169   5.579   2.731   3.806
 9757SOL    HW130170   5.619   2.710   3.895
 9757SOL    HW230171   5.630   2.805   3.763
 9758SOL     OW30172   2.352   0.527   6.979
 9758SOL    HW130173   2.322   0.621   6.992
 9758SOL    HW230174   2.276   0.473   6.943
 9759SOL     OW30175   2.515   6.288   1.474
 9759SOL    HW130176   2.430   6.237   1.457
 9759SOL    HW230177   2.557   6.312   1.387
 9760SOL     OW30178   5.317   4.714   5.717
 9760SOL    HW130179   5.372   4.651   5.771
 9760SOL    HW230180   5.374   4.789   5.685
 9761SOL     OW30181   5.321   5.251   2.029
 9761SOL    HW130182   5.329   5.273   1.931
 9761SOL    HW230183   5.284   5.330   2.078
 9762SOL     OW30184   2.777   1.989   5.152
 9762SOL    HW130185   2.790   2.067   5.214
 9762SOL    HW230186   2.757   1.907   5.205
 9763SOL     OW30187   3.368   1.325   1.649
 9763SOL    HW130188   3.437   1.334   1.722
 9763SOL    HW230189   3.309   1.406   1.649
 9764SOL     OW30190   1.509   2.485   2.971
 9764SOL    HW130191   1.540   2.506   2.878
 9764SOL    HW230192   1.409   2.482   2.973
 9765SOL     OW30193   0.229   1.954   6.019
 9765SOL    HW130194   0.161   1.956   6.093
 9765SOL    HW230195   0.243   1.860   5.990
 9766SOL     OW30196   2.839   0.466   3.093
 9766SOL    HW130197   2.866   0.393   3.031
 9766SOL    HW230198   2.739   0.471   3.096
 9767SOL     OW30199   5.260   0.512   5.109
 9767SOL    HW130200   5.165   0.528   5.082
 9767SOL    HW230201   5.321   0.552   5.040
 9768SOL     OW30202   4.910   1.960   2.386
 9768SOL    HW130203   4.878   1.913   2.303
 9768SOL    HW230204   4.901   2.059   2.373
 9769SOL     OW30205   1.349   2.110   1.390
 9769SOL    HW130206   1.401   2.095   1.474
 9769SOL    HW230207   1.397   2.068   1.313
 9770SOL     OW30208   5.183   5.099   6.182
 9770SOL    HW130209   5.085   5.085   6.198
 9770SOL    HW230210   5.210   5.189   6.216
 9771SOL     OW30211   4.490   5.402   6.385
 9771SOL    HW130212   4.471   5.420   6.481
 9771SOL    HW230213   4.555   5.327   6.378
 9772SOL     OW30214   6.840   0.156   2.214
 9772SOL    HW130215   6.918   0.193   2.163
 9772SOL    HW230216   6.859   0.161   2.312
 9773SOL     OW30217   5.792   5.407   3.615
 9773SOL    HW130218   5.781   5.490   3.560
 9773SOL    HW230219   5.702   5.371   3.640
 9774SOL     OW30220   6.035   4.899   4.053
 9774SOL    HW130221   6.037   4.987   4.006
 9774SOL    HW230222   6.090   4.904   4.136
 9775SOL     OW30223   1.571   2.651   4.478
 9775SOL    HW130224   1.545   2.563   4.439
 9775SOL    HW230225   1.671   2.661   4.475
 9776SOL     OW30226   6.728   5.628   4.512
 9776SOL    HW130227   6.780   5.601   4.431
 9776SOL    HW230228   6.683   5.716   4.495
 9777SOL     OW30229   5.463   4.195   5.727
 9777SOL    HW130230   5.400   4.136   5.777
 9777SOL    HW230231   5.553   4.151   5.723
 9778SOL     OW30232   4.869   6.805   2.687
 9778SOL    HW130233   4.789   6.841   2.735
 9778SOL    HW230234   4.838   6.755   2.605
 9779SOL     OW30235   3.039   1.177   5.508
 9779SOL    HW130236   2.978   1.130   5.571
 9779SOL    HW230237   3.015   1.274   5.505
 9780SOL     OW30238   2.821   3.214   0.783
 9780SOL    HW130239   2.781   3.224   0.692
 9780SOL    HW230240   2.849   3.119   0.797
 9781SOL     OW30241   2.640   4.692   5.145
 9781SOL    HW130242   2.596   4.653   5.064
 9781SOL    HW230243   2.739   4.680   5.139
 9782SOL     OW30244   6.107   0.431   1.695
 9782SOL    HW130245   6.042   0.409   1.767
 9782SOL    HW230246   6.148   0.520   1.713
 9783SOL     OW30247   6.043   1.769   2.289
 9783SOL    HW130248   5.970   1.705   2.266
 9783SOL    HW230249   6.072   1.755   2.384
 9784SOL     OW30250   4.584   1.560   2.926
 9784SOL    HW130251   4.531   1.592   2.848
 9784SOL    HW230252   4.620   1.638   2.977
 9785SOL     OW30253   7.007   2.860   2.753
 9785SOL    HW130254   6.923   2.827   2.709
 9785SOL    HW230255   0.030   2.926   2.693
 9786SOL     OW30256   2.355   5.426   5.487
 9786SOL    HW130257   2.307   5.341   5.464
 9786SOL    HW230258   2.352   5.441   5.585
 9787SOL     OW30259   4.928   4.073   1.958
 9787SOL    HW130260   5.007   4.054   1.900
 9787SOL    HW230261   4.947   4.041   2.051
 9788SOL     OW30262   6.411   0.804   4.527
 9788SOL    HW130263   6.485   0.783   4.591
 9788SOL    HW230264   6.418   0.899   4.497
 9789SOL     OW30265   2.434   5.806   5.346
 9789SOL    HW130266   2.355   5.746   5.339
 9789SOL    HW230267   2.518   5.753   5.334
 9790SOL     OW30268   5.663   1.955   4.147
 9790SOL    HW130269   5.639   1.863   4.178
 9790SOL    HW230270   5.758   1.974   4.169
 9791SOL     OW30271   1.128   1.152   1.753
 9791SOL    HW130272   1.186   1.206   1.693
 9791SOL    HW230273   1.186   1.102   1.818
 9792SOL     OW30274   4.365   4.620   0.964
 9792SOL    HW130275   4.272   4.589   0.984
 9792SOL    HW230276   4.367   4.720   0.961
 9793SOL     OW30277   5.900   5.864   2.183
 9793SOL    HW130278   5.808   5.887   2.154
 9793SOL    HW230279   5.966   5.911   2.124
 9794SOL     OW30280   5.199   3.006   6.476
 9794SOL    HW130281   5.281   2.961   6.442
 9794SOL    HW230282   5.118   2.962   6.437
 9795SOL     OW30283   1.655   3.297   3.608
 9795SOL    HW130284   1.709   3.274   3.527
 9795SOL    HW230285   1.713   3.347   3.673
 9796SOL     OW30286   2.761   5.218   0.274
 9796SOL    HW130287   2.820   5.223   0.355
 9796SOL    HW230288   2.758   5.124   0.241
 9797SOL     OW30289   4.698   3.342   6.129
 9797SOL    HW130290   4.759   3.415   6.159
 9797SOL    HW230291   4.725   3.310   6.039
 9798SOL     OW30292   2.967   0.699   1.159
 9798SOL    HW130293   2.951   0.718   1.256
 9798SOL    HW230294   3.052   0.647   1.149
 9799SOL     OW30295   2.871   3.484   2.708
 9799SOL    HW130296   2.840   3.539   2.785
 9799SOL    HW230297   2.933   3.412   2.740
 9800SOL     OW30298   4.290   5.558   6.847
 9800SOL    HW130299   4.215   5.592   6.790
 9800SOL    HW230300   4.254   5.491   6.913
 9801SOL     OW30301   3.713   6.137   6.885
 9801SOL    HW130302   3.725   6.150   6.787
 9801SOL    HW230303   3.798   6.161   6.932
 9802SOL     OW30304   0.439   3.410   1.118
 9802SOL    HW130305   0.375   3.419   1.194
 9802SOL    HW230306   0.388   3.394   1.034
 9803SOL     OW30307   5.986   0.396   6.783
 9803SOL    HW130308   5.903   0.433   6.741
 9803SOL    HW230309   6.035   0.470   6.829
 9804SOL     OW30310   6.344   5.278   4.395
 9804SOL    HW130311   6.292   5.340   4.336
 9804SOL    HW230312   6.404   5.332   4.454
 9805SOL     OW30313   1.662   5.369   6.923
 9805SOL    HW130314   1.615   5.457   6.917
 9805SOL    HW230315   1.752   5.376   6.880
 9806SOL     OW30316   7.011   2.625   2.477
 9806SOL    HW130317   6.924   2.664   2.446
 9806SOL    HW230318   7.016   2.632   2.576
 9807SOL     OW30319   3.984   2.114   0.163
 9807SOL    HW130320   4.002   2.051   0.238
 9807SOL    HW230321   3.937   2.195   0.197
 9808SOL     OW30322   0.085   1.899   4.360
 9808SOL    HW130323   0.005   1.905   4.420
 9808SOL    HW230324   0.101   1.803   4.336
 9809SOL     OW30325   0.127   1.624   4.294
 9809SOL    HW130326   0.111   1.563   4.371
 9809SOL    HW230327   0.206   1.591   4.241
 9810SOL     OW30328   3.184   1.209   3.112
 9810SOL    HW130329   3.098   1.218   3.162
 9810SOL    HW230330   3.169   1.155   3.029
 9811SOL     OW30331   6.811   6.691   2.829
 9811SOL    HW130332   6.721   6.726   2.855
 9811SOL    HW230333   6.857   6.759   2.772
 9812SOL     OW30334   5.023   2.234   6.080
 9812SOL    HW130335   5.025   2.144   6.122
 9812SOL    HW230336   5.112   2.278   6.091
 9813SOL     OW30337   0.008   4.803   0.087
 9813SOL    HW130338   0.093   4.761   0.055
 9813SOL    HW230339   6.957   4.785   0.023
 9814SOL     OW30340   6.988   6.732   6.007
 9814SOL    HW130341   6.929   6.655   5.983
 9814SOL    HW230342   0.061   6.703   6.002
 9815SOL     OW30343   5.628   3.448   1.884
 9815SOL    HW130344   5.712   3.425   1.934
 9815SOL    HW230345   5.612   3.546   1.888
 9816SOL     OW30346   6.425   0.210   6.815
 9816SOL    HW130347   6.397   0.176   6.904
 9816SOL    HW230348   6.405   0.308   6.808
 9817SOL     OW30349   3.053   6.125   0.434
 9817SOL    HW130350   3.115   6.103   0.359
 9817SOL    HW230351   2.977   6.179   0.399
 9818SOL     OW30352   0.932   0.086   3.600
 9818SOL    HW130353   0.850   0.054   3.647
 9818SOL    HW230354   0.992   0.133   3.665
 9819SOL     OW30355   6.367   3.795   5.204
 9819SOL    HW130356   6.350   3.892   5.190
 9819SOL    HW230357   6.352   3.746   5.118
 9820SOL     OW30358   3.454   2.074   6.421
 9820SOL    HW130359   3.410   2.093   6.509
 9820SOL    HW230360   3.553   2.073   6.432
 9821SOL     OW30361   4.397   2.554   1.713
 9821SOL    HW130362   4.324   2.560   1.645
 9821SOL    HW230363   4.419   2.645   1.746
 9822SOL     OW30364   3.359   6.309   5.261
 9822SOL    HW130365   3.330   6.264   5.176
 9822SOL    HW230366   3.278   6.333   5.315
 9823SOL     OW30367   1.690   0.406   3.222
 9823SOL    HW130368   1.759   0.423   3.292
 9823SOL    HW230369   1.630   0.331   3.252
 9824SOL     OW30370   0.988   6.025   5.217
 9824SOL    HW130371   1.067   6.016   5.155
 9824SOL    HW230372   1.021   6.037   5.310
 9825SOL     OW30373   5.501   6.053   6.022
 9825SOL    HW130374   5.423   6.114   6.013
 9825SOL    HW230375   5.549   6.073   6.108
 9826SOL     OW30376   2.402   6.792   5.859
 9826SOL    HW130377   2.332   6.815   5.791
 9826SOL    HW230378   2.417   6.693   5.858
 9827SOL     OW30379   1.717   5.780   1.852
 9827SOL    HW130380   1.739   5.814   1.761
 9827SOL    HW230381   1.757   5.689   1.864
 9828SOL     OW30382   3.441   2.116   5.084
 9828SOL    HW130383   3.508   2.069   5.027
 9828SOL    HW230384   3.400   2.192   5.033
 9829SOL     OW30385   4.730   5.370   5.280
 9829SOL    HW130386   4.797   5.296   5.291
 9829SOL    HW230387   4.731   5.401   5.185
 9830SOL     OW30388   5.992   2.362   2.402
 9830SOL    HW130389   6.020   2.328   2.492
 9830SOL    HW230390   6.043   2.446   2.381
 9831SOL     OW30391   0.470   3.952   1.972
 9831SOL    HW130392   0.406   3.924   2.044
 9831SOL    HW230393   0.418   3.981   1.892
 9832SOL     OW30394   4.538   4.497   4.776
 9832SOL    HW130395   4.464   4.501   4.843
 9832SOL    HW230396   4.532   4.411   4.725
 9833SOL     OW30397   3.322   4.077   4.055
 9833SOL    HW130398   3.413   4.043   4.076
 9833SOL    HW230399   3.316   4.099   3.958
 9834SOL     OW30400   2.236   5.600   5.322
 9834SOL    HW130401   2.283   5.540   5.387
 9834SOL    HW230402   2.160   5.551   5.280
 9835SOL     OW30403   3.345   4.177   4.350
 9835SOL    HW130404   3.318   4.164   4.254
 9835SOL    HW230405   3.291   4.116   4.408
 9836SOL     OW30406   0.220   3.728   5.357
 9836SOL    HW130407   0.169   3.716   5.441
 9836SOL    HW230408   0.317   3.706   5.373
 9837SOL     OW30409   5.505   2.231   2.526
 9837SOL    HW130410   5.476   2.326   2.539
 9837SOL    HW230411   5.442   2.171   2.575
 9838SOL     OW30412   0.805   6.909   1.620
 9838SOL    HW130413   0.866   6.962   1.680
 9838SOL    HW230414   0.819   6.812   1.637
 9839SOL     OW30415   4.210   0.950   2.675
 9839SOL    HW130416   4.169   0.865   2.709
 9839SOL    HW230417   4.288   0.974   2.734
 9840SOL     OW30418   6.238   1.031   0.421
 9840SOL    HW130419   6.240   0.941   0.377
 9840SOL    HW230420   6.263   1.101   0.355
 9841SOL     OW30421   0.240   6.258   4.084
 9841SOL    HW130422   0.229   6.158   4.088
 9841SOL    HW230423   0.282   6.290   4.169
 9842SOL     OW30424   2.689   2.181   6.377
 9842SOL    HW130425   2.597   2.154   6.350
 9842SOL    HW230426   2.683   2.248   6.450
 9843SOL     OW30427   0.704   0.001   1.161
 9843SOL    HW130428   0.636   0.026   1.230
 9843SOL    HW230429   0.783   6.982   1.206
 9844SOL     OW30430   4.982   0.095   4.034
 9844SOL    HW130431   5.041   0.019   4.007
 9844SOL    HW230432   5.006   0.176   3.982
 9845SOL     OW30433   1.865   3.631   1.524
 9845SOL    HW130434   1.798   3.561   1.498
 9845SOL    HW230435   1.817   3.713   1.555
 9846SOL     OW30436   5.223   1.982   0.744
 9846SOL    HW130437   5.149   1.926   0.706
 9846SOL    HW230438   5.304   1.973   0.687
 9847SOL     OW30439   4.117   3.968   0.381
 9847SOL    HW130440   4.161   3.928   0.461
 9847SOL    HW230441   4.112   4.067   0.392
 9848SOL     OW30442   3.443   3.752   5.236
 9848SOL    HW130443   3.510   3.753   5.161
 9848SOL    HW230444   3.351   3.750   5.198
 9849SOL     OW30445   0.871   1.431   4.477
 9849SOL    HW130446   0.871   1.331   4.481
 9849SOL    HW230447   0.843   1.468   4.566
 9850SOL     OW30448   0.641   0.627   4.449
 9850SOL    HW130449   0.726   0.597   4.491
 9850SOL    HW230450   0.606   0.708   4.497
 9851SOL     OW30451   3.783   4.882   4.406
 9851SOL    HW130452   3.883   4.878   4.410
 9851SOL    HW230453   3.745   4.794   4.434
 9852SOL     OW30454   2.152   1.116   0.479
 9852SOL    HW130455   2.218   1.185   0.451
 9852SOL    HW230456   2.062   1.158   0.491
 9853SOL     OW30457   6.705   4.531   3.896
 9853SOL    HW130458   6.654   4.459   3.849
 9853SOL    HW230459   6.667   4.545   3.988
 9854SOL     OW30460   0.979   5.314   5.922
 9854SOL    HW130461   0.882   5.330   5.938
 9854SOL    HW230462   0.991   5.222   5.884
 9855SOL     OW30463   1.799   4.481   1.618
 9855SOL    HW130464   1.860   4.519   1.548
 9855SOL    HW230465   1.710   4.461   1.577
 9856SOL     OW30466   5.779   4.158   3.358
 9856SOL    HW130467   5.823   4.131   3.272
 9856SOL    HW230468   5.793   4.255   3.375
 9857SOL     OW30469   3.725   0.875   4.443
 9857SOL    HW130470   3.746   0.962   4.487
 9857SOL    HW230471   3.635   0.880   4.399
 9858SOL     OW30472   6.783   6.584   2.245
 9858SOL    HW130473   6.850   6.511   2.258
 9858SOL    HW230474   6.746   6.612   2.334
 9859SOL     OW30475   6.937   5.909   3.357
 9859SOL    HW130476   6.974   5.999   3.332
 9859SOL    HW230477   7.011   5.850   3.388
 9860SOL     OW30478   1.222   3.254   4.503
 9860SOL    HW130479   1.258   3.319   4.436
 9860SOL    HW230480   1.129   3.229   4.478
 9861SOL     OW30481   3.407   1.409   4.302
 9861SOL    HW130482   3.488   1.466   4.315
 9861SOL    HW230483   3.339   1.460   4.249
 9862SOL     OW30484   1.301   4.995   0.666
 9862SOL    HW130485   1.211   4.990   0.621
 9862SOL    HW230486   1.369   4.949   0.609
 9863SOL     OW30487   3.719   6.129   0.669
 9863SOL    HW130488   3.674   6.042   0.647
 9863SOL    HW230489   3.818   6.115   0.674
 9864SOL     OW30490   2.672   5.679   5.356
 9864SOL    HW130491   2.687   5.667   5.258
 9864SOL    HW230492   2.749   5.730   5.396
 9865SOL     OW30493   0.430   6.301   5.442
 9865SOL    HW130494   0.478   6.247   5.373
 9865SOL    HW230495   0.378   6.374   5.398
 9866SOL     OW30496   6.186   5.160   4.624
 9866SOL    HW130497   6.231   5.178   4.536
 9866SOL    HW230498   6.247   5.188   4.698
 9867SOL     OW30499   4.793   2.139   2.025
 9867SOL    HW130500   4.873   2.095   1.984
 9867SOL    HW230501   4.752   2.201   1.960
 9868SOL     OW30502   1.965   4.018   3.439
 9868SOL    HW130503   1.876   3.975   3.422
 9868SOL    HW230504   2.025   3.952   3.485
 9869SOL     OW30505   6.810   2.497   0.453
 9869SOL    HW130506   6.901   2.513   0.414
 9869SOL    HW230507   6.803   2.542   0.542
 9870SOL     OW30508   3.141   1.273   2.665
 9870SOL    HW130509   3.152   1.332   2.745
 9870SOL    HW230510   3.230   1.234   2.640
 9871SOL     OW30511   0.150   4.145   4.961
 9871SOL    HW130512   0.235   4.092   4.955
 9871SOL    HW230513   0.074   4.083   4.983
 9872SOL     OW30514   1.491   5.051   5.781
 9872SOL    HW130515   1.392   5.052   5.764
 9872SOL    HW230516   1.515   4.969   5.834
 9873SOL     OW30517   1.098   1.357   5.928
 9873SOL    HW130518   1.058   1.444   5.957
 9873SOL    HW230519   1.182   1.375   5.876
 9874SOL     OW30520   0.813   2.724   4.829
 9874SOL    HW130521   0.778   2.802   4.880
 9874SOL    HW230522   0.902   2.747   4.790
 9875SOL     OW30523   6.570   5.172   0.627
 9875SOL    HW130524   6.654   5.134   0.588
 9875SOL    HW230525   6.561   5.268   0.601
 9876SOL     OW30526   1.523   6.573   3.709
 9876SOL    HW130527   1.559   6.592   3.800
 9876SOL    HW230528   1.561   6.487   3.675
 9877SOL     OW30529   0.646   5.723   4.905
 9877SOL    HW130530   0.558   5.741   4.948
 9877SOL    HW230531   0.632   5.665   4.824
 9878SOL     OW30532   2.188   2.445   0.129
 9878SOL    HW130533   2.141   2.365   0.092
 9878SOL    HW230534   2.121   2.515   0.153
 9879SOL     OW30535   6.827   5.242   6.261
 9879SOL    HW130536   6.909   5.219   6.314
 9879SOL    HW230537   6.790   5.159   6.220
 9880SOL     OW30538   2.881   1.407   0.105
 9880SOL    HW130539   2.807   1.412   0.039
 9880SOL    HW230540   2.855   1.457   0.188
 9881SOL     OW30541   5.779   0.541   4.221
 9881SOL    HW130542   5.691   0.544   4.173
 9881SOL    HW230543   5.797   0.629   4.265
 9882SOL     OW30544   3.397   2.876   4.934
 9882SOL    HW130545   3.414   2.888   5.032
 9882SOL    HW230546   3.374   2.781   4.915
 9883SOL     OW30547   2.427   6.968   1.818
 9883SOL    HW130548   2.475   6.883   1.798
 9883SOL    HW230549   2.390   6.963   1.911
 9884SOL     OW30550   2.769   3.764   5.651
 9884SOL    HW130551   2.763   3.724   5.559
 9884SOL    HW230552   2.860   3.746   5.689
 9885SOL     OW30553   5.922   2.878   4.426
 9885SOL    HW130554   5.918   2.800   4.363
 9885SOL    HW230555   6.009   2.877   4.476
 9886SOL     OW30556   4.187   6.064   0.944
 9886SOL    HW130557   4.227   6.089   0.856
 9886SOL    HW230558   4.096   6.104   0.953
 9887SOL     OW30559   3.240   0.065   6.636
 9887SOL    HW130560   3.248   0.121   6.718
 9887SOL    HW230561   3.282   6.998   6.651
 9888SOL     OW30562   6.083   5.858   2.624
 9888SOL    HW130563   6.112   5.889   2.533
 9888SOL    HW230564   6.049   5.937   2.676
 9889SOL     OW30565   6.991   5.484   3.343
 9889SOL    HW130566   6.913   5.447   3.292
 9889SOL    HW230567   0.028   5.534   3.281
 9890SOL     OW30568   7.010   3.951   1.841
 9890SOL    HW130569   6.988   4.048   1.839
 9890SOL    HW230570   6.931   3.900   1.875
 9891SOL     OW30571   5.878   5.107   0.975
 9891SOL    HW130572   5.788   5.072   0.950
 9891SOL    HW230573   5.927   5.038   1.028
 9892SOL     OW30574   2.255   4.716   4.026
 9892SOL    HW130575   2.250   4.617   4.015
 9892SOL    HW230576   2.346   4.742   4.057
 9893SOL     OW30577   4.991   5.235   3.713
 9893SOL    HW130578   5.013   5.332   3.713
 9893SOL    HW230579   4.892   5.223   3.715
 9894SOL     OW30580   4.413   3.378   6.102
 9894SOL    HW130581   4.507   3.375   6.068
 9894SOL    HW230582   4.399   3.462   6.154
 9895SOL     OW30583   5.403   2.198   6.634
 9895SOL    HW130584   5.378   2.196   6.537
 9895SOL    HW230585   5.503   2.207   6.642
 9896SOL     OW30586   4.213   4.023   0.782
 9896SOL    HW130587   4.141   3.953   0.782
 9896SOL    HW230588   4.262   4.019   0.695
 9897SOL     OW30589   6.249   2.134   3.698
 9897SOL    HW130590   6.339   2.157   3.661
 9897SOL    HW230591   6.179   2.150   3.628
 9898SOL     OW30592   1.308   4.806   5.536
 9898SOL    HW130593   1.317   4.825   5.438
 9898SOL    HW230594   1.294   4.892   5.585
 9899SOL     OW30595   5.327   5.476   1.846
 9899SOL    HW130596   5.383   5.483   1.763
 9899SOL    HW230597   5.350   5.550   1.909
 9900SOL     OW30598   1.372   3.263   3.659
 9900SOL    HW130599   1.468   3.283   3.677
 9900SOL    HW230600   1.355   3.266   3.560
 9901SOL     OW30601   3.205   2.209   5.419
 9901SOL    HW130602   3.223   2.274   5.345
 9901SOL    HW230603   3.175   2.260   5.500
 9902SOL     OW30604   4.870   3.736   6.868
 9902SOL    HW130605   4.787   3.689   6.841
 9902SOL    HW230606   4.933   3.671   6.911
 9903SOL     OW30607   3.821   1.647   1.840
 9903SOL    HW130608   3.794   1.739   1.868
 9903SOL    HW230609   3.742   1.586   1.848
 9904SOL     OW30610   6.548   1.057   1.741
 9904SOL    HW130611   6.560   1.067   1.840
 9904SOL    HW230612   6.550   1.148   1.698
 9905SOL     OW30613   1.149   6.947   5.001
 9905SOL    HW130614   1.150   6.855   5.039
 9905SOL    HW230615   1.221   6.954   4.931
 9906SOL     OW30616   2.631   3.119   6.454
 9906SOL    HW130617   2.609   3.139   6.359
 9906SOL    HW230618   2.688   3.192   6.491
 9907SOL     OW30619   2.439   6.342   2.816
 9907SOL    HW130620   2.356   6.388   2.848
 9907SOL    HW230621   2.418   6.288   2.735
 9908SOL     OW30622   1.543   3.437   5.716
 9908SOL    HW130623   1.486   3.357   5.733
 9908SOL    HW230624   1.635   3.422   5.752
 9909SOL     OW30625   3.741   0.029   2.639
 9909SOL    HW130626   3.687   0.014   2.555
 9909SOL    HW230627   3.795   6.969   2.658
 9910SOL     OW30628   0.087   3.958   1.392
 9910SOL    HW130629   0.095   4.055   1.414
 9910SOL    HW230630   0.103   3.945   1.294
 9911SOL     OW30631   3.580   5.269   3.210
 9911SOL    HW130632   3.543   5.341   3.152
 9911SOL    HW230633   3.547   5.281   3.304
 9912SOL     OW30634   5.064   0.196   1.611
 9912SOL    HW130635   5.132   0.172   1.542
 9912SOL    HW230636   4.978   0.222   1.566
 9913SOL     OW30637   4.875   2.090   2.753
 9913SOL    HW130638   4.880   2.121   2.848
 9913SOL    HW230639   4.834   1.999   2.749
 9914SOL     OW30640   1.530   6.833   4.908
 9914SOL    HW130641   1.478   6.891   4.846
 9914SOL    HW230642   1.607   6.884   4.945
 9915SOL     OW30643   5.331   3.790   4.530
 9915SOL    HW130644   5.340   3.863   4.463
 9915SOL    HW230645   5.285   3.825   4.612
 9916SOL     OW30646   2.197   2.941   2.001
 9916SOL    HW130647   2.114   2.902   1.963
 9916SOL    HW230648   2.220   3.026   1.952
 9917SOL     OW30649   2.569   3.325   5.856
 9917SOL    HW130650   2.566   3.226   5.844
 9917SOL    HW230651   2.575   3.369   5.766
 9918SOL     OW30652   1.659   1.342   5.832
 9918SOL    HW130653   1.691   1.431   5.800
 9918SOL    HW230654   1.725   1.305   5.898
 9919SOL     OW30655   0.414   5.412   3.187
 9919SOL    HW130656   0.415   5.328   3.241
 9919SOL    HW230657   0.320   5.446   3.179
 9920SOL     OW30658   4.499   0.084   1.175
 9920SOL    HW130659   4.429   0.151   1.147
 9920SOL    HW230660   4.589   0.120   1.152
 9921SOL     OW30661   5.427   0.217   3.253
 9921SOL    HW130662   5.436   0.312   3.222
 9921SOL    HW230663   5.508   0.192   3.306
 9922SOL     OW30664   4.496   3.692   0.945
 9922SOL    HW130665   4.498   3.712   1.043
 9922SOL    HW230666   4.487   3.777   0.894
 9923SOL     OW30667   6.350   2.266   6.718
 9923SOL    HW130668   6.263   2.271   6.669
 9923SOL    HW230669   6.344   2.198   6.791
 9924SOL     OW30670   6.747   0.586   3.503
 9924SOL    HW130671   6.737   0.668   3.447
 9924SOL    HW230672   6.673   0.582   3.570
 9925SOL     OW30673   2.319   2.658   5.028
 9925SOL    HW130674   2.241   2.597   5.010
 9925SOL    HW230675   2.302   2.746   4.983
 9926SOL     OW30676   1.243   1.165   0.647
 9926SOL    HW130677   1.316   1.110   0.688
 9926SOL    HW230678   1.273   1.259   0.638
 9927SOL     OW30679   0.760   2.370   2.513
 9927SOL    HW130680   0.847   2.333   2.480
 9927SOL    HW230681   0.778   2.447   2.574
 9928SOL     OW30682   0.210   3.304   3.249
 9928SOL    HW130683   0.137   3.286   3.315
 9928SOL    HW230684   0.188   3.385   3.194
 9929SOL     OW30685   2.618   3.974   0.038
 9929SOL    HW130686   2.657   4.033   0.108
 9929SOL    HW230687   2.617   4.022   6.973
 9930SOL     OW30688   6.913   6.400   6.370
 9930SOL    HW130689   6.878   6.427   6.280
 9930SOL    HW230690   7.004   6.439   6.383
 9931SOL     OW30691   1.678   5.563   5.608
 9931SOL    HW130692   1.589   5.518   5.612
 9931SOL    HW230693   1.721   5.560   5.699
 9932SOL     OW30694   1.578   1.905   0.260
 9932SOL    HW130695   1.597   1.986   0.316
 9932SOL    HW230696   1.609   1.823   0.309
 9933SOL     OW30697   1.070   2.464   3.983
 9933SOL    HW130698   1.068   2.538   4.050
 9933SOL    HW230699   1.096   2.379   4.029
 9934SOL     OW30700   3.815   0.984   5.733
 9934SOL    HW130701   3.832   0.921   5.657
 9934SOL    HW230702   3.724   1.024   5.724
 9935SOL     OW30703   2.790   2.045   1.145
 9935SOL    HW130704   2.720   2.011   1.207
 9935SOL    HW230705   2.781   2.145   1.135
 9936SOL     OW30706   5.911   6.249   6.343
 9936SOL    HW130707   5.891   6.151   6.349
 9936SOL    HW230708   5.981   6.272   6.410
 9937SOL     OW30709   0.678   0.272   3.677
 9937SOL    HW130710   0.748   0.343   3.664
 9937SOL    HW230711   0.685   0.205   3.604
 9938SOL     OW30712   6.334   1.530   3.977
 9938SOL    HW130713   6.242   1.491   3.982
 9938SOL    HW230714   6.371   1.539   4.069
 9939SOL     OW30715   2.995   4.636   1.303
 9939SOL    HW130716   2.935   4.712   1.280
 9939SOL    HW230717   3.015   4.637   1.402
 9940SOL     OW30718   0.561   1.146   3.547
 9940SOL    HW130719   0.467   1.124   3.523
 9940SOL    HW230720   0.592   1.225   3.495
 9941SOL     OW30721   5.275   4.588   6.484
 9941SOL    HW130722   5.225   4.635   6.411
 9941SOL    HW230723   5.352   4.645   6.513
 9942SOL     OW30724   4.733   5.133   3.008
 9942SOL    HW130725   4.687   5.222   3.014
 9942SOL    HW230726   4.777   5.124   2.919
 9943SOL     OW30727   2.587   4.100   6.772
 9943SOL    HW130728   2.680   4.064   6.758
 9943SOL    HW230729   2.533   4.085   6.689
 9944SOL     OW30730   0.728   4.720   6.698
 9944SOL    HW130731   0.756   4.791   6.634
 9944SOL    HW230732   0.810   4.676   6.737
 9945SOL     OW30733   6.103   3.355   6.514
 9945SOL    HW130734   6.040   3.377   6.588
 9945SOL    HW230735   6.163   3.433   6.496
 9946SOL     OW30736   5.520   1.632   2.203
 9946SOL    HW130737   5.476   1.546   2.176
 9946SOL    HW230738   5.619   1.618   2.209
 9947SOL     OW30739   1.348   1.839   3.510
 9947SOL    HW130740   1.439   1.831   3.469
 9947SOL    HW230741   1.335   1.767   3.578
 9948SOL     OW30742   6.422   6.906   4.495
 9948SOL    HW130743   6.377   6.936   4.579
 9948SOL    HW230744   6.374   6.945   4.416
 9949SOL     OW30745   5.745   5.083   4.136
 9949SOL    HW130746   5.786   5.038   4.056
 9949SOL    HW230747   5.775   5.036   4.219
 9950SOL     OW30748   6.271   4.334   5.533
 9950SOL    HW130749   6.187   4.344   5.586
 9950SOL    HW230750   6.349   4.364   5.589
 9951SOL     OW30751   0.497   2.450   2.854
 9951SOL    HW130752   0.434   2.403   2.791
 9951SOL    HW230753   0.486   2.549   2.844
 9952SOL     OW30754   0.455   5.028   2.082
 9952SOL    HW130755   0.388   5.100   2.095
 9952SOL    HW230756   0.537   5.065   2.039
 9953SOL     OW30757   6.012   2.357   3.363
 9953SOL    HW130758   5.946   2.418   3.407
 9953SOL    HW230759   5.987   2.346   3.266
 9954SOL     OW30760   3.640   1.747   5.831
 9954SOL    HW130761   3.662   1.696   5.749
 9954SOL    HW230762   3.720   1.801   5.860
 9955SOL     OW30763   6.416   4.208   0.817
 9955SOL    HW130764   6.474   4.155   0.755
 9955SOL    HW230765   6.347   4.148   0.857
 9956SOL     OW30766   2.074   3.700   3.104
 9956SOL    HW130767   2.083   3.752   3.019
 9956SOL    HW230768   2.051   3.605   3.083
 9957SOL     OW30769   4.686   0.097   0.748
 9957SOL    HW130770   4.655   0.077   0.655
 9957SOL    HW230771   4.608   0.099   0.810
 9958SOL     OW30772   5.493   5.115   0.139
 9958SOL    HW130773   5.459   5.031   0.179
 9958SOL    HW230774   5.418   5.161   0.089
 9959SOL     OW30775   4.516   3.990   0.856
 9959SOL    HW130776   4.581   4.066   0.863
 9959SOL    HW230777   4.423   4.026   0.863
 9960SOL     OW30778   0.686   0.987   7.006
 9960SOL    HW130779   0.697   0.888   6.996
 9960SOL    HW230780   0.607   1.006   0.041
 9961SOL     OW30781   2.855   4.874   1.244
 9961SOL    HW130782   2.764   4.912   1.264
 9961SOL    HW230783   2.881   4.897   1.150
 9962SOL     OW30784   3.554   6.909   1.430
 9962SOL    HW130785   3.461   6.934   1.403
 9962SOL    HW230786   3.551   6.831   1.492
 9963SOL     OW30787   0.877   1.367   6.238
 9963SOL    HW130788   0.961   1.373   6.292
 9963SOL    HW230789   0.813   1.438   6.267
 9964SOL     OW30790   4.313   4.019   5.933
 9964SOL    HW130791   4.214   4.025   5.919
 9964SOL    HW230792   4.332   3.994   6.028
 9965SOL     OW30793   2.883   5.677   4.731
 9965SOL    HW130794   2.866   5.671   4.632
 9965SOL    HW230795   2.980   5.660   4.749
 9966SOL     OW30796   4.214   4.925   2.605
 9966SOL    HW130797   4.256   4.860   2.541
 9966SOL    HW230798   4.140   4.879   2.654
 9967SOL     OW30799   0.492   0.386   2.997
 9967SOL    HW130800   0.591   0.386   2.983
 9967SOL    HW230801   0.456   0.293   2.986
 9968SOL     OW30802   3.575   6.660   0.236
 9968SOL    HW130803   3.540   6.653   0.329
 9968SOL    HW230804   3.669   6.626   0.233
 9969SOL     OW30805   1.807   5.239   4.044
 9969SOL    HW130806   1.835   5.144   4.056
 9969SOL    HW230807   1.888   5.298   4.053
 9970SOL     OW30808   6.074   3.822   1.584
 9970SOL    HW130809   6.140   3.774   1.525
 9970SOL    HW230810   5.992   3.844   1.531
 9971SOL     OW30811   0.543   4.350   2.690
 9971SOL    HW130812   0.517   4.428   2.746
 9971SOL    HW230813   0.557   4.381   2.595
 9972SOL     OW30814   3.149   3.253   6.935
 9972SOL    HW130815   3.169   3.315   7.012
 9972SOL    HW230816   3.104   3.304   6.862
 9973SOL     OW30817   3.336   2.075   3.812
 9973SOL    HW130818   3.268   2.005   3.790
 9973SOL    HW230819   3.371   2.059   3.904
 9974SOL     OW30820   0.736   2.918   3.008
 9974SOL    HW130821   0.691   2.829   3.017
 9974SOL    HW230822   0.707   2.962   2.923
 9975SOL     OW30823   1.746   5.009   6.972
 9975SOL    HW130824   1.800   5.021   6.889
 9975SOL    HW230825   1.730   4.911   6.988
 9976SOL     OW30826   3.111   4.044   6.356
 9976SOL    HW130827   3.208   4.048   6.379
 9976SOL    HW230828   3.081   4.133   6.320
 9977SOL     OW30829   5.350   6.136   5.411
 9977SOL    HW130830   5.341   6.042   5.444
 9977SOL    HW230831   5.421   6.140   5.341
 9978SOL     OW30832   0.845   3.125   6.278
 9978SOL    HW130833   0.841   3.041   6.332
 9978SOL    HW230834   0.941   3.152   6.265
 9979SOL     OW30835   4.194   3.284   5.403
 9979SOL    HW130836   4.293   3.271   5.392
 9979SOL    HW230837   4.171   3.380   5.392
 9980SOL     OW30838   2.189   1.012   0.763
 9980SOL    HW130839   2.195   0.936   0.699
 9980SOL    HW230840   2.117   0.994   0.830
 9981SOL     OW30841   0.293   2.733   1.705
 9981SOL    HW130842   0.378   2.774   1.672
 9981SOL    HW230843   0.296   2.634   1.691
 9982SOL     OW30844   2.296   2.379   5.324
 9982SOL    HW130845   2.363   2.370   5.250
 9982SOL    HW230846   2.207   2.347   5.293
 9983SOL     OW30847   0.603   2.632   1.653
 9983SOL    HW130848   0.553   2.547   1.636
 9983SOL    HW230849   0.698   2.610   1.677
 9984SOL     OW30850   0.043   6.139   1.090
 9984SOL    HW130851   0.105   6.144   1.169
 9984SOL    HW230852   0.041   6.227   1.043
 9985SOL     OW30853   4.017   5.290   0.528
 9985SOL    HW130854   3.957   5.365   0.501
 9985SOL    HW230855   3.971   5.234   0.597
 9986SOL     OW30856   5.151   4.650   0.478
 9986SOL    HW130857   5.184   4.741   0.456
 9986SOL    HW230858   5.183   4.624   0.569
 9987SOL     OW30859   5.310   2.988   1.545
 9987SOL    HW130860   5.319   3.071   1.601
 9987SOL    HW230861   5.214   2.958   1.546
 9988SOL     OW30862   5.387   6.459   4.588
 9988SOL    HW130863   5.474   6.415   4.606
 9988SOL    HW230864   5.380   6.543   4.642
 9989SOL     OW30865   6.336   5.171   2.386
 9989SOL    HW130866   6.257   5.122   2.349
 9989SOL    HW230867   6.407   5.105   2.411
 9990SOL     OW30868   0.323   6.934   3.765
 9990SOL    HW130869   0.310   6.952   3.667
 9990SOL    HW230870   0.238   6.901   3.804
 9991SOL     OW30871   1.640   4.428   4.098
 9991SOL    HW130872   1.550   4.384   4.102
 9991SOL    HW230873   1.711   4.358   4.104
 9992SOL     OW30874   3.533   4.855   0.887
 9992SOL    HW130875   3.521   4.951   0.862
 9992SOL    HW230876   3.469   4.832   0.961
 9993SOL     OW30877   3.860   0.078   4.629
 9993SOL    HW130878   3.924   0.080   4.552
 9993SOL    HW230879   3.773   0.040   4.599
 9994SOL     OW30880   6.782   5.040   4.381
 9994SOL    HW130881   6.859   5.049   4.317
 9994SOL    HW230882   6.800   4.965   4.445
 9995SOL     OW30883   2.966   0.593   5.240
 9995SOL    HW130884   3.032   0.597   5.166
 9995SOL    HW230885   2.903   0.671   5.233
 9996SOL     OW30886   2.148   3.682   0.887
 9996SOL    HW130887   2.052   3.653   0.890
 9996SOL    HW230888   2.198   3.627   0.821
 9997SOL     OW30889   6.109   3.258   3.922
 9997SOL    HW130890   6.027   3.266   3.979
 9997SOL    HW230891   6.154   3.347   3.915
 9998SOL     OW30892   5.018   4.127   2.638
 9998SOL    HW130893   5.033   4.216   2.595
 9998SOL    HW230894   4.927   4.093   2.613
 9999SOL     OW30895   0.746   6.262   4.245
 9999SOL    HW130896   0.707   6.301   4.162
 9999SOL    HW230897   0.824   6.204   4.221
10000SOL     OW30898   5.507   1.861   1.717
10000SOL    HW130899   5.529   1.868   1.814
10000SOL    HW230900   5.415   1.825   1.706
10001SOL     OW30901   3.898   6.303   2.596
10001SOL    HW130902   3.898   6.203   2.599
10001SOL    HW230903   3.991   6.337   2.583
10002SOL     OW30904   2.958   0.876   1.870
10002SOL    HW130905   2.979   0.972   1.854
10002SOL    HW230906   3.015   0.818   1.812
10003SOL     OW30907   1.493   1.042   3.736
10003SOL    HW130908   1.579   1.091   3.747
10003SOL    HW230909   1.417   1.102   3.760
10004SOL     OW30910   6.505   4.566   4.973
10004SOL    HW130911   6.495   4.640   5.038
10004SOL    HW230912   6.589   4.578   4.921
10005SOL     OW30913   1.833   5.655   3.292
10005SOL    HW130914   1.820   5.655   3.193
10005SOL    HW230915   1.908   5.593   3.315
10006SOL     OW30916   4.991   0.565   5.807
10006SOL    HW130917   5.073   0.507   5.806
10006SOL    HW230918   4.965   0.586   5.713
10007SOL     OW30919   1.645   5.463   4.684
10007SOL    HW130920   1.710   5.387   4.693
10007SOL    HW230921   1.595   5.454   4.598
10008SOL     OW30922   4.238   1.780   5.862
10008SOL    HW130923   4.308   1.850   5.854
10008SOL    HW230924   4.219   1.742   5.771
10009SOL     OW30925   1.111   3.841   1.893
10009SOL    HW130926   1.013   3.841   1.911
10009SOL    HW230927   1.161   3.825   1.979
10010SOL     OW30928   2.228   4.773   6.984
10010SOL    HW130929   2.301   4.706   6.968
10010SOL    HW230930   2.141   4.736   6.952
10011SOL     OW30931   1.357   3.323   0.408
10011SOL    HW130932   1.408   3.408   0.421
10011SOL    HW230933   1.405   3.247   0.452
10012SOL     OW30934   4.969   1.266   2.136
10012SOL    HW130935   4.890   1.222   2.092
10012SOL    HW230936   5.053   1.234   2.093
10013SOL     OW30937   1.153   6.011   4.768
10013SOL    HW130938   1.175   5.933   4.710
10013SOL    HW230939   1.066   6.051   4.738
10014SOL     OW30940   0.805   6.990   3.231
10014SOL    HW130941   0.838   6.961   3.321
10014SOL    HW230942   0.757   0.055   3.240
10015SOL     OW30943   3.814   4.441   5.698
10015SOL    HW130944   3.723   4.418   5.666
10015SOL    HW230945   3.866   4.484   5.623
10016SOL     OW30946   2.424   6.597   3.201
10016SOL    HW130947   2.406   6.591   3.299
10016SOL    HW230948   2.388   6.683   3.166
10017SOL     OW30949   2.659   1.516   3.113
10017SOL    HW130950   2.654   1.446   3.185
10017SOL    HW230951   2.574   1.516   3.061
10018SOL     OW30952   6.174   2.995   6.337
10018SOL    HW130953   6.241   3.055   6.380
10018SOL    HW230954   6.124   3.047   6.267
10019SOL     OW30955   0.694   1.531   2.797
10019SOL    HW130956   0.680   1.591   2.719
10019SOL    HW230957   0.722   1.441   2.765
10020SOL     OW30958   6.482   0.576   1.796
10020SOL    HW130959   6.452   0.671   1.782
10020SOL    HW230960   6.422   0.532   1.863
10021SOL     OW30961   1.742   4.041   2.118
10021SOL    HW130962   1.740   3.943   2.136
10021SOL    HW230963   1.681   4.088   2.181
10022SOL     OW30964   2.817   6.207   0.230
10022SOL    HW130965   2.793   6.110   0.224
10022SOL    HW230966   2.736   6.263   0.214
10023SOL     OW30967   2.365   0.144   5.908
10023SOL    HW130968   2.329   0.205   5.978
10023SOL    HW230969   2.465   0.143   5.911
10024SOL     OW30970   1.805   4.417   3.065
10024SOL    HW130971   1.773   4.470   2.986
10024SOL    HW230972   1.733   4.413   3.134
10025SOL     OW30973   1.389   4.192   1.590
10025SOL    HW130974   1.402   4.106   1.638
10025SOL    HW230975   1.304   4.235   1.620
10026SOL     OW30976   5.064   1.413   3.340
10026SOL    HW130977   5.006   1.461   3.405
10026SOL    HW230978   5.153   1.458   3.334
10027SOL     OW30979   1.844   1.977   5.705
10027SOL    HW130980   1.886   2.041   5.640
10027SOL    HW230981   1.770   2.023   5.754
10028SOL     OW30982   4.327   0.810   1.694
10028SOL    HW130983   4.329   0.888   1.632
10028SOL    HW230984   4.388   0.738   1.659
10029SOL     OW30985   0.192   3.240   5.094
10029SOL    HW130986   0.095   3.228   5.115
10029SOL    HW230987   0.214   3.191   5.009
10030SOL     OW30988   2.460   6.822   4.645
10030SOL    HW130989   2.439   6.808   4.742
10030SOL    HW230990   2.406   6.758   4.590
10031SOL     OW30991   3.724   5.423   3.733
10031SOL    HW130992   3.815   5.465   3.745
10031SOL    HW230993   3.728   5.356   3.660
10032SOL     OW30994   3.061   6.062   4.999
10032SOL    HW130995   3.006   6.064   5.082
10032SOL    HW230996   3.017   6.003   4.931
10033SOL     OW30997   4.239   1.498   3.108
10033SOL    HW130998   4.273   1.550   3.029
10033SOL    HW230999   4.141   1.511   3.117
10034SOL     OW31000   2.419   0.641   3.221
10034SOL    HW131001   2.333   0.595   3.245
10034SOL    HW231002   2.489   0.572   3.201
10035SOL     OW31003   5.932   3.053   1.376
10035SOL    HW131004   5.927   2.960   1.338
10035SOL    HW231005   5.937   3.048   1.476
10036SOL     OW31006   6.100   0.636   6.894
10036SOL    HW131007   6.091   0.726   6.851
10036SOL    HW231008   6.164   0.642   6.970
10037SOL     OW31009   6.178   6.872   6.799
10037SOL    HW131010   6.251   6.824   6.751
10037SOL    HW231011   6.148   6.951   6.745
10038SOL     OW31012   4.536   0.018   0.032
10038SOL    HW131013   4.604   0.033   6.983
10038SOL    HW231014   4.550   0.083   0.107
10039SOL     OW31015   5.253   5.350   3.897
10039SOL    HW131016   5.312   5.413   3.947
10039SOL    HW231017   5.207   5.289   3.962
10040SOL     OW31018   3.725   0.461   0.349
10040SOL    HW131019   3.652   0.435   0.287
10040SOL    HW231020   3.782   0.531   0.307
10041SOL     OW31021   6.834   4.672   5.579
10041SOL    HW131022   6.836   4.638   5.673
10041SOL    HW231023   6.912   4.634   5.529
10042SOL     OW31024   0.662   0.866   5.105
10042SOL    HW131025   0.662   0.767   5.087
10042SOL    HW231026   0.575   0.891   5.148
10043SOL     OW31027   1.655   1.121   3.480
10043SOL    HW131028   1.577   1.081   3.528
10043SOL    HW231029   1.634   1.130   3.383
10044SOL     OW31030   2.107   0.956   5.160
10044SOL    HW131031   2.021   0.984   5.118
10044SOL    HW231032   2.116   0.998   5.250
10045SOL     OW31033   4.509   6.752   4.494
10045SOL    HW131034   4.606   6.760   4.470
10045SOL    HW231035   4.454   6.746   4.411
10046SOL     OW31036   6.970   2.511   1.844
10046SOL    HW131037   7.012   2.594   1.881
10046SOL    HW231038   6.943   2.451   1.919
10047SOL     OW31039   6.476   1.449   4.885
10047SOL    HW131040   6.517   1.399   4.962
10047SOL    HW231041   6.433   1.385   4.822
10048SOL     OW31042   3.593   1.479   1.844
10048SOL    HW131043   3.588   1.556   1.780
10048SOL    HW231044   3.506   1.471   1.892
10049SOL     OW31045   2.322   0.778   6.592
10049SOL    HW131046   2.357   0.801   6.683
10049SOL    HW231047   2.380   0.707   6.551
10050SOL     OW31048   5.183   2.677   4.632
10050SOL    HW131049   5.179   2.624   4.717
10050SOL    HW231050   5.279   2.690   4.605
10051SOL     OW31051   6.496   2.767   4.375
10051SOL    HW131052   6.466   2.854   4.414
10051SOL    HW231053   6.454   2.755   4.285
10052SOL     OW31054   1.639   3.510   2.069
10052SOL    HW131055   1.566   3.537   2.006
10052SOL    HW231056   1.720   3.482   2.017
10053SOL     OW31057   3.511   5.408   3.457
10053SOL    HW131058   3.584   5.356   3.502
10053SOL    HW231059   3.423   5.364   3.476
10054SOL     OW31060   4.205   5.594   5.943
10054SOL    HW131061   4.127   5.611   6.004
10054SOL    HW231062   4.289   5.623   5.989
10055SOL     OW31063   6.702   2.199   5.030
10055SOL    HW131064   6.649   2.207   5.115
10055SOL    HW231065   6.767   2.275   5.024
10056SOL     OW31066   6.404   4.946   1.321
10056SOL    HW131067   6.446   4.856   1.334
10056SOL    HW231068   6.449   5.013   1.379
10057SOL     OW31069   4.034   2.096   4.489
10057SOL    HW131070   4.081   2.008   4.489
10057SOL    HW231071   4.078   2.158   4.554
10058SOL     OW31072   6.417   5.308   3.705
10058SOL    HW131073   6.434   5.223   3.755
10058SOL    HW231074   6.483   5.317   3.631
10059SOL     OW31075   5.452   0.097   0.996
10059SOL    HW131076   5.391   0.167   1.034
10059SOL    HW231077   5.502   0.053   1.071
10060SOL     OW31078   2.712   2.175   1.957
10060SOL    HW131079   2.773   2.224   2.018
10060SOL    HW231080   2.762   2.151   1.873
10061SOL     OW31081   5.909   0.812   4.131
10061SOL    HW131082   5.949   0.730   4.090
10061SOL    HW231083   5.942   0.893   4.083
10062SOL     OW31084   5.741   5.968   3.632
10062SOL    HW131085   5.835   5.959   3.598
10062SOL    HW231086   5.743   5.995   3.728
10063SOL     OW31087   1.158   3.234   3.844
10063SOL    HW131088   1.224   3.255   3.772
10063SOL    HW231089   1.135   3.317   3.894
10064SOL     OW31090   4.898   5.613   4.569
10064SOL    HW131091   4.889   5.698   4.517
10064SOL    HW231092   4.913   5.537   4.506
10065SOL     OW31093   1.433   6.833   2.170
10065SOL    HW131094   1.408   6.773   2.094
10065SOL    HW231095   1.502   6.789   2.227
10066SOL     OW31096   0.294   0.133   4.283
10066SOL    HW131097   0.326   0.072   4.211
10066SOL    HW231098   0.355   0.124   4.363
10067SOL     OW31099   5.064   4.943   4.616
10067SOL    HW131100   5.038   4.851   4.643
10067SOL    HW231101   5.039   4.959   4.520
10068SOL     OW31102   5.634   2.880   4.426
10068SOL    HW131103   5.732   2.885   4.407
10068SOL    HW231104   5.613   2.938   4.506
10069SOL     OW31105   2.683   0.985   3.845
10069SOL    HW131106   2.778   0.955   3.858
10069SOL    HW231107   2.636   0.987   3.934
10070SOL     OW31108   0.383   6.265   5.006
10070SOL    HW131109   0.347   6.251   5.098
10070SOL    HW231110   0.482   6.282   5.011
10071SOL     OW31111   4.376   5.499   3.845
10071SOL    HW131112   4.429   5.532   3.767
10071SOL    HW231113   4.306   5.566   3.869
10072SOL     OW31114   0.834   6.210   3.673
10072SOL    HW131115   0.785   6.125   3.690
10072SOL    HW231116   0.770   6.279   3.639
10073SOL     OW31117   5.985   4.831   5.256
10073SOL    HW131118   6.064   4.893   5.257
10073SOL    HW231119   6.007   4.751   5.200
10074SOL     OW31120   1.619   6.542   6.039
10074SOL    HW131121   1.617   6.583   5.948
10074SOL    HW231122   1.557   6.463   6.041
10075SOL     OW31123   1.322   2.281   2.877
10075SOL    HW131124   1.272   2.306   2.960
10075SOL    HW231125   1.377   2.200   2.894
10076SOL     OW31126   4.885   0.479   4.606
10076SOL    HW131127   4.802   0.454   4.556
10076SOL    HW231128   4.936   0.547   4.553
10077SOL     OW31129   3.976   2.344   6.483
10077SOL    HW131130   3.958   2.367   6.579
10077SOL    HW231131   3.962   2.425   6.426
10078SOL     OW31132   6.375   6.453   4.691
10078SOL    HW131133   6.379   6.470   4.789
10078SOL    HW231134   6.391   6.539   4.642
10079SOL     OW31135   1.196   2.706   1.505
10079SOL    HW131136   1.171   2.803   1.511
10079SOL    HW231137   1.238   2.688   1.416
10080SOL     OW31138   2.179   2.466   0.565
10080SOL    HW131139   2.205   2.500   0.655
10080SOL    HW231140   2.225   2.521   0.494
10081SOL     OW31141   0.775   0.540   6.469
10081SOL    HW131142   0.798   0.531   6.372
10081SOL    HW231143   0.722   0.623   6.483
10082SOL     OW31144   6.457   2.300   1.584
10082SOL    HW131145   6.389   2.235   1.618
10082SOL    HW231146   6.447   2.312   1.486
10083SOL     OW31147   4.731   1.039   3.997
10083SOL    HW131148   4.735   1.087   3.910
10083SOL    HW231149   4.641   1.053   4.039
10084SOL     OW31150   3.129   0.788   6.304
10084SOL    HW131151   3.060   0.813   6.237
10084SOL    HW231152   3.204   0.739   6.258
10085SOL     OW31153   0.726   4.818   3.102
10085SOL    HW131154   0.671   4.779   3.028
10085SOL    HW231155   0.678   4.897   3.142
10086SOL     OW31156   6.323   4.909   2.537
10086SOL    HW131157   6.241   4.956   2.570
10086SOL    HW231158   6.404   4.954   2.575
10087SOL     OW31159   0.929   1.041   4.638
10087SOL    HW131160   1.018   1.081   4.616
10087SOL    HW231161   0.856   1.093   4.594
10088SOL     OW31162   0.067   0.024   5.176
10088SOL    HW131163   0.001   0.083   5.222
10088SOL    HW231164   0.078   0.054   5.081
10089SOL     OW31165   2.760   1.479   2.699
10089SOL    HW131166   2.707   1.510   2.620
10089SOL    HW231167   2.734   1.385   2.721
10090SOL     OW31168   1.129   4.331   0.712
10090SOL    HW131169   1.175   4.384   0.641
10090SOL    HW231170   1.042   4.295   0.677
10091SOL     OW31171   1.119   3.614   4.634
10091SOL    HW131172   1.094   3.615   4.537
10091SOL    HW231173   1.056   3.554   4.684
10092SOL     OW31174   1.971   3.872   5.413
10092SOL    HW131175   2.027   3.898   5.334
10092SOL    HW231176   1.941   3.777   5.402
10093SOL     OW31177   0.445   5.013   5.056
10093SOL    HW131178   0.472   4.940   5.119
10093SOL    HW231179   0.517   5.081   5.051
10094SOL     OW31180   2.433   0.298   2.627
10094SOL    HW131181   2.445   0.285   2.529
10094SOL    HW231182   2.336   0.312   2.647
10095SOL     OW31183   6.589   1.677   5.501
10095SOL    HW131184   6.539   1.761   5.482
10095SOL    HW231185   6.616   1.634   5.415
10096SOL     OW31186   6.722   5.430   2.750
10096SOL    HW131187   6.788   5.480   2.693
10096SOL    HW231188   6.679   5.493   2.814
10097SOL     OW31189   0.972   1.414   0.913
10097SOL    HW131190   1.003   1.454   0.826
10097SOL    HW231191   0.873   1.425   0.921
10098SOL     OW31192   1.719   5.975   5.774
10098SOL    HW131193   1.668   6.060   5.787
10098SOL    HW231194   1.689   5.930   5.690
10099SOL     OW31195   6.787   3.608   5.616
10099SOL    HW131196   6.709   3.665   5.591
10099SOL    HW231197   6.762   3.511   5.608
10100SOL     OW31198   4.448   0.837   4.968
10100SOL    HW131199   4.424   0.803   5.059
10100SOL    HW231200   4.522   0.782   4.929
10101SOL     OW31201   0.093   4.760   2.394
10101SOL    HW131202   0.093   4.754   2.294
10101SOL    HW231203   0.176   4.718   2.430
10102SOL     OW31204   3.264   0.904   2.415
10102SOL    HW131205   3.292   0.859   2.330
10102SOL    HW231206   3.344   0.945   2.459
10103SOL     OW31207   2.635   1.272   5.211
10103SOL    HW131208   2.704   1.333   5.253
10103SOL    HW231209   2.629   1.291   5.113
10104SOL     OW31210   0.647   4.483   5.775
10104SOL    HW131211   0.713   4.440   5.712
10104SOL    HW231212   0.573   4.523   5.722
10105SOL     OW31213   1.339   1.340   6.540
10105SOL    HW131214   1.430   1.335   6.499
10105SOL    HW231215   1.283   1.264   6.505
10106SOL     OW31216   5.148   5.223   0.527
10106SOL    HW131217   5.218   5.259   0.589
10106SOL    HW231218   5.057   5.246   0.562
10107SOL     OW31219   6.179   1.112   5.767
10107SOL    HW131220   6.266   1.161   5.773
10107SOL    HW231221   6.195   1.014   5.770
10108SOL     OW31222   6.377   6.291   0.026
10108SOL    HW131223   6.426   6.290   0.113
10108SOL    HW231224   6.398   6.208   6.997
10109SOL     OW31225   4.402   5.829   2.746
10109SOL    HW131226   4.310   5.857   2.718
10109SOL    HW231227   4.470   5.893   2.709
10110SOL     OW31228   3.382   6.586   5.356
10110SOL    HW131229   3.418   6.644   5.283
10110SOL    HW231230   3.378   6.492   5.325
10111SOL     OW31231   6.788   3.286   3.753
10111SOL    HW131232   6.709   3.323   3.803
10111SOL    HW231233   6.776   3.305   3.655
10112SOL     OW31234   5.546   3.694   5.471
10112SOL    HW131235   5.573   3.784   5.437
10112SOL    HW231236   5.458   3.668   5.431
10113SOL     OW31237   3.897   1.093   6.972
10113SOL    HW131238   3.899   1.002   6.932
10113SOL    HW231239   3.884   1.086   0.049
10114SOL     OW31240   5.605   1.508   0.564
10114SOL    HW131241   5.582   1.446   0.489
10114SOL    HW231242   5.615   1.456   0.649
10115SOL     OW31243   1.851   2.328   3.530
10115SOL    HW131244   1.831   2.417   3.572
10115SOL    HW231245   1.949   2.310   3.536
10116SOL     OW31246   1.007   6.630   0.814
10116SOL    HW131247   1.055   6.581   0.887
10116SOL    HW231248   1.015   6.728   0.830
10117SOL     OW31249   6.236   0.254   4.817
10117SOL    HW131250   6.208   0.318   4.889
10117SOL    HW231251   6.189   0.278   4.732
10118SOL     OW31252   0.397   4.844   2.965
10118SOL    HW131253   0.452   4.761   2.950
10118SOL    HW231254   0.388   4.894   2.878
10119SOL     OW31255   2.064   0.091   4.450
10119SOL    HW131256   2.146   0.090   4.394
10119SOL    HW231257   1.984   0.111   4.393
10120SOL     OW31258   0.813   3.391   4.035
10120SOL    HW131259   0.757   3.426   4.110
10120SOL    HW231260   0.756   3.335   3.975
10121SOL     OW31261   6.934   4.534   5.106
10121SOL    HW131262   6.894   4.591   5.177
10121SOL    HW231263   6.963   4.591   5.029
10122SOL     OW31264   5.680   3.033   6.837
10122SOL    HW131265   5.722   3.066   6.753
10122SOL    HW231266   5.676   3.107   6.904
10123SOL     OW31267   0.620   6.070   0.823
10123SOL    HW131268   0.553   6.016   0.874
10123SOL    HW231269   0.664   6.136   0.884
10124SOL     OW31270   2.442   4.506   0.156
10124SOL    HW131271   2.432   4.581   0.091
10124SOL    HW231272   2.523   4.521   0.212
10125SOL     OW31273   1.633   0.676   3.163
10125SOL    HW131274   1.698   0.729   3.217
10125SOL    HW231275   1.646   0.578   3.183
10126SOL     OW31276   5.818   5.628   6.738
10126SOL    HW131277   5.894   5.654   6.677
10126SOL    HW231278   5.813   5.692   6.814
10127SOL     OW31279   3.013   5.651   5.526
10127SOL    HW131280   2.918   5.682   5.518
10127SOL    HW231281   3.017   5.552   5.517
10128SOL     OW31282   0.344   1.498   1.120
10128SOL    HW131283   0.325   1.546   1.034
10128SOL    HW231284   0.410   1.550   1.173
10129SOL     OW31285   4.861   2.831   3.781
10129SOL    HW131286   4.897   2.739   3.798
10129SOL    HW231287   4.791   2.852   3.849
10130SOL     OW31288   1.435   5.147   3.014
10130SOL    HW131289   1.361   5.108   3.068
10130SOL    HW231290   1.450   5.242   3.043
10131SOL     OW31291   0.673   2.143   2.351
10131SOL    HW131292   0.684   2.227   2.403
10131SOL    HW231293   0.689   2.064   2.410
10132SOL     OW31294   3.214   6.553   2.835
10132SOL    HW131295   3.165   6.476   2.795
10132SOL    HW231296   3.149   6.614   2.881
10133SOL     OW31297   4.044   6.549   2.996
10133SOL    HW131298   4.012   6.564   2.903
10133SOL    HW231299   4.089   6.459   3.001
10134SOL     OW31300   6.346   0.335   3.971
10134SOL    HW131301   6.310   0.427   3.987
10134SOL    HW231302   6.432   0.341   3.920
10135SOL     OW31303   4.887   3.697   2.626
10135SOL    HW131304   4.850   3.743   2.545
10135SOL    HW231305   4.901   3.600   2.606
10136SOL     OW31306   5.928   0.123   3.225
10136SOL    HW131307   5.840   0.084   3.202
10136SOL    HW231308   6.001   0.062   3.194
10137SOL     OW31309   6.841   5.661   4.088
10137SOL    HW131310   6.898   5.664   4.006
10137SOL    HW231311   6.802   5.569   4.097
10138SOL     OW31312   5.181   2.179   0.511
10138SOL    HW131313   5.240   2.103   0.537
10138SOL    HW231314   5.204   2.259   0.565
10139SOL     OW31315   3.976   3.040   2.526
10139SOL    HW131316   3.999   2.971   2.457
10139SOL    HW231317   3.905   3.003   2.587
10140SOL     OW31318   6.439   5.892   5.942
10140SOL    HW131319   6.431   5.859   5.848
10140SOL    HW231320   6.373   5.843   6.000
10141SOL     OW31321   3.144   2.161   4.111
10141SOL    HW131322   3.063   2.213   4.138
10141SOL    HW231323   3.177   2.107   4.188
10142SOL     OW31324   5.001   6.775   5.351
10142SOL    HW131325   5.074   6.720   5.392
10142SOL    HW231326   5.029   6.871   5.350
10143SOL     OW31327   4.379   0.331   1.150
10143SOL    HW131328   4.422   0.408   1.104
10143SOL    HW231329   4.371   0.350   1.248
10144SOL     OW31330   3.957   5.994   5.567
10144SOL    HW131331   4.024   6.047   5.516
10144SOL    HW231332   3.897   6.056   5.618
10145SOL     OW31333   2.802   5.854   5.518
10145SOL    HW131334   2.791   5.853   5.617
10145SOL    HW231335   2.854   5.934   5.490
10146SOL     OW31336   3.887   5.055   5.174
10146SOL    HW131337   3.980   5.092   5.176
10146SOL    HW231338   3.884   4.975   5.114
10147SOL     OW31339   4.939   4.685   4.643
10147SOL    HW131340   4.912   4.731   4.558
10147SOL    HW231341   4.862   4.683   4.707
10148SOL     OW31342   6.167   5.711   0.016
10148SOL    HW131343   6.125   5.727   6.949
10148SOL    HW231344   6.117   5.638   0.064
10149SOL     OW31345   4.868   1.904   0.349
10149SOL    HW131346   4.819   1.830   0.396
10149SOL    HW231347   4.829   1.916   0.258
10150SOL     OW31348   4.729   4.183   0.896
10150SOL    HW131349   4.778   4.224   0.818
10150SOL    HW231350   4.730   4.246   0.973
10151SOL     OW31351   1.733   0.170   6.364
10151SOL    HW131352   1.743   0.231   6.443
10151SOL    HW231353   1.773   0.213   6.283
10152SOL     OW31354   1.508   5.513   4.019
10152SOL    HW131355   1.559   5.494   3.936
10152SOL    HW231356   1.415   5.543   3.996
10153SOL     OW31357   4.400   6.251   3.770
10153SOL    HW131358   4.310   6.274   3.732
10153SOL    HW231359   4.457   6.210   3.699
10154SOL     OW31360   6.303   6.203   5.769
10154SOL    HW131361   6.221   6.157   5.735
10154SOL    HW231362   6.343   6.149   5.844
10155SOL     OW31363   4.026   1.688   5.985
10155SOL    HW131364   4.019   1.744   6.068
10155SOL    HW231365   4.115   1.704   5.941
10156SOL     OW31366   6.139   6.558   1.894
10156SOL    HW131367   6.141   6.645   1.844
10156SOL    HW231368   6.058   6.506   1.866
10157SOL     OW31369   5.687   1.991   5.636
10157SOL    HW131370   5.604   1.967   5.687
10157SOL    HW231371   5.742   1.908   5.623
10158SOL     OW31372   4.925   3.995   7.001
10158SOL    HW131373   5.015   3.998   0.021
10158SOL    HW231374   4.917   3.914   6.944
10159SOL     OW31375   2.931   3.133   6.088
10159SOL    HW131376   2.886   3.223   6.089
10159SOL    HW231377   2.899   3.078   6.164
10160SOL     OW31378   1.146   4.372   2.593
10160SOL    HW131379   1.092   4.421   2.661
10160SOL    HW231380   1.086   4.336   2.521
10161SOL     OW31381   3.716   4.734   0.634
10161SOL    HW131382   3.733   4.831   0.616
10161SOL    HW231383   3.620   4.720   0.657
10162SOL     OW31384   2.877   3.927   0.270
10162SOL    HW131385   2.952   3.954   0.331
10162SOL    HW231386   2.842   4.008   0.223
10163SOL     OW31387   5.788   4.338   6.287
10163SOL    HW131388   5.780   4.432   6.322
10163SOL    HW231389   5.768   4.337   6.189
10164SOL     OW31390   6.225   2.895   4.976
10164SOL    HW131391   6.237   2.802   4.943
10164SOL    HW231392   6.312   2.944   4.973
10165SOL     OW31393   1.249   2.201   3.555
10165SOL    HW131394   1.305   2.174   3.632
10165SOL    HW231395   1.189   2.276   3.581
10166SOL     OW31396   3.500   0.783   1.937
10166SOL    HW131397   3.545   0.829   1.861
10166SOL    HW231398   3.564   0.776   2.014
10167SOL     OW31399   4.278   1.088   6.872
10167SOL    HW131400   4.224   1.139   6.938
10167SOL    HW231401   4.328   1.151   6.813
10168SOL     OW31402   6.677   3.584   4.733
10168SOL    HW131403   6.657   3.665   4.788
10168SOL    HW231404   6.775   3.582   4.711
10169SOL     OW31405   6.607   4.328   3.762
10169SOL    HW131406   6.578   4.331   3.666
10169SOL    HW231407   6.581   4.240   3.802
10170SOL     OW31408   0.679   4.067   5.926
10170SOL    HW131409   0.739   4.094   6.001
10170SOL    HW231410   0.725   4.084   5.839
10171SOL     OW31411   6.416   3.684   6.711
10171SOL    HW131412   6.459   3.677   6.621
10171SOL    HW231413   6.318   3.695   6.700
10172SOL     OW31414   6.182   0.256   3.315
10172SOL    HW131415   6.243   0.324   3.356
10172SOL    HW231416   6.088   0.274   3.344
10173SOL     OW31417   1.843   2.351   1.093
10173SOL    HW131418   1.777   2.413   1.053
10173SOL    HW231419   1.862   2.378   1.188
10174SOL     OW31420   5.973   5.003   1.982
10174SOL    HW131421   6.049   4.946   2.014
10174SOL    HW231422   5.902   4.944   1.942
10175SOL     OW31423   6.762   2.607   3.739
10175SOL    HW131424   6.790   2.522   3.694
10175SOL    HW231425   6.737   2.674   3.670
10176SOL     OW31426   1.163   3.106   5.735
10176SOL    HW131427   1.230   3.094   5.661
10176SOL    HW231428   1.120   3.196   5.727
10177SOL     OW31429   2.919   0.235   0.041
10177SOL    HW131430   3.003   0.288   0.050
10177SOL    HW231431   2.930   0.146   0.086
10178SOL     OW31432   6.469   3.117   4.943
10178SOL    HW131433   6.500   3.197   4.892
10178SOL    HW231434   6.474   3.135   5.041
10179SOL     OW31435   0.958   1.913   6.107
10179SOL    HW131436   0.917   1.846   6.169
10179SOL    HW231437   0.886   1.968   6.065
10180SOL     OW31438   3.438   5.305   6.342
10180SOL    HW131439   3.374   5.229   6.332
10180SOL    HW231440   3.502   5.304   6.265
10181SOL     OW31441   5.140   3.566   2.251
10181SOL    HW131442   5.048   3.531   2.268
10181SOL    HW231443   5.193   3.496   2.202
10182SOL     OW31444   5.709   1.783   1.561
10182SOL    HW131445   5.640   1.814   1.626
10182SOL    HW231446   5.800   1.794   1.601
10183SOL     OW31447   0.727   1.997   6.011
10183SOL    HW131448   0.709   1.924   5.946
10183SOL    HW231449   0.712   2.086   5.968
10184SOL     OW31450   4.839   1.895   5.995
10184SOL    HW131451   4.827   1.980   5.944
10184SOL    HW231452   4.763   1.883   6.059
10185SOL     OW31453   5.115   6.054   0.749
10185SOL    HW131454   5.089   6.133   0.805
10185SOL    HW231455   5.191   6.005   0.793
10186SOL     OW31456   5.741   3.192   3.392
10186SOL    HW131457   5.665   3.248   3.358
10186SOL    HW231458   5.785   3.239   3.468
10187SOL     OW31459   0.674   2.139   2.057
10187SOL    HW131460   0.683   2.128   2.156
10187SOL    HW231461   0.615   2.066   2.021
10188SOL     OW31462   3.660   6.096   0.148
10188SOL    HW131463   3.754   6.063   0.147
10188SOL    HW231464   3.630   6.115   0.055
10189SOL     OW31465   2.430   0.742   5.648
10189SOL    HW131466   2.511   0.685   5.662
10189SOL    HW231467   2.389   0.764   5.737
10190SOL     OW31468   5.217   2.807   1.177
10190SOL    HW131469   5.193   2.718   1.137
10190SOL    HW231470   5.134   2.850   1.213
10191SOL     OW31471   4.747   4.248   6.955
10191SOL    HW131472   4.776   4.291   6.870
10191SOL    HW231473   4.780   4.153   6.957
10192SOL     OW31474   4.350   1.048   4.829
10192SOL    HW131475   4.363   1.138   4.871
10192SOL    HW231476   4.395   0.978   4.884
10193SOL     OW31477   4.320   4.158   1.626
10193SOL    HW131478   4.380   4.092   1.580
10193SOL    HW231479   4.369   4.198   1.703
10194SOL     OW31480   6.144   5.050   4.959
10194SOL    HW131481   6.234   5.013   4.939
10194SOL    HW231482   6.152   5.128   5.022
10195SOL     OW31483   6.233   4.761   1.493
10195SOL    HW131484   6.135   4.781   1.497
10195SOL    HW231485   6.280   4.838   1.449
10196SOL     OW31486   5.392   1.503   4.764
10196SOL    HW131487   5.427   1.576   4.704
10196SOL    HW231488   5.393   1.534   4.859
10197SOL     OW31489   6.905   1.750   4.732
10197SOL    HW131490   6.807   1.742   4.754
10197SOL    HW231491   6.941   1.835   4.771
10198SOL     OW31492   3.639   0.605   2.098
10198SOL    HW131493   3.673   0.520   2.057
10198SOL    HW231494   3.710   0.646   2.155
10199SOL     OW31495   2.277   2.791   6.179
10199SOL    HW131496   2.211   2.769   6.251
10199SOL    HW231497   2.365   2.749   6.200
10200SOL     OW31498   4.916   2.226   1.398
10200SOL    HW131499   4.954   2.296   1.338
10200SOL    HW231500   4.816   2.232   1.398
10201SOL     OW31501   0.797   4.437   0.807
10201SOL    HW131502   0.832   4.376   0.878
10201SOL    HW231503   0.831   4.529   0.823
10202SOL     OW31504   4.198   2.371   6.171
10202SOL    HW131505   4.257   2.291   6.178
10202SOL    HW231506   4.120   2.349   6.112
10203SOL     OW31507   5.600   2.827   4.157
10203SOL    HW131508   5.509   2.808   4.119
10203SOL    HW231509   5.591   2.861   4.250
10204SOL     OW31510   5.504   6.622   0.007
10204SOL    HW131511   5.577   6.646   6.966
10204SOL    HW231512   5.479   6.526   7.017
10205SOL     OW31513   0.563   1.689   0.341
10205SOL    HW131514   0.625   1.765   0.359
10205SOL    HW231515   0.614   1.603   0.340
10206SOL     OW31516   0.874   1.233   5.987
10206SOL    HW131517   0.868   1.287   6.071
10206SOL    HW231518   0.958   1.255   5.938
10207SOL     OW31519   1.196   2.050   6.246
10207SOL    HW131520   1.155   1.994   6.317
10207SOL    HW231521   1.125   2.081   6.182
10208SOL     OW31522   5.802   5.408   4.389
10208SOL    HW131523   5.703   5.398   4.401
10208SOL    HW231524   5.849   5.361   4.463
10209SOL     OW31525   6.866   6.996   5.988
10209SOL    HW131526   6.936   6.924   5.989
10209SOL    HW231527   6.902   0.057   6.029
10210SOL     OW31528   4.136   6.691   1.074
10210SOL    HW131529   4.113   6.596   1.093
10210SOL    HW231530   4.232   6.707   1.097
10211SOL     OW31531   3.643   6.377   4.954
10211SOL    HW131532   3.629   6.325   5.038
10211SOL    HW231533   3.659   6.473   4.977
10212SOL     OW31534   0.972   0.050   5.378
10212SOL    HW131535   0.981   6.985   5.427
10212SOL    HW231536   0.885   0.050   5.328
10213SOL     OW31537   4.872   2.696   0.793
10213SOL    HW131538   4.918   2.785   0.790
10213SOL    HW231539   4.800   2.698   0.862
10214SOL     OW31540   1.286   1.778   1.563
10214SOL    HW131541   1.341   1.796   1.481
10214SOL    HW231542   1.209   1.718   1.540
10215SOL     OW31543   4.157   3.567   3.413
10215SOL    HW131544   4.137   3.510   3.333
10215SOL    HW231545   4.182   3.509   3.490
10216SOL     OW31546   6.095   0.687   1.651
10216SOL    HW131547   6.000   0.672   1.677
10216SOL    HW231548   6.117   0.784   1.659
10217SOL     OW31549   2.430   0.890   3.664
10217SOL    HW131550   2.341   0.876   3.708
10217SOL    HW231551   2.503   0.885   3.733
10218SOL     OW31552   0.889   2.665   1.391
10218SOL    HW131553   0.883   2.697   1.485
10218SOL    HW231554   0.804   2.689   1.343
10219SOL     OW31555   0.190   1.640   2.045
10219SOL    HW131556   0.288   1.653   2.030
10219SOL    HW231557   0.153   1.582   1.973
10220SOL     OW31558   3.644   3.115   1.035
10220SOL    HW131559   3.742   3.114   1.055
10220SOL    HW231560   3.592   3.114   1.121
10221SOL     OW31561   0.825   5.715   3.042
10221SOL    HW131562   0.882   5.786   3.003
10221SOL    HW231563   0.729   5.744   3.041
10222SOL     OW31564   2.911   3.423   4.614
10222SOL    HW131565   2.857   3.347   4.576
10222SOL    HW231566   3.008   3.399   4.613
10223SOL     OW31567   0.798   5.401   0.989
10223SOL    HW131568   0.785   5.415   0.891
10223SOL    HW231569   0.791   5.489   1.036
10224SOL     OW31570   6.038   3.547   3.690
10224SOL    HW131571   6.039   3.529   3.592
10224SOL    HW231572   5.944   3.557   3.722
10225SOL     OW31573   1.351   4.161   5.679
10225SOL    HW131574   1.413   4.083   5.685
10225SOL    HW231575   1.261   4.130   5.647
10226SOL     OW31576   3.751   2.204   6.691
10226SOL    HW131577   3.824   2.205   6.759
10226SOL    HW231578   3.664   2.225   6.734
10227SOL     OW31579   5.544   3.975   0.817
10227SOL    HW131580   5.611   3.933   0.755
10227SOL    HW231581   5.593   4.020   0.892
10228SOL     OW31582   6.215   0.638   0.527
10228SOL    HW131583   6.274   0.706   0.484
10228SOL    HW231584   6.182   0.574   0.458
10229SOL     OW31585   0.355   3.192   5.349
10229SOL    HW131586   0.311   3.272   5.308
10229SOL    HW231587   0.445   3.218   5.383
10230SOL     OW31588   6.754   5.719   2.203
10230SOL    HW131589   6.755   5.769   2.290
10230SOL    HW231590   6.704   5.772   2.134
10231SOL     OW31591   1.473   6.039   3.681
10231SOL    HW131592   1.471   6.139   3.685
10231SOL    HW231593   1.543   6.004   3.744
10232SOL     OW31594   3.262   0.627   3.411
10232SOL    HW131595   3.182   0.624   3.352
10232SOL    HW231596   3.258   0.552   3.477
10233SOL     OW31597   3.799   4.369   6.204
10233SOL    HW131598   3.840   4.415   6.125
10233SOL    HW231599   3.757   4.284   6.174
10234SOL     OW31600   6.117   0.803   1.353
10234SOL    HW131601   6.121   0.809   1.253
10234SOL    HW231602   6.144   0.712   1.382
10235SOL     OW31603   1.174   1.051   3.295
10235SOL    HW131604   1.124   1.055   3.382
10235SOL    HW231605   1.236   1.128   3.288
10236SOL     OW31606   2.850   6.650   6.987
10236SOL    HW131607   2.904   6.597   6.922
10236SOL    HW231608   2.845   6.745   6.958
10237SOL     OW31609   0.442   3.269   6.881
10237SOL    HW131610   0.397   3.357   6.895
10237SOL    HW231611   0.441   3.216   6.966
10238SOL     OW31612   4.124   4.784   1.139
10238SOL    HW131613   4.137   4.687   1.119
10238SOL    HW231614   4.159   4.839   1.063
10239SOL     OW31615   1.698   3.016   4.586
10239SOL    HW131616   1.695   2.983   4.491
10239SOL    HW231617   1.690   3.115   4.587
10240SOL     OW31618   2.324   0.022   1.590
10240SOL    HW131619   2.355   7.006   1.677
10240SOL    HW231620   2.400   0.026   1.526
10241SOL     OW31621   5.149   2.058   2.079
10241SOL    HW131622   5.097   1.973   2.073
10241SOL    HW231623   5.097   2.125   2.132
10242SOL     OW31624   0.266   2.568   0.830
10242SOL    HW131625   0.179   2.567   0.879
10242SOL    HW231626   0.311   2.479   0.840
10243SOL     OW31627   2.694   4.386   0.910
10243SOL    HW131628   2.761   4.319   0.945
10243SOL    HW231629   2.713   4.476   0.950
10244SOL     OW31630   2.484   3.719   1.540
10244SOL    HW131631   2.530   3.799   1.579
10244SOL    HW231632   2.527   3.697   1.452
10245SOL     OW31633   3.313   4.202   0.602
10245SOL    HW131634   3.292   4.105   0.588
10245SOL    HW231635   3.284   4.254   0.521
10246SOL     OW31636   3.430   2.908   4.416
10246SOL    HW131637   3.438   2.894   4.515
10246SOL    HW231638   3.345   2.867   4.384
10247SOL     OW31639   1.195   3.854   4.874
10247SOL    HW131640   1.177   3.929   4.809
10247SOL    HW231641   1.183   3.767   4.828
10248SOL     OW31642   1.432   0.184   3.578
10248SOL    HW131643   1.347   0.200   3.630
10248SOL    HW231644   1.420   0.105   3.518
10249SOL     OW31645   1.751   4.721   6.961
10249SOL    HW131646   1.727   4.645   7.020
10249SOL    HW231647   1.835   4.700   6.911
10250SOL     OW31648   5.520   3.122   0.153
10250SOL    HW131649   5.463   3.097   0.231
10250SOL    HW231650   5.602   3.066   0.152
10251SOL     OW31651   1.507   0.171   3.983
10251SOL    HW131652   1.521   0.074   4.004
10251SOL    HW231653   1.440   0.180   3.909
10252SOL     OW31654   4.618   3.795   5.536
10252SOL    HW131655   4.618   3.835   5.444
10252SOL    HW231656   4.652   3.702   5.532
10253SOL     OW31657   3.711   6.735   6.916
10253SOL    HW131658   3.685   6.826   6.947
10253SOL    HW231659   3.630   6.687   6.882
10254SOL     OW31660   5.344   1.927   5.031
10254SOL    HW131661   5.435   1.941   5.070
10254SOL    HW231662   5.278   1.917   5.106
10255SOL     OW31663   3.032   5.898   1.454
10255SOL    HW131664   2.985   5.911   1.367
10255SOL    HW231665   3.128   5.875   1.437
10256SOL     OW31666   5.360   1.027   1.821
10256SOL    HW131667   5.401   0.964   1.755
10256SOL    HW231668   5.421   1.104   1.836
10257SOL     OW31669   3.106   5.116   3.319
10257SOL    HW131670   3.161   5.097   3.238
10257SOL    HW231671   3.046   5.037   3.338
10258SOL     OW31672   3.036   1.828   2.720
10258SOL    HW131673   2.994   1.877   2.643
10258SOL    HW231674   3.132   1.853   2.726
10259SOL     OW31675   0.955   4.264   4.307
10259SOL    HW131676   0.923   4.355   4.278
10259SOL    HW231677   0.952   4.258   4.407
10260SOL     OW31678   1.640   1.352   3.650
10260SOL    HW131679   1.578   1.356   3.571
10260SOL    HW231680   1.711   1.284   3.633
10261SOL     OW31681   0.588   3.640   0.517
10261SOL    HW131682   0.502   3.691   0.514
10261SOL    HW231683   0.572   3.548   0.553
10262SOL     OW31684   3.729   0.963   6.720
10262SOL    HW131685   3.788   0.899   6.769
10262SOL    HW231686   3.694   0.918   6.637
10263SOL     OW31687   6.259   0.876   0.843
10263SOL    HW131688   6.201   0.919   0.774
10263SOL    HW231689   6.241   0.778   0.845
10264SOL     OW31690   6.330   4.969   6.500
10264SOL    HW131691   6.318   4.893   6.565
10264SOL    HW231692   6.240   4.996   6.464
10265SOL     OW31693   2.395   2.862   0.541
10265SOL    HW131694   2.465   2.907   0.486
10265SOL    HW231695   2.388   2.766   0.514
10266SOL     OW31696   3.149   3.077   2.831
10266SOL    HW131697   3.152   3.117   2.739
10266SOL    HW231698   3.059   3.094   2.871
10267SOL     OW31699   5.412   0.505   0.791
10267SOL    HW131700   5.368   0.510   0.881
10267SOL    HW231701   5.351   0.543   0.722
10268SOL     OW31702   5.339   0.327   1.444
10268SOL    HW131703   5.266   0.389   1.473
10268SOL    HW231704   5.416   0.334   1.507
10269SOL     OW31705   1.767   2.063   6.407
10269SOL    HW131706   1.771   1.965   6.388
10269SOL    HW231707   1.684   2.102   6.367
10270SOL     OW31708   3.499   6.062   2.308
10270SOL    HW131709   3.543   5.972   2.301
10270SOL    HW231710   3.511   6.111   2.222
10271SOL     OW31711   2.667   2.200   0.859
10271SOL    HW131712   2.731   2.138   0.812
10271SOL    HW231713   2.576   2.190   0.817
10272SOL     OW31714   6.695   0.887   4.354
10272SOL    HW131715   6.737   0.949   4.421
10272SOL    HW231716   6.762   0.820   4.324
10273SOL     OW31717   3.091   5.444   4.262
10273SOL    HW131718   3.187   5.428   4.285
10273SOL    HW231719   3.064   5.384   4.187
10274SOL     OW31720   0.178   4.836   5.585
10274SOL    HW131721   0.124   4.779   5.524
10274SOL    HW231722   0.120   4.870   5.659
10275SOL     OW31723   0.127   0.682   3.267
10275SOL    HW131724   0.046   0.632   3.237
10275SOL    HW231725   0.209   0.629   3.244
10276SOL     OW31726   4.530   5.623   5.378
10276SOL    HW131727   4.605   5.687   5.368
10276SOL    HW231728   4.566   5.529   5.378
10277SOL     OW31729   1.226   6.795   4.177
10277SOL    HW131730   1.318   6.820   4.206
10277SOL    HW231731   1.192   6.720   4.234
10278SOL     OW31732   0.244   0.563   4.833
10278SOL    HW131733   0.276   0.518   4.749
10278SOL    HW231734   0.293   0.524   4.911
10279SOL     OW31735   2.419   5.611   4.557
10279SOL    HW131736   2.453   5.687   4.502
10279SOL    HW231737   2.461   5.616   4.648
10280SOL     OW31738   5.339   3.798   0.872
10280SOL    HW131739   5.284   3.745   0.807
10280SOL    HW231740   5.406   3.853   0.822
10281SOL     OW31741   6.703   2.201   3.443
10281SOL    HW131742   6.720   2.132   3.373
10281SOL    HW231743   6.711   2.292   3.403
10282SOL     OW31744   4.911   3.356   2.898
10282SOL    HW131745   4.877   3.323   2.986
10282SOL    HW231746   4.843   3.339   2.827
10283SOL     OW31747   0.224   3.652   1.199
10283SOL    HW131748   0.222   3.584   1.126
10283SOL    HW231749   0.223   3.744   1.159
10284SOL     OW31750   0.318   2.273   3.663
10284SOL    HW131751   0.254   2.276   3.740
10284SOL    HW231752   0.399   2.328   3.685
10285SOL     OW31753   4.135   6.422   3.413
10285SOL    HW131754   4.046   6.431   3.457
10285SOL    HW231755   4.178   6.336   3.441
10286SOL     OW31756   3.155   1.230   3.782
10286SOL    HW131757   3.083   1.161   3.776
10286SOL    HW231758   3.221   1.204   3.853
10287SOL     OW31759   2.011   6.047   1.782
10287SOL    HW131760   2.073   6.123   1.803
10287SOL    HW231761   1.935   6.081   1.727
10288SOL     OW31762   3.462   6.855   4.856
10288SOL    HW131763   3.367   6.839   4.831
10288SOL    HW231764   3.522   6.831   4.779
10289SOL     OW31765   3.110   6.408   0.559
10289SOL    HW131766   3.096   6.313   0.533
10289SOL    HW231767   3.023   6.447   0.590
10290SOL     OW31768   2.955   3.240   2.437
10290SOL    HW131769   2.949   3.327   2.388
10290SOL    HW231770   2.962   3.257   2.535
10291SOL     OW31771   3.182   0.700   2.954
10291SOL    HW131772   3.230   0.645   3.022
10291SOL    HW231773   3.212   0.675   2.862
10292SOL     OW31774   6.973   0.812   6.317
10292SOL    HW131775   6.965   0.843   6.222
10292SOL    HW231776   0.047   0.811   6.343
10293SOL     OW31777   0.970   3.725   3.918
10293SOL    HW131778   0.921   3.653   3.967
10293SOL    HW231779   1.016   3.687   3.838
10294SOL     OW31780   3.733   2.133   2.944
10294SOL    HW131781   3.742   2.167   3.038
10294SOL    HW231782   3.822   2.134   2.899
10295SOL     OW31783   1.393   2.429   6.484
10295SOL    HW131784   1.449   2.361   6.532
10295SOL    HW231785   1.342   2.483   6.551
10296SOL     OW31786   5.601   1.095   5.738
10296SOL    HW131787   5.517   1.049   5.709
10296SOL    HW231788   5.678   1.058   5.687
10297SOL     OW31789   3.003   2.197   6.727
10297SOL    HW131790   2.996   2.168   6.822
10297SOL    HW231791   3.028   2.294   6.723
10298SOL     OW31792   1.195   4.098   1.879
10298SOL    HW131793   1.174   4.002   1.895
10298SOL    HW231794   1.269   4.127   1.939
10299SOL     OW31795   4.826   6.747   2.343
10299SOL    HW131796   4.913   6.735   2.392
10299SOL    HW231797   4.813   6.843   2.321
10300SOL     OW31798   1.264   4.113   2.162
10300SOL    HW131799   1.220   4.114   2.252
10300SOL    HW231800   1.347   4.057   2.167
10301SOL     OW31801   3.752   1.727   5.395
10301SOL    HW131802   3.798   1.672   5.324
10301SOL    HW231803   3.726   1.816   5.357
10302SOL     OW31804   3.039   6.480   4.325
10302SOL    HW131805   3.012   6.559   4.269
10302SOL    HW231806   2.994   6.485   4.414
10303SOL     OW31807   1.283   6.139   3.983
10303SOL    HW131808   1.196   6.158   3.938
10303SOL    HW231809   1.353   6.202   3.949
10304SOL     OW31810   6.362   0.107   0.024
10304SOL    HW131811   6.269   0.072   0.017
10304SOL    HW231812   6.423   0.035   0.055
10305SOL     OW31813   3.135   3.955   5.932
10305SOL    HW131814   3.071   4.013   5.983
10305SOL    HW231815   3.173   4.007   5.856
10306SOL     OW31816   5.874   6.870   0.964
10306SOL    HW131817   5.803   6.824   0.911
10306SOL    HW231818   5.844   6.880   1.059
10307SOL     OW31819   2.898   1.368   4.940
10307SOL    HW131820   2.954   1.315   4.876
10307SOL    HW231821   2.872   1.455   4.899
10308SOL     OW31822   2.412   4.520   2.748
10308SOL    HW131823   2.322   4.558   2.770
10308SOL    HW231824   2.403   4.423   2.726
10309SOL     OW31825   5.887   0.806   5.743
10309SOL    HW131826   5.837   0.837   5.824
10309SOL    HW231827   5.859   0.713   5.719
10310SOL     OW31828   2.580   3.650   0.039
10310SOL    HW131829   2.487   3.685   0.052
10310SOL    HW231830   2.613   3.676   6.971
10311SOL     OW31831   5.814   5.545   7.015
10311SOL    HW131832   5.735   5.583   0.040
10311SOL    HW231833   5.794   5.539   6.917
10312SOL     OW31834   4.369   0.216   1.763
10312SOL    HW131835   4.378   0.119   1.740
10312SOL    HW231836   4.447   0.245   1.818
10313SOL     OW31837   3.983   5.607   2.826
10313SOL    HW131838   4.022   5.568   2.743
10313SOL    HW231839   4.000   5.546   2.903
10314SOL     OW31840   0.253   0.634   6.837
10314SOL    HW131841   0.223   0.560   6.778
10314SOL    HW231842   0.220   0.722   6.800
10315SOL     OW31843   4.959   6.716   3.561
10315SOL    HW131844   5.057   6.714   3.578
10315SOL    HW231845   4.926   6.810   3.567
10316SOL     OW31846   6.709   1.990   6.111
10316SOL    HW131847   6.731   1.906   6.061
10316SOL    HW231848   6.610   1.998   6.119
10317SOL     OW31849   3.633   5.921   5.732
10317SOL    HW131850   3.665   5.884   5.645
10317SOL    HW231851   3.533   5.925   5.734
10318SOL     OW31852   5.126   0.189   6.535
10318SOL    HW131853   5.102   0.121   6.605
10318SOL    HW231854   5.170   0.143   6.457
10319SOL     OW31855   0.422   4.666   5.650
10319SOL    HW131856   0.495   4.719   5.606
10319SOL    HW231857   0.333   4.696   5.614
10320SOL     OW31858   0.032   7.006   3.636
10320SOL    HW131859   6.995   6.925   3.643
10320SOL    HW231860   0.093   6.996   3.558
10321SOL     OW31861   6.045   2.265   2.174
10321SOL    HW131862   6.043   2.292   2.271
10321SOL    HW231863   6.065   2.168   2.167
10322SOL     OW31864   4.237   4.808   4.635
10322SOL    HW131865   4.323   4.769   4.602
10322SOL    HW231866   4.209   4.762   4.719
10323SOL     OW31867   6.325   4.799   5.187
10323SOL    HW131868   6.274   4.875   5.227
10323SOL    HW231869   6.332   4.725   5.254
10324SOL     OW31870   2.876   3.633   2.488
10324SOL    HW131871   2.847   3.585   2.571
10324SOL    HW231872   2.854   3.577   2.408
10325SOL     OW31873   0.219   5.280   2.479
10325SOL    HW131874   0.309   5.278   2.436
10325SOL    HW231875   0.185   5.187   2.491
10326SOL     OW31876   5.632   3.626   6.888
10326SOL    HW131877   5.674   3.704   6.842
10326SOL    HW231878   5.673   3.613   6.978
10327SOL     OW31879   2.331   3.165   1.408
10327SOL    HW131880   2.339   3.264   1.423
10327SOL    HW231881   2.416   3.121   1.438
10328SOL     OW31882   6.395   3.028   2.251
10328SOL    HW131883   6.301   2.992   2.255
10328SOL    HW231884   6.404   3.086   2.170
10329SOL     OW31885   3.137   0.526   2.687
10329SOL    HW131886   3.104   0.608   2.641
10329SOL    HW231887   3.230   0.505   2.655
10330SOL     OW31888   4.535   0.508   1.008
10330SOL    HW131889   4.550   0.578   1.078
10330SOL    HW231890   4.619   0.495   0.955
10331SOL     OW31891   6.376   6.158   6.684
10331SOL    HW131892   6.372   6.059   6.691
10331SOL    HW231893   6.471   6.188   6.673
10332SOL     OW31894   0.838   0.684   6.775
10332SOL    HW131895   0.763   0.657   6.715
10332SOL    HW231896   0.866   0.778   6.755
10333SOL     OW31897   0.662   5.881   4.487
10333SOL    HW131898   0.651   5.908   4.582
10333SOL    HW231899   0.627   5.954   4.427
10334SOL     OW31900   3.004   0.149   4.400
10334SOL    HW131901   3.025   0.224   4.463
10334SOL    HW231902   3.088   0.120   4.354
10335SOL     OW31903   0.772   4.410   6.842
10335SOL    HW131904   0.697   4.346   6.831
10335SOL    HW231905   0.856   4.371   6.803
10336SOL     OW31906   6.439   6.793   2.026
10336SOL    HW131907   6.429   6.798   1.927
10336SOL    HW231908   6.375   6.856   2.069
10337SOL     OW31909   6.641   5.616   0.158
10337SOL    HW131910   6.655   5.583   0.251
10337SOL    HW231911   6.543   5.621   0.139
10338SOL     OW31912   1.640   6.698   2.283
10338SOL    HW131913   1.666   6.648   2.365
10338SOL    HW231914   1.698   6.779   2.274
10339SOL     OW31915   6.103   3.788   6.280
10339SOL    HW131916   6.009   3.794   6.246
10339SOL    HW231917   6.121   3.866   6.339
10340SOL     OW31918   2.117   2.685   6.392
10340SOL    HW131919   2.084   2.624   6.320
10340SOL    HW231920   2.049   2.690   6.466
10341SOL     OW31921   2.110   3.413   2.279
10341SOL    HW131922   2.011   3.406   2.277
10341SOL    HW231923   2.142   3.469   2.203
10342SOL     OW31924   1.886   0.414   3.460
10342SOL    HW131925   1.985   0.399   3.466
10342SOL    HW231926   1.868   0.512   3.465
10343SOL     OW31927   2.381   5.340   0.730
10343SOL    HW131928   2.404   5.316   0.635
10343SOL    HW231929   2.446   5.296   0.792
10344SOL     OW31930   3.402   4.120   6.899
10344SOL    HW131931   3.335   4.073   6.841
10344SOL    HW231932   3.418   4.212   6.864
10345SOL     OW31933   1.361   3.057   5.567
10345SOL    HW131934   1.359   3.005   5.481
10345SOL    HW231935   1.444   3.112   5.572
10346SOL     OW31936   0.050   5.440   1.570
10346SOL    HW131937   0.016   5.471   1.481
10346SOL    HW231938   7.017   5.364   1.602
10347SOL     OW31939   4.676   1.134   3.552
10347SOL    HW131940   4.765   1.179   3.562
10347SOL    HW231941   4.613   1.195   3.504
10348SOL     OW31942   6.174   2.943   0.497
10348SOL    HW131943   6.268   2.913   0.482
10348SOL    HW231944   6.167   2.986   0.587
10349SOL     OW31945   0.743   0.136   6.474
10349SOL    HW131946   0.758   0.208   6.541
10349SOL    HW231947   0.813   0.142   6.403
10350SOL     OW31948   2.853   6.022   5.225
10350SOL    HW131949   2.784   6.093   5.241
10350SOL    HW231950   2.929   6.036   5.288
10351SOL     OW31951   4.665   5.381   5.596
10351SOL    HW131952   4.598   5.446   5.632
10351SOL    HW231953   4.736   5.430   5.545
10352SOL     OW31954   3.564   1.167   6.219
10352SOL    HW131955   3.530   1.257   6.193
10352SOL    HW231956   3.528   1.098   6.156
10353SOL     OW31957   6.537   2.953   4.733
10353SOL    HW131958   6.614   2.890   4.741
10353SOL    HW231959   6.517   2.994   4.822
10354SOL     OW31960   5.489   0.915   1.340
10354SOL    HW131961   5.478   0.816   1.332
10354SOL    HW231962   5.552   0.947   1.269
10355SOL     OW31963   2.590   6.322   2.407
10355SOL    HW131964   2.521   6.253   2.383
10355SOL    HW231965   2.623   6.305   2.500
10356SOL     OW31966   6.682   3.973   5.702
10356SOL    HW131967   6.766   4.012   5.740
10356SOL    HW231968   6.699   3.878   5.675
10357SOL     OW31969   2.256   2.132   5.946
10357SOL    HW131970   2.272   2.083   5.860
10357SOL    HW231971   2.176   2.094   5.992
10358SOL     OW31972   0.060   2.857   3.016
10358SOL    HW131973   0.099   2.772   3.051
10358SOL    HW231974   0.043   2.848   2.918
10359SOL     OW31975   0.244   1.599   1.663
10359SOL    HW131976   0.339   1.584   1.635
10359SOL    HW231977   0.224   1.697   1.661
10360SOL     OW31978   4.796   5.806   2.858
10360SOL    HW131979   4.842   5.732   2.810
10360SOL    HW231980   4.820   5.894   2.816
10361SOL     OW31981   2.926   5.754   2.561
10361SOL    HW131982   2.837   5.708   2.557
10361SOL    HW231983   2.913   5.850   2.586
10362SOL     OW31984   2.343   5.062   4.895
10362SOL    HW131985   2.321   4.966   4.876
10362SOL    HW231986   2.344   5.114   4.810
10363SOL     OW31987   5.429   0.381   2.985
10363SOL    HW131988   5.428   0.289   2.947
10363SOL    HW231989   5.523   0.406   3.008
10364SOL     OW31990   2.466   4.046   1.121
10364SOL    HW131991   2.398   4.004   1.061
10364SOL    HW231992   2.556   4.009   1.100
10365SOL     OW31993   4.227   5.348   6.997
10365SOL    HW131994   4.179   5.284   6.937
10365SOL    HW231995   4.186   5.346   0.066
10366SOL     OW31996   2.381   6.662   3.902
10366SOL    HW131997   2.452   6.592   3.917
10366SOL    HW231998   2.420   6.753   3.917
10367SOL     OW31999   6.209   2.167   2.960
10367SOL    HW132000   6.208   2.083   2.907
10367SOL    HW232001   6.217   2.145   3.057
10368SOL     OW32002   2.444   0.942   2.289
10368SOL    HW132003   2.381   0.881   2.336
10368SOL    HW232004   2.426   1.037   2.317
10369SOL     OW32005   3.602   1.854   0.989
10369SOL    HW132006   3.610   1.901   1.077
10369SOL    HW232007   3.546   1.772   0.999
10370SOL     OW32008   4.016   1.111   5.011
10370SOL    HW132009   4.067   1.027   5.030
10370SOL    HW232010   3.957   1.096   4.931
10371SOL     OW32011   4.347   6.076   5.020
10371SOL    HW132012   4.269   6.130   5.053
10371SOL    HW232013   4.330   6.048   4.926
10372SOL     OW32014   2.560   0.890   4.363
10372SOL    HW132015   2.591   0.801   4.397
10372SOL    HW232016   2.463   0.902   4.385
10373SOL     OW32017   1.079   6.744   4.558
10373SOL    HW132018   1.132   6.693   4.626
10373SOL    HW232019   0.988   6.764   4.595
10374SOL     OW32020   3.104   1.594   3.311
10374SOL    HW132021   3.193   1.590   3.357
10374SOL    HW232022   3.114   1.637   3.222
10375SOL     OW32023   5.369   2.199   1.117
10375SOL    HW132024   5.455   2.177   1.070
10375SOL    HW232025   5.337   2.119   1.167
10376SOL     OW32026   0.332   1.245   3.997
10376SOL    HW132027   0.273   1.319   4.029
10376SOL    HW232028   0.291   1.157   4.019
10377SOL     OW32029   0.438   0.453   4.005
10377SOL    HW132030   0.463   0.418   4.096
10377SOL    HW232031   0.427   0.377   3.942
10378SOL     OW32032   6.385   0.483   5.874
10378SOL    HW132033   6.366   0.390   5.906
10378SOL    HW232034   6.316   0.508   5.806
10379SOL     OW32035   5.181   0.321   4.553
10379SOL    HW132036   5.273   0.340   4.520
10379SOL    HW232037   5.115   0.375   4.501
10380SOL     OW32038   5.758   0.294   2.705
10380SOL    HW132039   5.743   0.379   2.754
10380SOL    HW232040   5.847   0.297   2.659
10381SOL     OW32041   4.730   5.320   6.047
10381SOL    HW132042   4.773   5.390   6.105
10381SOL    HW232043   4.648   5.358   6.005
10382SOL     OW32044   2.421   5.764   6.092
10382SOL    HW132045   2.455   5.671   6.081
10382SOL    HW232046   2.453   5.802   6.179
10383SOL     OW32047   0.713   2.450   1.065
10383SOL    HW132048   0.791   2.440   1.126
10383SOL    HW232049   0.713   2.543   1.026
10384SOL     OW32050   6.672   6.819   0.262
10384SOL    HW132051   6.614   6.751   0.305
10384SOL    HW232052   6.763   6.780   0.247
10385SOL     OW32053   6.303   1.194   6.152
10385SOL    HW132054   6.274   1.286   6.179
10385SOL    HW232055   6.226   1.131   6.162
10386SOL     OW32056   6.596   2.740   5.331
10386SOL    HW132057   6.578   2.729   5.233
10386SOL    HW232058   6.653   2.665   5.364
10387SOL     OW32059   1.852   2.813   2.914
10387SOL    HW132060   1.812   2.897   2.950
10387SOL    HW232061   1.884   2.756   2.989
10388SOL     OW32062   1.778   4.789   3.198
10388SOL    HW132063   1.764   4.759   3.293
10388SOL    HW232064   1.857   4.852   3.195
10389SOL     OW32065   1.052   4.882   3.891
10389SOL    HW132066   1.076   4.964   3.840
10389SOL    HW232067   1.091   4.887   3.983
10390SOL     OW32068   0.883   2.741   3.243
10390SOL    HW132069   0.851   2.808   3.176
10390SOL    HW232070   0.983   2.745   3.250
10391SOL     OW32071   2.065   6.462   6.689
10391SOL    HW132072   2.069   6.451   6.590
10391SOL    HW232073   2.156   6.485   6.723
10392SOL     OW32074   6.318   5.059   0.517
10392SOL    HW132075   6.397   5.092   0.569
10392SOL    HW232076   6.235   5.072   0.572
10393SOL     OW32077   0.605   1.164   4.286
10393SOL    HW132078   0.627   1.255   4.252
10393SOL    HW232079   0.663   1.097   4.241
10394SOL     OW32080   2.445   6.379   0.173
10394SOL    HW132081   2.366   6.327   0.205
10394SOL    HW232082   2.467   6.353   0.079
10395SOL     OW32083   0.086   0.565   4.459
10395SOL    HW132084   0.134   0.562   4.371
10395SOL    HW232085   0.130   0.502   4.523
10396SOL     OW32086   0.985   0.370   4.365
10396SOL    HW132087   0.943   0.411   4.284
10396SOL    HW232088   1.084   0.383   4.361
10397SOL     OW32089   3.596   0.980   3.815
10397SOL    HW132090   3.649   0.907   3.858
10397SOL    HW232091   3.579   0.956   3.719
10398SOL     OW32092   6.028   2.694   1.731
10398SOL    HW132093   5.995   2.603   1.759
10398SOL    HW232094   6.023   2.702   1.632
10399SOL     OW32095   5.332   2.491   4.995
10399SOL    HW132096   5.282   2.501   4.909
10399SOL    HW232097   5.327   2.396   5.025
10400SOL     OW32098   2.536   5.302   2.363
10400SOL    HW132099   2.603   5.282   2.291
10400SOL    HW232100   2.580   5.356   2.435
10401SOL     OW32101   0.573   5.975   1.826
10401SOL    HW132102   0.527   5.997   1.740
10401SOL    HW232103   0.578   5.876   1.838
10402SOL     OW32104   0.862   3.529   4.707
10402SOL    HW132105   0.804   3.525   4.789
10402SOL    HW232106   0.826   3.598   4.644
10403SOL     OW32107   5.608   1.520   1.569
10403SOL    HW132108   5.666   1.443   1.542
10403SOL    HW232109   5.648   1.605   1.535
10404SOL     OW32110   0.439   6.880   4.167
10404SOL    HW132111   0.412   6.861   4.261
10404SOL    HW232112   0.434   6.796   4.113
10405SOL     OW32113   1.677   6.231   5.878
10405SOL    HW132114   1.594   6.284   5.892
10405SOL    HW232115   1.734   6.236   5.960
10406SOL     OW32116   2.466   4.023   5.981
10406SOL    HW132117   2.415   4.108   5.973
10406SOL    HW232118   2.530   4.015   5.904
10407SOL     OW32119   1.106   2.423   6.719
10407SOL    HW132120   1.151   2.335   6.704
10407SOL    HW232121   1.132   2.458   6.809
10408SOL     OW32122   4.488   5.061   3.267
10408SOL    HW132123   4.584   5.040   3.249
10408SOL    HW232124   4.449   5.108   3.187
10409SOL     OW32125   0.565   4.397   2.354
10409SOL    HW132126   0.658   4.429   2.337
10409SOL    HW232127   0.545   4.318   2.296
10410SOL     OW32128   4.686   0.458   1.308
10410SOL    HW132129   4.762   0.432   1.249
10410SOL    HW232130   4.633   0.531   1.265
10411SOL     OW32131   2.506   4.677   2.934
10411SOL    HW132132   2.436   4.746   2.949
10411SOL    HW232133   2.474   4.610   2.867
10412SOL     OW32134   1.230   2.113   0.337
10412SOL    HW132135   1.244   2.195   0.282
10412SOL    HW232136   1.283   2.038   0.299
10413SOL     OW32137   6.882   2.641   6.772
10413SOL    HW132138   6.903   2.693   6.689
10413SOL    HW232139   6.882   2.703   6.851
10414SOL     OW32140   5.612   6.127   6.278
10414SOL    HW132141   5.690   6.068   6.299
10414SOL    HW232142   5.565   6.150   6.364
10415SOL     OW32143   0.187   6.001   4.127
10415SOL    HW132144   0.252   5.935   4.087
10415SOL    HW232145   0.106   5.953   4.159
10416SOL     OW32146   5.676   1.699   4.915
10416SOL    HW132147   5.660   1.611   4.872
10416SOL    HW232148   5.725   1.686   5.002
10417SOL     OW32149   3.962   4.809   3.609
10417SOL    HW132150   4.013   4.726   3.589
10417SOL    HW232151   3.978   4.876   3.536
10418SOL     OW32152   6.692   4.151   6.940
10418SOL    HW132153   6.758   4.087   6.980
10418SOL    HW232154   6.603   4.106   6.932
10419SOL     OW32155   3.088   1.154   4.801
10419SOL    HW132156   3.107   1.167   4.704
10419SOL    HW232157   3.092   1.056   4.823
10420SOL     OW32158   6.825   3.638   3.582
10420SOL    HW132159   6.796   3.724   3.625
10420SOL    HW232160   6.908   3.605   3.627
10421SOL     OW32161   1.293   4.515   4.423
10421SOL    HW132162   1.241   4.500   4.507
10421SOL    HW232163   1.375   4.569   4.443
10422SOL     OW32164   6.480   3.367   4.781
10422SOL    HW132165   6.524   3.457   4.779
10422SOL    HW232166   6.381   3.378   4.790
10423SOL     OW32167   3.414   5.028   3.919
10423SOL    HW132168   3.317   5.041   3.943
10423SOL    HW232169   3.429   5.061   3.825
10424SOL     OW32170   3.360   1.098   0.432
10424SOL    HW132171   3.334   1.097   0.528
10424SOL    HW232172   3.423   1.022   0.414
10425SOL     OW32173   1.800   1.476   0.650
10425SOL    HW132174   1.709   1.480   0.608
10425SOL    HW232175   1.793   1.497   0.748
10426SOL     OW32176   6.288   1.947   6.468
10426SOL    HW132177   6.355   2.019   6.451
10426SOL    HW232178   6.196   1.985   6.462
10427SOL     OW32179   5.647   6.897   4.209
10427SOL    HW132180   5.551   6.921   4.227
10427SOL    HW232181   5.668   6.809   4.251
10428SOL     OW32182   2.018   0.901   4.087
10428SOL    HW132183   1.973   0.863   4.007
10428SOL    HW232184   1.954   0.903   4.164
10429SOL     OW32185   0.956   3.023   2.329
10429SOL    HW132186   1.003   2.978   2.405
10429SOL    HW232187   0.872   2.972   2.308
10430SOL     OW32188   2.793   0.475   3.552
10430SOL    HW132189   2.860   0.546   3.573
10430SOL    HW232190   2.713   0.517   3.510
10431SOL     OW32191   3.093   0.998   3.428
10431SOL    HW132192   3.002   1.026   3.460
10431SOL    HW232193   3.088   0.971   3.332
10432SOL     OW32194   0.754   5.346   5.680
10432SOL    HW132195   0.737   5.272   5.745
10432SOL    HW232196   0.851   5.367   5.678
10433SOL     OW32197   2.161   0.047   2.955
10433SOL    HW132198   2.122   0.008   2.872
10433SOL    HW232199   2.189   0.141   2.938
10434SOL     OW32200   4.322   6.715   5.543
10434SOL    HW132201   4.273   6.635   5.507
10434SOL    HW232202   4.375   6.689   5.623
10435SOL     OW32203   2.400   2.041   6.855
10435SOL    HW132204   2.307   2.003   6.860
10435SOL    HW232205   2.456   2.002   6.928
10436SOL     OW32206   6.284   3.747   4.945
10436SOL    HW132207   6.256   3.706   4.858
10436SOL    HW232208   6.255   3.843   4.947
10437SOL     OW32209   5.093   6.042   4.976
10437SOL    HW132210   5.165   5.977   5.000
10437SOL    HW232211   5.040   6.064   5.058
10438SOL     OW32212   6.631   6.084   6.793
10438SOL    HW132213   6.656   6.179   6.812
10438SOL    HW232214   6.698   6.023   6.836
10439SOL     OW32215   6.753   6.441   5.201
10439SOL    HW132216   6.782   6.382   5.125
10439SOL    HW232217   6.653   6.445   5.203
10440SOL     OW32218   0.004   2.202   0.305
10440SOL    HW132219   0.094   2.168   0.334
10440SOL    HW232220   6.957   2.133   0.326
10441SOL     OW32221   3.729   2.042   0.858
10441SOL    HW132222   3.651   2.100   0.838
10441SOL    HW232223   3.700   1.965   0.915
10442SOL     OW32224   2.452   1.489   5.895
10442SOL    HW132225   2.452   1.518   5.990
10442SOL    HW232226   2.433   1.391   5.890
10443SOL     OW32227   0.110   1.635   3.125
10443SOL    HW132228   0.070   1.726   3.136
10443SOL    HW232229   0.056   1.568   3.176
10444SOL     OW32230   3.753   5.801   4.052
10444SOL    HW132231   3.710   5.712   4.066
10444SOL    HW232232   3.844   5.801   4.095
10445SOL     OW32233   1.330   4.021   2.930
10445SOL    HW132234   1.396   4.055   2.997
10445SOL    HW232235   1.361   3.933   2.894
10446SOL     OW32236   1.467   4.183   6.009
10446SOL    HW132237   1.437   4.089   5.992
10446SOL    HW232238   1.544   4.204   5.949
10447SOL     OW32239   0.228   2.276   2.620
10447SOL    HW132240   0.180   2.238   2.541
10447SOL    HW232241   0.311   2.223   2.638
10448SOL     OW32242   2.338   5.888   2.809
10448SOL    HW132243   2.427   5.851   2.780
10448SOL    HW232244   2.353   5.959   2.877
10449SOL     OW32245   4.151   5.165   5.186
10449SOL    HW132246   4.236   5.121   5.156
10449SOL    HW232247   4.158   5.263   5.172
10450SOL     OW32248   0.209   0.891   6.008
10450SOL    HW132249   0.247   0.933   6.090
10450SOL    HW232250   0.161   0.807   6.033
10451SOL     OW32251   2.572   0.860   3.230
10451SOL    HW132252   2.528   0.779   3.192
10451SOL    HW232253   2.505   0.935   3.235
10452SOL     OW32254   0.161   3.509   4.420
10452SOL    HW132255   0.156   3.410   4.425
10452SOL    HW232256   0.069   3.547   4.406
10453SOL     OW32257   4.067   5.681   3.432
10453SOL    HW132258   4.106   5.612   3.493
10453SOL    HW232259   3.968   5.667   3.426
10454SOL     OW32260   6.858   0.293   6.090
10454SOL    HW132261   6.763   0.301   6.121
10454SOL    HW232262   6.873   0.355   6.013
10455SOL     OW32263   6.057   6.287   3.635
10455SOL    HW132264   6.055   6.327   3.726
10455SOL    HW232265   6.150   6.287   3.599
10456SOL     OW32266   0.950   5.106   0.147
10456SOL    HW132267   0.946   5.171   0.222
10456SOL    HW232268   1.046   5.092   0.119
10457SOL     OW32269   3.789   2.627   6.859
10457SOL    HW132270   3.742   2.674   6.784
10457SOL    HW232271   3.721   2.578   6.914
10458SOL     OW32272   6.819   5.937   6.132
10458SOL    HW132273   6.806   5.885   6.047
10458SOL    HW232274   6.855   5.876   6.203
10459SOL     OW32275   0.280   5.362   6.998
10459SOL    HW132276   0.282   5.357   6.898
10459SOL    HW232277   0.312   5.276   0.014
10460SOL     OW32278   0.736   2.255   0.713
10460SOL    HW132279   0.649   2.274   0.667
10460SOL    HW232280   0.776   2.171   0.676
10461SOL     OW32281   6.804   4.973   5.414
10461SOL    HW132282   6.717   5.018   5.434
10461SOL    HW232283   6.877   5.017   5.466
10462SOL     OW32284   4.353   1.958   0.625
10462SOL    HW132285   4.310   1.878   0.583
10462SOL    HW232286   4.328   2.040   0.574
10463SOL     OW32287   4.939   2.474   6.178
10463SOL    HW132288   4.959   2.383   6.140
10463SOL    HW232289   4.846   2.500   6.154
10464SOL     OW32290   6.582   5.022   2.526
10464SOL    HW132291   6.634   5.099   2.563
10464SOL    HW232292   6.605   5.009   2.429
10465SOL     OW32293   5.100   4.583   1.895
10465SOL    HW132294   5.166   4.511   1.872
10465SOL    HW232295   5.055   4.560   1.981
10466SOL     OW32296   6.054   4.933   6.777
10466SOL    HW132297   5.962   4.897   6.790
10466SOL    HW232298   6.103   4.930   6.864
10467SOL     OW32299   1.861   2.765   6.940
10467SOL    HW132300   1.864   2.822   6.857
10467SOL    HW232301   1.775   2.781   6.988
10468SOL     OW32302   2.897   5.327   3.620
10468SOL    HW132303   2.931   5.235   3.637
10468SOL    HW232304   2.813   5.342   3.673
10469SOL     OW32305   6.262   1.321   4.539
10469SOL    HW132306   6.291   1.367   4.455
10469SOL    HW232307   6.242   1.389   4.609
10470SOL     OW32308   2.413   2.679   3.891
10470SOL    HW132309   2.395   2.760   3.946
10470SOL    HW232310   2.343   2.671   3.819
10471SOL     OW32311   3.521   6.925   0.216
10471SOL    HW132312   3.550   6.842   0.263
10471SOL    HW232313   3.444   6.905   0.155
10472SOL     OW32314   3.054   4.957   0.077
10472SOL    HW132315   3.073   4.922   7.008
10472SOL    HW232316   2.956   4.970   0.088
10473SOL     OW32317   5.295   5.283   0.055
10473SOL    HW132318   5.289   5.357   7.011
10473SOL    HW232319   5.270   5.317   0.146
10474SOL     OW32320   4.938   1.234   3.559
10474SOL    HW132321   4.953   1.290   3.478
10474SOL    HW232322   5.012   1.168   3.568
10475SOL     OW32323   1.207   6.900   1.297
10475SOL    HW132324   1.203   6.802   1.277
10475SOL    HW232325   1.291   6.921   1.347
10476SOL     OW32326   3.309   6.041   6.897
10476SOL    HW132327   3.254   6.082   6.970
10476SOL    HW232328   3.358   5.962   6.933
10477SOL     OW32329   6.392   5.903   3.584
10477SOL    HW132330   6.386   5.973   3.513
10477SOL    HW232331   6.421   5.817   3.542
10478SOL     OW32332   5.818   0.583   7.018
10478SOL    HW132333   5.882   0.521   0.042
10478SOL    HW232334   5.866   0.632   6.945
10479SOL     OW32335   0.629   2.407   2.131
10479SOL    HW132336   0.543   2.405   2.183
10479SOL    HW232337   0.639   2.321   2.081
10480SOL     OW32338   1.827   0.108   2.529
10480SOL    HW132339   1.791   0.105   2.436
10480SOL    HW232340   1.867   0.198   2.547
10481SOL     OW32341   6.975   0.865   2.848
10481SOL    HW132342   7.015   0.778   2.877
10481SOL    HW232343   6.875   0.858   2.853
10482SOL     OW32344   5.357   3.980   4.340
10482SOL    HW132345   5.446   4.015   4.370
10482SOL    HW232346   5.365   3.945   4.247
10483SOL     OW32347   6.361   5.690   0.511
10483SOL    HW132348   6.340   5.769   0.569
10483SOL    HW232349   6.334   5.710   0.417
10484SOL     OW32350   6.247   1.133   1.941
10484SOL    HW132351   6.303   1.060   1.901
10484SOL    HW232352   6.167   1.149   1.882
10485SOL     OW32353   5.361   3.341   5.489
10485SOL    HW132354   5.312   3.330   5.575
10485SOL    HW232355   5.304   3.389   5.423
10486SOL     OW32356   5.613   2.787   1.890
10486SOL    HW132357   5.683   2.836   1.838
10486SOL    HW232358   5.527   2.787   1.839
10487SOL     OW32359   6.129   6.777   1.724
10487SOL    HW132360   6.117   6.734   1.635
10487SOL    HW232361   6.155   6.872   1.712
10488SOL     OW32362   2.630   2.461   6.091
10488SOL    HW132363   2.582   2.373   6.087
10488SOL    HW232364   2.704   2.455   6.159
10489SOL     OW32365   0.335   5.872   6.063
10489SOL    HW132366   0.273   5.943   6.030
10489SOL    HW232367   0.282   5.802   6.111
10490SOL     OW32368   0.114   1.044   3.795
10490SOL    HW132369   0.178   1.016   3.866
10490SOL    HW232370   0.074   0.963   3.752
10491SOL     OW32371   1.580   4.855   5.938
10491SOL    HW132372   1.564   4.808   6.024
10491SOL    HW232373   1.606   4.789   5.868
10492SOL     OW32374   4.905   3.316   5.069
10492SOL    HW132375   4.832   3.249   5.086
10492SOL    HW232376   4.870   3.408   5.084
10493SOL     OW32377   3.554   0.964   1.393
10493SOL    HW132378   3.643   1.008   1.411
10493SOL    HW232379   3.549   0.878   1.443
10494SOL     OW32380   5.864   1.702   4.388
10494SOL    HW132381   5.860   1.775   4.456
10494SOL    HW232382   5.951   1.653   4.396
10495SOL     OW32383   1.385   6.629   0.744
10495SOL    HW132384   1.293   6.591   0.740
10495SOL    HW232385   1.450   6.561   0.710
10496SOL     OW32386   0.166   6.833   6.352
10496SOL    HW132387   0.231   6.824   6.277
10496SOL    HW232388   0.171   6.925   6.390
10497SOL     OW32389   1.304   0.826   1.041
10497SOL    HW132390   1.363   0.903   1.064
10497SOL    HW232391   1.316   0.802   0.944
10498SOL     OW32392   1.943   6.553   6.080
10498SOL    HW132393   2.024   6.605   6.110
10498SOL    HW232394   1.886   6.532   6.160
10499SOL     OW32395   3.251   5.880   3.377
10499SOL    HW132396   3.184   5.806   3.387
10499SOL    HW232397   3.277   5.887   3.280
10500SOL     OW32398   1.186   1.873   5.925
10500SOL    HW132399   1.188   1.954   5.867
10500SOL    HW232400   1.132   1.891   6.007
10501SOL     OW32401   1.749   3.743   2.743
10501SOL    HW132402   1.821   3.723   2.810
10501SOL    HW232403   1.739   3.842   2.734
10502SOL     OW32404   3.202   6.224   6.607
10502SOL    HW132405   3.295   6.257   6.589
10502SOL    HW232406   3.192   6.205   6.705
10503SOL     OW32407   3.228   2.829   0.135
10503SOL    HW132408   3.145   2.822   0.191
10503SOL    HW232409   3.217   2.900   0.067
10504SOL     OW32410   3.140   3.297   0.997
10504SOL    HW132411   3.174   3.253   1.081
10504SOL    HW232412   3.076   3.369   1.021
10505SOL     OW32413   6.594   5.857   1.598
10505SOL    HW132414   6.597   5.767   1.642
10505SOL    HW232415   6.680   5.905   1.616
10506SOL     OW32416   0.541   3.841   5.942
10506SOL    HW132417   0.572   3.936   5.948
10506SOL    HW232418   0.567   3.793   6.026
10507SOL     OW32419   1.059   0.562   6.266
10507SOL    HW132420   0.963   0.579   6.244
10507SOL    HW232421   1.114   0.640   6.235
10508SOL     OW32422   5.555   4.370   3.296
10508SOL    HW132423   5.502   4.454   3.308
10508SOL    HW232424   5.605   4.374   3.210
10509SOL     OW32425   1.196   6.750   6.576
10509SOL    HW132426   1.292   6.751   6.606
10509SOL    HW232427   1.171   6.842   6.545
10510SOL     OW32428   6.144   5.467   6.820
10510SOL    HW132429   6.222   5.499   6.767
10510SOL    HW232430   6.060   5.511   6.786
10511SOL     OW32431   4.533   2.746   0.587
10511SOL    HW132432   4.464   2.713   0.523
10511SOL    HW232433   4.490   2.766   0.675
10512SOL     OW32434   4.167   0.341   5.912
10512SOL    HW132435   4.144   0.246   5.888
10512SOL    HW232436   4.088   0.399   5.896
10513SOL     OW32437   0.719   2.315   6.435
10513SOL    HW132438   0.697   2.360   6.521
10513SOL    HW232439   0.721   2.216   6.448
10514SOL     OW32440   0.095   4.452   0.433
10514SOL    HW132441   0.152   4.447   0.351
10514SOL    HW232442   0.140   4.403   0.508
10515SOL     OW32443   6.585   1.837   3.541
10515SOL    HW132444   6.541   1.747   3.540
10515SOL    HW232445   6.524   1.905   3.499
10516SOL     OW32446   4.401   1.068   5.968
10516SOL    HW132447   4.414   1.102   5.875
10516SOL    HW232448   4.325   1.116   6.010
10517SOL     OW32449   6.324   1.772   2.160
10517SOL    HW132450   6.353   1.798   2.068
10517SOL    HW232451   6.249   1.832   2.189
10518SOL     OW32452   1.168   6.043   0.810
10518SOL    HW132453   1.130   5.978   0.743
10518SOL    HW232454   1.137   6.018   0.901
10519SOL     OW32455   3.169   3.240   5.987
10519SOL    HW132456   3.162   3.274   5.893
10519SOL    HW232457   3.089   3.185   6.009
10520SOL     OW32458   3.459   2.774   0.032
10520SOL    HW132459   3.379   2.784   0.092
10520SOL    HW232460   3.452   2.688   7.004
10521SOL     OW32461   6.543   5.945   1.188
10521SOL    HW132462   6.579   5.875   1.249
10521SOL    HW232463   6.537   6.032   1.237
10522SOL     OW32464   6.793   0.484   0.787
10522SOL    HW132465   6.824   0.538   0.708
10522SOL    HW232466   6.862   0.415   0.809
10523SOL     OW32467   0.369   5.636   5.920
10523SOL    HW132468   0.407   5.725   5.943
10523SOL    HW232469   0.269   5.638   5.932
10524SOL     OW32470   1.916   0.464   4.504
10524SOL    HW132471   1.873   0.379   4.473
10524SOL    HW232472   1.961   0.508   4.426
10525SOL     OW32473   1.971   6.496   5.191
10525SOL    HW132474   1.989   6.408   5.236
10525SOL    HW232475   1.882   6.491   5.145
10526SOL     OW32476   6.804   1.202   2.156
10526SOL    HW132477   6.790   1.111   2.196
10526SOL    HW232478   6.885   1.244   2.197
10527SOL     OW32479   0.551   2.630   4.695
10527SOL    HW132480   0.459   2.642   4.732
10527SOL    HW232481   0.614   2.693   4.742
10528SOL     OW32482   0.061   5.360   5.242
10528SOL    HW132483   7.020   5.291   5.210
10528SOL    HW232484   0.136   5.370   5.176
10529SOL     OW32485   6.445   0.029   3.563
10529SOL    HW132486   6.500   6.969   3.576
10529SOL    HW232487   6.501   0.100   3.522
10530SOL     OW32488   2.907   2.146   5.709
10530SOL    HW132489   2.821   2.116   5.668
10530SOL    HW232490   2.907   2.124   5.807
10531SOL     OW32491   1.696   3.303   4.541
10531SOL    HW132492   1.618   3.351   4.500
10531SOL    HW232493   1.772   3.302   4.475
10532SOL     OW32494   4.159   2.595   6.338
10532SOL    HW132495   4.108   2.650   6.272
10532SOL    HW232496   4.174   2.504   6.301
10533SOL     OW32497   2.788   1.030   5.597
10533SOL    HW132498   2.698   1.070   5.581
10533SOL    HW232499   2.783   0.968   5.675
10534SOL     OW32500   0.372   5.626   0.362
10534SOL    HW132501   0.299   5.669   0.416
10534SOL    HW232502   0.459   5.672   0.381
10535SOL     OW32503   0.645   1.373   2.301
10535SOL    HW132504   0.597   1.331   2.224
10535SOL    HW232505   0.710   1.440   2.267
10536SOL     OW32506   4.432   0.786   2.585
10536SOL    HW132507   4.479   0.867   2.619
10536SOL    HW232508   4.336   0.808   2.567
10537SOL     OW32509   2.327   5.112   2.346
10537SOL    HW132510   2.420   5.149   2.350
10537SOL    HW232511   2.280   5.147   2.265
10538SOL     OW32512   4.101   4.210   0.467
10538SOL    HW132513   4.120   4.284   0.403
10538SOL    HW232514   4.046   4.245   0.543
10539SOL     OW32515   0.595   3.303   6.265
10539SOL    HW132516   0.515   3.252   6.232
10539SOL    HW232517   0.671   3.239   6.280
10540SOL     OW32518   1.845   0.374   6.232
10540SOL    HW132519   1.867   0.447   6.167
10540SOL    HW232520   1.786   0.410   6.305
10541SOL     OW32521   3.980   3.534   0.293
10541SOL    HW132522   4.048   3.589   0.245
10541SOL    HW232523   4.011   3.514   0.385
10542SOL     OW32524   7.001   2.666   0.304
10542SOL    HW132525   0.001   2.746   0.249
10542SOL    HW232526   0.011   2.584   0.257
10543SOL     OW32527   0.299   1.653   5.666
10543SOL    HW132528   0.232   1.715   5.707
10543SOL    HW232529   0.322   1.685   5.574
10544SOL     OW32530   2.520   2.001   2.370
10544SOL    HW132531   2.473   1.960   2.449
10544SOL    HW232532   2.559   2.089   2.397
10545SOL     OW32533   6.878   0.472   2.531
10545SOL    HW132534   6.952   0.538   2.538
10545SOL    HW232535   6.885   0.405   2.605
10546SOL     OW32536   2.501   0.046   4.297
10546SOL    HW132537   2.486   0.041   4.396
10546SOL    HW232538   2.419   0.083   4.253
10547SOL     OW32539   4.565   1.572   1.170
10547SOL    HW132540   4.569   1.615   1.080
10547SOL    HW232541   4.472   1.580   1.207
10548SOL     OW32542   5.001   4.201   4.766
10548SOL    HW132543   5.084   4.212   4.711
10548SOL    HW232544   4.979   4.288   4.810
10549SOL     OW32545   1.181   0.567   2.199
10549SOL    HW132546   1.269   0.611   2.180
10549SOL    HW232547   1.182   0.475   2.161
10550SOL     OW32548   5.610   0.394   3.797
10550SOL    HW132549   5.541   0.401   3.725
10550SOL    HW232550   5.628   0.297   3.816
10551SOL     OW32551   1.112   2.077   5.755
10551SOL    HW132552   1.153   2.166   5.772
10551SOL    HW232553   1.012   2.084   5.762
10552SOL     OW32554   3.329   2.631   5.890
10552SOL    HW132555   3.250   2.678   5.930
10552SOL    HW232556   3.385   2.697   5.840
10553SOL     OW32557   0.804   5.643   0.058
10553SOL    HW132558   0.881   5.670   0.000
10553SOL    HW232559   0.778   5.549   0.037
10554SOL     OW32560   6.857   4.833   6.791
10554SOL    HW132561   6.828   4.795   6.878
10554SOL    HW232562   6.806   4.790   6.716
10555SOL     OW32563   3.268   1.503   2.452
10555SOL    HW132564   3.363   1.511   2.421
10555SOL    HW232565   3.262   1.530   2.548
10556SOL     OW32566   2.070   3.170   5.325
10556SOL    HW132567   2.155   3.122   5.346
10556SOL    HW232568   1.996   3.134   5.382
10557SOL     OW32569   6.953   2.992   3.284
10557SOL    HW132570   6.885   2.919   3.275
10557SOL    HW232571   0.020   2.958   3.255
10558SOL     OW32572   4.771   6.477   5.421
10558SOL    HW132573   4.774   6.552   5.487
10558SOL    HW232574   4.677   6.444   5.412
10559SOL     OW32575   4.860   1.899   0.764
10559SOL    HW132576   4.766   1.919   0.737
10559SOL    HW232577   4.865   1.893   0.864
10560SOL     OW32578   1.541   4.109   4.826
10560SOL    HW132579   1.558   4.030   4.767
10560SOL    HW232580   1.481   4.173   4.778
10561SOL     OW32581   1.951   4.675   6.805
10561SOL    HW132582   1.882   4.701   6.737
10561SOL    HW232583   1.986   4.584   6.783
10562SOL     OW32584   4.338   1.157   0.576
10562SOL    HW132585   4.350   1.173   0.478
10562SOL    HW232586   4.419   1.111   0.612
10563SOL     OW32587   1.800   2.157   5.300
10563SOL    HW132588   1.853   2.150   5.385
10563SOL    HW232589   1.853   2.209   5.233
10564SOL     OW32590   5.391   1.458   1.342
10564SOL    HW132591   5.356   1.549   1.365
10564SOL    HW232592   5.470   1.437   1.400
10565SOL     OW32593   6.001   1.203   5.396
10565SOL    HW132594   6.063   1.156   5.334
10565SOL    HW232595   5.975   1.141   5.471
10566SOL     OW32596   3.686   4.124   6.216
10566SOL    HW132597   3.717   4.031   6.236
10566SOL    HW232598   3.627   4.123   6.135
10567SOL     OW32599   1.854   3.548   4.048
10567SOL    HW132600   1.929   3.482   4.052
10567SOL    HW232601   1.849   3.599   4.134
10568SOL     OW32602   5.317   1.059   2.449
10568SOL    HW132603   5.389   0.990   2.455
10568SOL    HW232604   5.313   1.110   2.534
10569SOL     OW32605   5.981   3.000   3.409
10569SOL    HW132606   5.905   3.061   3.387
10569SOL    HW232607   6.034   3.039   3.484
10570SOL     OW32608   2.021   4.649   2.493
10570SOL    HW132609   2.098   4.625   2.434
10570SOL    HW232610   1.969   4.724   2.452
10571SOL     OW32611   6.618   6.008   2.852
10571SOL    HW132612   6.566   5.988   2.768
10571SOL    HW232613   6.705   6.051   2.827
10572SOL     OW32614   5.732   3.690   2.404
10572SOL    HW132615   5.813   3.661   2.353
10572SOL    HW232616   5.673   3.744   2.344
10573SOL     OW32617   6.426   5.424   4.039
10573SOL    HW132618   6.367   5.503   4.021
10573SOL    HW232619   6.382   5.341   4.006
10574SOL     OW32620   0.740   1.940   3.673
10574SOL    HW132621   0.653   1.984   3.695
10574SOL    HW232622   0.723   1.846   3.641
10575SOL     OW32623   1.062   0.705   5.300
10575SOL    HW132624   1.076   0.709   5.201
10575SOL    HW232625   1.003   0.780   5.329
10576SOL     OW32626   1.791   5.667   4.753
10576SOL    HW132627   1.746   5.585   4.720
10576SOL    HW232628   1.866   5.692   4.692
10577SOL     OW32629   2.079   3.197   5.935
10577SOL    HW132630   2.007   3.191   6.004
10577SOL    HW232631   2.155   3.136   5.961
10578SOL     OW32632   5.693   0.042   5.298
10578SOL    HW132633   5.749   6.989   5.265
10578SOL    HW232634   5.625   0.006   5.363
10579SOL     OW32635   4.762   1.683   0.482
10579SOL    HW132636   4.733   1.675   0.577
10579SOL    HW232637   4.824   1.607   0.460
10580SOL     OW32638   0.059   6.231   6.826
10580SOL    HW132639   0.043   6.304   6.894
10580SOL    HW232640   7.015   6.240   6.752
10581SOL     OW32641   5.362   0.644   3.616
10581SOL    HW132642   5.339   0.642   3.519
10581SOL    HW232643   5.422   0.567   3.638
10582SOL     OW32644   3.761   5.173   6.621
10582SOL    HW132645   3.756   5.163   6.720
10582SOL    HW232646   3.854   5.200   6.595
10583SOL     OW32647   3.565   0.859   0.130
10583SOL    HW132648   3.558   0.904   0.219
10583SOL    HW232649   3.533   0.764   0.137
10584SOL     OW32650   5.452   6.539   1.380
10584SOL    HW132651   5.421   6.446   1.358
10584SOL    HW232652   5.373   6.600   1.380
10585SOL     OW32653   0.962   2.924   6.450
10585SOL    HW132654   0.882   2.875   6.483
10585SOL    HW232655   1.024   2.860   6.404
10586SOL     OW32656   2.464   5.987   5.910
10586SOL    HW132657   2.408   5.920   5.959
10586SOL    HW232658   2.549   5.943   5.879
10587SOL     OW32659   6.426   3.670   0.542
10587SOL    HW132660   6.380   3.627   0.464
10587SOL    HW232661   6.361   3.677   0.619
10588SOL     OW32662   1.157   4.718   2.931
10588SOL    HW132663   1.182   4.734   3.027
10588SOL    HW232664   1.109   4.798   2.896
10589SOL     OW32665   5.542   2.262   4.133
10589SOL    HW132666   5.582   2.341   4.087
10589SOL    HW232667   5.573   2.178   4.088
10590SOL     OW32668   1.197   0.609   3.833
10590SOL    HW132669   1.136   0.564   3.898
10590SOL    HW232670   1.292   0.593   3.859
10591SOL     OW32671   1.184   1.732   6.800
10591SOL    HW132672   1.223   1.762   6.887
10591SOL    HW232673   1.251   1.743   6.727
10592SOL     OW32674   6.406   1.484   0.240
10592SOL    HW132675   6.486   1.513   0.294
10592SOL    HW232676   6.360   1.564   0.203
10593SOL     OW32677   2.060   5.488   1.525
10593SOL    HW132678   1.968   5.520   1.504
10593SOL    HW232679   2.090   5.527   1.612
10594SOL     OW32680   6.074   1.579   4.073
10594SOL    HW132681   5.995   1.636   4.052
10594SOL    HW232682   6.043   1.496   4.120
10595SOL     OW32683   3.746   6.421   6.233
10595SOL    HW132684   3.804   6.459   6.305
10595SOL    HW232685   3.791   6.430   6.144
10596SOL     OW32686   3.852   6.744   2.435
10596SOL    HW132687   3.779   6.799   2.394
10596SOL    HW232688   3.811   6.676   2.495
10597SOL     OW32689   2.122   0.641   5.054
10597SOL    HW132690   2.099   0.681   4.966
10597SOL    HW232691   2.046   0.654   5.118
10598SOL     OW32692   2.044   2.236   0.049
10598SOL    HW132693   1.973   2.173   0.081
10598SOL    HW232694   2.039   2.245   6.972
10599SOL     OW32695   6.207   0.662   0.125
10599SOL    HW132696   6.195   0.757   0.156
10599SOL    HW232697   6.144   0.602   0.175
10600SOL     OW32698   2.723   2.820   5.743
10600SOL    HW132699   2.655   2.751   5.771
10600SOL    HW232700   2.704   2.849   5.650
10601SOL     OW32701   2.800   6.459   6.204
10601SOL    HW132702   2.757   6.547   6.222
10601SOL    HW232703   2.743   6.386   6.242
10602SOL     OW32704   4.878   1.626   1.195
10602SOL    HW132705   4.896   1.581   1.107
10602SOL    HW232706   4.867   1.556   1.266
10603SOL     OW32707   2.083   5.300   4.069
10603SOL    HW132708   2.143   5.356   4.013
10603SOL    HW232709   2.090   5.204   4.041
10604SOL     OW32710   6.672   3.958   4.132
10604SOL    HW132711   6.686   4.025   4.205
10604SOL    HW232712   6.758   3.910   4.113
10605SOL     OW32713   1.011   5.286   6.713
10605SOL    HW132714   0.994   5.357   6.645
10605SOL    HW232715   0.975   5.316   6.802
10606SOL     OW32716   0.231   0.464   1.483
10606SOL    HW132717   0.247   0.451   1.385
10606SOL    HW232718   0.301   0.416   1.535
10607SOL     OW32719   5.003   4.636   6.598
10607SOL    HW132720   5.102   4.623   6.601
10607SOL    HW232721   4.975   4.651   6.503
10608SOL     OW32722   5.650   1.688   4.227
10608SOL    HW132723   5.718   1.687   4.300
10608SOL    HW232724   5.559   1.702   4.266
10609SOL     OW32725   4.014   6.427   0.594
10609SOL    HW132726   3.929   6.479   0.585
10609SOL    HW232727   4.068   6.438   0.510
10610SOL     OW32728   1.679   3.141   5.861
10610SOL    HW132729   1.587   3.180   5.858
10610SOL    HW232730   1.745   3.209   5.831
10611SOL     OW32731   5.529   2.491   6.117
10611SOL    HW132732   5.555   2.550   6.041
10611SOL    HW232733   5.443   2.445   6.096
10612SOL     OW32734   2.406   0.070   6.838
10612SOL    HW132735   2.452   0.158   6.829
10612SOL    HW232736   2.333   0.064   6.769
10613SOL     OW32737   0.311   6.610   5.922
10613SOL    HW132738   0.344   6.635   6.013
10613SOL    HW232739   0.295   6.511   5.918
10614SOL     OW32740   6.258   1.207   4.048
10614SOL    HW132741   6.321   1.133   4.071
10614SOL    HW232742   6.215   1.188   3.960
10615SOL     OW32743   5.092   5.505   4.977
10615SOL    HW132744   5.057   5.421   5.019
10615SOL    HW232745   5.179   5.529   5.020
10616SOL     OW32746   3.320   6.289   0.249
10616SOL    HW132747   3.229   6.329   0.240
10616SOL    HW232748   3.319   6.194   0.216
10617SOL     OW32749   2.411   2.223   0.796
10617SOL    HW132750   2.388   2.175   0.881
10617SOL    HW232751   2.335   2.214   0.731
10618SOL     OW32752   6.016   3.167   0.126
10618SOL    HW132753   5.993   3.173   0.223
10618SOL    HW232754   5.991   3.252   0.080
10619SOL     OW32755   0.931   4.408   3.803
10619SOL    HW132756   0.942   4.340   3.731
10619SOL    HW232757   1.003   4.477   3.796
10620SOL     OW32758   1.560   6.079   4.639
10620SOL    HW132759   1.593   5.998   4.687
10620SOL    HW232760   1.630   6.150   4.641
10621SOL     OW32761   1.740   6.222   0.128
10621SOL    HW132762   1.670   6.162   0.166
10621SOL    HW232763   1.720   6.317   0.153
10622SOL     OW32764   3.773   0.288   1.560
10622SOL    HW132765   3.783   0.366   1.621
10622SOL    HW232766   3.788   0.318   1.466
10623SOL     OW32767   6.213   2.338   3.906
10623SOL    HW132768   6.200   2.267   3.837
10623SOL    HW232769   6.288   2.398   3.878
10624SOL     OW32770   1.554   0.822   4.471
10624SOL    HW132771   1.600   0.838   4.559
10624SOL    HW232772   1.463   0.864   4.474
10625SOL     OW32773   0.787   3.180   6.778
10625SOL    HW132774   0.774   3.192   6.876
10625SOL    HW232775   0.759   3.263   6.730
10626SOL     OW32776   0.681   1.643   1.986
10626SOL    HW132777   0.589   1.614   1.958
10626SOL    HW232778   0.692   1.628   2.084
10627SOL     OW32779   6.453   6.414   3.010
10627SOL    HW132780   6.467   6.379   3.103
10627SOL    HW232781   6.514   6.491   2.994
10628SOL     OW32782   6.187   5.611   5.591
10628SOL    HW132783   6.264   5.560   5.629
10628SOL    HW232784   6.218   5.668   5.515
10629SOL     OW32785   2.891   5.259   5.801
10629SOL    HW132786   2.919   5.353   5.821
10629SOL    HW232787   2.843   5.256   5.714
10630SOL     OW32788   6.027   1.658   3.404
10630SOL    HW132789   6.090   1.684   3.331
10630SOL    HW232790   5.955   1.727   3.413
10631SOL     OW32791   0.615   6.767   3.866
10631SOL    HW132792   0.516   6.780   3.855
10631SOL    HW232793   0.643   6.803   3.955
10632SOL     OW32794   6.635   1.875   4.770
10632SOL    HW132795   6.649   1.932   4.851
10632SOL    HW232796   6.551   1.822   4.780
10633SOL     OW32797   2.576   5.651   1.492
10633SOL    HW132798   2.518   5.720   1.535
10633SOL    HW232799   2.542   5.560   1.516
10634SOL     OW32800   3.637   5.991   0.949
10634SOL    HW132801   3.583   6.026   0.873
10634SOL    HW232802   3.589   6.008   1.035
10635SOL     OW32803   2.243   0.554   1.346
10635SOL    HW132804   2.227   0.542   1.444
10635SOL    HW232805   2.169   0.509   1.295
10636SOL     OW32806   0.718   1.795   1.185
10636SOL    HW132807   0.785   1.747   1.241
10636SOL    HW232808   0.728   1.894   1.198
10637SOL     OW32809   3.245   3.963   4.529
10637SOL    HW132810   3.306   4.009   4.594
10637SOL    HW232811   3.161   3.934   4.577
10638SOL     OW32812   6.741   6.337   4.877
10638SOL    HW132813   6.822   6.292   4.839
10638SOL    HW232814   6.675   6.356   4.803
10639SOL     OW32815   1.535   1.108   5.072
10639SOL    HW132816   1.575   1.083   5.160
10639SOL    HW232817   1.488   1.196   5.080
10640SOL     OW32818   5.195   1.453   0.104
10640SOL    HW132819   5.128   1.399   0.053
10640SOL    HW232820   5.285   1.444   0.060
10641SOL     OW32821   5.747   1.584   6.917
10641SOL    HW132822   5.766   1.589   6.819
10641SOL    HW232823   5.751   1.676   6.957
10642SOL     OW32824   0.290   2.433   1.954
10642SOL    HW132825   0.293   2.344   1.909
10642SOL    HW232826   0.258   2.422   2.048
10643SOL     OW32827   2.721   3.433   5.431
10643SOL    HW132828   2.727   3.374   5.350
10643SOL    HW232829   2.730   3.529   5.403
10644SOL     OW32830   4.516   1.622   3.957
10644SOL    HW132831   4.554   1.546   4.009
10644SOL    HW232832   4.539   1.612   3.860
10645SOL     OW32833   2.166   0.183   4.988
10645SOL    HW132834   2.152   0.167   4.890
10645SOL    HW232835   2.077   0.198   5.032
10646SOL     OW32836   1.412   3.237   5.856
10646SOL    HW132837   1.337   3.175   5.831
10646SOL    HW232838   1.401   3.266   5.951
10647SOL     OW32839   6.837   5.075   0.528
10647SOL    HW132840   6.935   5.085   0.516
10647SOL    HW232841   6.795   5.042   0.444
10648SOL     OW32842   4.928   2.907   7.018
10648SOL    HW132843   4.969   2.979   6.962
10648SOL    HW232844   4.889   2.837   6.959
10649SOL     OW32845   6.734   4.907   5.690
10649SOL    HW132846   6.768   4.846   5.618
10649SOL    HW232847   6.807   4.927   5.755
10650SOL     OW32848   2.682   6.210   3.824
10650SOL    HW132849   2.692   6.143   3.897
10650SOL    HW232850   2.646   6.165   3.742
10651SOL     OW32851   4.861   6.651   6.005
10651SOL    HW132852   4.778   6.704   5.985
10651SOL    HW232853   4.930   6.671   5.935
10652SOL     OW32854   3.759   0.457   6.172
10652SOL    HW132855   3.840   0.458   6.113
10652SOL    HW232856   3.693   0.390   6.137
10653SOL     OW32857   5.439   4.460   4.307
10653SOL    HW132858   5.467   4.413   4.391
10653SOL    HW232859   5.404   4.551   4.330
10654SOL     OW32860   4.098   1.204   0.690
10654SOL    HW132861   4.107   1.251   0.778
10654SOL    HW232862   4.186   1.204   0.642
10655SOL     OW32863   2.879   5.873   1.181
10655SOL    HW132864   2.854   5.964   1.149
10655SOL    HW232865   2.955   5.838   1.126
10656SOL     OW32866   6.390   2.603   0.105
10656SOL    HW132867   6.417   2.664   0.180
10656SOL    HW232868   6.305   2.557   0.129
10657SOL     OW32869   5.885   0.946   1.303
10657SOL    HW132870   5.971   0.897   1.287
10657SOL    HW232871   5.833   0.899   1.375
10658SOL     OW32872   0.262   5.100   4.289
10658SOL    HW132873   0.328   5.093   4.364
10658SOL    HW232874   0.279   5.185   4.238
10659SOL     OW32875   6.081   0.245   0.550
10659SOL    HW132876   5.996   0.290   0.576
10659SOL    HW232877   6.121   0.290   0.470
10660SOL     OW32878   4.611   5.096   5.565
10660SOL    HW132879   4.705   5.069   5.542
10660SOL    HW232880   4.606   5.195   5.572
10661SOL     OW32881   0.345   6.831   2.711
10661SOL    HW132882   0.280   6.826   2.787
10661SOL    HW232883   0.342   6.745   2.660
10662SOL     OW32884   6.001   1.566   0.697
10662SOL    HW132885   5.970   1.517   0.616
10662SOL    HW232886   6.091   1.533   0.724
10663SOL     OW32887   6.833   0.005   0.050
10663SOL    HW132888   6.765   0.006   0.123
10663SOL    HW232889   6.897   0.081   0.063
10664SOL     OW32890   2.128   5.506   0.104
10664SOL    HW132891   2.113   5.605   0.095
10664SOL    HW232892   2.156   5.485   0.197
10665SOL     OW32893   6.431   1.676   0.908
10665SOL    HW132894   6.357   1.644   0.967
10665SOL    HW232895   6.443   1.774   0.920
10666SOL     OW32896   1.983   6.640   0.140
10666SOL    HW132897   1.952   6.628   0.046
10666SOL    HW232898   2.071   6.594   0.152
10667SOL     OW32899   3.187   2.180   6.043
10667SOL    HW132900   3.115   2.130   5.995
10667SOL    HW232901   3.229   2.247   5.980
10668SOL     OW32902   1.560   1.421   6.395
10668SOL    HW132903   1.525   1.416   6.301
10668SOL    HW232904   1.656   1.395   6.397
10669SOL     OW32905   1.506   0.281   0.057
10669SOL    HW132906   1.453   0.358   0.023
10669SOL    HW232907   1.503   0.206   7.013
10670SOL     OW32908   6.137   4.496   5.981
10670SOL    HW132909   6.116   4.474   5.886
10670SOL    HW232910   6.236   4.497   5.995
10671SOL     OW32911   2.486   1.557   3.440
10671SOL    HW132912   2.401   1.536   3.490
10671SOL    HW232913   2.501   1.488   3.370
10672SOL     OW32914   6.872   3.129   1.488
10672SOL    HW132915   6.960   3.095   1.522
10672SOL    HW232916   6.837   3.067   1.418
10673SOL     OW32917   2.730   3.089   5.311
10673SOL    HW132918   2.641   3.082   5.265
10673SOL    HW232919   2.715   3.097   5.410
10674SOL     OW32920   3.804   3.400   1.417
10674SOL    HW132921   3.707   3.377   1.424
10674SOL    HW232922   3.823   3.481   1.471
10675SOL     OW32923   7.009   0.139   5.587
10675SOL    HW132924   0.074   0.188   5.578
10675SOL    HW232925   6.934   0.205   5.580
10676SOL     OW32926   6.198   6.793   6.440
10676SOL    HW132927   6.265   6.749   6.500
10676SOL    HW232928   6.236   6.879   6.405
10677SOL     OW32929   0.169   0.582   0.999
10677SOL    HW132930   0.269   0.574   0.997
10677SOL    HW232931   0.136   0.614   0.910
10678SOL     OW32932   2.369   6.154   2.621
10678SOL    HW132933   2.276   6.166   2.656
10678SOL    HW232934   2.385   6.057   2.601
10679SOL     OW32935   5.267   5.138   4.664
10679SOL    HW132936   5.196   5.073   4.637
10679SOL    HW232937   5.239   5.230   4.639
10680SOL     OW32938   1.361   2.872   2.580
10680SOL    HW132939   1.321   2.921   2.502
10680SOL    HW232940   1.399   2.938   2.645
10681SOL     OW32941   6.792   1.727   6.003
10681SOL    HW132942   6.849   1.692   6.077
10681SOL    HW232943   6.742   1.651   5.961
10682SOL     OW32944   6.926   1.854   3.044
10682SOL    HW132945   6.894   1.807   3.127
10682SOL    HW232946   6.847   1.887   2.992
10683SOL     OW32947   1.717   1.739   4.904
10683SOL    HW132948   1.642   1.786   4.951
10683SOL    HW232949   1.781   1.807   4.868
10684SOL     OW32950   5.703   4.218   0.149
10684SOL    HW132951   5.725   4.174   0.062
10684SOL    HW232952   5.618   4.270   0.140
10685SOL     OW32953   0.204   3.078   3.014
10685SOL    HW132954   0.147   2.996   3.020
10685SOL    HW232955   0.224   3.110   3.107
10686SOL     OW32956   3.359   5.369   0.175
10686SOL    HW132957   3.431   5.437   0.184
10686SOL    HW232958   3.382   5.288   0.229
10687SOL     OW32959   0.374   4.924   3.227
10687SOL    HW132960   0.433   4.860   3.277
10687SOL    HW232961   0.378   4.905   3.130
10688SOL     OW32962   6.598   5.047   2.023
10688SOL    HW132963   6.622   4.985   1.949
10688SOL    HW232964   6.509   5.090   2.004
10689SOL     OW32965   0.729   1.280   2.729
10689SOL    HW132966   0.724   1.264   2.630
10689SOL    HW232967   0.815   1.244   2.764
10690SOL     OW32968   4.144   4.921   1.846
10690SOL    HW132969   4.054   4.920   1.890
10690SOL    HW232970   4.161   4.834   1.801
10691SOL     OW32971   6.793   1.438   1.631
10691SOL    HW132972   6.879   1.447   1.581
10691SOL    HW232973   6.808   1.384   1.714
10692SOL     OW32974   3.664   6.153   3.519
10692SOL    HW132975   3.749   6.151   3.465
10692SOL    HW232976   3.597   6.092   3.478
10693SOL     OW32977   6.709   1.649   2.070
10693SOL    HW132978   6.786   1.675   2.012
10693SOL    HW232979   6.689   1.552   2.058
10694SOL     OW32980   3.812   6.522   0.431
10694SOL    HW132981   3.823   6.588   0.357
10694SOL    HW232982   3.756   6.445   0.398
10695SOL     OW32983   0.132   3.078   4.075
10695SOL    HW132984   0.106   3.027   4.157
10695SOL    HW232985   0.062   3.065   4.004
10696SOL     OW32986   0.119   6.294   2.021
10696SOL    HW132987   0.190   6.294   2.092
10696SOL    HW232988   0.063   6.211   2.030
10697SOL     OW32989   2.422   5.485   3.363
10697SOL    HW132990   2.515   5.487   3.326
10697SOL    HW232991   2.426   5.467   3.462
10698SOL     OW32992   2.682   6.502   3.376
10698SOL    HW132993   2.753   6.439   3.343
10698SOL    HW232994   2.612   6.513   3.305
10699SOL     OW32995   2.622   2.256   2.721
10699SOL    HW132996   2.690   2.190   2.754
10699SOL    HW232997   2.628   2.264   2.622
10700SOL     OW32998   6.769   6.744   1.086
10700SOL    HW132999   6.749   6.817   1.151
10700SOL    HW233000   6.699   6.673   1.094
10701SOL     OW33001   2.811   6.151   1.126
10701SOL    HW133002   2.716   6.151   1.094
10701SOL    HW233003   2.863   6.219   1.074
10702SOL     OW33004   6.283   3.235   1.281
10702SOL    HW133005   6.271   3.139   1.307
10702SOL    HW233006   6.380   3.252   1.263
10703SOL     OW33007   3.997   3.724   3.627
10703SOL    HW133008   4.061   3.682   3.562
10703SOL    HW233009   3.918   3.664   3.639
10704SOL     OW33010   5.301   6.915   2.257
10704SOL    HW133011   5.211   6.893   2.220
10704SOL    HW233012   5.294   6.998   2.313
10705SOL     OW33013   0.374   2.639   6.201
10705SOL    HW133014   0.453   2.680   6.155
10705SOL    HW233015   0.328   2.709   6.256
10706SOL     OW33016   3.343   1.237   2.121
10706SOL    HW133017   3.302   1.227   2.211
10706SOL    HW233018   3.373   1.332   2.108
10707SOL     OW33019   5.900   0.118   6.143
10707SOL    HW133020   5.913   0.022   6.165
10707SOL    HW233021   5.855   0.126   6.054
10708SOL     OW33022   5.317   1.432   1.088
10708SOL    HW133023   5.366   1.434   1.175
10708SOL    HW233024   5.264   1.517   1.078
10709SOL     OW33025   6.628   6.115   5.889
10709SOL    HW133026   6.719   6.074   5.894
10709SOL    HW233027   6.561   6.054   5.931
10710SOL     OW33028   5.953   5.249   3.415
10710SOL    HW133029   6.023   5.312   3.382
10710SOL    HW233030   5.888   5.299   3.472
10711SOL     OW33031   1.503   6.265   3.939
10711SOL    HW133032   1.568   6.282   3.865
10711SOL    HW233033   1.461   6.352   3.967
10712SOL     OW33034   3.344   1.471   4.780
10712SOL    HW133035   3.339   1.561   4.825
10712SOL    HW233036   3.258   1.453   4.733
10713SOL     OW33037   0.812   6.291   1.266
10713SOL    HW133038   0.718   6.312   1.294
10713SOL    HW233039   0.814   6.201   1.221
10714SOL     OW33040   6.935   5.098   5.844
10714SOL    HW133041   6.975   5.007   5.848
10714SOL    HW233042   6.861   5.106   5.910
10715SOL     OW33043   5.823   1.209   4.140
10715SOL    HW133044   5.768   1.283   4.102
10715SOL    HW233045   5.907   1.246   4.179
10716SOL     OW33046   6.012   0.128   3.690
10716SOL    HW133047   5.969   0.037   3.688
10716SOL    HW233048   6.029   0.155   3.784
10717SOL     OW33049   0.015   6.982   1.217
10717SOL    HW133050   0.022   0.044   1.164
10717SOL    HW233051   0.096   6.926   1.203
10718SOL     OW33052   0.009   4.616   6.755
10718SOL    HW133053   7.017   4.573   6.844
10718SOL    HW233054   6.956   4.679   6.736
10719SOL     OW33055   5.362   0.470   2.077
10719SOL    HW133056   5.333   0.455   2.172
10719SOL    HW233057   5.397   0.563   2.067
10720SOL     OW33058   0.302   3.508   6.908
10720SOL    HW133059   0.248   3.475   6.831
10720SOL    HW233060   0.272   3.599   6.934
10721SOL     OW33061   4.718   2.566   4.109
10721SOL    HW133062   4.667   2.598   4.030
10721SOL    HW233063   4.807   2.530   4.080
10722SOL     OW33064   0.437   4.069   0.305
10722SOL    HW133065   0.510   4.025   0.357
10722SOL    HW233066   0.473   4.104   0.219
10723SOL     OW33067   6.466   4.479   0.110
10723SOL    HW133068   6.469   4.391   0.157
10723SOL    HW233069   6.415   4.544   0.165
10724SOL     OW33070   3.461   6.544   6.001
10724SOL    HW133071   3.411   6.532   6.087
10724SOL    HW233072   3.552   6.505   6.010
10725SOL     OW33073   6.539   6.057   4.668
10725SOL    HW133074   6.568   6.150   4.643
10725SOL    HW233075   6.566   5.993   4.597
10726SOL     OW33076   5.557   0.604   4.047
10726SOL    HW133077   5.537   0.702   4.040
10726SOL    HW233078   5.579   0.568   3.957
10727SOL     OW33079   2.410   5.947   6.603
10727SOL    HW133080   2.330   5.891   6.621
10727SOL    HW233081   2.475   5.937   6.678
10728SOL     OW33082   4.950   5.807   3.120
10728SOL    HW133083   4.907   5.812   3.030
10728SOL    HW233084   5.038   5.761   3.113
10729SOL     OW33085   6.077   3.126   3.618
10729SOL    HW133086   6.159   3.172   3.583
10729SOL    HW233087   6.093   3.095   3.711
10730SOL     OW33088   2.087   5.969   2.832
10730SOL    HW133089   2.111   6.059   2.869
10730SOL    HW233090   2.170   5.922   2.804
10731SOL     OW33091   4.704   6.522   6.385
10731SOL    HW133092   4.704   6.426   6.416
10731SOL    HW233093   4.797   6.548   6.359
10732SOL     OW33094   6.224   5.875   3.260
10732SOL    HW133095   6.140   5.921   3.231
10732SOL    HW233096   6.286   5.942   3.301
10733SOL     OW33097   0.469   0.860   6.328
10733SOL    HW133098   0.419   0.943   6.304
10733SOL    HW233099   0.479   0.802   6.247
10734SOL     OW33100   1.300   1.303   5.127
10734SOL    HW133101   1.253   1.239   5.066
10734SOL    HW233102   1.333   1.381   5.074
10735SOL     OW33103   0.660   5.479   2.285
10735SOL    HW133104   0.720   5.553   2.254
10735SOL    HW233105   0.711   5.419   2.347
10736SOL     OW33106   5.662   6.508   3.656
10736SOL    HW133107   5.699   6.468   3.740
10736SOL    HW233108   5.709   6.468   3.577
10737SOL     OW33109   6.264   1.519   2.192
10737SOL    HW133110   6.226   1.507   2.284
10737SOL    HW233111   6.278   1.617   2.175
10738SOL     OW33112   3.503   1.141   1.943
10738SOL    HW133113   3.593   1.182   1.955
10738SOL    HW233114   3.440   1.179   2.010
10739SOL     OW33115   5.187   2.510   3.723
10739SOL    HW133116   5.188   2.555   3.634
10739SOL    HW233117   5.142   2.569   3.790
10740SOL     OW33118   1.962   6.910   6.065
10740SOL    HW133119   2.056   6.879   6.083
10740SOL    HW233120   1.950   7.001   6.106
10741SOL     OW33121   2.383   2.205   3.486
10741SOL    HW133122   2.416   2.268   3.416
10741SOL    HW233123   2.432   2.221   3.571
10742SOL     OW33124   6.637   6.332   2.483
10742SOL    HW133125   6.614   6.385   2.401
10742SOL    HW233126   6.567   6.348   2.553
10743SOL     OW33127   3.299   0.942   5.780
10743SOL    HW133128   3.321   1.036   5.807
10743SOL    HW233129   3.254   0.942   5.691
10744SOL     OW33130   2.205   0.926   1.093
10744SOL    HW133131   2.146   0.860   1.046
10744SOL    HW233132   2.149   0.986   1.151
10745SOL     OW33133   1.245   4.830   2.120
10745SOL    HW133134   1.225   4.736   2.148
10745SOL    HW233135   1.326   4.863   2.169
10746SOL     OW33136   2.210   6.149   6.495
10746SOL    HW133137   2.191   6.247   6.492
10746SOL    HW233138   2.302   6.134   6.533
10747SOL     OW33139   5.873   1.283   4.995
10747SOL    HW133140   5.791   1.299   4.942
10747SOL    HW233141   5.859   1.315   5.089
10748SOL     OW33142   3.919   6.111   0.959
10748SOL    HW133143   3.840   6.051   0.953
10748SOL    HW233144   3.903   6.179   1.030
10749SOL     OW33145   5.756   5.178   2.151
10749SOL    HW133146   5.814   5.107   2.191
10749SOL    HW233147   5.669   5.181   2.202
10750SOL     OW33148   4.923   2.525   3.812
10750SOL    HW133149   4.939   2.444   3.868
10750SOL    HW233150   4.910   2.497   3.716
10751SOL     OW33151   0.036   4.634   5.433
10751SOL    HW133152   0.097   4.684   5.372
10751SOL    HW233153   0.072   4.542   5.448
10752SOL     OW33154   6.522   6.416   0.478
10752SOL    HW133155   6.481   6.339   0.527
10752SOL    HW233156   6.613   6.433   0.515
10753SOL     OW33157   4.641   6.724   3.918
10753SOL    HW133158   4.621   6.668   3.838
10753SOL    HW233159   4.614   6.675   4.001
10754SOL     OW33160   0.695   3.748   2.008
10754SOL    HW133161   0.617   3.809   1.993
10754SOL    HW233162   0.734   3.764   2.098
10755SOL     OW33163   6.235   2.999   1.339
10755SOL    HW133164   6.156   2.952   1.377
10755SOL    HW233165   6.263   2.955   1.253
10756SOL     OW33166   0.540   1.525   0.092
10756SOL    HW133167   0.506   1.575   0.172
10756SOL    HW233168   0.537   1.427   0.110
10757SOL     OW33169   0.355   4.184   1.644
10757SOL    HW133170   0.323   4.106   1.699
10757SOL    HW233171   0.424   4.152   1.579
10758SOL     OW33172   0.528   0.238   6.709
10758SOL    HW133173   0.620   0.275   6.695
10758SOL    HW233174   0.478   0.297   6.772
10759SOL     OW33175   2.677   2.081   6.061
10759SOL    HW133176   2.744   2.129   6.117
10759SOL    HW233177   2.601   2.143   6.040
10760SOL     OW33178   1.258   5.390   0.259
10760SOL    HW133179   1.273   5.448   0.339
10760SOL    HW233180   1.265   5.294   0.286
10761SOL     OW33181   0.363   0.910   5.762
10761SOL    HW133182   0.309   0.888   5.843
10761SOL    HW233183   0.437   0.973   5.787
10762SOL     OW33184   3.085   6.074   6.161
10762SOL    HW133185   3.082   6.054   6.063
10762SOL    HW233186   3.173   6.043   6.198
10763SOL     OW33187   5.139   6.980   3.561
10763SOL    HW133188   5.192   6.901   3.591
10763SOL    HW233189   5.045   6.971   3.591
10764SOL     OW33190   4.375   0.802   4.269
10764SOL    HW133191   4.348   0.781   4.176
10764SOL    HW233192   4.465   0.846   4.269
10765SOL     OW33193   6.772   2.303   2.476
10765SOL    HW133194   6.752   2.306   2.378
10765SOL    HW233195   6.813   2.214   2.498
10766SOL     OW33196   1.680   5.639   6.435
10766SOL    HW133197   1.779   5.646   6.436
10766SOL    HW233198   1.640   5.704   6.499
10767SOL     OW33199   1.606   5.222   0.501
10767SOL    HW133200   1.675   5.266   0.444
10767SOL    HW233201   1.612   5.257   0.594
10768SOL     OW33202   5.388   6.033   0.545
10768SOL    HW133203   5.440   6.014   0.462
10768SOL    HW233204   5.312   6.094   0.524
10769SOL     OW33205   3.496   3.210   4.675
10769SOL    HW133206   3.406   3.251   4.690
10769SOL    HW233207   3.528   3.232   4.583
10770SOL     OW33208   5.303   0.160   3.509
10770SOL    HW133209   5.333   0.168   3.414
10770SOL    HW233210   5.231   0.091   3.516
10771SOL     OW33211   4.701   6.003   5.633
10771SOL    HW133212   4.624   5.986   5.694
10771SOL    HW233213   4.671   5.998   5.538
10772SOL     OW33214   5.362   5.469   2.942
10772SOL    HW133215   5.289   5.401   2.945
10772SOL    HW233216   5.367   5.517   3.030
10773SOL     OW33217   6.886   3.547   1.581
10773SOL    HW133218   6.864   3.494   1.663
10773SOL    HW233219   6.929   3.633   1.608
10774SOL     OW33220   0.733   2.729   0.625
10774SOL    HW133221   0.801   2.760   0.558
10774SOL    HW233222   0.749   2.775   0.712
10775SOL     OW33223   1.429   4.096   0.257
10775SOL    HW133224   1.401   4.001   0.265
10775SOL    HW233225   1.450   4.133   0.347
10776SOL     OW33226   0.826   2.600   3.617
10776SOL    HW133227   0.756   2.660   3.578
10776SOL    HW233228   0.821   2.511   3.572
10777SOL     OW33229   3.369   1.461   1.978
10777SOL    HW133230   3.376   1.557   2.005
10777SOL    HW233231   3.273   1.433   1.979
10778SOL     OW33232   6.647   6.845   3.223
10778SOL    HW133233   6.589   6.782   3.172
10778SOL    HW233234   6.600   6.933   3.234
10779SOL     OW33235   5.201   3.837   4.763
10779SOL    HW133236   5.116   3.827   4.815
10779SOL    HW233237   5.279   3.824   4.824
10780SOL     OW33238   1.637   5.738   5.068
10780SOL    HW133239   1.567   5.805   5.043
10780SOL    HW233240   1.683   5.768   5.152
10781SOL     OW33241   6.202   2.249   5.184
10781SOL    HW133242   6.103   2.236   5.189
10781SOL    HW233243   6.244   2.170   5.140
10782SOL     OW33244   1.312   2.546   4.966
10782SOL    HW133245   1.275   2.607   5.037
10782SOL    HW233246   1.237   2.513   4.909
10783SOL     OW33247   1.180   2.343   3.100
10783SOL    HW133248   1.170   2.430   3.051
10783SOL    HW233249   1.092   2.315   3.137
10784SOL     OW33250   3.545   5.672   2.541
10784SOL    HW133251   3.475   5.726   2.587
10784SOL    HW233252   3.581   5.724   2.463
10785SOL     OW33253   1.968   5.718   2.223
10785SOL    HW133254   1.979   5.807   2.268
10785SOL    HW233255   1.879   5.715   2.177
10786SOL     OW33256   4.147   1.413   2.073
10786SOL    HW133257   4.144   1.427   2.172
10786SOL    HW233258   4.055   1.397   2.039
10787SOL     OW33259   4.008   0.611   3.063
10787SOL    HW133260   3.952   0.539   3.104
10787SOL    HW233261   4.101   0.606   3.100
10788SOL     OW33262   1.306   4.505   0.561
10788SOL    HW133263   1.395   4.508   0.515
10788SOL    HW233264   1.236   4.546   0.503
10789SOL     OW33265   6.313   1.495   1.493
10789SOL    HW133266   6.361   1.582   1.505
10789SOL    HW233267   6.363   1.423   1.543
10790SOL     OW33268   0.586   1.761   4.857
10790SOL    HW133269   0.510   1.736   4.796
10790SOL    HW233270   0.556   1.834   4.918
10791SOL     OW33271   1.312   1.962   4.119
10791SOL    HW133272   1.395   2.010   4.146
10791SOL    HW233273   1.327   1.916   4.031
10792SOL     OW33274   3.996   1.788   1.467
10792SOL    HW133275   4.072   1.849   1.488
10792SOL    HW233276   3.967   1.801   1.372
10793SOL     OW33277   4.278   1.944   4.829
10793SOL    HW133278   4.213   1.889   4.776
10793SOL    HW233279   4.323   2.009   4.769
10794SOL     OW33280   4.655   2.343   0.892
10794SOL    HW133281   4.695   2.360   0.802
10794SOL    HW233282   4.700   2.401   0.959
10795SOL     OW33283   6.760   3.904   3.642
10795SOL    HW133284   6.839   3.935   3.590
10795SOL    HW233285   6.723   3.980   3.695
10796SOL     OW33286   0.389   6.727   6.150
10796SOL    HW133287   0.466   6.781   6.181
10796SOL    HW233288   0.380   6.645   6.207
10797SOL     OW33289   4.184   4.039   6.886
10797SOL    HW133290   4.228   4.094   6.957
10797SOL    HW233291   4.116   4.095   6.837
10798SOL     OW33292   2.050   0.268   0.197
10798SOL    HW133293   2.089   0.263   0.106
10798SOL    HW233294   2.016   0.177   0.224
10799SOL     OW33295   2.820   0.936   3.118
10799SOL    HW133296   2.725   0.910   3.134
10799SOL    HW233297   2.827   0.987   3.033
10800SOL     OW33298   1.965   0.228   5.883
10800SOL    HW133299   1.960   0.208   5.981
10800SOL    HW233300   1.873   0.234   5.845
10801SOL     OW33301   2.617   6.844   6.001
10801SOL    HW133302   2.541   6.818   5.941
10801SOL    HW233303   2.643   6.939   5.981
10802SOL     OW33304   0.851   4.809   4.777
10802SOL    HW133305   0.880   4.737   4.714
10802SOL    HW233306   0.859   4.898   4.731
10803SOL     OW33307   0.383   4.064   4.826
10803SOL    HW133308   0.348   4.112   4.745
10803SOL    HW233309   0.463   4.010   4.801
10804SOL     OW33310   5.124   4.873   1.072
10804SOL    HW133311   5.051   4.931   1.109
10804SOL    HW233312   5.104   4.778   1.094
10805SOL     OW33313   4.042   6.530   0.155
10805SOL    HW133314   4.113   6.553   0.089
10805SOL    HW233315   3.969   6.599   0.150
10806SOL     OW33316   5.439   3.766   0.088
10806SOL    HW133317   5.532   3.800   0.098
10806SOL    HW233318   5.405   3.735   0.176
10807SOL     OW33319   4.866   0.272   3.539
10807SOL    HW133320   4.906   0.294   3.628
10807SOL    HW233321   4.900   0.337   3.471
10808SOL     OW33322   0.011   2.748   6.504
10808SOL    HW133323   6.986   2.815   6.448
10808SOL    HW233324   7.015   2.656   6.468
10809SOL     OW33325   2.984   1.354   3.311
10809SOL    HW133326   2.993   1.453   3.319
10809SOL    HW233327   2.984   1.313   3.403
10810SOL     OW33328   0.629   1.565   6.099
10810SOL    HW133329   0.659   1.541   6.007
10810SOL    HW233330   0.700   1.619   6.144
10811SOL     OW33331   4.817   4.847   5.433
10811SOL    HW133332   4.912   4.858   5.404
10811SOL    HW233333   4.810   4.768   5.494
10812SOL     OW33334   6.750   2.031   3.216
10812SOL    HW133335   6.726   1.944   3.259
10812SOL    HW233336   6.669   2.070   3.174
10813SOL     OW33337   2.523   6.056   2.351
10813SOL    HW133338   2.568   5.987   2.295
10813SOL    HW233339   2.437   6.019   2.387
10814SOL     OW33340   1.714   6.651   5.100
10814SOL    HW133341   1.783   6.640   5.029
10814SOL    HW233342   1.645   6.716   5.069
10815SOL     OW33343   5.072   2.468   2.616
10815SOL    HW133344   5.005   2.490   2.545
10815SOL    HW233345   5.136   2.543   2.626
10816SOL     OW33346   2.018   1.796   2.375
10816SOL    HW133347   2.078   1.875   2.379
10816SOL    HW233348   1.965   1.789   2.460
10817SOL     OW33349   5.029   6.877   2.148
10817SOL    HW133350   5.008   6.781   2.132
10817SOL    HW233351   4.944   6.930   2.153
10818SOL     OW33352   5.060   3.094   6.874
10818SOL    HW133353   5.047   3.023   6.805
10818SOL    HW233354   5.070   3.183   6.830
10819SOL     OW33355   0.575   3.545   5.930
10819SOL    HW133356   0.558   3.634   5.886
10819SOL    HW233357   0.674   3.533   5.941
10820SOL     OW33358   0.140   6.826   4.469
10820SOL    HW133359   0.123   6.727   4.469
10820SOL    HW233360   0.054   6.874   4.489
10821SOL     OW33361   6.723   0.078   0.300
10821SOL    HW133362   6.791   0.120   0.359
10821SOL    HW233363   6.730   7.001   0.306
10822SOL     OW33364   1.398   4.661   1.158
10822SOL    HW133365   1.495   4.664   1.134
10822SOL    HW233366   1.352   4.743   1.122
10823SOL     OW33367   1.367   1.300   1.705
10823SOL    HW133368   1.376   1.337   1.613
10823SOL    HW233369   1.416   1.212   1.711
10824SOL     OW33370   5.530   0.167   2.817
10824SOL    HW133371   5.606   0.197   2.759
10824SOL    HW233372   5.454   0.136   2.760
10825SOL     OW33373   3.477   1.576   0.983
10825SOL    HW133374   3.447   1.530   1.067
10825SOL    HW233375   3.550   1.523   0.941
10826SOL     OW33376   6.516   2.949   1.558
10826SOL    HW133377   6.437   2.896   1.588
10826SOL    HW233378   6.600   2.906   1.592
10827SOL     OW33379   0.317   2.667   4.444
10827SOL    HW133380   0.319   2.713   4.355
10827SOL    HW233381   0.392   2.700   4.501
10828SOL     OW33382   1.132   5.888   0.340
10828SOL    HW133383   1.100   5.963   0.282
10828SOL    HW233384   1.217   5.914   0.385
10829SOL     OW33385   2.610   3.259   1.458
10829SOL    HW133386   2.709   3.264   1.452
10829SOL    HW233387   2.582   3.257   1.554
10830SOL     OW33388   4.750   1.718   3.798
10830SOL    HW133389   4.820   1.648   3.786
10830SOL    HW233390   4.722   1.753   3.709
10831SOL     OW33391   5.430   2.457   3.561
10831SOL    HW133392   5.373   2.484   3.638
10831SOL    HW233393   5.511   2.408   3.595
10832SOL     OW33394   0.138   2.390   1.670
10832SOL    HW133395   0.160   2.302   1.711
10832SOL    HW233396   0.085   2.444   1.735
10833SOL     OW33397   3.301   6.461   4.251
10833SOL    HW133398   3.203   6.441   4.249
10833SOL    HW233399   3.335   6.453   4.345
10834SOL     OW33400   0.902   1.206   5.625
10834SOL    HW133401   0.910   1.174   5.531
10834SOL    HW233402   0.890   1.127   5.686
10835SOL     OW33403   6.760   1.904   2.183
10835SOL    HW133404   6.737   1.811   2.153
10835SOL    HW233405   6.768   1.905   2.283
10836SOL     OW33406   1.943   2.232   6.505
10836SOL    HW133407   1.895   2.159   6.455
10836SOL    HW233408   1.897   2.319   6.488
10837SOL     OW33409   0.924   5.751   1.534
10837SOL    HW133410   0.916   5.850   1.545
10837SOL    HW233411   0.998   5.729   1.471
10838SOL     OW33412   6.402   6.622   0.829
10838SOL    HW133413   6.344   6.702   0.847
10838SOL    HW233414   6.498   6.652   0.821
10839SOL     OW33415   2.335   2.086   1.022
10839SOL    HW133416   2.383   2.117   1.104
10839SOL    HW233417   2.307   1.991   1.033
10840SOL     OW33418   3.649   4.983   2.684
10840SOL    HW133419   3.581   5.043   2.725
10840SOL    HW233420   3.716   4.956   2.753
10841SOL     OW33421   4.348   4.566   6.135
10841SOL    HW133422   4.255   4.591   6.108
10841SOL    HW233423   4.405   4.557   6.053
10842SOL     OW33424   6.284   3.145   1.601
10842SOL    HW133425   6.293   3.108   1.508
10842SOL    HW233426   6.358   3.109   1.658
10843SOL     OW33427   0.238   1.007   1.798
10843SOL    HW133428   0.219   1.065   1.877
10843SOL    HW233429   0.156   0.999   1.741
10844SOL     OW33430   3.433   6.389   3.531
10844SOL    HW133431   3.479   6.384   3.619
10844SOL    HW233432   3.499   6.409   3.459
10845SOL     OW33433   2.135   2.923   0.493
10845SOL    HW133434   2.106   2.905   0.587
10845SOL    HW233435   2.231   2.899   0.482
10846SOL     OW33436   3.292   2.141   1.939
10846SOL    HW133437   3.242   2.106   2.018
10846SOL    HW233438   3.382   2.099   1.935
10847SOL     OW33439   4.038   2.611   6.075
10847SOL    HW133440   4.036   2.531   6.015
10847SOL    HW233441   3.971   2.600   6.148
10848SOL     OW33442   1.565   1.516   0.152
10848SOL    HW133443   1.630   1.541   0.224
10848SOL    HW233444   1.533   1.422   0.169
10849SOL     OW33445   2.651   5.059   4.166
10849SOL    HW133446   2.678   5.005   4.245
10849SOL    HW233447   2.654   5.156   4.190
10850SOL     OW33448   5.820   0.516   1.154
10850SOL    HW133449   5.860   0.560   1.073
10850SOL    HW233450   5.811   0.418   1.137
10851SOL     OW33451   4.251   2.256   6.475
10851SOL    HW133452   4.237   2.228   6.380
10851SOL    HW233453   4.173   2.311   6.505
10852SOL     OW33454   0.728   6.690   6.431
10852SOL    HW133455   0.755   6.611   6.376
10852SOL    HW233456   0.657   6.664   6.495
10853SOL     OW33457   2.286   1.518   4.825
10853SOL    HW133458   2.314   1.463   4.904
10853SOL    HW233459   2.266   1.611   4.856
10854SOL     OW33460   0.390   6.684   0.052
10854SOL    HW133461   0.388   6.586   0.069
10854SOL    HW233462   0.378   6.702   6.977
10855SOL     OW33463   1.573   6.012   1.271
10855SOL    HW133464   1.496   6.052   1.221
10855SOL    HW233465   1.615   6.081   1.329
10856SOL     OW33466   6.189   0.119   6.659
10856SOL    HW133467   6.159   0.211   6.682
10856SOL    HW233468   6.285   0.119   6.634
10857SOL     OW33469   5.909   0.318   4.721
10857SOL    HW133470   5.867   0.304   4.631
10857SOL    HW233471   5.916   0.416   4.740
10858SOL     OW33472   2.202   1.655   0.456
10858SOL    HW133473   2.266   1.596   0.506
10858SOL    HW233474   2.119   1.666   0.511
10859SOL     OW33475   0.599   5.205   1.951
10859SOL    HW133476   0.549   5.250   1.877
10859SOL    HW233477   0.695   5.197   1.927
10860SOL     OW33478   5.958   2.738   0.536
10860SOL    HW133479   5.882   2.759   0.598
10860SOL    HW233480   6.009   2.822   0.517
10861SOL     OW33481   3.386   2.863   2.151
10861SOL    HW133482   3.390   2.847   2.250
10861SOL    HW233483   3.337   2.787   2.108
10862SOL     OW33484   3.878   3.086   5.621
10862SOL    HW133485   3.830   3.173   5.607
10862SOL    HW233486   3.859   3.025   5.545
10863SOL     OW33487   2.092   1.765   2.985
10863SOL    HW133488   2.166   1.819   2.945
10863SOL    HW233489   2.004   1.805   2.959
10864SOL     OW33490   3.038   4.810   2.123
10864SOL    HW133491   2.997   4.747   2.058
10864SOL    HW233492   3.013   4.783   2.216
10865SOL     OW33493   3.355   1.376   2.825
10865SOL    HW133494   3.334   1.467   2.789
10865SOL    HW233495   3.352   1.378   2.924
10866SOL     OW33496   6.694   3.971   3.255
10866SOL    HW133497   6.731   3.908   3.323
10866SOL    HW233498   6.718   3.938   3.163
10867SOL     OW33499   4.332   3.484   0.698
10867SOL    HW133500   4.289   3.565   0.738
10867SOL    HW233501   4.390   3.440   0.767
10868SOL     OW33502   1.342   0.897   5.083
10868SOL    HW133503   1.369   0.888   5.179
10868SOL    HW233504   1.409   0.954   5.035
10869NA      NA33505   6.787   1.870   5.753
10870NA      NA33506   4.508   4.553   5.176
10871NA      NA33507   1.646   4.756   3.011
10872NA      NA33508   5.856   4.035   3.552
10873NA      NA33509   3.691   2.168   5.478
10874NA      NA33510   2.306   4.912   0.374
10875NA      NA33511   1.329   5.600   6.982
10876NA      NA33512   3.529   4.251   0.968
10877NA      NA33513   4.257   5.181   0.559
10878NA      NA33514   3.495   1.100   6.440
10879NA      NA33515   5.576   6.888   1.740
10880NA      NA33516   2.065   6.571   5.392
10881NA      NA33517   4.012   5.223   1.613
10882NA      NA33518   3.674   3.590   6.703
   7.02246   7.02246   7.02246
