Generated by trjconv : CNT in water t= 499.00000
33518
    1C        C    1   2.843   2.769   4.749
    1C        C    2   2.900   2.719   4.868
    1C        C    3   2.837   2.768   4.983
    1C        C    4   2.846   2.772   4.260
    1C        C    5   2.898   2.725   4.383
    1C        C    6   2.847   2.771   4.506
    1C        C    7   3.010   2.636   4.625
    1C        C    8   2.895   2.718   4.627
    1C        C    9   3.076   2.603   4.746
    1C        C   10   3.013   2.634   4.868
    1C        C   11   3.185   2.494   4.978
    1C        C   12   3.060   2.558   4.975
    1C        C   13   2.845   2.767   3.774
    1C        C   14   2.898   2.718   3.896
    1C        C   15   2.850   2.771   4.017
    1C        C   16   3.012   2.636   4.139
    1C        C   17   2.899   2.722   4.139
    1C        C   18   3.075   2.606   4.262
    1C        C   19   3.015   2.646   4.383
    1C        C   20   3.208   2.554   4.505
    1C        C   21   3.077   2.606   4.504
    1C        C   22   3.279   2.534   4.625
    1C        C   23   3.208   2.550   4.746
    1C        C   24   3.413   2.480   4.866
    1C        C   25   3.271   2.502   4.864
    1C        C   26   3.490   2.479   4.982
    1C        C   27   2.846   2.763   3.283
    1C        C   28   2.899   2.718   3.406
    1C        C   29   2.851   2.769   3.528
    1C        C   30   3.008   2.631   3.650
    1C        C   31   2.895   2.717   3.652
    1C        C   32   3.073   2.601   3.771
    1C        C   33   3.012   2.633   3.895
    1C        C   34   3.206   2.552   4.015
    1C        C   35   3.074   2.601   4.017
    1C        C   36   3.274   2.535   4.138
    1C        C   37   3.209   2.561   4.261
    1C        C   38   3.415   2.509   4.381
    1C        C   39   3.276   2.534   4.382
    1C        C   40   3.486   2.507   4.503
    1C        C   41   3.418   2.512   4.627
    1C        C   42   3.631   2.491   4.743
    1C        C   43   3.489   2.486   4.746
    1C        C   44   3.705   2.492   4.864
    1C        C   45   3.629   2.486   4.982
    1C        C   46   2.831   2.749   2.794
    1C        C   47   2.889   2.705   2.916
    1C        C   48   2.839   2.754   3.038
    1C        C   49   3.012   2.635   3.163
    1C        C   50   2.891   2.708   3.161
    1C        C   51   3.077   2.601   3.284
    1C        C   52   3.013   2.635   3.405
    1C        C   53   3.205   2.551   3.529
    1C        C   54   3.071   2.597   3.528
    1C        C   55   3.274   2.529   3.650
    1C        C   56   3.203   2.547   3.771
    1C        C   57   3.413   2.511   3.894
    1C        C   58   3.273   2.529   3.893
    1C        C   59   3.484   2.506   4.016
    1C        C   60   3.412   2.508   4.138
    1C        C   61   3.626   2.507   4.259
    1C        C   62   3.485   2.500   4.259
    1C        C   63   3.699   2.513   4.381
    1C        C   64   3.627   2.504   4.502
    1C        C   65   3.838   2.545   4.622
    1C        C   66   3.702   2.507   4.622
    1C        C   67   3.908   2.560   4.743
    1C        C   68   3.842   2.526   4.863
    1C        C   69   4.053   2.587   4.982
    1C        C   70   3.924   2.531   4.976
    1C        C   71   2.822   2.732   2.310
    1C        C   72   2.880   2.687   2.431
    1C        C   73   2.830   2.739   2.552
    1C        C   74   3.008   2.625   2.674
    1C        C   75   2.889   2.701   2.675
    1C        C   76   3.069   2.591   2.797
    1C        C   77   3.007   2.629   2.918
    1C        C   78   3.203   2.546   3.040
    1C        C   79   3.073   2.600   3.040
    1C        C   80   3.274   2.528   3.161
    1C        C   81   3.207   2.545   3.285
    1C        C   82   3.413   2.506   3.402
    1C        C   83   3.273   2.525   3.408
    1C        C   84   3.482   2.505   3.525
    1C        C   85   3.414   2.509   3.649
    1C        C   86   3.625   2.511   3.769
    1C        C   87   3.484   2.505   3.771
    1C        C   88   3.694   2.517   3.892
    1C        C   89   3.625   2.509   4.015
    1C        C   90   3.831   2.560   4.137
    1C        C   91   3.695   2.521   4.137
    1C        C   92   3.902   2.578   4.258
    1C        C   93   3.835   2.550   4.379
    1C        C   94   4.031   2.634   4.499
    1C        C   95   3.905   2.570   4.500
    1C        C   96   4.092   2.669   4.621
    1C        C   97   4.032   2.630   4.743
    1C        C   98   4.194   2.764   4.862
    1C        C   99   4.099   2.657   4.866
    1C        C  100   4.215   2.839   4.978
    1C        C  101   2.823   2.735   2.071
    1C        C  102   2.988   2.592   2.191
    1C        C  103   2.875   2.680   2.189
    1C        C  104   3.063   2.577   2.311
    1C        C  105   3.002   2.616   2.432
    1C        C  106   3.200   2.536   2.550
    1C        C  107   3.069   2.586   2.553
    1C        C  108   3.269   2.524   2.673
    1C        C  109   3.202   2.542   2.796
    1C        C  110   3.409   2.501   2.916
    1C        C  111   3.270   2.521   2.918
    1C        C  112   3.484   2.499   3.035
    1C        C  113   3.413   2.506   3.157
    1C        C  114   3.625   2.507   3.281
    1C        C  115   3.484   2.501   3.280
    1C        C  116   3.694   2.517   3.404
    1C        C  117   3.623   2.508   3.526
    1C        C  118   3.833   2.551   3.648
    1C        C  119   3.695   2.520   3.647
    1C        C  120   3.897   2.577   3.771
    1C        C  121   3.829   2.557   3.893
    1C        C  122   4.027   2.640   4.013
    1C        C  123   3.897   2.584   4.014
    1C        C  124   4.090   2.676   4.134
    1C        C  125   4.029   2.640   4.257
    1C        C  126   4.202   2.763   4.379
    1C        C  127   4.091   2.676   4.378
    1C        C  128   4.249   2.817   4.501
    1C        C  129   4.194   2.766   4.621
    1C        C  130   4.325   2.938   4.741
    1C        C  131   4.245   2.820   4.742
    1C        C  132   4.354   3.004   4.862
    1C        C  133   4.282   2.960   4.974
    1C        C  134   3.173   2.468   2.084
    1C        C  135   3.040   2.511   2.085
    1C        C  136   3.262   2.488   2.191
    1C        C  137   3.196   2.526   2.310
    1C        C  138   3.406   2.476   2.429
    1C        C  139   3.268   2.507   2.430
    1C        C  140   3.480   2.487   2.549
    1C        C  141   3.409   2.505   2.670
    1C        C  142   3.620   2.505   2.791
    1C        C  143   3.479   2.499   2.792
    1C        C  144   3.693   2.513   2.912
    1C        C  145   3.625   2.506   3.036
    1C        C  146   3.832   2.546   3.157
    1C        C  147   3.695   2.513   3.159
    1C        C  148   3.899   2.571   3.279
    1C        C  149   3.831   2.551   3.402
    1C        C  150   4.026   2.635   3.525
    1C        C  151   3.897   2.577   3.524
    1C        C  152   4.085   2.674   3.647
    1C        C  153   4.023   2.642   3.770
    1C        C  154   4.195   2.768   3.890
    1C        C  155   4.087   2.678   3.891
    1C        C  156   4.248   2.815   4.012
    1C        C  157   4.203   2.760   4.134
    1C        C  158   4.347   2.917   4.256
    1C        C  159   4.254   2.810   4.256
    1C        C  160   4.386   2.977   4.377
    1C        C  161   4.339   2.926   4.500
    1C        C  162   4.443   3.115   4.619
    1C        C  163   4.370   2.994   4.620
    1C        C  164   4.469   3.182   4.740
    1C        C  165   4.439   3.117   4.861
    1C        C  166   4.519   3.318   4.973
    1C        C  167   4.475   3.186   4.978
    1C        C  168   3.475   2.442   2.071
    1C        C  169   3.401   2.466   2.187
    1C        C  170   3.619   2.465   2.307
    1C        C  171   3.476   2.464   2.307
    1C        C  172   3.693   2.484   2.426
    1C        C  173   3.621   2.496   2.547
    1C        C  174   3.828   2.542   2.667
    1C        C  175   3.689   2.515   2.669
    1C        C  176   3.897   2.563   2.788
    1C        C  177   3.830   2.545   2.912
    1C        C  178   4.027   2.625   3.033
    1C        C  179   3.898   2.566   3.034
    1C        C  180   4.086   2.666   3.155
    1C        C  181   4.026   2.633   3.278
    1C        C  182   4.200   2.750   3.398
    1C        C  183   4.086   2.667   3.401
    1C        C  184   4.251   2.802   3.520
    1C        C  185   4.198   2.758   3.643
    1C        C  186   4.338   2.918   3.765
    1C        C  187   4.248   2.809   3.765
    1C        C  188   4.375   2.978   3.887
    1C        C  189   4.339   2.923   4.013
    1C        C  190   4.450   3.104   4.130
    1C        C  191   4.384   2.979   4.134
    1C        C  192   4.474   3.170   4.253
    1C        C  193   4.445   3.105   4.375
    1C        C  194   4.514   3.311   4.495
    1C        C  195   4.472   3.176   4.495
    1C        C  196   4.525   3.387   4.613
    1C        C  197   4.513   3.318   4.736
    1C        C  198   4.550   3.534   4.853
    1C        C  199   4.534   3.392   4.855
    1C        C  200   4.577   3.622   4.962
    1C        C  201   3.614   2.425   2.075
    1C        C  202   3.827   2.516   2.184
    1C        C  203   3.694   2.463   2.187
    1C        C  204   3.897   2.545   2.305
    1C        C  205   3.829   2.521   2.426
    1C        C  206   4.025   2.616   2.545
    1C        C  207   3.898   2.554   2.545
    1C        C  208   4.087   2.654   2.666
    1C        C  209   4.024   2.623   2.789
    1C        C  210   4.198   2.747   2.908
    1C        C  211   4.085   2.662   2.910
    1C        C  212   4.255   2.793   3.029
    1C        C  213   4.200   2.749   3.152
    1C        C  214   4.336   2.910   3.273
    1C        C  215   4.250   2.798   3.275
    1C        C  216   4.372   2.971   3.396
    1C        C  217   4.338   2.913   3.521
    1C        C  218   4.445   3.098   3.640
    1C        C  219   4.381   2.972   3.641
    1C        C  220   4.473   3.164   3.762
    1C        C  221   4.443   3.102   3.886
    1C        C  222   4.499   3.307   4.006
    1C        C  223   4.474   3.168   4.007
    1C        C  224   4.510   3.376   4.128
    1C        C  225   4.509   3.307   4.251
    1C        C  226   4.519   3.521   4.368
    1C        C  227   4.521   3.380   4.372
    1C        C  228   4.514   3.597   4.487
    1C        C  229   4.526   3.528   4.610
    1C        C  230   4.501   3.742   4.727
    1C        C  231   4.532   3.603   4.730
    1C        C  232   4.488   3.819   4.844
    1C        C  233   4.531   3.755   4.961
    1C        C  234   4.019   2.609   2.062
    1C        C  235   3.894   2.547   2.065
    1C        C  236   4.088   2.645   2.178
    1C        C  237   4.023   2.610   2.299
    1C        C  238   4.197   2.734   2.420
    1C        C  239   4.083   2.649   2.421
    1C        C  240   4.255   2.780   2.540
    1C        C  241   4.200   2.740   2.663
    1C        C  242   4.340   2.899   2.784
    1C        C  243   4.252   2.789   2.785
    1C        C  244   4.379   2.961   2.905
    1C        C  245   4.346   2.901   3.029
    1C        C  246   4.450   3.086   3.149
    1C        C  247   4.384   2.962   3.151
    1C        C  248   4.465   3.154   3.272
    1C        C  249   4.439   3.095   3.398
    1C        C  250   4.502   3.301   3.515
    1C        C  251   4.467   3.165   3.517
    1C        C  252   4.514   3.370   3.638
    1C        C  253   4.504   3.302   3.761
    1C        C  254   4.520   3.515   3.880
    1C        C  255   4.512   3.374   3.882
    1C        C  256   4.513   3.588   4.001
    1C        C  257   4.514   3.518   4.124
    1C        C  258   4.481   3.729   4.242
    1C        C  259   4.509   3.590   4.245
    1C        C  260   4.471   3.803   4.362
    1C        C  261   4.487   3.735   4.485
    1C        C  262   4.420   3.939   4.604
    1C        C  263   4.473   3.808   4.605
    1C        C  264   4.400   4.012   4.723
    1C        C  265   4.429   3.947   4.845
    1C        C  266   4.324   4.131   4.960
    1C        C  267   4.398   4.014   4.964
    1C        C  268   4.268   2.770   2.064
    1C        C  269   4.200   2.731   2.180
    1C        C  270   4.351   2.885   2.301
    1C        C  271   4.258   2.777   2.300
    1C        C  272   4.387   2.951   2.420
    1C        C  273   4.345   2.890   2.540
    1C        C  274   4.449   3.078   2.661
    1C        C  275   4.382   2.954   2.661
    1C        C  276   4.471   3.148   2.781
    1C        C  277   4.447   3.085   2.905
    1C        C  278   4.506   3.288   3.027
    1C        C  279   4.478   3.150   3.027
    1C        C  280   4.509   3.360   3.148
    1C        C  281   4.498   3.292   3.271
    1C        C  282   4.507   3.509   3.391
    1C        C  283   4.510   3.367   3.390
    1C        C  284   4.509   3.581   3.513
    1C        C  285   4.511   3.511   3.636
    1C        C  286   4.487   3.723   3.754
    1C        C  287   4.511   3.584   3.757
    1C        C  288   4.466   3.794   3.875
    1C        C  289   4.486   3.726   3.997
    1C        C  290   4.423   3.930   4.115
    1C        C  291   4.468   3.796   4.119
    1C        C  292   4.395   3.996   4.237
    1C        C  293   4.425   3.936   4.361
    1C        C  294   4.326   4.128   4.479
    1C        C  295   4.391   4.003   4.481
    1C        C  296   4.288   4.192   4.599
    1C        C  297   4.324   4.132   4.721
    1C        C  298   4.196   4.309   4.841
    1C        C  299   4.285   4.197   4.842
    1C        C  300   4.169   4.398   4.949
    1C        C  301   4.352   2.881   2.064
    1C        C  302   4.471   3.067   2.177
    1C        C  303   4.398   2.944   2.180
    1C        C  304   4.484   3.142   2.297
    1C        C  305   4.447   3.079   2.418
    1C        C  306   4.510   3.282   2.538
    1C        C  307   4.476   3.145   2.539
    1C        C  308   4.519   3.354   2.660
    1C        C  309   4.499   3.286   2.782
    1C        C  310   4.515   3.499   2.903
    1C        C  311   4.512   3.357   2.903
    1C        C  312   4.509   3.571   3.024
    1C        C  313   4.510   3.501   3.146
    1C        C  314   4.478   3.714   3.266
    1C        C  315   4.501   3.575   3.267
    1C        C  316   4.468   3.786   3.387
    1C        C  317   4.489   3.721   3.511
    1C        C  318   4.430   3.926   3.628
    1C        C  319   4.475   3.792   3.632
    1C        C  320   4.397   3.992   3.748
    1C        C  321   4.417   3.927   3.871
    1C        C  322   4.319   4.115   3.992
    1C        C  323   4.389   3.992   3.993
    1C        C  324   4.278   4.173   4.114
    1C        C  325   4.321   4.117   4.236
    1C        C  326   4.187   4.285   4.354
    1C        C  327   4.285   4.183   4.356
    1C        C  328   4.136   4.339   4.474
    1C        C  329   4.191   4.295   4.597
    1C        C  330   4.028   4.436   4.712
    1C        C  331   4.141   4.351   4.717
    1C        C  332   3.970   4.487   4.830
    1C        C  333   4.050   4.472   4.944
    1C        C  334   4.552   3.266   2.064
    1C        C  335   4.536   3.127   2.064
    1C        C  336   4.530   3.350   2.174
    1C        C  337   4.508   3.282   2.296
    1C        C  338   4.513   3.495   2.413
    1C        C  339   4.518   3.354   2.417
    1C        C  340   4.511   3.565   2.536
    1C        C  341   4.518   3.495   2.658
    1C        C  342   4.481   3.705   2.774
    1C        C  343   4.512   3.568   2.779
    1C        C  344   4.469   3.776   2.896
    1C        C  345   4.484   3.710   3.020
    1C        C  346   4.420   3.914   3.137
    1C        C  347   4.463   3.779   3.141
    1C        C  348   4.393   3.981   3.258
    1C        C  349   4.422   3.919   3.382
    1C        C  350   4.315   4.102   3.501
    1C        C  351   4.394   3.985   3.504
    1C        C  352   4.273   4.161   3.623
    1C        C  353   4.318   4.110   3.746
    1C        C  354   4.176   4.267   3.866
    1C        C  355   4.275   4.166   3.868
    1C        C  356   4.127   4.322   3.987
    1C        C  357   4.182   4.276   4.109
    1C        C  358   4.014   4.404   4.230
    1C        C  359   4.130   4.324   4.231
    1C        C  360   3.952   4.445   4.350
    1C        C  361   4.018   4.416   4.472
    1C        C  362   3.828   4.517   4.594
    1C        C  363   3.956   4.457   4.592
    1C        C  364   3.761   4.552   4.713
    1C        C  365   3.841   4.545   4.830
    1C        C  366   3.632   4.594   4.951
    1C        C  367   3.771   4.583   4.945
    1C        C  368   4.501   3.563   2.052
    1C        C  369   4.519   3.490   2.170
    1C        C  370   4.499   3.705   2.289
    1C        C  371   4.511   3.565   2.290
    1C        C  372   4.482   3.777   2.409
    1C        C  373   4.494   3.705   2.531
    1C        C  374   4.425   3.908   2.651
    1C        C  375   4.469   3.774   2.651
    1C        C  376   4.393   3.974   2.771
    1C        C  377   4.422   3.910   2.894
    1C        C  378   4.320   4.099   3.011
    1C        C  379   4.392   3.978   3.014
    1C        C  380   4.278   4.158   3.132
    1C        C  381   4.319   4.101   3.255
    1C        C  382   4.179   4.260   3.378
    1C        C  383   4.274   4.156   3.377
    1C        C  384   4.125   4.311   3.498
    1C        C  385   4.177   4.264   3.621
    1C        C  386   4.009   4.393   3.743
    1C        C  387   4.125   4.312   3.743
    1C        C  388   3.945   4.428   3.864
    1C        C  389   4.010   4.402   3.986
    1C        C  390   3.819   4.492   4.108
    1C        C  391   3.950   4.438   4.109
    1C        C  392   3.753   4.518   4.230
    1C        C  393   3.824   4.505   4.352
    1C        C  394   3.617   4.551   4.476
    1C        C  395   3.757   4.531   4.473
    1C        C  396   3.547   4.566   4.597
    1C        C  397   3.621   4.567   4.717
    1C        C  398   3.410   4.561   4.840
    1C        C  399   3.550   4.580   4.839
    1C        C  400   3.344   4.519   4.956
    1C        C  401   4.495   3.702   2.053
    1C        C  402   4.456   3.917   2.168
    1C        C  403   4.489   3.780   2.169
    1C        C  404   4.415   3.980   2.288
    1C        C  405   4.440   3.912   2.409
    1C        C  406   4.327   4.095   2.524
    1C        C  407   4.405   3.977   2.529
    1C        C  408   4.279   4.150   2.645
    1C        C  409   4.322   4.096   2.768
    1C        C  410   4.176   4.253   2.886
    1C        C  411   4.276   4.154   2.888
    1C        C  412   4.123   4.296   3.010
    1C        C  413   4.178   4.258   3.134
    1C        C  414   4.006   4.382   3.252
    1C        C  415   4.128   4.310   3.256
    1C        C  416   3.946   4.418   3.375
    1C        C  417   4.006   4.387   3.499
    1C        C  418   3.812   4.473   3.620
    1C        C  419   3.942   4.418   3.621
    1C        C  420   3.745   4.500   3.741
    1C        C  421   3.815   4.483   3.863
    1C        C  422   3.613   4.539   3.987
    1C        C  423   3.751   4.513   3.985
    1C        C  424   3.542   4.544   4.109
    1C        C  425   3.614   4.538   4.231
    1C        C  426   3.404   4.545   4.355
    1C        C  427   3.545   4.550   4.354
    1C        C  428   3.336   4.543   4.479
    1C        C  429   3.406   4.558   4.600
    1C        C  430   3.195   4.519   4.722
    1C        C  431   3.333   4.553   4.721
    1C        C  432   3.126   4.497   4.845
    1C        C  433   3.207   4.493   4.959
    1C        C  434   4.387   4.124   2.050
    1C        C  435   4.446   3.996   2.053
    1C        C  436   4.309   4.168   2.162
    1C        C  437   4.337   4.098   2.283
    1C        C  438   4.184   4.252   2.401
    1C        C  439   4.286   4.154   2.403
    1C        C  440   4.125   4.296   2.522
    1C        C  441   4.175   4.246   2.644
    1C        C  442   4.006   4.380   2.764
    1C        C  443   4.121   4.297   2.764
    1C        C  444   3.945   4.414   2.887
    1C        C  445   4.007   4.376   3.009
    1C        C  446   3.814   4.470   3.129
    1C        C  447   3.943   4.413   3.130
    1C        C  448   3.747   4.490   3.252
    1C        C  449   3.815   4.470   3.374
    1C        C  450   3.610   4.528   3.498
    1C        C  451   3.748   4.496   3.496
    1C        C  452   3.538   4.545   3.619
    1C        C  453   3.608   4.535   3.741
    1C        C  454   3.400   4.543   3.864
    1C        C  455   3.541   4.546   3.865
    1C        C  456   3.332   4.527   3.987
    1C        C  457   3.401   4.537   4.110
    1C        C  458   3.196   4.501   4.237
    1C        C  459   3.332   4.537   4.234
    1C        C  460   3.130   4.479   4.360
    1C        C  461   3.198   4.511   4.480
    1C        C  462   3.000   4.432   4.601
    1C        C  463   3.129   4.491   4.601
    1C        C  464   2.934   4.402   4.722
    1C        C  465   2.993   4.445   4.844
    1C        C  466   2.804   4.337   4.958
    1C        C  467   2.909   4.431   4.959
    1C        C  468   4.123   4.283   2.043
    1C        C  469   4.191   4.249   2.160
    1C        C  470   4.010   4.373   2.277
    1C        C  471   4.130   4.297   2.279
    1C        C  472   3.941   4.402   2.397
    1C        C  473   4.005   4.370   2.519
    1C        C  474   3.815   4.465   2.644
    1C        C  475   3.946   4.412   2.641
    1C        C  476   3.748   4.492   2.765
    1C        C  477   3.817   4.475   2.887
    1C        C  478   3.606   4.516   3.010
    1C        C  479   3.746   4.492   3.007
    1C        C  480   3.538   4.529   3.133
    1C        C  481   3.609   4.521   3.255
    1C        C  482   3.397   4.535   3.376
    1C        C  483   3.538   4.532   3.377
    1C        C  484   3.325   4.532   3.498
    1C        C  485   3.397   4.543   3.619
    1C        C  486   3.191   4.502   3.748
    1C        C  487   3.329   4.535   3.743
    1C        C  488   3.127   4.476   3.871
    1C        C  489   3.194   4.499   3.993
    1C        C  490   3.000   4.416   4.115
    1C        C  491   3.126   4.481   4.116
    1C        C  492   2.941   4.383   4.239
    1C        C  493   3.000   4.425   4.360
    1C        C  494   2.824   4.305   4.483
    1C        C  495   2.937   4.391   4.481
    1C        C  496   2.772   4.258   4.605
    1C        C  497   2.819   4.318   4.724
    1C        C  498   2.669   4.165   4.846
    1C        C  499   2.753   4.277   4.842
    1C        C  500   2.601   4.118   4.959
    1C        C  501   4.001   4.350   2.041
    1C        C  502   3.815   4.462   2.155
    1C        C  503   3.944   4.406   2.157
    1C        C  504   3.744   4.473   2.276
    1C        C  505   3.809   4.452   2.400
    1C        C  506   3.607   4.511   2.521
    1C        C  507   3.745   4.482   2.522
    1C        C  508   3.536   4.517   2.643
    1C        C  509   3.608   4.515   2.764
    1C        C  510   3.397   4.525   2.886
    1C        C  511   3.538   4.521   2.886
    1C        C  512   3.326   4.520   3.008
    1C        C  513   3.397   4.525   3.130
    1C        C  514   3.189   4.498   3.254
    1C        C  515   3.328   4.526   3.253
    1C        C  516   3.123   4.474   3.377
    1C        C  517   3.188   4.497   3.500
    1C        C  518   3.001   4.410   3.625
    1C        C  519   3.126   4.476   3.625
    1C        C  520   2.941   4.375   3.748
    1C        C  521   3.000   4.414   3.870
    1C        C  522   2.829   4.290   3.998
    1C        C  523   2.939   4.379   3.993
    1C        C  524   2.779   4.243   4.121
    1C        C  525   2.832   4.293   4.242
    1C        C  526   2.693   4.132   4.366
    1C        C  527   2.782   4.242   4.364
    1C        C  528   2.648   4.079   4.489
    1C        C  529   2.685   4.146   4.607
    1C        C  530   2.582   3.961   4.733
    1C        C  531   2.641   4.090   4.729
    1C        C  532   2.539   3.901   4.855
    1C        C  533   2.532   3.996   4.961
    1C        C  534   3.618   4.556   2.039
    1C        C  535   3.752   4.515   2.042
    1C        C  536   3.539   4.533   2.156
    1C        C  537   3.606   4.506   2.278
    1C        C  538   3.393   4.518   2.399
    1C        C  539   3.534   4.516   2.400
    1C        C  540   3.324   4.513   2.522
    1C        C  541   3.395   4.516   2.644
    1C        C  542   3.184   4.486   2.766
    1C        C  543   3.323   4.512   2.766
    1C        C  544   3.120   4.465   2.890
    1C        C  545   3.189   4.486   3.012
    1C        C  546   2.994   4.407   3.136
    1C        C  547   3.121   4.470   3.134
    1C        C  548   2.938   4.367   3.259
    1C        C  549   2.998   4.408   3.381
    1C        C  550   2.830   4.282   3.506
    1C        C  551   2.938   4.373   3.504
    1C        C  552   2.779   4.235   3.629
    1C        C  553   2.830   4.288   3.750
    1C        C  554   2.700   4.125   3.877
    1C        C  555   2.785   4.238   3.874
    1C        C  556   2.660   4.067   4.000
    1C        C  557   2.697   4.128   4.121
    1C        C  558   2.598   3.943   4.248
    1C        C  559   2.656   4.072   4.244
    1C        C  560   2.566   3.880   4.370
    1C        C  561   2.589   3.950   4.490
    1C        C  562   2.530   3.750   4.618
    1C        C  563   2.564   3.887   4.614
    1C        C  564   2.516   3.679   4.740
    1C        C  565   2.524   3.758   4.857
    1C        C  566   2.527   3.545   4.979
    1C        C  567   2.520   3.684   4.976
    1C        C  568   3.325   4.485   2.041
    1C        C  569   3.398   4.515   2.157
    1C        C  570   3.183   4.480   2.282
    1C        C  571   3.322   4.512   2.277
    1C        C  572   3.115   4.460   2.404
    1C        C  573   3.186   4.483   2.524
    1C        C  574   2.987   4.407   2.647
    1C        C  575   3.114   4.468   2.645
    1C        C  576   2.929   4.368   2.770
    1C        C  577   2.996   4.398   2.891
    1C        C  578   2.827   4.275   3.016
    1C        C  579   2.937   4.364   3.014
    1C        C  580   2.778   4.225   3.138
    1C        C  581   2.831   4.275   3.259
    1C        C  582   2.696   4.117   3.387
    1C        C  583   2.784   4.228   3.384
    1C        C  584   2.663   4.057   3.510
    1C        C  585   2.694   4.122   3.632
    1C        C  586   2.603   3.935   3.757
    1C        C  587   2.658   4.065   3.756
    1C        C  588   2.579   3.872   3.881
    1C        C  589   2.602   3.939   4.004
    1C        C  590   2.532   3.740   4.128
    1C        C  591   2.572   3.876   4.126
    1C        C  592   2.519   3.673   4.252
    1C        C  593   2.534   3.743   4.375
    1C        C  594   2.514   3.534   4.496
    1C        C  595   2.524   3.675   4.499
    1C        C  596   2.519   3.465   4.619
    1C        C  597   2.516   3.537   4.740
    1C        C  598   2.539   3.326   4.864
    1C        C  599   2.527   3.467   4.863
    1C        C  600   2.538   3.248   4.980
    1C        C  601   3.195   4.439   2.044
    1C        C  602   2.985   4.392   2.159
    1C        C  603   3.117   4.447   2.160
    1C        C  604   2.923   4.364   2.283
    1C        C  605   2.986   4.403   2.403
    1C        C  606   2.817   4.277   2.529
    1C        C  607   2.927   4.366   2.526
    1C        C  608   2.769   4.225   2.652
    1C        C  609   2.821   4.277   2.772
    1C        C  610   2.689   4.112   2.896
    1C        C  611   2.774   4.225   2.895
    1C        C  612   2.654   4.053   3.019
    1C        C  613   2.694   4.111   3.141
    1C        C  614   2.596   3.929   3.268
    1C        C  615   2.654   4.057   3.266
    1C        C  616   2.573   3.864   3.391
    1C        C  617   2.601   3.930   3.513
    1C        C  618   2.530   3.733   3.638
    1C        C  619   2.573   3.868   3.636
    1C        C  620   2.522   3.664   3.762
    1C        C  621   2.533   3.738   3.882
    1C        C  622   2.519   3.530   4.010
    1C        C  623   2.525   3.671   4.005
    1C        C  624   2.522   3.460   4.132
    1C        C  625   2.516   3.532   4.253
    1C        C  626   2.545   3.322   4.379
    1C        C  627   2.521   3.461   4.375
    1C        C  628   2.558   3.254   4.502
    1C        C  629   2.543   3.326   4.622
    1C        C  630   2.592   3.117   4.745
    1C        C  631   2.556   3.255   4.744
    1C        C  632   2.615   3.047   4.867
    1C        C  633   2.560   3.109   4.984
    1C        C  634   2.783   4.305   2.053
    1C        C  635   2.895   4.388   2.047
    1C        C  636   2.752   4.228   2.166
    1C        C  637   2.809   4.278   2.285
    1C        C  638   2.685   4.110   2.408
    1C        C  639   2.765   4.226   2.408
    1C        C  640   2.649   4.049   2.531
    1C        C  641   2.687   4.110   2.652
    1C        C  642   2.583   3.926   2.778
    1C        C  643   2.649   4.051   2.775
    1C        C  644   2.563   3.859   2.901
    1C        C  645   2.595   3.925   3.022
    1C        C  646   2.533   3.725   3.151
    1C        C  647   2.569   3.862   3.146
    1C        C  648   2.516   3.658   3.274
    1C        C  649   2.531   3.729   3.395
    1C        C  650   2.516   3.519   3.520
    1C        C  651   2.516   3.661   3.518
    1C        C  652   2.517   3.453   3.645
    1C        C  653   2.520   3.523   3.767
    1C        C  654   2.542   3.314   3.890
    1C        C  655   2.521   3.454   3.891
    1C        C  656   2.559   3.248   4.014
    1C        C  657   2.544   3.320   4.134
    1C        C  658   2.606   3.119   4.258
    1C        C  659   2.559   3.252   4.257
    1C        C  660   2.637   3.056   4.381
    1C        C  661   2.601   3.119   4.503
    1C        C  662   2.714   2.940   4.625
    1C        C  663   2.632   3.055   4.625
    1C        C  664   2.748   2.874   4.746
    1C        C  665   2.691   2.927   4.865
    1C        C  666   2.744   2.871   4.983
    1C        C  667   2.686   4.019   2.052
    1C        C  668   2.695   4.098   2.167
    1C        C  669   2.596   3.911   2.292
    1C        C  670   2.654   4.041   2.289
    1C        C  671   2.565   3.848   2.415
    1C        C  672   2.590   3.920   2.533
    1C        C  673   2.529   3.720   2.660
    1C        C  674   2.561   3.857   2.656
    1C        C  675   2.516   3.650   2.783
    1C        C  676   2.529   3.722   2.904
    1C        C  677   2.508   3.516   3.030
    1C        C  678   2.522   3.656   3.028
    1C        C  679   2.509   3.445   3.152
    1C        C  680   2.511   3.517   3.274
    1C        C  681   2.534   3.308   3.400
    1C        C  682   2.516   3.448   3.398
    1C        C  683   2.552   3.242   3.524
    1C        C  684   2.535   3.313   3.645
    1C        C  685   2.603   3.113   3.770
    1C        C  686   2.555   3.246   3.767
    1C        C  687   2.636   3.050   3.892
    1C        C  688   2.606   3.114   4.014
    1C        C  689   2.709   2.931   4.138
    1C        C  690   2.633   3.051   4.138
    1C        C  691   2.753   2.879   4.261
    1C        C  692   2.715   2.939   4.383
    1C        C  693   2.755   2.879   4.505
    1C        C  694   2.639   3.887   2.055
    1C        C  695   2.531   3.705   2.177
    1C        C  696   2.583   3.837   2.173
    1C        C  697   2.512   3.637   2.300
    1C        C  698   2.527   3.712   2.419
    1C        C  699   2.495   3.504   2.543
    1C        C  700   2.510   3.645   2.542
    1C        C  701   2.512   3.435   2.665
    1C        C  702   2.511   3.509   2.786
    1C        C  703   2.528   3.301   2.911
    1C        C  704   2.507   3.441   2.910
    1C        C  705   2.546   3.234   3.034
    1C        C  706   2.534   3.306   3.155
    1C        C  707   2.604   3.107   3.278
    1C        C  708   2.556   3.240   3.278
    1C        C  709   2.636   3.046   3.402
    1C        C  710   2.606   3.112   3.523
    1C        C  711   2.715   2.934   3.648
    1C        C  712   2.637   3.051   3.647
    1C        C  713   2.760   2.879   3.771
    1C        C  714   2.716   2.934   3.893
    1C        C  715   2.755   2.876   4.016
    1C        C  716   2.449   3.500   2.063
    1C        C  717   2.490   3.633   2.065
    1C        C  718   2.458   3.423   2.184
    1C        C  719   2.477   3.500   2.302
    1C        C  720   2.510   3.290   2.425
    1C        C  721   2.487   3.429   2.424
    1C        C  722   2.539   3.224   2.547
    1C        C  723   2.534   3.296   2.668
    1C        C  724   2.595   3.096   2.790
    1C        C  725   2.545   3.228   2.791
    1C        C  726   2.627   3.035   2.914
    1C        C  727   2.594   3.101   3.034
    1C        C  728   2.708   2.923   3.158
    1C        C  729   2.630   3.040   3.156
    1C        C  730   2.755   2.871   3.281
    1C        C  731   2.712   2.927   3.404
    1C        C  732   2.758   2.876   3.527
    1C        C  733   2.486   3.197   2.072
    1C        C  734   2.489   3.283   2.183
    1C        C  735   2.580   3.087   2.306
    1C        C  736   2.524   3.218   2.304
    1C        C  737   2.614   3.021   2.426
    1C        C  738   2.589   3.092   2.546
    1C        C  739   2.694   2.908   2.669
    1C        C  740   2.624   3.031   2.668
    1C        C  741   2.738   2.855   2.793
    1C        C  742   2.702   2.915   2.916
    1C        C  743   2.743   2.858   3.038
    1C        C  744   2.540   3.069   2.072
    1C        C  745   2.686   2.903   2.190
    1C        C  746   2.603   3.017   2.186
    1C        C  747   2.729   2.839   2.309
    1C        C  748   2.690   2.902   2.429
    1C        C  749   2.742   2.850   2.550
    1C        C  750   2.738   2.845   2.074
    1C        C  751   3.650   2.312   1.985
    1C        O  752   3.615   2.192   1.998
    1C        O  753   3.714   2.337   1.863
    1C        C  754   4.625   3.055   1.970
    1C        O  755   4.611   3.073   1.846
    1C        O  756   4.748   3.007   2.017
    1C        C  757   4.431   4.217   1.945
    1C        O  758   4.541   4.275   1.969
    1C        O  759   4.416   4.203   1.806
    1C        C  760   3.585   4.675   1.957
    1C        O  761   3.602   4.788   2.009
    1C        O  762   3.587   4.668   1.817
    1C        C  763   2.880   4.494   1.945
    1C        O  764   2.919   4.467   1.829
    1C        O  765   2.875   4.632   1.970
    1C        C  766   2.337   3.475   1.969
    1C        O  767   2.353   3.465   1.844
    1C        O  768   2.202   3.469   2.005
    1C        C  769   4.669   3.589   5.074
    1C        O  770   4.640   3.617   5.193
    1C        O  771   4.802   3.630   5.063
    1C        C  772   4.269   4.425   5.054
    1C        O  773   4.250   4.362   5.161
    1C        O  774   4.323   4.551   5.082
    1C        C  775   4.138   2.546   5.096
    1C        O  776   4.212   2.445   5.084
    1C        O  777   4.124   2.584   5.230
    1C        C  778   2.884   4.541   5.054
    1C        O  779   2.798   4.632   5.037
    1C        O  780   2.914   4.524   5.190
    1C        C  781   2.459   3.037   5.064
    1C        O  782   2.347   3.014   5.012
    1C        O  783   2.453   3.046   5.203
    1C        C  784   2.424   3.992   5.062
    1C        O  785   2.331   4.076   5.069
    1C        O  786   2.455   3.955   5.194
    1C        C  787   2.945   2.428   2.007
    1C        O  788   2.904   2.464   1.893
    1C        O  789   2.941   2.291   2.026
    1C        C  790   3.193   2.366   5.052
    1C        O  791   3.227   2.250   5.018
    1C        O  792   3.203   2.371   5.192
    1C        H  793   4.259   3.035   5.047
    1C        H  794   4.138   2.833   5.053
    1C        H  795   4.471   3.139   5.073
    1C        H  796   4.508   3.373   5.064
    1C        H  797   4.478   3.776   5.051
    1C        H  798   4.468   4.002   5.044
    1C        H  799   4.266   4.151   5.048
    1C        H  800   4.018   4.524   5.032
    1C        H  801   3.826   4.655   5.001
    1C        H  802   3.593   4.628   5.045
    1C        H  803   3.384   4.557   5.047
    1C        H  804   3.168   4.451   5.050
    1C        H  805   3.925   2.438   5.028
    1C        H  806   3.675   2.447   5.071
    1C        H  807   3.022   2.586   5.072
    1C        H  808   3.447   2.437   5.071
    1C        H  809   2.868   2.734   5.080
    1C        H  810   2.738   2.929   5.073
    1C        H  811   2.520   3.297   5.073
    1C        H  812   2.565   3.510   5.073
    1C        H  813   2.534   3.737   5.068
    1C        H  814   2.612   4.166   5.054
    1C        H  815   2.743   4.335   5.046
    1C        H  816   2.749   2.904   1.985
    1C        H  817   2.847   2.689   1.977
    1C        H  818   3.210   2.430   1.991
    1C        H  819   3.421   2.404   1.987
    1C        H  820   3.860   2.495   1.978
    1C        H  821   4.067   2.614   1.967
    1C        H  822   4.298   2.697   1.992
    1C        H  823   4.335   2.946   1.980
    1C        H  824   4.624   3.305   1.995
    1C        H  825   4.451   3.517   1.969
    1C        H  826   4.526   3.749   1.962
    1C        H  827   3.811   4.535   1.955
    1C        H  828   3.937   4.332   1.957
    1C        H  829   4.183   4.309   1.958
    1C        H  830   4.515   3.977   1.974
    1C        H  831   2.689   3.817   1.992
    1C        H  832   2.713   4.055   1.955
    1C        H  833   2.742   4.273   1.960
    1C        H  834   3.352   4.542   1.954
    1C        H  835   3.171   4.365   1.971
    1C        H  836   2.513   3.004   1.992
    1C        H  837   2.399   3.211   2.012
    1C        H  838   2.495   3.684   1.970
    2V3OU   H29  839   2.798   3.550   5.426
    2V3OU   C27  840   2.775   3.503   5.525
    2V3OU   H27  841   2.728   3.570   5.601
    2V3OU   H28  842   2.718   3.407   5.510
    2V3OU   O11  843   2.905   3.482   5.580
    2V3OU   C15  844   2.922   3.400   5.690
    2V3OU   C13  845   3.051   3.375   5.742
    2V3OU   C14  846   3.074   3.268   5.828
    2V3OU   C16  847   2.973   3.182   5.870
    2V3OU    H6  848   2.991   3.107   5.948
    2V3OU   C12  849   3.213   3.238   5.870
    2V3OU    O2  850   3.235   3.131   5.931
    2V3OU   C10  851   3.326   3.303   5.802
    2V3OU    C8  852   3.457   3.270   5.833
    2V3OU   O10  853   3.490   3.147   5.881
    2V3OU   H26  854   3.400   3.116   5.905
    2V3OU    C6  855   3.566   3.350   5.785
    2V3OU    C5  856   3.540   3.467   5.714
    2V3OU    C4  857   3.705   3.297   5.782
    2V3OU    H4  858   3.726   3.231   5.871
    2V3OU    H5  859   3.716   3.229   5.692
    2V3OU    C2  860   3.818   3.400   5.773
    2V3OU    O6  861   3.810   3.479   5.892
    2V3OU   H21  862   3.763   3.557   5.860
    2V3OU    C3  863   3.786   3.499   5.660
    2V3OU    H2  864   3.869   3.573   5.648
    2V3OU    H3  865   3.782   3.438   5.567
    2V3OU   C25  866   3.955   3.334   5.765
    2V3OU    O7  867   4.008   3.300   5.659
    2V3OU   C26  868   4.029   3.295   5.892
    2V3OU   H22  869   4.058   3.391   5.942
    2V3OU   H23  870   4.118   3.232   5.866
    2V3OU    O8  871   3.961   3.211   5.983
    2V3OU   H24  872   3.920   3.267   6.050
    2V3OU    C1  873   3.650   3.563   5.680
    2V3OU    H1  874   3.625   3.617   5.584
    2V3OU    O3  875   3.662   3.656   5.788
    2V3OU   C19  876   3.621   3.792   5.772
    2V3OU    H9  877   3.520   3.796   5.720
    2V3OU    O4  878   3.717   3.846   5.684
    2V3OU   C20  879   3.847   3.872   5.738
    2V3OU   H10  880   3.897   3.771   5.751
    2V3OU   C24  881   3.609   3.854   5.911
    2V3OU   H16  882   3.543   3.793   5.978
    2V3OU   H17  883   3.572   3.959   5.894
    2V3OU   C23  884   3.749   3.871   5.970
    2V3OU   H15  885   3.792   3.766   5.977
    2V3OU    N1  886   3.742   3.954   6.089
    2V3OU   H19  887   3.812   3.927   6.154
    2V3OU   H20  888   3.652   3.936   6.130
    2V3OU   C21  889   3.846   3.945   5.872
    2V3OU   H11  890   3.947   3.924   5.917
    2V3OU    O5  891   3.832   4.086   5.869
    2V3OU   H18  892   3.784   4.110   5.950
    2V3OU   C22  893   3.916   3.950   5.627
    2V3OU   H12  894   3.863   4.047   5.610
    2V3OU   H13  895   3.911   3.892   5.531
    2V3OU   H14  896   4.025   3.960   5.650
    2V3OU   C11  897   3.161   3.465   5.706
    2V3OU    O1  898   3.133   3.584   5.678
    2V3OU    C9  899   3.301   3.422   5.728
    2V3OU    C7  900   3.405   3.505   5.687
    2V3OU    O9  901   3.383   3.617   5.609
    2V3OU   H25  902   3.287   3.624   5.597
    2V3OU   C17  903   2.820   3.318   5.745
    2V3OU    H7  904   2.717   3.339   5.717
    2V3OU   C18  905   2.844   3.210   5.829
    2V3OU    H8  906   2.757   3.148   5.856
    3SOL     OW  907   3.787   2.968   3.884
    3SOL    HW1  908   3.752   2.889   3.835
    3SOL    HW2  909   3.735   3.050   3.858
    4SOL     OW  910   6.537   6.288   0.841
    4SOL    HW1  911   6.518   6.316   0.935
    4SOL    HW2  912   6.458   6.311   0.783
    5SOL     OW  913   5.121   1.898   1.080
    5SOL    HW1  914   5.025   1.880   1.105
    5SOL    HW2  915   5.129   1.903   0.981
    6SOL     OW  916   4.937   1.300   2.963
    6SOL    HW1  917   4.966   1.213   3.002
    6SOL    HW2  918   4.949   1.297   2.863
    7SOL     OW  919   2.172   4.084   4.537
    7SOL    HW1  920   2.177   4.038   4.626
    7SOL    HW2  921   2.085   4.133   4.530
    8SOL     OW  922   1.102   2.736   5.001
    8SOL    HW1  923   1.074   2.640   4.999
    8SOL    HW2  924   1.190   2.747   4.954
    9SOL     OW  925   0.301   1.229   6.362
    9SOL    HW1  926   0.377   1.260   6.419
    9SOL    HW2  927   0.307   1.130   6.349
   10SOL     OW  928   5.608   4.888   1.614
   10SOL    HW1  929   5.676   4.922   1.550
   10SOL    HW2  930   5.642   4.805   1.659
   11SOL     OW  931   2.253   2.008   1.325
   11SOL    HW1  932   2.328   1.984   1.263
   11SOL    HW2  933   2.166   1.977   1.286
   12SOL     OW  934   4.642   4.794   2.767
   12SOL    HW1  935   4.603   4.816   2.857
   12SOL    HW2  936   4.606   4.857   2.699
   13SOL     OW  937   5.753   6.136   1.326
   13SOL    HW1  938   5.806   6.142   1.241
   13SOL    HW2  939   5.789   6.062   1.382
   14SOL     OW  940   4.103   6.897   6.704
   14SOL    HW1  941   4.201   6.880   6.691
   14SOL    HW2  942   4.091   6.974   6.768
   15SOL     OW  943   1.325   6.328   6.402
   15SOL    HW1  944   1.309   6.424   6.381
   15SOL    HW2  945   1.417   6.302   6.370
   16SOL     OW  946   1.960   5.034   4.997
   16SOL    HW1  947   1.902   4.984   4.932
   16SOL    HW2  948   1.903   5.076   5.068
   17SOL     OW  949   6.933   1.129   4.997
   17SOL    HW1  950   6.892   1.051   5.044
   17SOL    HW2  951   6.883   1.212   5.022
   18SOL     OW  952   2.726   1.590   5.963
   18SOL    HW1  953   2.653   1.559   6.025
   18SOL    HW2  954   2.718   1.542   5.876
   19SOL     OW  955   3.166   6.513   3.309
   19SOL    HW1  956   3.091   6.489   3.370
   19SOL    HW2  957   3.195   6.607   3.326
   20SOL     OW  958   5.938   0.971   5.353
   20SOL    HW1  959   5.843   0.958   5.382
   20SOL    HW2  960   5.962   0.901   5.286
   21SOL     OW  961   2.202   4.045   2.608
   21SOL    HW1  962   2.172   4.135   2.638
   21SOL    HW2  963   2.225   4.049   2.510
   22SOL     OW  964   0.924   0.779   0.121
   22SOL    HW1  965   0.948   0.845   0.192
   22SOL    HW2  966   0.972   0.802   0.036
   23SOL     OW  967   5.679   4.639   0.950
   23SOL    HW1  968   5.701   4.698   1.028
   23SOL    HW2  969   5.715   4.680   0.866
   24SOL     OW  970   5.338   1.663   0.469
   24SOL    HW1  971   5.253   1.611   0.465
   24SOL    HW2  972   5.409   1.606   0.510
   25SOL     OW  973   2.046   0.369   4.628
   25SOL    HW1  974   1.984   0.369   4.707
   25SOL    HW2  975   2.008   0.428   4.557
   26SOL     OW  976   0.677   2.059   6.231
   26SOL    HW1  977   0.774   2.074   6.249
   26SOL    HW2  978   0.625   2.069   6.316
   27SOL     OW  979   6.575   0.035   2.439
   27SOL    HW1  980   6.580   6.965   2.471
   27SOL    HW2  981   6.509   0.086   2.495
   28SOL     OW  982   2.058   0.698   5.150
   28SOL    HW1  983   2.109   0.781   5.128
   28SOL    HW2  984   1.962   0.720   5.164
   29SOL     OW  985   6.724   6.938   1.071
   29SOL    HW1  986   6.680   0.002   1.090
   29SOL    HW2  987   6.796   6.922   1.138
   30SOL     OW  988   4.203   0.164   4.934
   30SOL    HW1  989   4.180   0.081   4.985
   30SOL    HW2  990   4.241   0.138   4.845
   31SOL     OW  991   0.955   4.440   4.722
   31SOL    HW1  992   0.931   4.533   4.694
   31SOL    HW2  993   0.949   4.379   4.643
   32SOL     OW  994   3.603   0.833   0.995
   32SOL    HW1  995   3.589   0.736   0.974
   32SOL    HW2  996   3.559   0.889   0.925
   33SOL     OW  997   2.309   5.313   6.476
   33SOL    HW1  998   2.246   5.336   6.402
   33SOL    HW2  999   2.366   5.235   6.449
   34SOL     OW 1000   3.010   5.937   5.429
   34SOL    HW1 1001   3.106   5.911   5.418
   34SOL    HW2 1002   2.982   5.995   5.353
   35SOL     OW 1003   1.631   2.907   6.132
   35SOL    HW1 1004   1.538   2.913   6.097
   35SOL    HW2 1005   1.688   2.858   6.067
   36SOL     OW 1006   4.756   0.972   3.266
   36SOL    HW1 1007   4.694   1.029   3.320
   36SOL    HW2 1008   4.723   0.965   3.172
   37SOL     OW 1009   2.234   6.706   3.729
   37SOL    HW1 1010   2.208   6.801   3.715
   37SOL    HW2 1011   2.152   6.649   3.735
   38SOL     OW 1012   1.040   4.452   2.680
   38SOL    HW1 1013   1.110   4.466   2.609
   38SOL    HW2 1014   0.950   4.470   2.641
   39SOL     OW 1015   6.441   5.044   1.229
   39SOL    HW1 1016   6.419   5.135   1.261
   39SOL    HW2 1017   6.433   4.978   1.304
   40SOL     OW 1018   4.865   1.588   0.346
   40SOL    HW1 1019   4.789   1.524   0.333
   40SOL    HW2 1020   4.888   1.593   0.444
   41SOL     OW 1021   5.332   3.766   1.684
   41SOL    HW1 1022   5.250   3.822   1.676
   41SOL    HW2 1023   5.353   3.750   1.780
   42SOL     OW 1024   2.666   4.634   6.812
   42SOL    HW1 1025   2.671   4.599   6.718
   42SOL    HW2 1026   2.607   4.575   6.866
   43SOL     OW 1027   5.052   6.998   5.342
   43SOL    HW1 1028   5.014   6.922   5.396
   43SOL    HW2 1029   5.059   6.970   5.247
   44SOL     OW 1030   0.283   1.406   0.234
   44SOL    HW1 1031   0.277   1.495   0.188
   44SOL    HW2 1032   0.194   1.360   0.228
   45SOL     OW 1033   2.147   4.670   6.216
   45SOL    HW1 1034   2.161   4.686   6.313
   45SOL    HW2 1035   2.200   4.737   6.163
   46SOL     OW 1036   1.466   3.423   5.293
   46SOL    HW1 1037   1.479   3.349   5.227
   46SOL    HW2 1038   1.517   3.503   5.263
   47SOL     OW 1039   5.775   3.660   6.980
   47SOL    HW1 1040   5.759   3.758   6.982
   47SOL    HW2 1041   5.692   3.613   6.949
   48SOL     OW 1042   6.375   3.971   0.599
   48SOL    HW1 1043   6.392   4.066   0.626
   48SOL    HW2 1044   6.280   3.961   0.570
   49SOL     OW 1045   3.033   3.655   6.820
   49SOL    HW1 1046   2.977   3.724   6.775
   49SOL    HW2 1047   2.982   3.570   6.827
   50SOL     OW 1048   6.111   1.931   0.053
   50SOL    HW1 1049   6.118   2.000   7.006
   50SOL    HW2 1050   6.082   1.975   0.138
   51SOL     OW 1051   0.959   5.836   2.565
   51SOL    HW1 1052   1.005   5.749   2.582
   51SOL    HW2 1053   0.946   5.884   2.652
   52SOL     OW 1054   5.897   2.840   1.872
   52SOL    HW1 1055   5.838   2.898   1.928
   52SOL    HW2 1056   5.863   2.838   1.778
   53SOL     OW 1057   3.422   0.612   1.285
   53SOL    HW1 1058   3.477   0.528   1.283
   53SOL    HW2 1059   3.348   0.602   1.351
   54SOL     OW 1060   6.010   0.106   6.355
   54SOL    HW1 1061   6.030   0.034   6.289
   54SOL    HW2 1062   5.957   0.178   6.310
   55SOL     OW 1063   1.215   3.442   6.429
   55SOL    HW1 1064   1.227   3.424   6.332
   55SOL    HW2 1065   1.231   3.358   6.481
   56SOL     OW 1066   0.753   2.048   0.113
   56SOL    HW1 1067   0.654   2.036   0.113
   56SOL    HW2 1068   0.791   2.023   0.024
   57SOL     OW 1069   4.237   6.224   0.897
   57SOL    HW1 1070   4.213   6.235   0.801
   57SOL    HW2 1071   4.180   6.285   0.953
   58SOL     OW 1072   1.283   0.989   6.912
   58SOL    HW1 1073   1.382   0.999   6.922
   58SOL    HW2 1074   1.240   1.079   6.922
   59SOL     OW 1075   4.336   3.367   5.558
   59SOL    HW1 1076   4.390   3.451   5.569
   59SOL    HW2 1077   4.270   3.360   5.633
   60SOL     OW 1078   6.504   2.851   2.280
   60SOL    HW1 1079   6.472   2.943   2.304
   60SOL    HW2 1080   6.521   2.846   2.182
   61SOL     OW 1081   0.903   6.407   4.007
   61SOL    HW1 1082   0.906   6.387   3.909
   61SOL    HW2 1083   0.831   6.475   4.024
   62SOL     OW 1084   6.073   3.168   3.387
   62SOL    HW1 1085   6.005   3.192   3.456
   62SOL    HW2 1086   6.044   3.205   3.298
   63SOL     OW 1087   3.913   0.611   6.418
   63SOL    HW1 1088   3.844   0.667   6.463
   63SOL    HW2 1089   3.886   0.594   6.323
   64SOL     OW 1090   1.417   2.744   5.384
   64SOL    HW1 1091   1.322   2.754   5.416
   64SOL    HW2 1092   1.478   2.790   5.448
   65SOL     OW 1093   0.746   5.173   4.453
   65SOL    HW1 1094   0.698   5.109   4.513
   65SOL    HW2 1095   0.711   5.266   4.467
   66SOL     OW 1096   3.766   1.341   1.591
   66SOL    HW1 1097   3.851   1.391   1.578
   66SOL    HW2 1098   3.786   1.252   1.632
   67SOL     OW 1099   0.193   3.370   1.728
   67SOL    HW1 1100   0.109   3.418   1.753
   67SOL    HW2 1101   0.190   3.277   1.764
   68SOL     OW 1102   0.104   1.915   6.933
   68SOL    HW1 1103   0.047   1.843   6.973
   68SOL    HW2 1104   0.081   2.003   6.976
   69SOL     OW 1105   1.169   5.560   6.753
   69SOL    HW1 1106   1.157   5.463   6.736
   69SOL    HW2 1107   1.184   5.608   6.666
   70SOL     OW 1108   5.074   4.360   3.900
   70SOL    HW1 1109   5.019   4.425   3.847
   70SOL    HW2 1110   5.106   4.404   3.984
   71SOL     OW 1111   5.169   1.830   4.398
   71SOL    HW1 1112   5.076   1.837   4.433
   71SOL    HW2 1113   5.190   1.910   4.342
   72SOL     OW 1114   0.091   1.183   3.375
   72SOL    HW1 1115   0.145   1.122   3.317
   72SOL    HW2 1116   0.116   1.168   3.470
   73SOL     OW 1117   2.402   0.376   0.878
   73SOL    HW1 1118   2.380   0.324   0.961
   73SOL    HW2 1119   2.455   0.319   0.816
   74SOL     OW 1120   3.701   2.308   0.554
   74SOL    HW1 1121   3.793   2.292   0.591
   74SOL    HW2 1122   3.655   2.378   0.608
   75SOL     OW 1123   3.013   2.862   0.377
   75SOL    HW1 1124   2.954   2.846   0.456
   75SOL    HW2 1125   2.960   2.905   0.304
   76SOL     OW 1126   3.998   5.173   5.836
   76SOL    HW1 1127   3.947   5.109   5.894
   76SOL    HW2 1128   4.095   5.169   5.861
   77SOL     OW 1129   0.893   5.204   4.880
   77SOL    HW1 1130   0.987   5.221   4.907
   77SOL    HW2 1131   0.851   5.137   4.941
   78SOL     OW 1132   4.343   1.815   1.071
   78SOL    HW1 1133   4.285   1.895   1.086
   78SOL    HW2 1134   4.390   1.822   0.983
   79SOL     OW 1135   1.593   4.288   3.527
   79SOL    HW1 1136   1.573   4.235   3.609
   79SOL    HW2 1137   1.578   4.385   3.545
   80SOL     OW 1138   3.471   2.129   4.940
   80SOL    HW1 1139   3.392   2.184   4.970
   80SOL    HW2 1140   3.451   2.089   4.850
   81SOL     OW 1141   3.806   5.407   1.831
   81SOL    HW1 1142   3.848   5.495   1.808
   81SOL    HW2 1143   3.878   5.343   1.858
   82SOL     OW 1144   2.596   6.799   1.738
   82SOL    HW1 1145   2.563   6.839   1.652
   82SOL    HW2 1146   2.632   6.872   1.797
   83SOL     OW 1147   5.199   1.322   4.249
   83SOL    HW1 1148   5.208   1.280   4.159
   83SOL    HW2 1149   5.243   1.412   4.247
   84SOL     OW 1150   6.028   2.814   2.871
   84SOL    HW1 1151   5.954   2.786   2.932
   84SOL    HW2 1152   6.057   2.906   2.894
   85SOL     OW 1153   2.556   6.448   3.536
   85SOL    HW1 1154   2.513   6.400   3.459
   85SOL    HW2 1155   2.533   6.546   3.530
   86SOL     OW 1156   5.144   0.184   0.446
   86SOL    HW1 1157   5.158   0.163   0.349
   86SOL    HW2 1158   5.155   0.282   0.460
   87SOL     OW 1159   2.613   3.587   6.845
   87SOL    HW1 1160   2.620   3.500   6.795
   87SOL    HW2 1161   2.639   3.662   6.784
   88SOL     OW 1162   2.464   3.595   1.633
   88SOL    HW1 1163   2.475   3.535   1.554
   88SOL    HW2 1164   2.443   3.540   1.714
   89SOL     OW 1165   3.020   3.491   4.019
   89SOL    HW1 1166   3.040   3.586   4.043
   89SOL    HW2 1167   2.972   3.447   4.094
   90SOL     OW 1168   5.801   3.774   2.356
   90SOL    HW1 1169   5.768   3.868   2.351
   90SOL    HW2 1170   5.879   3.763   2.294
   91SOL     OW 1171   4.094   5.598   6.318
   91SOL    HW1 1172   4.130   5.674   6.265
   91SOL    HW2 1173   4.054   5.632   6.403
   92SOL     OW 1174   5.173   4.244   0.102
   92SOL    HW1 1175   5.087   4.219   0.146
   92SOL    HW2 1176   5.211   4.326   0.146
   93SOL     OW 1177   3.033   3.847   1.981
   93SOL    HW1 1178   3.117   3.802   1.952
   93SOL    HW2 1179   3.038   3.944   1.960
   94SOL     OW 1180   3.135   2.100   4.111
   94SOL    HW1 1181   3.180   2.167   4.170
   94SOL    HW2 1182   3.048   2.137   4.078
   95SOL     OW 1183   0.384   0.291   4.135
   95SOL    HW1 1184   0.412   0.273   4.040
   95SOL    HW2 1185   0.339   0.209   4.171
   96SOL     OW 1186   0.134   5.302   6.383
   96SOL    HW1 1187   0.105   5.395   6.361
   96SOL    HW2 1188   0.087   5.238   6.323
   97SOL     OW 1189   2.274   4.471   5.896
   97SOL    HW1 1190   2.198   4.441   5.953
   97SOL    HW2 1191   2.353   4.411   5.910
   98SOL     OW 1192   0.850   1.946   3.790
   98SOL    HW1 1193   0.750   1.939   3.796
   98SOL    HW2 1194   0.875   2.031   3.745
   99SOL     OW 1195   3.480   4.238   5.357
   99SOL    HW1 1196   3.497   4.286   5.443
   99SOL    HW2 1197   3.535   4.155   5.352
  100SOL     OW 1198   0.637   0.023   4.912
  100SOL    HW1 1199   0.609   6.952   4.923
  100SOL    HW2 1200   0.601   0.077   4.987
  101SOL     OW 1201   4.880   3.207   2.507
  101SOL    HW1 1202   4.895   3.291   2.559
  101SOL    HW2 1203   4.959   3.191   2.447
  102SOL     OW 1204   4.334   0.724   0.099
  102SOL    HW1 1205   4.426   0.721   0.139
  102SOL    HW2 1206   4.270   0.673   0.157
  103SOL     OW 1207   1.388   1.479   2.007
  103SOL    HW1 1208   1.438   1.506   2.089
  103SOL    HW2 1209   1.438   1.511   1.926
  104SOL     OW 1210   6.510   4.122   1.624
  104SOL    HW1 1211   6.417   4.138   1.656
  104SOL    HW2 1212   6.521   4.162   1.533
  105SOL     OW 1213   0.174   0.211   4.915
  105SOL    HW1 1214   0.142   0.187   4.824
  105SOL    HW2 1215   0.108   0.272   4.959
  106SOL     OW 1216   4.590   3.260   1.482
  106SOL    HW1 1217   4.568   3.272   1.385
  106SOL    HW2 1218   4.506   3.261   1.535
  107SOL     OW 1219   5.897   0.001   1.513
  107SOL    HW1 1220   5.863   6.997   1.603
  107SOL    HW2 1221   5.859   0.091   1.490
  108SOL     OW 1222   3.191   1.043   4.963
  108SOL    HW1 1223   3.216   1.098   5.042
  108SOL    HW2 1224   3.129   1.095   4.904
  109SOL     OW 1225   2.182   0.947   5.059
  109SOL    HW1 1226   2.196   0.946   4.960
  109SOL    HW2 1227   2.166   1.042   5.088
  110SOL     OW 1228   3.466   3.928   5.472
  110SOL    HW1 1229   3.492   3.883   5.558
  110SOL    HW2 1230   3.367   3.931   5.465
  111SOL     OW 1231   6.009   2.613   0.908
  111SOL    HW1 1232   6.067   2.639   0.831
  111SOL    HW2 1233   5.920   2.584   0.874
  112SOL     OW 1234   5.665   0.131   6.287
  112SOL    HW1 1235   5.590   0.168   6.342
  112SOL    HW2 1236   5.739   0.198   6.282
  113SOL     OW 1237   0.308   5.128   2.642
  113SOL    HW1 1238   0.375   5.084   2.582
  113SOL    HW2 1239   0.247   5.185   2.588
  114SOL     OW 1240   0.163   2.466   2.065
  114SOL    HW1 1241   0.106   2.424   2.135
  114SOL    HW2 1242   0.104   2.506   1.994
  115SOL     OW 1243   4.836   6.698   3.318
  115SOL    HW1 1244   4.822   6.729   3.223
  115SOL    HW2 1245   4.848   6.599   3.319
  116SOL     OW 1246   0.069   5.202   0.457
  116SOL    HW1 1247   0.055   5.287   0.406
  116SOL    HW2 1248   0.125   5.220   0.537
  117SOL     OW 1249   2.568   2.538   0.483
  117SOL    HW1 1250   2.566   2.562   0.385
  117SOL    HW2 1251   2.591   2.619   0.536
  118SOL     OW 1252   6.824   1.836   2.616
  118SOL    HW1 1253   6.888   1.759   2.604
  118SOL    HW2 1254   6.749   1.808   2.676
  119SOL     OW 1255   5.966   0.555   4.930
  119SOL    HW1 1256   6.065   0.568   4.932
  119SOL    HW2 1257   5.926   0.613   4.859
  120SOL     OW 1258   4.328   0.726   4.227
  120SOL    HW1 1259   4.351   0.630   4.213
  120SOL    HW2 1260   4.404   0.784   4.196
  121SOL     OW 1261   0.287   5.382   6.985
  121SOL    HW1 1262   0.245   5.363   0.049
  121SOL    HW2 1263   0.219   5.421   6.924
  122SOL     OW 1264   6.785   4.720   5.827
  122SOL    HW1 1265   6.698   4.770   5.823
  122SOL    HW2 1266   6.830   4.737   5.915
  123SOL     OW 1267   0.755   2.734   1.898
  123SOL    HW1 1268   0.715   2.665   1.959
  123SOL    HW2 1269   0.724   2.825   1.926
  124SOL     OW 1270   0.995   3.608   0.415
  124SOL    HW1 1271   0.948   3.667   0.349
  124SOL    HW2 1272   1.094   3.610   0.397
  125SOL     OW 1273   4.330   2.981   0.331
  125SOL    HW1 1274   4.295   2.888   0.337
  125SOL    HW2 1275   4.408   2.992   0.392
  126SOL     OW 1276   3.876   2.974   4.140
  126SOL    HW1 1277   3.795   2.923   4.168
  126SOL    HW2 1278   3.885   2.970   4.041
  127SOL     OW 1279   0.442   4.406   5.325
  127SOL    HW1 1280   0.343   4.400   5.336
  127SOL    HW2 1281   0.472   4.340   5.255
  128SOL     OW 1282   5.262   4.007   6.482
  128SOL    HW1 1283   5.325   4.061   6.538
  128SOL    HW2 1284   5.306   3.921   6.454
  129SOL     OW 1285   7.013   5.828   2.264
  129SOL    HW1 1286   6.949   5.861   2.334
  129SOL    HW2 1287   0.006   5.731   2.278
  130SOL     OW 1288   6.250   2.528   4.380
  130SOL    HW1 1289   6.233   2.626   4.386
  130SOL    HW2 1290   6.341   2.507   4.416
  131SOL     OW 1291   0.737   3.454   3.526
  131SOL    HW1 1292   0.809   3.503   3.575
  131SOL    HW2 1293   0.740   3.357   3.551
  132SOL     OW 1294   4.160   2.513   0.959
  132SOL    HW1 1295   4.091   2.454   1.001
  132SOL    HW2 1296   4.202   2.571   1.029
  133SOL     OW 1297   4.854   5.794   6.116
  133SOL    HW1 1298   4.875   5.786   6.019
  133SOL    HW2 1299   4.762   5.832   6.127
  134SOL     OW 1300   5.791   2.029   1.123
  134SOL    HW1 1301   5.862   2.077   1.174
  134SOL    HW2 1302   5.741   1.967   1.184
  135SOL     OW 1303   5.020   3.387   3.922
  135SOL    HW1 1304   5.100   3.361   3.975
  135SOL    HW2 1305   4.944   3.410   3.984
  136SOL     OW 1306   3.699   1.057   6.140
  136SOL    HW1 1307   3.613   1.109   6.141
  136SOL    HW2 1308   3.742   1.063   6.230
  137SOL     OW 1309   2.948   3.534   6.012
  137SOL    HW1 1310   2.932   3.604   5.942
  137SOL    HW2 1311   2.916   3.446   5.979
  138SOL     OW 1312   1.176   5.274   6.669
  138SOL    HW1 1313   1.240   5.272   6.591
  138SOL    HW2 1314   1.082   5.268   6.635
  139SOL     OW 1315   1.250   0.268   0.947
  139SOL    HW1 1316   1.303   0.336   0.897
  139SOL    HW2 1317   1.169   0.311   0.987
  140SOL     OW 1318   4.406   0.730   1.564
  140SOL    HW1 1319   4.411   0.667   1.641
  140SOL    HW2 1320   4.312   0.762   1.553
  141SOL     OW 1321   0.237   2.610   0.678
  141SOL    HW1 1322   0.277   2.664   0.751
  141SOL    HW2 1323   0.309   2.568   0.623
  142SOL     OW 1324   2.489   3.629   0.649
  142SOL    HW1 1325   2.464   3.724   0.629
  142SOL    HW2 1326   2.538   3.591   0.570
  143SOL     OW 1327   4.159   6.292   1.889
  143SOL    HW1 1328   4.191   6.317   1.980
  143SOL    HW2 1329   4.126   6.198   1.890
  144SOL     OW 1330   3.042   5.981   2.963
  144SOL    HW1 1331   2.996   5.955   3.048
  144SOL    HW2 1332   2.983   6.044   2.911
  145SOL     OW 1333   0.380   5.281   3.970
  145SOL    HW1 1334   0.326   5.196   3.964
  145SOL    HW2 1335   0.319   5.359   3.961
  146SOL     OW 1336   5.071   1.000   6.323
  146SOL    HW1 1337   5.132   0.932   6.282
  146SOL    HW2 1338   5.002   0.953   6.380
  147SOL     OW 1339   4.792   0.633   5.021
  147SOL    HW1 1340   4.748   0.551   4.986
  147SOL    HW2 1341   4.879   0.609   5.064
  148SOL     OW 1342   1.753   5.926   1.394
  148SOL    HW1 1343   1.734   5.839   1.349
  148SOL    HW2 1344   1.670   5.957   1.441
  149SOL     OW 1345   2.031   2.240   4.027
  149SOL    HW1 1346   2.025   2.289   3.940
  149SOL    HW2 1347   2.045   2.305   4.101
  150SOL     OW 1348   4.191   1.227   4.880
  150SOL    HW1 1349   4.152   1.173   4.954
  150SOL    HW2 1350   4.235   1.309   4.917
  151SOL     OW 1351   5.809   2.827   0.679
  151SOL    HW1 1352   5.739   2.804   0.746
  151SOL    HW2 1353   5.881   2.881   0.723
  152SOL     OW 1354   0.820   2.132   1.625
  152SOL    HW1 1355   0.750   2.160   1.559
  152SOL    HW2 1356   0.910   2.159   1.592
  153SOL     OW 1357   2.410   1.469   3.937
  153SOL    HW1 1358   2.315   1.482   3.908
  153SOL    HW2 1359   2.469   1.466   3.856
  154SOL     OW 1360   6.371   2.448   2.520
  154SOL    HW1 1361   6.302   2.512   2.554
  154SOL    HW2 1362   6.444   2.498   2.474
  155SOL     OW 1363   6.545   5.464   2.940
  155SOL    HW1 1364   6.512   5.393   2.877
  155SOL    HW2 1365   6.603   5.528   2.890
  156SOL     OW 1366   5.226   2.518   0.218
  156SOL    HW1 1367   5.236   2.472   0.306
  156SOL    HW2 1368   5.272   2.465   0.147
  157SOL     OW 1369   5.156   6.514   0.923
  157SOL    HW1 1370   5.135   6.521   0.825
  157SOL    HW2 1371   5.253   6.495   0.935
  158SOL     OW 1372   0.690   2.928   3.812
  158SOL    HW1 1373   0.599   2.950   3.777
  158SOL    HW2 1374   0.707   2.830   3.801
  159SOL     OW 1375   5.885   5.480   0.593
  159SOL    HW1 1376   5.906   5.399   0.538
  159SOL    HW2 1377   5.968   5.511   0.639
  160SOL     OW 1378   5.337   0.636   1.163
  160SOL    HW1 1379   5.311   0.541   1.145
  160SOL    HW2 1380   5.343   0.651   1.261
  161SOL     OW 1381   6.248   6.788   0.895
  161SOL    HW1 1382   6.196   6.764   0.977
  161SOL    HW2 1383   6.223   6.881   0.867
  162SOL     OW 1384   4.526   0.225   6.429
  162SOL    HW1 1385   4.609   0.219   6.484
  162SOL    HW2 1386   4.545   0.195   6.336
  163SOL     OW 1387   1.028   3.210   2.240
  163SOL    HW1 1388   1.119   3.239   2.210
  163SOL    HW2 1389   1.032   3.178   2.335
  164SOL     OW 1390   3.008   1.821   3.051
  164SOL    HW1 1391   2.952   1.776   2.982
  164SOL    HW2 1392   2.972   1.912   3.070
  165SOL     OW 1393   7.023   6.955   3.902
  165SOL    HW1 1394   0.036   6.885   3.962
  165SOL    HW2 1395   6.926   6.937   3.885
  166SOL     OW 1396   6.475   4.735   4.072
  166SOL    HW1 1397   6.551   4.678   4.040
  166SOL    HW2 1398   6.389   4.699   4.036
  167SOL     OW 1399   2.260   1.471   5.327
  167SOL    HW1 1400   2.358   1.482   5.344
  167SOL    HW2 1401   2.246   1.420   5.242
  168SOL     OW 1402   3.697   3.611   1.619
  168SOL    HW1 1403   3.687   3.637   1.523
  168SOL    HW2 1404   3.777   3.551   1.629
  169SOL     OW 1405   4.967   2.403   0.798
  169SOL    HW1 1406   4.891   2.381   0.737
  169SOL    HW2 1407   4.932   2.416   0.891
  170SOL     OW 1408   5.942   5.730   0.909
  170SOL    HW1 1409   5.865   5.669   0.889
  170SOL    HW2 1410   5.969   5.719   1.004
  171SOL     OW 1411   3.720   2.984   0.992
  171SOL    HW1 1412   3.741   2.956   1.085
  171SOL    HW2 1413   3.621   2.998   0.983
  172SOL     OW 1414   1.182   1.605   6.586
  172SOL    HW1 1415   1.274   1.601   6.549
  172SOL    HW2 1416   1.169   1.691   6.636
  173SOL     OW 1417   6.441   1.345   4.082
  173SOL    HW1 1418   6.497   1.394   4.150
  173SOL    HW2 1419   6.377   1.285   4.129
  174SOL     OW 1420   5.538   4.267   4.297
  174SOL    HW1 1421   5.584   4.352   4.323
  174SOL    HW2 1422   5.602   4.207   4.249
  175SOL     OW 1423   0.165   6.446   2.860
  175SOL    HW1 1424   0.135   6.490   2.945
  175SOL    HW2 1425   0.154   6.510   2.784
  176SOL     OW 1426   6.095   3.479   1.590
  176SOL    HW1 1427   6.092   3.468   1.491
  176SOL    HW2 1428   6.178   3.530   1.615
  177SOL     OW 1429   5.767   2.437   3.428
  177SOL    HW1 1430   5.801   2.352   3.387
  177SOL    HW2 1431   5.729   2.417   3.518
  178SOL     OW 1432   2.591   5.897   4.573
  178SOL    HW1 1433   2.522   5.885   4.501
  178SOL    HW2 1434   2.668   5.948   4.536
  179SOL     OW 1435   3.262   4.501   1.284
  179SOL    HW1 1436   3.318   4.422   1.258
  179SOL    HW2 1437   3.231   4.490   1.379
  180SOL     OW 1438   4.712   1.091   6.741
  180SOL    HW1 1439   4.679   1.016   6.684
  180SOL    HW2 1440   4.774   1.148   6.687
  181SOL     OW 1441   2.998   2.213   6.014
  181SOL    HW1 1442   2.999   2.122   5.975
  181SOL    HW2 1443   3.009   2.207   6.114
  182SOL     OW 1444   3.344   2.859   5.844
  182SOL    HW1 1445   3.252   2.895   5.836
  182SOL    HW2 1446   3.369   2.813   5.759
  183SOL     OW 1447   2.702   1.026   3.560
  183SOL    HW1 1448   2.710   1.125   3.570
  183SOL    HW2 1449   2.794   0.985   3.559
  184SOL     OW 1450   5.134   5.872   3.750
  184SOL    HW1 1451   5.199   5.796   3.755
  184SOL    HW2 1452   5.064   5.852   3.682
  185SOL     OW 1453   0.139   0.491   4.622
  185SOL    HW1 1454   0.056   0.455   4.579
  185SOL    HW2 1455   0.219   0.450   4.579
  186SOL     OW 1456   3.357   5.719   5.147
  186SOL    HW1 1457   3.349   5.623   5.174
  186SOL    HW2 1458   3.452   5.740   5.124
  187SOL     OW 1459   4.078   5.880   1.650
  187SOL    HW1 1460   4.013   5.816   1.607
  187SOL    HW2 1461   4.084   5.860   1.747
  188SOL     OW 1462   1.471   3.553   3.236
  188SOL    HW1 1463   1.500   3.479   3.297
  188SOL    HW2 1464   1.432   3.628   3.291
  189SOL     OW 1465   5.226   5.259   5.421
  189SOL    HW1 1466   5.135   5.293   5.397
  189SOL    HW2 1467   5.219   5.164   5.451
  190SOL     OW 1468   6.046   0.233   0.540
  190SOL    HW1 1469   6.001   0.144   0.543
  190SOL    HW2 1470   6.039   0.277   0.629
  191SOL     OW 1471   0.343   1.934   5.498
  191SOL    HW1 1472   0.425   1.986   5.479
  191SOL    HW2 1473   0.315   1.948   5.593
  192SOL     OW 1474   0.366   5.569   1.419
  192SOL    HW1 1475   0.282   5.610   1.384
  192SOL    HW2 1476   0.437   5.639   1.425
  193SOL     OW 1477   1.971   0.091   1.131
  193SOL    HW1 1478   1.970   0.185   1.165
  193SOL    HW2 1479   1.877   0.059   1.119
  194SOL     OW 1480   3.866   5.970   2.436
  194SOL    HW1 1481   3.795   5.901   2.447
  194SOL    HW2 1482   3.826   6.061   2.450
  195SOL     OW 1483   3.963   0.473   1.169
  195SOL    HW1 1484   4.022   0.394   1.189
  195SOL    HW2 1485   3.970   0.496   1.072
  196SOL     OW 1486   3.929   2.213   0.666
  196SOL    HW1 1487   3.973   2.130   0.702
  196SOL    HW2 1488   3.891   2.266   0.742
  197SOL     OW 1489   1.792   5.928   0.630
  197SOL    HW1 1490   1.820   5.860   0.699
  197SOL    HW2 1491   1.837   6.015   0.650
  198SOL     OW 1492   3.868   6.824   6.623
  198SOL    HW1 1493   3.827   6.867   6.703
  198SOL    HW2 1494   3.963   6.854   6.614
  199SOL     OW 1495   0.749   0.479   2.987
  199SOL    HW1 1496   0.693   0.550   2.942
  199SOL    HW2 1497   0.780   0.513   3.076
  200SOL     OW 1498   1.056   4.624   3.260
  200SOL    HW1 1499   1.036   4.533   3.224
  200SOL    HW2 1500   1.114   4.616   3.341
  201SOL     OW 1501   5.421   1.570   6.584
  201SOL    HW1 1502   5.395   1.559   6.680
  201SOL    HW2 1503   5.436   1.480   6.544
  202SOL     OW 1504   3.519   1.014   2.465
  202SOL    HW1 1505   3.464   1.031   2.383
  202SOL    HW2 1506   3.464   1.030   2.546
  203SOL     OW 1507   6.042   2.854   6.732
  203SOL    HW1 1508   6.061   2.768   6.779
  203SOL    HW2 1509   6.101   2.926   6.768
  204SOL     OW 1510   2.434   6.582   1.486
  204SOL    HW1 1511   2.512   6.525   1.460
  204SOL    HW2 1512   2.462   6.678   1.489
  205SOL     OW 1513   5.628   0.915   0.860
  205SOL    HW1 1514   5.686   0.963   0.794
  205SOL    HW2 1515   5.532   0.938   0.843
  206SOL     OW 1516   0.154   5.322   1.914
  206SOL    HW1 1517   0.174   5.404   1.861
  206SOL    HW2 1518   0.204   5.244   1.875
  207SOL     OW 1519   4.800   1.671   5.440
  207SOL    HW1 1520   4.819   1.582   5.400
  207SOL    HW2 1521   4.876   1.698   5.499
  208SOL     OW 1522   3.374   4.671   6.335
  208SOL    HW1 1523   3.369   4.619   6.420
  208SOL    HW2 1524   3.458   4.647   6.286
  209SOL     OW 1525   6.684   5.227   5.312
  209SOL    HW1 1526   6.648   5.136   5.332
  209SOL    HW2 1527   6.781   5.221   5.290
  210SOL     OW 1528   3.865   2.107   1.867
  210SOL    HW1 1529   3.783   2.048   1.861
  210SOL    HW2 1530   3.837   2.202   1.876
  211SOL     OW 1531   1.123   1.983   1.922
  211SOL    HW1 1532   1.048   2.046   1.940
  211SOL    HW2 1533   1.184   1.980   2.001
  212SOL     OW 1534   0.642   5.148   4.707
  212SOL    HW1 1535   0.706   5.221   4.728
  212SOL    HW2 1536   0.606   5.109   4.792
  213SOL     OW 1537   4.388   2.832   6.213
  213SOL    HW1 1538   4.429   2.786   6.134
  213SOL    HW2 1539   4.357   2.923   6.186
  214SOL     OW 1540   1.448   6.539   3.196
  214SOL    HW1 1541   1.404   6.483   3.126
  214SOL    HW2 1542   1.387   6.614   3.222
  215SOL     OW 1543   3.697   3.454   2.860
  215SOL    HW1 1544   3.750   3.524   2.908
  215SOL    HW2 1545   3.759   3.387   2.820
  216SOL     OW 1546   1.707   6.379   5.646
  216SOL    HW1 1547   1.608   6.365   5.634
  216SOL    HW2 1548   1.724   6.422   5.735
  217SOL     OW 1549   0.023   2.425   3.791
  217SOL    HW1 1550   6.956   2.411   3.755
  217SOL    HW2 1551   0.020   2.494   3.864
  218SOL     OW 1552   1.860   3.749   5.854
  218SOL    HW1 1553   1.821   3.755   5.946
  218SOL    HW2 1554   1.952   3.789   5.854
  219SOL     OW 1555   3.705   5.550   0.802
  219SOL    HW1 1556   3.628   5.499   0.763
  219SOL    HW2 1557   3.755   5.595   0.728
  220SOL     OW 1558   1.810   4.526   0.717
  220SOL    HW1 1559   1.745   4.451   0.732
  220SOL    HW2 1560   1.835   4.530   0.620
  221SOL     OW 1561   6.442   2.960   3.944
  221SOL    HW1 1562   6.388   2.966   4.028
  221SOL    HW2 1563   6.535   2.931   3.967
  222SOL     OW 1564   1.152   6.044   4.440
  222SOL    HW1 1565   1.184   6.134   4.472
  222SOL    HW2 1566   1.156   6.041   4.340
  223SOL     OW 1567   5.794   4.433   2.653
  223SOL    HW1 1568   5.732   4.360   2.625
  223SOL    HW2 1569   5.740   4.511   2.686
  224SOL     OW 1570   3.405   2.105   2.103
  224SOL    HW1 1571   3.488   2.153   2.073
  224SOL    HW2 1572   3.333   2.116   2.034
  225SOL     OW 1573   0.154   0.188   1.339
  225SOL    HW1 1574   0.126   0.160   1.247
  225SOL    HW2 1575   0.096   0.143   1.407
  226SOL     OW 1576   0.323   6.017   1.577
  226SOL    HW1 1577   0.391   6.060   1.636
  226SOL    HW2 1578   0.367   5.947   1.520
  227SOL     OW 1579   1.829   3.031   2.950
  227SOL    HW1 1580   1.908   2.975   2.925
  227SOL    HW2 1581   1.833   3.118   2.902
  228SOL     OW 1582   3.661   6.615   2.543
  228SOL    HW1 1583   3.629   6.520   2.551
  228SOL    HW2 1584   3.704   6.642   2.629
  229SOL     OW 1585   6.161   5.583   3.172
  229SOL    HW1 1586   6.075   5.605   3.217
  229SOL    HW2 1587   6.145   5.519   3.097
  230SOL     OW 1588   0.905   4.340   6.134
  230SOL    HW1 1589   0.820   4.288   6.124
  230SOL    HW2 1590   0.950   4.315   6.220
  231SOL     OW 1591   0.469   1.812   0.614
  231SOL    HW1 1592   0.548   1.869   0.591
  231SOL    HW2 1593   0.427   1.778   0.529
  232SOL     OW 1594   2.165   4.301   6.511
  232SOL    HW1 1595   2.212   4.221   6.550
  232SOL    HW2 1596   2.073   4.274   6.482
  233SOL     OW 1597   3.202   0.903   6.415
  233SOL    HW1 1598   3.260   0.985   6.409
  233SOL    HW2 1599   3.138   0.913   6.491
  234SOL     OW 1600   2.944   5.453   6.800
  234SOL    HW1 1601   2.936   5.433   6.702
  234SOL    HW2 1602   2.945   5.367   6.851
  235SOL     OW 1603   4.120   3.261   4.512
  235SOL    HW1 1604   4.078   3.265   4.602
  235SOL    HW2 1605   4.087   3.179   4.464
  236SOL     OW 1606   6.874   2.224   5.431
  236SOL    HW1 1607   6.832   2.315   5.425
  236SOL    HW2 1608   6.895   2.192   5.338
  237SOL     OW 1609   6.924   6.578   1.818
  237SOL    HW1 1610   6.895   6.485   1.792
  237SOL    HW2 1611   7.020   6.591   1.793
  238SOL     OW 1612   0.086   2.062   2.316
  238SOL    HW1 1613   0.028   2.007   2.376
  238SOL    HW2 1614   0.043   2.152   2.302
  239SOL     OW 1615   0.149   5.723   1.304
  239SOL    HW1 1616   0.117   5.714   1.210
  239SOL    HW2 1617   0.193   5.812   1.316
  240SOL     OW 1618   6.947   2.886   5.607
  240SOL    HW1 1619   6.956   2.972   5.556
  240SOL    HW2 1620   6.893   2.902   5.690
  241SOL     OW 1621   6.201   1.874   4.251
  241SOL    HW1 1622   6.203   1.832   4.160
  241SOL    HW2 1623   6.134   1.826   4.308
  242SOL     OW 1624   2.283   2.785   3.439
  242SOL    HW1 1625   2.218   2.827   3.376
  242SOL    HW2 1626   2.338   2.717   3.390
  243SOL     OW 1627   4.035   1.113   6.218
  243SOL    HW1 1628   4.108   1.100   6.285
  243SOL    HW2 1629   3.946   1.104   6.264
  244SOL     OW 1630   6.784   0.654   5.982
  244SOL    HW1 1631   6.791   0.569   6.035
  244SOL    HW2 1632   6.875   0.680   5.949
  245SOL     OW 1633   5.514   2.754   3.735
  245SOL    HW1 1634   5.495   2.775   3.639
  245SOL    HW2 1635   5.433   2.716   3.778
  246SOL     OW 1636   5.014   3.449   3.617
  246SOL    HW1 1637   4.970   3.404   3.695
  246SOL    HW2 1638   5.105   3.482   3.645
  247SOL     OW 1639   2.821   7.020   3.643
  247SOL    HW1 1640   2.796   6.983   3.553
  247SOL    HW2 1641   2.829   6.945   3.709
  248SOL     OW 1642   6.510   1.300   1.984
  248SOL    HW1 1643   6.590   1.283   1.926
  248SOL    HW2 1644   6.427   1.286   1.930
  249SOL     OW 1645   1.992   6.224   4.290
  249SOL    HW1 1646   1.941   6.303   4.324
  249SOL    HW2 1647   1.928   6.153   4.261
  250SOL     OW 1648   5.590   3.219   6.274
  250SOL    HW1 1649   5.668   3.280   6.255
  250SOL    HW2 1650   5.570   3.222   6.372
  251SOL     OW 1651   2.056   2.541   0.863
  251SOL    HW1 1652   2.020   2.603   0.794
  251SOL    HW2 1653   2.144   2.505   0.833
  252SOL     OW 1654   0.618   1.562   0.506
  252SOL    HW1 1655   0.639   1.576   0.602
  252SOL    HW2 1656   0.531   1.513   0.498
  253SOL     OW 1657   1.543   3.935   5.829
  253SOL    HW1 1658   1.493   3.853   5.802
  253SOL    HW2 1659   1.545   4.000   5.754
  254SOL     OW 1660   5.097   3.568   6.033
  254SOL    HW1 1661   5.106   3.550   6.131
  254SOL    HW2 1662   5.147   3.651   6.009
  255SOL     OW 1663   3.234   1.593   2.661
  255SOL    HW1 1664   3.192   1.604   2.751
  255SOL    HW2 1665   3.322   1.640   2.659
  256SOL     OW 1666   6.531   5.533   1.619
  256SOL    HW1 1667   6.532   5.584   1.705
  256SOL    HW2 1668   6.539   5.435   1.637
  257SOL     OW 1669   3.695   5.333   6.488
  257SOL    HW1 1670   3.643   5.255   6.524
  257SOL    HW2 1671   3.631   5.402   6.454
  258SOL     OW 1672   4.862   4.103   3.890
  258SOL    HW1 1673   4.938   4.141   3.943
  258SOL    HW2 1674   4.879   4.118   3.792
  259SOL     OW 1675   1.188   2.202   3.571
  259SOL    HW1 1676   1.246   2.267   3.620
  259SOL    HW2 1677   1.162   2.242   3.483
  260SOL     OW 1678   6.517   6.824   5.646
  260SOL    HW1 1679   6.549   6.901   5.591
  260SOL    HW2 1680   6.547   6.837   5.741
  261SOL     OW 1681   0.272   1.463   3.414
  261SOL    HW1 1682   0.223   1.385   3.375
  261SOL    HW2 1683   0.249   1.545   3.362
  262SOL     OW 1684   2.178   4.742   2.564
  262SOL    HW1 1685   2.183   4.656   2.512
  262SOL    HW2 1686   2.251   4.803   2.534
  263SOL     OW 1687   6.278   2.804   5.114
  263SOL    HW1 1688   6.334   2.739   5.062
  263SOL    HW2 1689   6.182   2.794   5.089
  264SOL     OW 1690   3.417   3.778   6.316
  264SOL    HW1 1691   3.376   3.760   6.405
  264SOL    HW2 1692   3.401   3.701   6.255
  265SOL     OW 1693   5.071   5.118   4.969
  265SOL    HW1 1694   5.078   5.040   5.031
  265SOL    HW2 1695   5.037   5.197   5.019
  266SOL     OW 1696   3.334   3.026   6.386
  266SOL    HW1 1697   3.384   2.963   6.327
  266SOL    HW2 1698   3.391   3.106   6.405
  267SOL     OW 1699   1.868   1.087   6.564
  267SOL    HW1 1700   1.778   1.119   6.534
  267SOL    HW2 1701   1.918   1.163   6.605
  268SOL     OW 1702   3.098   5.080   3.542
  268SOL    HW1 1703   3.118   5.049   3.449
  268SOL    HW2 1704   3.092   5.001   3.603
  269SOL     OW 1705   1.757   0.994   4.837
  269SOL    HW1 1706   1.716   0.993   4.928
  269SOL    HW2 1707   1.713   1.065   4.782
  270SOL     OW 1708   4.859   6.694   4.564
  270SOL    HW1 1709   4.955   6.690   4.537
  270SOL    HW2 1710   4.852   6.720   4.660
  271SOL     OW 1711   1.551   1.601   0.761
  271SOL    HW1 1712   1.579   1.648   0.844
  271SOL    HW2 1713   1.492   1.661   0.707
  272SOL     OW 1714   4.388   6.049   1.765
  272SOL    HW1 1715   4.307   6.045   1.822
  272SOL    HW2 1716   4.452   6.116   1.802
  273SOL     OW 1717   2.420   6.325   4.476
  273SOL    HW1 1718   2.488   6.299   4.545
  273SOL    HW2 1719   2.339   6.267   4.486
  274SOL     OW 1720   5.966   1.730   0.758
  274SOL    HW1 1721   5.970   1.818   0.805
  274SOL    HW2 1722   5.927   1.742   0.666
  275SOL     OW 1723   5.748   6.046   5.833
  275SOL    HW1 1724   5.650   6.059   5.844
  275SOL    HW2 1725   5.780   5.976   5.897
  276SOL     OW 1726   6.923   6.672   4.262
  276SOL    HW1 1727   6.995   6.635   4.320
  276SOL    HW2 1728   6.835   6.633   4.289
  277SOL     OW 1729   4.785   2.885   5.277
  277SOL    HW1 1730   4.777   2.984   5.278
  277SOL    HW2 1731   4.695   2.843   5.288
  278SOL     OW 1732   6.042   3.813   3.270
  278SOL    HW1 1733   5.943   3.807   3.276
  278SOL    HW2 1734   6.079   3.724   3.241
  279SOL     OW 1735   0.307   3.513   3.936
  279SOL    HW1 1736   0.229   3.559   3.894
  279SOL    HW2 1737   0.386   3.519   3.876
  280SOL     OW 1738   3.875   1.441   3.870
  280SOL    HW1 1739   3.849   1.392   3.787
  280SOL    HW2 1740   3.975   1.442   3.878
  281SOL     OW 1741   4.979   6.180   5.154
  281SOL    HW1 1742   4.995   6.143   5.063
  281SOL    HW2 1743   4.929   6.267   5.147
  282SOL     OW 1744   1.168   2.615   0.656
  282SOL    HW1 1745   1.132   2.706   0.676
  282SOL    HW2 1746   1.250   2.624   0.599
  283SOL     OW 1747   5.163   3.525   4.256
  283SOL    HW1 1748   5.191   3.585   4.181
  283SOL    HW2 1749   5.085   3.565   4.304
  284SOL     OW 1750   5.019   5.683   2.647
  284SOL    HW1 1751   5.041   5.594   2.687
  284SOL    HW2 1752   5.019   5.676   2.547
  285SOL     OW 1753   4.225   0.884   5.803
  285SOL    HW1 1754   4.154   0.938   5.848
  285SOL    HW2 1755   4.306   0.881   5.860
  286SOL     OW 1756   2.431   5.027   5.504
  286SOL    HW1 1757   2.502   5.074   5.557
  286SOL    HW2 1758   2.471   4.950   5.455
  287SOL     OW 1759   3.904   6.858   0.049
  287SOL    HW1 1760   3.836   6.835   0.119
  287SOL    HW2 1761   3.995   6.833   0.081
  288SOL     OW 1762   4.731   1.960   0.471
  288SOL    HW1 1763   4.793   1.956   0.394
  288SOL    HW2 1764   4.637   1.971   0.438
  289SOL     OW 1765   6.205   5.604   3.846
  289SOL    HW1 1766   6.189   5.587   3.944
  289SOL    HW2 1767   6.179   5.698   3.824
  290SOL     OW 1768   3.691   0.799   6.070
  290SOL    HW1 1769   3.704   0.821   5.974
  290SOL    HW2 1770   3.700   0.882   6.125
  291SOL     OW 1771   3.914   0.385   5.544
  291SOL    HW1 1772   3.975   0.341   5.479
  291SOL    HW2 1773   3.865   0.460   5.499
  292SOL     OW 1774   4.026   0.029   4.018
  292SOL    HW1 1775   4.006   7.003   3.933
  292SOL    HW2 1776   4.000   0.125   4.006
  293SOL     OW 1777   5.475   6.336   2.854
  293SOL    HW1 1778   5.500   6.432   2.842
  293SOL    HW2 1779   5.437   6.323   2.946
  294SOL     OW 1780   6.399   1.303   6.409
  294SOL    HW1 1781   6.406   1.216   6.361
  294SOL    HW2 1782   6.481   1.358   6.391
  295SOL     OW 1783   1.034   0.507   4.624
  295SOL    HW1 1784   1.061   0.481   4.532
  295SOL    HW2 1785   1.101   0.571   4.662
  296SOL     OW 1786   0.720   2.321   2.031
  296SOL    HW1 1787   0.667   2.238   2.014
  296SOL    HW2 1788   0.663   2.401   2.017
  297SOL     OW 1789   5.159   3.442   3.231
  297SOL    HW1 1790   5.212   3.476   3.309
  297SOL    HW2 1791   5.152   3.342   3.237
  298SOL     OW 1792   4.467   0.851   5.928
  298SOL    HW1 1793   4.462   0.789   6.006
  298SOL    HW2 1794   4.524   0.930   5.951
  299SOL     OW 1795   0.948   0.612   6.603
  299SOL    HW1 1796   0.916   0.587   6.511
  299SOL    HW2 1797   1.048   0.605   6.606
  300SOL     OW 1798   4.231   6.909   3.506
  300SOL    HW1 1799   4.244   6.814   3.533
  300SOL    HW2 1800   4.136   6.936   3.524
  301SOL     OW 1801   6.374   5.225   6.822
  301SOL    HW1 1802   6.447   5.293   6.823
  301SOL    HW2 1803   6.405   5.142   6.869
  302SOL     OW 1804   6.807   6.091   2.281
  302SOL    HW1 1805   6.812   6.052   2.189
  302SOL    HW2 1806   6.759   6.028   2.342
  303SOL     OW 1807   5.789   5.714   3.547
  303SOL    HW1 1808   5.757   5.633   3.596
  303SOL    HW2 1809   5.884   5.734   3.574
  304SOL     OW 1810   2.359   6.221   4.859
  304SOL    HW1 1811   2.344   6.128   4.824
  304SOL    HW2 1812   2.407   6.216   4.946
  305SOL     OW 1813   1.024   2.661   1.803
  305SOL    HW1 1814   0.976   2.716   1.872
  305SOL    HW2 1815   1.117   2.695   1.793
  306SOL     OW 1816   0.112   6.576   3.086
  306SOL    HW1 1817   0.190   6.586   3.148
  306SOL    HW2 1818   0.034   6.540   3.136
  307SOL     OW 1819   3.440   3.181   4.070
  307SOL    HW1 1820   3.536   3.159   4.053
  307SOL    HW2 1821   3.384   3.146   3.995
  308SOL     OW 1822   6.278   2.048   2.715
  308SOL    HW1 1823   6.259   2.017   2.809
  308SOL    HW2 1824   6.366   2.094   2.712
  309SOL     OW 1825   1.805   5.563   6.506
  309SOL    HW1 1826   1.785   5.661   6.512
  309SOL    HW2 1827   1.722   5.511   6.524
  310SOL     OW 1828   5.586   6.654   4.954
  310SOL    HW1 1829   5.579   6.563   4.994
  310SOL    HW2 1830   5.563   6.650   4.857
  311SOL     OW 1831   1.827   5.926   2.239
  311SOL    HW1 1832   1.868   6.013   2.215
  311SOL    HW2 1833   1.832   5.912   2.338
  312SOL     OW 1834   3.218   0.192   3.614
  312SOL    HW1 1835   3.285   0.205   3.687
  312SOL    HW2 1836   3.228   0.264   3.545
  313SOL     OW 1837   2.919   3.530   2.598
  313SOL    HW1 1838   2.895   3.490   2.510
  313SOL    HW2 1839   2.877   3.621   2.606
  314SOL     OW 1840   3.036   5.519   6.134
  314SOL    HW1 1841   2.967   5.569   6.186
  314SOL    HW2 1842   3.013   5.521   6.037
  315SOL     OW 1843   6.051   0.865   4.282
  315SOL    HW1 1844   6.071   0.926   4.359
  315SOL    HW2 1845   6.050   0.770   4.313
  316SOL     OW 1846   4.243   1.040   6.407
  316SOL    HW1 1847   4.341   1.047   6.389
  316SOL    HW2 1848   4.214   0.945   6.396
  317SOL     OW 1849   1.023   2.177   1.217
  317SOL    HW1 1850   0.945   2.174   1.155
  317SOL    HW2 1851   1.091   2.241   1.181
  318SOL     OW 1852   0.670   0.170   5.550
  318SOL    HW1 1853   0.578   0.192   5.584
  318SOL    HW2 1854   0.738   0.224   5.599
  319SOL     OW 1855   0.058   0.786   3.959
  319SOL    HW1 1856   0.033   0.882   3.944
  319SOL    HW2 1857   0.006   0.750   4.036
  320SOL     OW 1858   5.530   2.004   6.513
  320SOL    HW1 1859   5.439   1.973   6.542
  320SOL    HW2 1860   5.537   2.103   6.527
  321SOL     OW 1861   5.183   2.916   0.656
  321SOL    HW1 1862   5.151   2.833   0.703
  321SOL    HW2 1863   5.106   2.960   0.611
  322SOL     OW 1864   3.074   2.576   6.507
  322SOL    HW1 1865   3.143   2.631   6.554
  322SOL    HW2 1866   2.993   2.568   6.565
  323SOL     OW 1867   1.914   3.974   2.862
  323SOL    HW1 1868   1.895   4.057   2.915
  323SOL    HW2 1869   1.888   3.989   2.767
  324SOL     OW 1870   0.459   0.030   2.659
  324SOL    HW1 1871   0.374   7.008   2.633
  324SOL    HW2 1872   0.468   0.029   2.758
  325SOL     OW 1873   0.214   4.154   0.723
  325SOL    HW1 1874   0.240   4.245   0.755
  325SOL    HW2 1875   0.285   4.117   0.663
  326SOL     OW 1876   0.721   6.207   6.774
  326SOL    HW1 1877   0.732   6.114   6.740
  326SOL    HW2 1878   0.776   6.219   6.856
  327SOL     OW 1879   4.953   5.034   5.329
  327SOL    HW1 1880   4.864   5.024   5.285
  327SOL    HW2 1881   5.024   4.997   5.268
  328SOL     OW 1882   1.300   4.796   3.177
  328SOL    HW1 1883   1.220   4.771   3.231
  328SOL    HW2 1884   1.283   4.882   3.129
  329SOL     OW 1885   3.130   3.327   1.463
  329SOL    HW1 1886   3.099   3.272   1.541
  329SOL    HW2 1887   3.166   3.266   1.392
  330SOL     OW 1888   3.029   4.011   0.752
  330SOL    HW1 1889   3.030   4.077   0.677
  330SOL    HW2 1890   3.117   4.014   0.800
  331SOL     OW 1891   6.146   4.795   5.777
  331SOL    HW1 1892   6.149   4.713   5.721
  331SOL    HW2 1893   6.058   4.801   5.824
  332SOL     OW 1894   5.509   2.475   2.656
  332SOL    HW1 1895   5.552   2.563   2.678
  332SOL    HW2 1896   5.579   2.403   2.656
  333SOL     OW 1897   3.403   0.667   4.979
  333SOL    HW1 1898   3.311   0.692   4.950
  333SOL    HW2 1899   3.422   0.572   4.951
  334SOL     OW 1900   3.687   3.796   3.178
  334SOL    HW1 1901   3.736   3.807   3.265
  334SOL    HW2 1902   3.598   3.840   3.184
  335SOL     OW 1903   4.121   1.496   1.012
  335SOL    HW1 1904   4.216   1.513   0.987
  335SOL    HW2 1905   4.061   1.518   0.935
  336SOL     OW 1906   3.444   1.409   4.668
  336SOL    HW1 1907   3.508   1.380   4.597
  336SOL    HW2 1908   3.356   1.362   4.655
  337SOL     OW 1909   0.715   0.788   5.376
  337SOL    HW1 1910   0.762   0.822   5.456
  337SOL    HW2 1911   0.769   0.808   5.294
  338SOL     OW 1912   4.363   1.327   1.101
  338SOL    HW1 1913   4.396   1.407   1.050
  338SOL    HW2 1914   4.336   1.355   1.193
  339SOL     OW 1915   4.028   5.389   6.134
  339SOL    HW1 1916   4.043   5.477   6.179
  339SOL    HW2 1917   3.985   5.404   6.045
  340SOL     OW 1918   5.136   1.991   4.151
  340SOL    HW1 1919   5.164   1.953   4.062
  340SOL    HW2 1920   5.072   2.066   4.136
  341SOL     OW 1921   6.532   6.165   3.000
  341SOL    HW1 1922   6.549   6.077   2.956
  341SOL    HW2 1923   6.524   6.236   2.930
  342SOL     OW 1924   4.930   1.890   2.561
  342SOL    HW1 1925   4.875   1.961   2.605
  342SOL    HW2 1926   4.875   1.845   2.490
  343SOL     OW 1927   6.757   6.770   2.193
  343SOL    HW1 1928   6.832   6.705   2.204
  343SOL    HW2 1929   6.719   6.761   2.100
  344SOL     OW 1930   0.418   2.098   1.242
  344SOL    HW1 1931   0.370   2.171   1.291
  344SOL    HW2 1932   0.505   2.078   1.287
  345SOL     OW 1933   6.731   2.574   4.189
  345SOL    HW1 1934   6.660   2.505   4.185
  345SOL    HW2 1935   6.700   2.651   4.245
  346SOL     OW 1936   2.426   6.514   3.810
  346SOL    HW1 1937   2.412   6.473   3.900
  346SOL    HW2 1938   2.362   6.590   3.797
  347SOL     OW 1939   2.426   4.597   0.466
  347SOL    HW1 1940   2.331   4.564   0.467
  347SOL    HW2 1941   2.457   4.603   0.371
  348SOL     OW 1942   4.534   5.187   1.477
  348SOL    HW1 1943   4.501   5.281   1.478
  348SOL    HW2 1944   4.623   5.183   1.431
  349SOL     OW 1945   5.946   3.882   1.059
  349SOL    HW1 1946   6.036   3.922   1.039
  349SOL    HW2 1947   5.900   3.859   0.974
  350SOL     OW 1948   3.565   2.705   0.149
  350SOL    HW1 1949   3.490   2.655   0.105
  350SOL    HW2 1950   3.608   2.766   0.082
  351SOL     OW 1951   3.371   4.726   1.112
  351SOL    HW1 1952   3.469   4.725   1.132
  351SOL    HW2 1953   3.339   4.633   1.098
  352SOL     OW 1954   4.614   0.209   2.638
  352SOL    HW1 1955   4.579   0.300   2.615
  352SOL    HW2 1956   4.714   0.211   2.640
  353SOL     OW 1957   1.607   0.496   6.662
  353SOL    HW1 1958   1.519   0.540   6.680
  353SOL    HW2 1959   1.681   0.554   6.694
  354SOL     OW 1960   0.118   2.331   0.417
  354SOL    HW1 1961   0.188   2.314   0.486
  354SOL    HW2 1962   0.086   2.425   0.424
  355SOL     OW 1963   0.794   2.341   2.904
  355SOL    HW1 1964   0.706   2.388   2.902
  355SOL    HW2 1965   0.808   2.300   2.994
  356SOL     OW 1966   1.821   0.981   5.731
  356SOL    HW1 1967   1.811   0.925   5.648
  356SOL    HW2 1968   1.856   0.924   5.805
  357SOL     OW 1969   5.142   0.177   4.959
  357SOL    HW1 1970   5.183   0.200   5.047
  357SOL    HW2 1971   5.043   0.166   4.969
  358SOL     OW 1972   3.450   6.144   6.643
  358SOL    HW1 1973   3.418   6.109   6.555
  358SOL    HW2 1974   3.371   6.162   6.703
  359SOL     OW 1975   1.448   2.075   2.536
  359SOL    HW1 1976   1.420   1.985   2.502
  359SOL    HW2 1977   1.393   2.146   2.492
  360SOL     OW 1978   0.919   4.720   4.272
  360SOL    HW1 1979   0.870   4.807   4.275
  360SOL    HW2 1980   1.005   4.733   4.223
  361SOL     OW 1981   6.727   1.865   2.354
  361SOL    HW1 1982   6.698   1.780   2.310
  361SOL    HW2 1983   6.756   1.846   2.448
  362SOL     OW 1984   3.733   3.753   0.741
  362SOL    HW1 1985   3.823   3.726   0.772
  362SOL    HW2 1986   3.667   3.742   0.815
  363SOL     OW 1987   5.244   5.336   1.645
  363SOL    HW1 1988   5.251   5.337   1.745
  363SOL    HW2 1989   5.242   5.429   1.610
  364SOL     OW 1990   1.066   6.816   6.450
  364SOL    HW1 1991   0.968   6.827   6.436
  364SOL    HW2 1992   1.098   6.881   6.519
  365SOL     OW 1993   5.108   1.786   3.463
  365SOL    HW1 1994   5.068   1.695   3.449
  365SOL    HW2 1995   5.061   1.833   3.537
  366SOL     OW 1996   5.688   1.628   6.515
  366SOL    HW1 1997   5.726   1.595   6.602
  366SOL    HW2 1998   5.588   1.630   6.521
  367SOL     OW 1999   5.726   1.444   6.307
  367SOL    HW1 2000   5.658   1.490   6.249
  367SOL    HW2 2001   5.703   1.459   6.403
  368SOL     OW 2002   0.023   2.499   5.545
  368SOL    HW1 2003   0.050   2.539   5.633
  368SOL    HW2 2004   0.057   2.405   5.540
  369SOL     OW 2005   6.762   3.691   1.768
  369SOL    HW1 2006   6.707   3.771   1.792
  369SOL    HW2 2007   6.714   3.608   1.797
  370SOL     OW 2008   1.417   3.174   3.906
  370SOL    HW1 2009   1.430   3.077   3.929
  370SOL    HW2 2010   1.329   3.187   3.863
  371SOL     OW 2011   0.820   4.691   6.734
  371SOL    HW1 2012   0.821   4.690   6.834
  371SOL    HW2 2013   0.732   4.726   6.702
  372SOL     OW 2014   3.897   6.098   6.450
  372SOL    HW1 2015   3.824   6.072   6.387
  372SOL    HW2 2016   3.857   6.132   6.535
  373SOL     OW 2017   5.807   5.164   3.530
  373SOL    HW1 2018   5.715   5.197   3.507
  373SOL    HW2 2019   5.824   5.178   3.627
  374SOL     OW 2020   2.609   1.053   2.960
  374SOL    HW1 2021   2.677   1.069   2.890
  374SOL    HW2 2022   2.654   1.030   3.046
  375SOL     OW 2023   1.043   5.260   4.338
  375SOL    HW1 2024   1.054   5.359   4.348
  375SOL    HW2 2025   0.962   5.230   4.389
  376SOL     OW 2026   2.945   0.948   3.683
  376SOL    HW1 2027   2.941   1.043   3.714
  376SOL    HW2 2028   2.975   0.890   3.759
  377SOL     OW 2029   1.383   1.970   0.267
  377SOL    HW1 2030   1.459   1.984   0.204
  377SOL    HW2 2031   1.298   1.955   0.215
  378SOL     OW 2032   4.051   1.442   1.903
  378SOL    HW1 2033   4.119   1.375   1.933
  378SOL    HW2 2034   3.962   1.420   1.944
  379SOL     OW 2035   5.191   1.800   6.083
  379SOL    HW1 2036   5.209   1.704   6.063
  379SOL    HW2 2037   5.175   1.811   6.181
  380SOL     OW 2038   4.403   2.494   0.239
  380SOL    HW1 2039   4.469   2.458   0.172
  380SOL    HW2 2040   4.448   2.558   0.300
  381SOL     OW 2041   1.867   3.988   3.210
  381SOL    HW1 2042   1.871   3.914   3.143
  381SOL    HW2 2043   1.926   3.967   3.288
  382SOL     OW 2044   4.570   0.872   6.688
  382SOL    HW1 2045   4.653   0.816   6.697
  382SOL    HW2 2046   4.498   0.818   6.644
  383SOL     OW 2047   5.135   1.949   0.547
  383SOL    HW1 2048   5.154   2.046   0.533
  383SOL    HW2 2049   5.190   1.894   0.484
  384SOL     OW 2050   6.406   3.724   4.587
  384SOL    HW1 2051   6.413   3.791   4.514
  384SOL    HW2 2052   6.404   3.770   4.675
  385SOL     OW 2053   4.108   2.962   6.817
  385SOL    HW1 2054   4.165   3.044   6.821
  385SOL    HW2 2055   4.018   2.986   6.779
  386SOL     OW 2056   3.866   6.153   4.067
  386SOL    HW1 2057   3.776   6.138   4.026
  386SOL    HW2 2058   3.884   6.081   4.134
  387SOL     OW 2059   3.227   6.771   3.681
  387SOL    HW1 2060   3.216   6.704   3.754
  387SOL    HW2 2061   3.294   6.738   3.614
  388SOL     OW 2062   1.758   4.629   0.014
  388SOL    HW1 2063   1.671   4.585   7.017
  388SOL    HW2 2064   1.743   4.699   0.084
  389SOL     OW 2065   3.185   3.216   2.721
  389SOL    HW1 2066   3.087   3.217   2.743
  389SOL    HW2 2067   3.210   3.125   2.687
  390SOL     OW 2068   2.412   1.265   4.175
  390SOL    HW1 2069   2.391   1.313   4.090
  390SOL    HW2 2070   2.457   1.327   4.239
  391SOL     OW 2071   0.833   2.562   6.513
  391SOL    HW1 2072   0.916   2.510   6.496
  391SOL    HW2 2073   0.754   2.510   6.482
  392SOL     OW 2074   2.983   5.745   3.191
  392SOL    HW1 2075   2.926   5.670   3.227
  392SOL    HW2 2076   3.072   5.742   3.234
  393SOL     OW 2077   6.129   4.433   5.105
  393SOL    HW1 2078   6.131   4.366   5.179
  393SOL    HW2 2079   6.149   4.524   5.142
  394SOL     OW 2080   2.570   0.122   6.772
  394SOL    HW1 2081   2.503   0.061   6.814
  394SOL    HW2 2082   2.604   0.081   6.687
  395SOL     OW 2083   6.565   3.234   0.747
  395SOL    HW1 2084   6.626   3.283   0.685
  395SOL    HW2 2085   6.551   3.288   0.830
  396SOL     OW 2086   2.969   3.281   4.746
  396SOL    HW1 2087   2.874   3.248   4.745
  396SOL    HW2 2088   3.031   3.203   4.744
  397SOL     OW 2089   4.445   2.322   6.478
  397SOL    HW1 2090   4.360   2.356   6.439
  397SOL    HW2 2091   4.433   2.228   6.508
  398SOL     OW 2092   1.429   5.077   2.030
  398SOL    HW1 2093   1.505   5.107   1.972
  398SOL    HW2 2094   1.456   5.085   2.126
  399SOL     OW 2095   5.354   5.171   2.092
  399SOL    HW1 2096   5.319   5.095   2.147
  399SOL    HW2 2097   5.297   5.252   2.106
  400SOL     OW 2098   1.441   5.640   5.409
  400SOL    HW1 2099   1.532   5.667   5.380
  400SOL    HW2 2100   1.444   5.547   5.447
  401SOL     OW 2101   5.434   1.301   6.478
  401SOL    HW1 2102   5.532   1.306   6.497
  401SOL    HW2 2103   5.419   1.249   6.395
  402SOL     OW 2104   5.924   5.059   1.174
  402SOL    HW1 2105   5.989   4.984   1.163
  402SOL    HW2 2106   5.961   5.142   1.132
  403SOL     OW 2107   5.581   3.528   6.657
  403SOL    HW1 2108   5.545   3.440   6.624
  403SOL    HW2 2109   5.589   3.525   6.756
  404SOL     OW 2110   0.331   6.914   4.788
  404SOL    HW1 2111   0.264   6.892   4.859
  404SOL    HW2 2112   0.423   6.889   4.821
  405SOL     OW 2113   0.725   2.402   0.598
  405SOL    HW1 2114   0.746   2.423   0.503
  405SOL    HW2 2115   0.794   2.443   0.658
  406SOL     OW 2116   1.660   3.084   3.679
  406SOL    HW1 2117   1.705   3.132   3.604
  406SOL    HW2 2118   1.563   3.108   3.681
  407SOL     OW 2119   2.802   0.638   4.371
  407SOL    HW1 2120   2.798   0.581   4.289
  407SOL    HW2 2121   2.727   0.614   4.433
  408SOL     OW 2122   1.455   0.258   3.028
  408SOL    HW1 2123   1.459   0.174   2.975
  408SOL    HW2 2124   1.422   0.238   3.121
  409SOL     OW 2125   6.218   3.520   3.728
  409SOL    HW1 2126   6.149   3.580   3.686
  409SOL    HW2 2127   6.276   3.482   3.656
  410SOL     OW 2128   2.763   1.582   6.559
  410SOL    HW1 2129   2.807   1.582   6.470
  410SOL    HW2 2130   2.779   1.670   6.604
  411SOL     OW 2131   6.622   4.133   5.057
  411SOL    HW1 2132   6.666   4.214   5.016
  411SOL    HW2 2133   6.523   4.148   5.060
  412SOL     OW 2134   3.530   0.330   2.270
  412SOL    HW1 2135   3.562   0.334   2.364
  412SOL    HW2 2136   3.438   0.290   2.268
  413SOL     OW 2137   2.621   0.037   1.006
  413SOL    HW1 2138   2.540   0.000   0.959
  413SOL    HW2 2139   2.673   0.095   0.943
  414SOL     OW 2140   3.968   3.866   0.491
  414SOL    HW1 2141   4.043   3.907   0.439
  414SOL    HW2 2142   4.001   3.790   0.546
  415SOL     OW 2143   2.908   6.593   2.020
  415SOL    HW1 2144   2.848   6.600   1.941
  415SOL    HW2 2145   2.994   6.642   2.001
  416SOL     OW 2146   3.622   5.744   5.145
  416SOL    HW1 2147   3.670   5.685   5.080
  416SOL    HW2 2148   3.640   5.713   5.239
  417SOL     OW 2149   4.908   5.772   1.187
  417SOL    HW1 2150   5.007   5.780   1.196
  417SOL    HW2 2151   4.865   5.789   1.275
  418SOL     OW 2152   5.474   4.840   0.834
  418SOL    HW1 2153   5.555   4.894   0.857
  418SOL    HW2 2154   5.497   4.743   0.835
  419SOL     OW 2155   5.772   6.648   1.355
  419SOL    HW1 2156   5.822   6.581   1.410
  419SOL    HW2 2157   5.696   6.684   1.408
  420SOL     OW 2158   4.161   4.376   0.099
  420SOL    HW1 2159   4.153   4.308   0.026
  420SOL    HW2 2160   4.078   4.433   0.100
  421SOL     OW 2161   1.776   6.227   6.551
  421SOL    HW1 2162   1.717   6.189   6.623
  421SOL    HW2 2163   1.814   6.153   6.496
  422SOL     OW 2164   5.838   3.367   6.852
  422SOL    HW1 2165   5.886   3.455   6.855
  422SOL    HW2 2166   5.892   3.302   6.799
  423SOL     OW 2167   0.505   2.618   6.758
  423SOL    HW1 2168   0.451   2.674   6.820
  423SOL    HW2 2169   0.460   2.531   6.742
  424SOL     OW 2170   2.057   3.376   0.155
  424SOL    HW1 2171   1.980   3.438   0.142
  424SOL    HW2 2172   2.141   3.429   0.168
  425SOL     OW 2173   2.718   1.384   0.644
  425SOL    HW1 2174   2.685   1.347   0.557
  425SOL    HW2 2175   2.727   1.310   0.711
  426SOL     OW 2176   5.707   4.159   5.514
  426SOL    HW1 2177   5.722   4.060   5.517
  426SOL    HW2 2178   5.788   4.204   5.474
  427SOL     OW 2179   5.217   3.950   0.920
  427SOL    HW1 2180   5.154   3.873   0.923
  427SOL    HW2 2181   5.291   3.936   0.986
  428SOL     OW 2182   3.971   0.807   4.842
  428SOL    HW1 2183   4.065   0.841   4.837
  428SOL    HW2 2184   3.908   0.883   4.856
  429SOL     OW 2185   1.798   5.139   6.376
  429SOL    HW1 2186   1.889   5.157   6.415
  429SOL    HW2 2187   1.778   5.206   6.305
  430SOL     OW 2188   1.403   0.219   5.261
  430SOL    HW1 2189   1.308   0.207   5.291
  430SOL    HW2 2190   1.405   0.234   5.162
  431SOL     OW 2191   3.409   1.853   0.535
  431SOL    HW1 2192   3.473   1.928   0.554
  431SOL    HW2 2193   3.421   1.781   0.603
  432SOL     OW 2194   0.273   1.898   1.399
  432SOL    HW1 2195   0.300   1.806   1.427
  432SOL    HW2 2196   0.328   1.927   1.321
  433SOL     OW 2197   3.683   6.224   5.506
  433SOL    HW1 2198   3.753   6.287   5.541
  433SOL    HW2 2199   3.655   6.254   5.414
  434SOL     OW 2200   0.285   3.498   1.276
  434SOL    HW1 2201   0.352   3.540   1.337
  434SOL    HW2 2202   0.268   3.559   1.198
  435SOL     OW 2203   3.460   4.252   0.359
  435SOL    HW1 2204   3.428   4.282   0.269
  435SOL    HW2 2205   3.453   4.153   0.366
  436SOL     OW 2206   2.143   1.161   0.031
  436SOL    HW1 2207   2.088   1.233   7.013
  436SOL    HW2 2208   2.218   1.136   6.995
  437SOL     OW 2209   0.096   6.898   6.776
  437SOL    HW1 2210   0.085   6.823   6.841
  437SOL    HW2 2211   0.024   6.893   6.707
  438SOL     OW 2212   1.259   2.832   1.762
  438SOL    HW1 2213   1.341   2.780   1.738
  438SOL    HW2 2214   1.246   2.905   1.695
  439SOL     OW 2215   6.683   5.106   3.147
  439SOL    HW1 2216   6.709   5.033   3.211
  439SOL    HW2 2217   6.639   5.180   3.198
  440SOL     OW 2218   0.913   2.760   4.029
  440SOL    HW1 2219   0.902   2.737   3.932
  440SOL    HW2 2220   0.874   2.850   4.046
  441SOL     OW 2221   0.369   1.229   3.698
  441SOL    HW1 2222   0.382   1.223   3.797
  441SOL    HW2 2223   0.439   1.288   3.658
  442SOL     OW 2224   0.101   4.263   0.114
  442SOL    HW1 2225   0.014   4.220   0.139
  442SOL    HW2 2226   0.172   4.237   0.179
  443SOL     OW 2227   0.371   4.537   5.616
  443SOL    HW1 2228   0.401   4.603   5.546
  443SOL    HW2 2229   0.449   4.480   5.643
  444SOL     OW 2230   4.220   3.306   6.242
  444SOL    HW1 2231   4.250   3.219   6.201
  444SOL    HW2 2232   4.123   3.320   6.222
  445SOL     OW 2233   2.300   4.753   3.120
  445SOL    HW1 2234   2.214   4.703   3.110
  445SOL    HW2 2235   2.293   4.842   3.075
  446SOL     OW 2236   4.770   4.822   3.595
  446SOL    HW1 2237   4.830   4.758   3.546
  446SOL    HW2 2238   4.697   4.771   3.640
  447SOL     OW 2239   6.436   5.785   0.948
  447SOL    HW1 2240   6.402   5.875   0.975
  447SOL    HW2 2241   6.532   5.776   0.974
  448SOL     OW 2242   4.415   0.334   5.021
  448SOL    HW1 2243   4.427   0.344   5.119
  448SOL    HW2 2244   4.341   0.270   5.002
  449SOL     OW 2245   5.257   0.131   4.678
  449SOL    HW1 2246   5.193   0.141   4.755
  449SOL    HW2 2247   5.334   0.192   4.691
  450SOL     OW 2248   6.717   6.242   3.763
  450SOL    HW1 2249   6.737   6.325   3.815
  450SOL    HW2 2250   6.756   6.250   3.671
  451SOL     OW 2251   0.655   2.675   3.066
  451SOL    HW1 2252   0.631   2.583   3.033
  451SOL    HW2 2253   0.638   2.742   2.994
  452SOL     OW 2254   0.001   4.837   6.486
  452SOL    HW1 2255   6.961   4.896   6.439
  452SOL    HW2 2256   0.045   4.888   6.560
  453SOL     OW 2257   2.488   1.231   6.146
  453SOL    HW1 2258   2.403   1.253   6.194
  453SOL    HW2 2259   2.553   1.190   6.210
  454SOL     OW 2260   0.912   5.958   6.933
  454SOL    HW1 2261   0.841   5.887   6.936
  454SOL    HW2 2262   0.965   5.949   6.849
  455SOL     OW 2263   5.318   0.842   5.900
  455SOL    HW1 2264   5.228   0.808   5.873
  455SOL    HW2 2265   5.341   0.923   5.846
  456SOL     OW 2266   4.350   5.863   5.986
  456SOL    HW1 2267   4.279   5.813   6.037
  456SOL    HW2 2268   4.439   5.822   6.006
  457SOL     OW 2269   2.099   4.892   2.768
  457SOL    HW1 2270   2.086   4.986   2.738
  457SOL    HW2 2271   2.154   4.843   2.701
  458SOL     OW 2272   6.344   5.472   6.083
  458SOL    HW1 2273   6.323   5.436   6.174
  458SOL    HW2 2274   6.327   5.571   6.082
  459SOL     OW 2275   1.708   0.371   2.905
  459SOL    HW1 2276   1.705   0.412   2.996
  459SOL    HW2 2277   1.685   0.274   2.912
  460SOL     OW 2278   6.310   2.108   2.989
  460SOL    HW1 2279   6.356   2.042   3.049
  460SOL    HW2 2280   6.377   2.152   2.929
  461SOL     OW 2281   4.500   5.979   5.365
  461SOL    HW1 2282   4.564   5.991   5.441
  461SOL    HW2 2283   4.407   5.978   5.400
  462SOL     OW 2284   2.891   3.109   6.648
  462SOL    HW1 2285   2.906   3.202   6.615
  462SOL    HW2 2286   2.960   3.048   6.608
  463SOL     OW 2287   6.669   5.111   2.115
  463SOL    HW1 2288   6.634   5.203   2.133
  463SOL    HW2 2289   6.619   5.045   2.171
  464SOL     OW 2290   2.199   1.530   5.599
  464SOL    HW1 2291   2.143   1.613   5.600
  464SOL    HW2 2292   2.203   1.494   5.505
  465SOL     OW 2293   6.580   2.362   4.176
  465SOL    HW1 2294   6.508   2.385   4.109
  465SOL    HW2 2295   6.658   2.323   4.128
  466SOL     OW 2296   1.305   6.990   3.767
  466SOL    HW1 2297   1.312   0.040   3.832
  466SOL    HW2 2298   1.214   6.989   3.727
  467SOL     OW 2299   1.424   0.761   5.417
  467SOL    HW1 2300   1.467   0.675   5.446
  467SOL    HW2 2301   1.333   0.767   5.457
  468SOL     OW 2302   3.683   4.792   1.054
  468SOL    HW1 2303   3.677   4.808   1.153
  468SOL    HW2 2304   3.735   4.709   1.036
  469SOL     OW 2305   2.035   5.525   6.770
  469SOL    HW1 2306   2.044   5.492   6.676
  469SOL    HW2 2307   2.005   5.450   6.829
  470SOL     OW 2308   3.864   0.508   2.863
  470SOL    HW1 2309   3.834   0.431   2.806
  470SOL    HW2 2310   3.915   0.473   2.942
  471SOL     OW 2311   2.161   2.459   4.716
  471SOL    HW1 2312   2.243   2.431   4.766
  471SOL    HW2 2313   2.167   2.556   4.692
  472SOL     OW 2314   4.047   4.589   5.802
  472SOL    HW1 2315   3.982   4.652   5.760
  472SOL    HW2 2316   4.140   4.619   5.783
  473SOL     OW 2317   1.584   3.486   2.732
  473SOL    HW1 2318   1.502   3.540   2.713
  473SOL    HW2 2319   1.619   3.509   2.822
  474SOL     OW 2320   4.415   5.076   4.490
  474SOL    HW1 2321   4.451   5.165   4.464
  474SOL    HW2 2322   4.320   5.086   4.521
  475SOL     OW 2323   0.182   6.618   6.293
  475SOL    HW1 2324   0.106   6.560   6.321
  475SOL    HW2 2325   0.163   6.713   6.319
  476SOL     OW 2326   6.777   4.383   2.252
  476SOL    HW1 2327   6.816   4.405   2.341
  476SOL    HW2 2328   6.822   4.302   2.215
  477SOL     OW 2329   2.021   5.247   3.870
  477SOL    HW1 2330   2.067   5.245   3.781
  477SOL    HW2 2331   2.017   5.154   3.907
  478SOL     OW 2332   2.968   5.073   3.165
  478SOL    HW1 2333   2.903   5.080   3.089
  478SOL    HW2 2334   2.926   5.021   3.239
  479SOL     OW 2335   3.830   2.622   0.615
  479SOL    HW1 2336   3.856   2.684   0.541
  479SOL    HW2 2337   3.881   2.536   0.607
  480SOL     OW 2338   0.967   6.869   2.739
  480SOL    HW1 2339   1.048   6.862   2.796
  480SOL    HW2 2340   0.966   6.795   2.672
  481SOL     OW 2341   4.110   0.170   1.400
  481SOL    HW1 2342   4.137   0.183   1.304
  481SOL    HW2 2343   4.034   0.105   1.404
  482SOL     OW 2344   5.542   4.451   2.168
  482SOL    HW1 2345   5.523   4.548   2.185
  482SOL    HW2 2346   5.468   4.395   2.204
  483SOL     OW 2347   5.902   1.976   1.800
  483SOL    HW1 2348   5.860   1.927   1.723
  483SOL    HW2 2349   5.941   2.062   1.767
  484SOL     OW 2350   0.226   2.267   4.180
  484SOL    HW1 2351   0.139   2.216   4.179
  484SOL    HW2 2352   0.298   2.211   4.140
  485SOL     OW 2353   3.750   4.897   2.225
  485SOL    HW1 2354   3.696   4.869   2.145
  485SOL    HW2 2355   3.696   4.961   2.280
  486SOL     OW 2356   0.334   0.086   0.758
  486SOL    HW1 2357   0.370   7.019   0.745
  486SOL    HW2 2358   0.239   0.081   0.788
  487SOL     OW 2359   0.110   2.276   6.848
  487SOL    HW1 2360   0.095   2.374   6.840
  487SOL    HW2 2361   0.046   2.227   6.789
  488SOL     OW 2362   0.256   2.754   2.142
  488SOL    HW1 2363   0.207   2.678   2.186
  488SOL    HW2 2364   0.329   2.785   2.203
  489SOL     OW 2365   3.238   5.943   6.564
  489SOL    HW1 2366   3.262   5.900   6.651
  489SOL    HW2 2367   3.139   5.936   6.550
  490SOL     OW 2368   5.724   6.669   4.553
  490SOL    HW1 2369   5.779   6.735   4.604
  490SOL    HW2 2370   5.657   6.626   4.614
  491SOL     OW 2371   0.884   2.799   2.913
  491SOL    HW1 2372   0.868   2.793   3.012
  491SOL    HW2 2373   0.934   2.718   2.882
  492SOL     OW 2374   2.120   0.555   5.900
  492SOL    HW1 2375   2.063   0.590   5.825
  492SOL    HW2 2376   2.065   0.548   5.983
  493SOL     OW 2377   6.704   4.499   5.250
  493SOL    HW1 2378   6.674   4.429   5.315
  493SOL    HW2 2379   6.712   4.458   5.159
  494SOL     OW 2380   0.050   0.121   0.801
  494SOL    HW1 2381   6.997   0.182   0.818
  494SOL    HW2 2382   0.020   0.044   0.745
  495SOL     OW 2383   4.956   4.432   1.573
  495SOL    HW1 2384   4.860   4.429   1.544
  495SOL    HW2 2385   5.008   4.489   1.510
  496SOL     OW 2386   6.203   3.210   2.786
  496SOL    HW1 2387   6.227   3.115   2.803
  496SOL    HW2 2388   6.185   3.223   2.688
  497SOL     OW 2389   3.838   0.586   4.787
  497SOL    HW1 2390   3.908   0.518   4.808
  497SOL    HW2 2391   3.876   0.677   4.799
  498SOL     OW 2392   0.966   2.992   2.705
  498SOL    HW1 2393   1.049   3.017   2.754
  498SOL    HW2 2394   0.910   2.931   2.762
  499SOL     OW 2395   3.516   1.186   5.150
  499SOL    HW1 2396   3.487   1.091   5.161
  499SOL    HW2 2397   3.565   1.196   5.064
  500SOL     OW 2398   0.960   3.978   2.670
  500SOL    HW1 2399   1.002   4.056   2.717
  500SOL    HW2 2400   0.916   3.919   2.738
  501SOL     OW 2401   1.406   3.197   6.708
  501SOL    HW1 2402   1.421   3.281   6.760
  501SOL    HW2 2403   1.440   3.209   6.615
  502SOL     OW 2404   3.930   5.217   0.088
  502SOL    HW1 2405   3.959   5.313   0.088
  502SOL    HW2 2406   3.953   5.176   7.025
  503SOL     OW 2407   5.728   4.794   5.712
  503SOL    HW1 2408   5.749   4.722   5.645
  503SOL    HW2 2409   5.787   4.783   5.792
  504SOL     OW 2410   2.226   6.138   4.428
  504SOL    HW1 2411   2.148   6.168   4.373
  504SOL    HW2 2412   2.193   6.103   4.516
  505SOL     OW 2413   4.241   0.252   6.072
  505SOL    HW1 2414   4.263   0.278   5.978
  505SOL    HW2 2415   4.308   0.291   6.134
  506SOL     OW 2416   2.254   4.173   6.109
  506SOL    HW1 2417   2.224   4.160   6.014
  506SOL    HW2 2418   2.212   4.255   6.147
  507SOL     OW 2419   3.553   0.988   4.457
  507SOL    HW1 2420   3.563   0.966   4.554
  507SOL    HW2 2421   3.458   0.972   4.429
  508SOL     OW 2422   6.791   3.699   3.437
  508SOL    HW1 2423   6.725   3.768   3.408
  508SOL    HW2 2424   6.770   3.671   3.531
  509SOL     OW 2425   4.333   1.707   1.798
  509SOL    HW1 2426   4.365   1.786   1.746
  509SOL    HW2 2427   4.239   1.722   1.829
  510SOL     OW 2428   6.849   4.134   4.553
  510SOL    HW1 2429   6.934   4.105   4.597
  510SOL    HW2 2430   6.774   4.075   4.582
  511SOL     OW 2431   0.593   6.910   0.248
  511SOL    HW1 2432   0.602   6.947   0.341
  511SOL    HW2 2433   0.636   6.973   0.183
  512SOL     OW 2434   1.008   3.661   6.228
  512SOL    HW1 2435   1.019   3.750   6.271
  512SOL    HW2 2436   0.944   3.606   6.281
  513SOL     OW 2437   6.071   6.189   4.735
  513SOL    HW1 2438   6.087   6.174   4.637
  513SOL    HW2 2439   5.974   6.175   4.755
  514SOL     OW 2440   5.896   1.654   3.736
  514SOL    HW1 2441   5.992   1.649   3.707
  514SOL    HW2 2442   5.837   1.639   3.657
  515SOL     OW 2443   2.033   6.310   6.564
  515SOL    HW1 2444   2.049   6.367   6.483
  515SOL    HW2 2445   1.946   6.262   6.554
  516SOL     OW 2446   2.294   5.218   1.986
  516SOL    HW1 2447   2.235   5.156   1.934
  516SOL    HW2 2448   2.375   5.168   2.016
  517SOL     OW 2449   4.593   6.817   0.489
  517SOL    HW1 2450   4.576   6.718   0.493
  517SOL    HW2 2451   4.541   6.862   0.562
  518SOL     OW 2452   2.819   2.303   1.382
  518SOL    HW1 2453   2.890   2.315   1.312
  518SOL    HW2 2454   2.732   2.337   1.346
  519SOL     OW 2455   0.767   6.743   6.777
  519SOL    HW1 2456   0.774   6.707   6.684
  519SOL    HW2 2457   0.718   6.677   6.834
  520SOL     OW 2458   5.424   4.519   5.638
  520SOL    HW1 2459   5.446   4.616   5.625
  520SOL    HW2 2460   5.475   4.464   5.572
  521SOL     OW 2461   6.895   1.726   0.349
  521SOL    HW1 2462   6.802   1.705   0.380
  521SOL    HW2 2463   6.946   1.769   0.423
  522SOL     OW 2464   3.817   3.648   4.236
  522SOL    HW1 2465   3.769   3.719   4.186
  522SOL    HW2 2466   3.752   3.595   4.290
  523SOL     OW 2467   6.908   6.785   4.655
  523SOL    HW1 2468   6.881   6.690   4.640
  523SOL    HW2 2469   6.852   6.824   4.729
  524SOL     OW 2470   2.603   0.713   5.652
  524SOL    HW1 2471   2.561   0.795   5.690
  524SOL    HW2 2472   2.654   0.665   5.724
  525SOL     OW 2473   2.660   3.494   0.089
  525SOL    HW1 2474   2.755   3.464   0.078
  525SOL    HW2 2475   2.623   3.523   0.001
  526SOL     OW 2476   3.486   5.502   4.905
  526SOL    HW1 2477   3.498   5.414   4.859
  526SOL    HW2 2478   3.572   5.530   4.947
  527SOL     OW 2479   0.575   1.237   6.526
  527SOL    HW1 2480   0.653   1.280   6.480
  527SOL    HW2 2481   0.595   1.228   6.624
  528SOL     OW 2482   2.522   1.191   5.417
  528SOL    HW1 2483   2.444   1.192   5.479
  528SOL    HW2 2484   2.521   1.108   5.362
  529SOL     OW 2485   0.476   5.370   4.322
  529SOL    HW1 2486   0.507   5.283   4.284
  529SOL    HW2 2487   0.522   5.387   4.409
  530SOL     OW 2488   2.169   3.004   5.297
  530SOL    HW1 2489   2.168   3.103   5.284
  530SOL    HW2 2490   2.263   2.970   5.286
  531SOL     OW 2491   0.628   0.148   1.257
  531SOL    HW1 2492   0.545   0.122   1.306
  531SOL    HW2 2493   0.623   0.112   1.164
  532SOL     OW 2494   1.366   1.234   5.785
  532SOL    HW1 2495   1.442   1.185   5.744
  532SOL    HW2 2496   1.301   1.261   5.714
  533SOL     OW 2497   5.822   0.264   4.305
  533SOL    HW1 2498   5.741   0.255   4.364
  533SOL    HW2 2499   5.900   0.293   4.360
  534SOL     OW 2500   4.533   5.212   2.397
  534SOL    HW1 2501   4.451   5.219   2.454
  534SOL    HW2 2502   4.543   5.295   2.343
  535SOL     OW 2503   0.385   3.765   3.368
  535SOL    HW1 2504   0.323   3.704   3.318
  535SOL    HW2 2505   0.332   3.832   3.419
  536SOL     OW 2506   1.669   5.455   0.989
  536SOL    HW1 2507   1.718   5.518   1.049
  536SOL    HW2 2508   1.602   5.505   0.935
  537SOL     OW 2509   2.125   6.998   2.308
  537SOL    HW1 2510   2.151   0.058   2.261
  537SOL    HW2 2511   2.207   6.948   2.334
  538SOL     OW 2512   0.629   6.053   3.689
  538SOL    HW1 2513   0.684   6.090   3.614
  538SOL    HW2 2514   0.541   6.022   3.653
  539SOL     OW 2515   1.708   4.954   1.506
  539SOL    HW1 2516   1.649   4.921   1.580
  539SOL    HW2 2517   1.796   4.982   1.543
  540SOL     OW 2518   1.337   2.292   2.400
  540SOL    HW1 2519   1.312   2.334   2.313
  540SOL    HW2 2520   1.334   2.361   2.473
  541SOL     OW 2521   2.717   5.768   5.724
  541SOL    HW1 2522   2.709   5.787   5.626
  541SOL    HW2 2523   2.793   5.821   5.762
  542SOL     OW 2524   5.916   5.491   6.694
  542SOL    HW1 2525   5.872   5.581   6.690
  542SOL    HW2 2526   5.846   5.420   6.701
  543SOL     OW 2527   0.554   5.414   6.901
  543SOL    HW1 2528   0.476   5.384   6.956
  543SOL    HW2 2529   0.524   5.430   6.807
  544SOL     OW 2530   1.321   5.053   0.608
  544SOL    HW1 2531   1.232   5.046   0.654
  544SOL    HW2 2532   1.394   5.047   0.676
  545SOL     OW 2533   3.864   1.325   2.640
  545SOL    HW1 2534   3.832   1.375   2.720
  545SOL    HW2 2535   3.864   1.227   2.659
  546SOL     OW 2536   1.197   3.812   0.232
  546SOL    HW1 2537   1.224   3.818   0.136
  546SOL    HW2 2538   1.261   3.867   0.287
  547SOL     OW 2539   3.093   3.204   0.275
  547SOL    HW1 2540   3.027   3.268   0.315
  547SOL    HW2 2541   3.166   3.255   0.230
  548SOL     OW 2542   3.589   2.921   4.170
  548SOL    HW1 2543   3.490   2.928   4.184
  548SOL    HW2 2544   3.610   2.938   4.074
  549SOL     OW 2545   5.882   3.736   1.645
  549SOL    HW1 2546   5.969   3.716   1.692
  549SOL    HW2 2547   5.810   3.676   1.682
  550SOL     OW 2548   0.707   4.227   2.262
  550SOL    HW1 2549   0.627   4.224   2.322
  550SOL    HW2 2550   0.682   4.194   2.171
  551SOL     OW 2551   6.605   2.396   0.690
  551SOL    HW1 2552   6.588   2.456   0.768
  551SOL    HW2 2553   6.530   2.405   0.624
  552SOL     OW 2554   4.027   5.945   0.140
  552SOL    HW1 2555   4.007   5.849   0.124
  552SOL    HW2 2556   3.967   6.002   0.084
  553SOL     OW 2557   1.811   1.565   1.877
  553SOL    HW1 2558   1.781   1.508   1.801
  553SOL    HW2 2559   1.801   1.661   1.853
  554SOL     OW 2560   5.213   6.400   5.375
  554SOL    HW1 2561   5.279   6.368   5.307
  554SOL    HW2 2562   5.231   6.496   5.396
  555SOL     OW 2563   1.519   4.600   4.503
  555SOL    HW1 2564   1.423   4.622   4.517
  555SOL    HW2 2565   1.533   4.502   4.511
  556SOL     OW 2566   5.275   3.016   4.021
  556SOL    HW1 2567   5.244   3.103   4.060
  556SOL    HW2 2568   5.372   3.024   3.995
  557SOL     OW 2569   0.335   6.219   6.229
  557SOL    HW1 2570   0.317   6.183   6.321
  557SOL    HW2 2571   0.403   6.293   6.236
  558SOL     OW 2572   3.817   4.110   5.045
  558SOL    HW1 2573   3.864   4.197   5.061
  558SOL    HW2 2574   3.783   4.074   5.133
  559SOL     OW 2575   6.580   5.921   6.149
  559SOL    HW1 2576   6.510   5.990   6.132
  559SOL    HW2 2577   6.647   5.958   6.214
  560SOL     OW 2578   4.383   6.944   0.014
  560SOL    HW1 2579   4.429   6.958   0.102
  560SOL    HW2 2580   4.394   6.849   7.010
  561SOL     OW 2581   5.326   6.847   0.704
  561SOL    HW1 2582   5.326   6.857   0.605
  561SOL    HW2 2583   5.308   6.936   0.746
  562SOL     OW 2584   5.719   1.587   5.470
  562SOL    HW1 2585   5.720   1.623   5.377
  562SOL    HW2 2586   5.812   1.558   5.496
  563SOL     OW 2587   2.892   6.652   4.012
  563SOL    HW1 2588   2.894   6.670   4.110
  563SOL    HW2 2589   2.828   6.715   3.968
  564SOL     OW 2590   1.061   0.921   6.450
  564SOL    HW1 2591   1.046   0.934   6.548
  564SOL    HW2 2592   1.147   0.872   6.436
  565SOL     OW 2593   4.947   3.986   4.931
  565SOL    HW1 2594   4.928   3.911   4.868
  565SOL    HW2 2595   4.904   4.070   4.896
  566SOL     OW 2596   5.092   4.819   2.918
  566SOL    HW1 2597   5.017   4.830   2.852
  566SOL    HW2 2598   5.065   4.753   2.988
  567SOL     OW 2599   3.674   2.942   4.445
  567SOL    HW1 2600   3.655   2.916   4.350
  567SOL    HW2 2601   3.613   3.016   4.472
  568SOL     OW 2602   2.351   1.784   0.182
  568SOL    HW1 2603   2.322   1.822   0.270
  568SOL    HW2 2604   2.370   1.686   0.192
  569SOL     OW 2605   2.463   2.732   0.718
  569SOL    HW1 2606   2.529   2.780   0.777
  569SOL    HW2 2607   2.401   2.798   0.677
  570SOL     OW 2608   6.562   5.919   1.322
  570SOL    HW1 2609   6.642   5.942   1.377
  570SOL    HW2 2610   6.590   5.870   1.239
  571SOL     OW 2611   4.398   5.395   3.199
  571SOL    HW1 2612   4.339   5.475   3.203
  571SOL    HW2 2613   4.345   5.316   3.167
  572SOL     OW 2614   1.688   3.815   5.167
  572SOL    HW1 2615   1.741   3.734   5.192
  572SOL    HW2 2616   1.634   3.795   5.086
  573SOL     OW 2617   4.135   2.055   6.194
  573SOL    HW1 2618   4.120   2.147   6.230
  573SOL    HW2 2619   4.049   2.019   6.157
  574SOL     OW 2620   2.509   1.440   4.360
  574SOL    HW1 2621   2.503   1.540   4.368
  574SOL    HW2 2622   2.492   1.398   4.449
  575SOL     OW 2623   5.623   2.358   6.871
  575SOL    HW1 2624   5.613   2.447   6.917
  575SOL    HW2 2625   5.630   2.372   6.772
  576SOL     OW 2626   0.720   2.121   2.724
  576SOL    HW1 2627   0.765   2.206   2.752
  576SOL    HW2 2628   0.696   2.127   2.627
  577SOL     OW 2629   3.181   1.882   3.465
  577SOL    HW1 2630   3.090   1.869   3.426
  577SOL    HW2 2631   3.206   1.979   3.459
  578SOL     OW 2632   6.760   3.372   3.514
  578SOL    HW1 2633   6.736   3.283   3.554
  578SOL    HW2 2634   6.755   3.443   3.585
  579SOL     OW 2635   4.321   3.343   6.668
  579SOL    HW1 2636   4.410   3.375   6.636
  579SOL    HW2 2637   4.332   3.297   6.756
  580SOL     OW 2638   0.757   5.981   0.233
  580SOL    HW1 2639   0.713   5.892   0.247
  580SOL    HW2 2640   0.688   6.049   0.209
  581SOL     OW 2641   3.913   3.912   2.861
  581SOL    HW1 2642   3.834   3.926   2.801
  581SOL    HW2 2643   3.909   3.975   2.938
  582SOL     OW 2644   6.114   3.829   1.831
  582SOL    HW1 2645   6.068   3.913   1.858
  582SOL    HW2 2646   6.208   3.830   1.865
  583SOL     OW 2647   2.187   4.563   6.893
  583SOL    HW1 2648   2.172   4.656   6.926
  583SOL    HW2 2649   2.259   4.564   6.824
  584SOL     OW 2650   0.393   5.267   4.675
  584SOL    HW1 2651   0.488   5.239   4.687
  584SOL    HW2 2652   0.339   5.233   4.752
  585SOL     OW 2653   0.477   1.322   0.027
  585SOL    HW1 2654   0.565   1.336   0.072
  585SOL    HW2 2655   0.403   1.333   0.093
  586SOL     OW 2656   2.884   6.597   0.842
  586SOL    HW1 2657   2.850   6.588   0.936
  586SOL    HW2 2658   2.839   6.530   0.783
  587SOL     OW 2659   1.043   2.926   5.191
  587SOL    HW1 2660   1.074   2.841   5.149
  587SOL    HW2 2661   0.945   2.937   5.177
  588SOL     OW 2662   3.344   6.937   1.692
  588SOL    HW1 2663   3.416   6.868   1.682
  588SOL    HW2 2664   3.385   7.024   1.720
  589SOL     OW 2665   4.727   5.180   2.759
  589SOL    HW1 2666   4.697   5.126   2.680
  589SOL    HW2 2667   4.735   5.276   2.732
  590SOL     OW 2668   7.011   2.268   1.714
  590SOL    HW1 2669   7.008   2.168   1.714
  590SOL    HW2 2670   0.081   2.299   1.719
  591SOL     OW 2671   3.583   6.826   3.322
  591SOL    HW1 2672   3.537   6.910   3.294
  591SOL    HW2 2673   3.585   6.821   3.422
  592SOL     OW 2674   5.615   0.752   6.987
  592SOL    HW1 2675   5.628   0.690   0.040
  592SOL    HW2 2676   5.624   0.701   6.902
  593SOL     OW 2677   5.299   1.796   3.672
  593SOL    HW1 2678   5.385   1.847   3.666
  593SOL    HW2 2679   5.259   1.789   3.581
  594SOL     OW 2680   4.437   2.630   1.279
  594SOL    HW1 2681   4.339   2.619   1.296
  594SOL    HW2 2682   4.474   2.700   1.340
  595SOL     OW 2683   3.354   6.619   4.060
  595SOL    HW1 2684   3.351   6.687   4.133
  595SOL    HW2 2685   3.284   6.640   3.992
  596SOL     OW 2686   1.237   4.870   2.296
  596SOL    HW1 2687   1.252   4.772   2.283
  596SOL    HW2 2688   1.197   4.909   2.213
  597SOL     OW 2689   4.046   2.209   5.759
  597SOL    HW1 2690   3.959   2.240   5.720
  597SOL    HW2 2691   4.058   2.250   5.850
  598SOL     OW 2692   3.369   4.430   0.904
  598SOL    HW1 2693   3.375   4.421   0.805
  598SOL    HW2 2694   3.457   4.459   0.941
  599SOL     OW 2695   6.807   6.371   2.284
  599SOL    HW1 2696   6.786   6.277   2.258
  599SOL    HW2 2697   6.849   6.418   2.207
  600SOL     OW 2698   2.615   0.107   0.037
  600SOL    HW1 2699   2.648   0.199   0.056
  600SOL    HW2 2700   2.652   0.076   6.975
  601SOL     OW 2701   3.407   5.361   3.926
  601SOL    HW1 2702   3.475   5.427   3.892
  601SOL    HW2 2703   3.388   5.294   3.854
  602SOL     OW 2704   1.495   1.042   1.323
  602SOL    HW1 2705   1.540   1.095   1.251
  602SOL    HW2 2706   1.524   1.077   1.413
  603SOL     OW 2707   3.779   2.135   3.256
  603SOL    HW1 2708   3.782   2.202   3.182
  603SOL    HW2 2709   3.690   2.089   3.257
  604SOL     OW 2710   0.163   4.136   5.598
  604SOL    HW1 2711   0.214   4.152   5.514
  604SOL    HW2 2712   0.124   4.044   5.597
  605SOL     OW 2713   5.686   0.412   4.795
  605SOL    HW1 2714   5.780   0.382   4.779
  605SOL    HW2 2715   5.684   0.512   4.803
  606SOL     OW 2716   3.724   0.147   3.231
  606SOL    HW1 2717   3.726   0.247   3.239
  606SOL    HW2 2718   3.719   0.106   3.322
  607SOL     OW 2719   4.500   0.946   4.169
  607SOL    HW1 2720   4.502   1.035   4.214
  607SOL    HW2 2721   4.593   0.912   4.158
  608SOL     OW 2722   4.584   1.424   1.289
  608SOL    HW1 2723   4.628   1.462   1.207
  608SOL    HW2 2724   4.507   1.482   1.315
  609SOL     OW 2725   3.479   4.177   4.174
  609SOL    HW1 2726   3.459   4.274   4.182
  609SOL    HW2 2727   3.543   4.150   4.246
  610SOL     OW 2728   5.008   2.446   4.725
  610SOL    HW1 2729   5.009   2.414   4.820
  610SOL    HW2 2730   4.948   2.388   4.670
  611SOL     OW 2731   0.470   6.955   1.029
  611SOL    HW1 2732   0.453   6.908   1.115
  611SOL    HW2 2733   0.562   6.993   1.029
  612SOL     OW 2734   3.512   5.482   5.612
  612SOL    HW1 2735   3.514   5.396   5.662
  612SOL    HW2 2736   3.416   5.511   5.600
  613SOL     OW 2737   3.541   2.200   6.898
  613SOL    HW1 2738   3.601   2.134   6.853
  613SOL    HW2 2739   3.448   2.164   6.902
  614SOL     OW 2740   5.067   4.594   1.393
  614SOL    HW1 2741   5.076   4.546   1.306
  614SOL    HW2 2742   5.088   4.691   1.380
  615SOL     OW 2743   5.944   6.689   0.774
  615SOL    HW1 2744   5.987   6.598   0.778
  615SOL    HW2 2745   5.885   6.694   0.694
  616SOL     OW 2746   5.661   1.596   5.080
  616SOL    HW1 2747   5.662   1.498   5.063
  616SOL    HW2 2748   5.753   1.633   5.067
  617SOL     OW 2749   6.964   5.116   5.500
  617SOL    HW1 2750   6.960   5.188   5.431
  617SOL    HW2 2751   0.004   5.143   5.571
  618SOL     OW 2752   6.359   3.772   0.781
  618SOL    HW1 2753   6.353   3.856   0.728
  618SOL    HW2 2754   6.275   3.758   0.832
  619SOL     OW 2755   3.030   0.496   6.005
  619SOL    HW1 2756   3.095   0.570   5.988
  619SOL    HW2 2757   2.939   0.534   6.023
  620SOL     OW 2758   6.402   1.568   2.030
  620SOL    HW1 2759   6.493   1.582   1.992
  620SOL    HW2 2760   6.388   1.471   2.048
  621SOL     OW 2761   2.968   1.125   6.883
  621SOL    HW1 2762   2.947   1.175   6.799
  621SOL    HW2 2763   2.892   1.136   6.948
  622SOL     OW 2764   1.484   1.806   4.864
  622SOL    HW1 2765   1.547   1.785   4.940
  622SOL    HW2 2766   1.497   1.900   4.835
  623SOL     OW 2767   6.109   0.376   4.010
  623SOL    HW1 2768   6.035   0.315   4.036
  623SOL    HW2 2769   6.071   0.467   3.989
  624SOL     OW 2770   6.596   0.868   6.435
  624SOL    HW1 2771   6.617   0.784   6.486
  624SOL    HW2 2772   6.601   0.850   6.337
  625SOL     OW 2773   2.302   1.827   0.689
  625SOL    HW1 2774   2.342   1.758   0.748
  625SOL    HW2 2775   2.258   1.782   0.611
  626SOL     OW 2776   6.802   5.639   3.933
  626SOL    HW1 2777   6.806   5.567   4.003
  626SOL    HW2 2778   6.894   5.670   3.911
  627SOL     OW 2779   6.479   0.423   0.246
  627SOL    HW1 2780   6.445   0.373   0.325
  627SOL    HW2 2781   6.508   0.514   0.275
  628SOL     OW 2782   4.271   4.366   5.803
  628SOL    HW1 2783   4.352   4.398   5.753
  628SOL    HW2 2784   4.275   4.400   5.897
  629SOL     OW 2785   1.325   6.658   6.260
  629SOL    HW1 2786   1.296   6.740   6.213
  629SOL    HW2 2787   1.251   6.624   6.318
  630SOL     OW 2788   6.303   1.179   1.574
  630SOL    HW1 2789   6.223   1.132   1.538
  630SOL    HW2 2790   6.367   1.112   1.611
  631SOL     OW 2791   1.672   2.814   3.723
  631SOL    HW1 2792   1.656   2.908   3.692
  631SOL    HW2 2793   1.709   2.760   3.647
  632SOL     OW 2794   3.467   3.867   6.735
  632SOL    HW1 2795   3.518   3.800   6.682
  632SOL    HW2 2796   3.530   3.935   6.772
  633SOL     OW 2797   1.608   6.332   1.539
  633SOL    HW1 2798   1.686   6.317   1.479
  633SOL    HW2 2799   1.639   6.345   1.633
  634SOL     OW 2800   3.243   2.965   4.579
  634SOL    HW1 2801   3.163   2.967   4.639
  634SOL    HW2 2802   3.299   2.885   4.600
  635SOL     OW 2803   5.453   0.295   6.700
  635SOL    HW1 2804   5.480   0.287   6.796
  635SOL    HW2 2805   5.478   0.385   6.666
  636SOL     OW 2806   2.905   0.524   5.642
  636SOL    HW1 2807   2.821   0.474   5.621
  636SOL    HW2 2808   2.886   0.593   5.712
  637SOL     OW 2809   6.585   0.306   2.781
  637SOL    HW1 2810   6.682   0.330   2.786
  637SOL    HW2 2811   6.549   0.294   2.874
  638SOL     OW 2812   6.917   3.417   4.450
  638SOL    HW1 2813   6.892   3.372   4.536
  638SOL    HW2 2814   6.871   3.505   4.444
  639SOL     OW 2815   5.394   4.658   2.477
  639SOL    HW1 2816   5.314   4.597   2.487
  639SOL    HW2 2817   5.469   4.622   2.532
  640SOL     OW 2818   0.310   2.669   1.885
  640SOL    HW1 2819   0.331   2.761   1.854
  640SOL    HW2 2820   0.268   2.673   1.976
  641SOL     OW 2821   2.146   4.999   4.525
  641SOL    HW1 2822   2.237   5.015   4.488
  641SOL    HW2 2823   2.127   5.066   4.597
  642SOL     OW 2824   1.153   4.105   4.739
  642SOL    HW1 2825   1.227   4.134   4.800
  642SOL    HW2 2826   1.177   4.128   4.645
  643SOL     OW 2827   4.883   5.120   0.881
  643SOL    HW1 2828   4.965   5.068   0.904
  643SOL    HW2 2829   4.900   5.218   0.894
  644SOL     OW 2830   6.994   6.834   5.082
  644SOL    HW1 2831   6.960   6.772   5.153
  644SOL    HW2 2832   6.931   6.912   5.073
  645SOL     OW 2833   4.124   5.384   2.259
  645SOL    HW1 2834   4.113   5.286   2.243
  645SOL    HW2 2835   4.101   5.405   2.354
  646SOL     OW 2836   3.749   2.028   4.830
  646SOL    HW1 2837   3.676   2.094   4.851
  646SOL    HW2 2838   3.709   1.938   4.817
  647SOL     OW 2839   4.117   2.681   5.784
  647SOL    HW1 2840   4.036   2.637   5.822
  647SOL    HW2 2841   4.093   2.772   5.750
  648SOL     OW 2842   6.051   1.355   2.918
  648SOL    HW1 2843   6.092   1.267   2.941
  648SOL    HW2 2844   6.018   1.353   2.824
  649SOL     OW 2845   2.128   5.723   0.352
  649SOL    HW1 2846   2.219   5.697   0.383
  649SOL    HW2 2847   2.060   5.696   0.420
  650SOL     OW 2848   0.064   3.817   1.003
  650SOL    HW1 2849   0.018   3.733   1.033
  650SOL    HW2 2850   0.163   3.800   0.997
  651SOL     OW 2851   1.222   0.666   4.760
  651SOL    HW1 2852   1.171   0.682   4.844
  651SOL    HW2 2853   1.306   0.719   4.760
  652SOL     OW 2854   3.903   6.216   2.051
  652SOL    HW1 2855   3.957   6.259   1.979
  652SOL    HW2 2856   3.886   6.120   2.028
  653SOL     OW 2857   1.189   0.284   2.377
  653SOL    HW1 2858   1.152   0.207   2.429
  653SOL    HW2 2859   1.161   0.276   2.281
  654SOL     OW 2860   0.363   6.606   4.957
  654SOL    HW1 2861   0.356   6.522   5.011
  654SOL    HW2 2862   0.279   6.659   4.968
  655SOL     OW 2863   0.158   4.153   2.051
  655SOL    HW1 2864   0.111   4.075   2.011
  655SOL    HW2 2865   0.210   4.124   2.131
  656SOL     OW 2866   3.585   5.939   0.113
  656SOL    HW1 2867   3.560   6.019   0.167
  656SOL    HW2 2868   3.551   5.949   0.020
  657SOL     OW 2869   3.755   3.212   2.464
  657SOL    HW1 2870   3.727   3.293   2.413
  657SOL    HW2 2871   3.788   3.142   2.401
  658SOL     OW 2872   1.742   1.931   5.266
  658SOL    HW1 2873   1.799   2.008   5.237
  658SOL    HW2 2874   1.743   1.925   5.366
  659SOL     OW 2875   2.053   5.679   6.315
  659SOL    HW1 2876   2.087   5.770   6.338
  659SOL    HW2 2877   2.009   5.639   6.396
  660SOL     OW 2878   4.837   4.614   2.912
  660SOL    HW1 2879   4.781   4.643   2.989
  660SOL    HW2 2880   4.798   4.650   2.827
  661SOL     OW 2881   4.733   4.122   4.271
  661SOL    HW1 2882   4.794   4.154   4.344
  661SOL    HW2 2883   4.690   4.036   4.299
  662SOL     OW 2884   4.941   3.274   6.736
  662SOL    HW1 2885   4.905   3.314   6.652
  662SOL    HW2 2886   4.880   3.295   6.812
  663SOL     OW 2887   0.052   4.194   6.862
  663SOL    HW1 2888   0.102   4.229   6.942
  663SOL    HW2 2889   6.997   4.143   6.893
  664SOL     OW 2890   1.860   6.531   6.835
  664SOL    HW1 2891   1.812   6.599   6.781
  664SOL    HW2 2892   1.933   6.490   6.780
  665SOL     OW 2893   3.404   5.228   1.445
  665SOL    HW1 2894   3.450   5.311   1.477
  665SOL    HW2 2895   3.394   5.163   1.521
  666SOL     OW 2896   2.954   1.190   0.393
  666SOL    HW1 2897   2.988   1.282   0.376
  666SOL    HW2 2898   2.947   1.175   0.491
  667SOL     OW 2899   0.958   3.528   3.713
  667SOL    HW1 2900   0.897   3.511   3.791
  667SOL    HW2 2901   1.036   3.466   3.717
  668SOL     OW 2902   5.317   6.958   0.448
  668SOL    HW1 2903   5.313   6.918   0.356
  668SOL    HW2 2904   5.261   0.015   0.451
  669SOL     OW 2905   2.120   6.061   2.872
  669SOL    HW1 2906   2.139   5.965   2.850
  669SOL    HW2 2907   2.023   6.072   2.891
  670SOL     OW 2908   3.487   2.911   3.288
  670SOL    HW1 2909   3.436   2.912   3.203
  670SOL    HW2 2910   3.566   2.972   3.280
  671SOL     OW 2911   1.167   0.078   6.360
  671SOL    HW1 2912   1.139   0.054   6.452
  671SOL    HW2 2913   1.086   0.085   6.301
  672SOL     OW 2914   2.361   1.865   3.804
  672SOL    HW1 2915   2.343   1.873   3.902
  672SOL    HW2 2916   2.459   1.864   3.787
  673SOL     OW 2917   5.576   6.462   0.747
  673SOL    HW1 2918   5.557   6.378   0.796
  673SOL    HW2 2919   5.545   6.540   0.800
  674SOL     OW 2920   6.471   1.959   3.509
  674SOL    HW1 2921   6.494   1.958   3.606
  674SOL    HW2 2922   6.495   1.871   3.468
  675SOL     OW 2923   6.134   1.402   4.879
  675SOL    HW1 2924   6.202   1.475   4.880
  675SOL    HW2 2925   6.090   1.398   4.789
  676SOL     OW 2926   1.981   4.736   4.788
  676SOL    HW1 2927   1.927   4.683   4.723
  676SOL    HW2 2928   2.078   4.719   4.772
  677SOL     OW 2929   5.043   6.899   1.265
  677SOL    HW1 2930   4.997   6.812   1.249
  677SOL    HW2 2931   4.982   6.974   1.240
  678SOL     OW 2932   2.299   1.645   6.094
  678SOL    HW1 2933   2.219   1.614   6.043
  678SOL    HW2 2934   2.297   1.745   6.100
  679SOL     OW 2935   5.794   6.543   2.551
  679SOL    HW1 2936   5.836   6.566   2.639
  679SOL    HW2 2937   5.800   6.621   2.489
  680SOL     OW 2938   5.482   4.166   5.142
  680SOL    HW1 2939   5.544   4.108   5.090
  680SOL    HW2 2940   5.491   4.261   5.112
  681SOL     OW 2941   2.142   6.696   2.165
  681SOL    HW1 2942   2.159   6.725   2.070
  681SOL    HW2 2943   2.190   6.758   2.227
  682SOL     OW 2944   1.407   6.323   0.007
  682SOL    HW1 2945   1.310   6.318   0.030
  682SOL    HW2 2946   1.461   6.311   0.090
  683SOL     OW 2947   5.322   2.133   0.239
  683SOL    HW1 2948   5.288   2.196   0.308
  683SOL    HW2 2949   5.411   2.098   0.266
  684SOL     OW 2950   0.168   6.016   6.748
  684SOL    HW1 2951   0.095   6.034   6.815
  684SOL    HW2 2952   0.219   5.935   6.777
  685SOL     OW 2953   5.954   1.264   5.802
  685SOL    HW1 2954   5.891   1.315   5.861
  685SOL    HW2 2955   6.030   1.229   5.857
  686SOL     OW 2956   5.451   4.562   3.224
  686SOL    HW1 2957   5.521   4.613   3.273
  686SOL    HW2 2958   5.444   4.470   3.261
  687SOL     OW 2959   6.084   2.441   4.656
  687SOL    HW1 2960   6.099   2.517   4.720
  687SOL    HW2 2961   6.072   2.478   4.564
  688SOL     OW 2962   0.150   3.608   4.603
  688SOL    HW1 2963   0.209   3.667   4.548
  688SOL    HW2 2964   0.182   3.514   4.598
  689SOL     OW 2965   6.048   4.264   5.680
  689SOL    HW1 2966   5.992   4.184   5.705
  689SOL    HW2 2967   6.143   4.247   5.705
  690SOL     OW 2968   0.968   2.758   3.419
  690SOL    HW1 2969   0.928   2.755   3.510
  690SOL    HW2 2970   1.058   2.803   3.423
  691SOL     OW 2971   0.567   3.190   7.006
  691SOL    HW1 2972   0.642   3.127   0.000
  691SOL    HW2 2973   0.501   3.146   6.944
  692SOL     OW 2974   1.698   6.809   3.522
  692SOL    HW1 2975   1.791   6.816   3.560
  692SOL    HW2 2976   1.644   6.888   3.551
  693SOL     OW 2977   6.707   0.813   2.488
  693SOL    HW1 2978   6.656   0.728   2.500
  693SOL    HW2 2979   6.654   0.876   2.432
  694SOL     OW 2980   1.753   0.443   2.159
  694SOL    HW1 2981   1.810   0.521   2.187
  694SOL    HW2 2982   1.659   0.474   2.143
  695SOL     OW 2983   4.152   5.834   6.156
  695SOL    HW1 2984   4.133   5.906   6.222
  695SOL    HW2 2985   4.078   5.829   6.089
  696SOL     OW 2986   4.319   5.669   2.897
  696SOL    HW1 2987   4.339   5.578   2.860
  696SOL    HW2 2988   4.247   5.712   2.843
  697SOL     OW 2989   1.275   3.922   3.991
  697SOL    HW1 2990   1.238   3.861   3.921
  697SOL    HW2 2991   1.292   4.012   3.950
  698SOL     OW 2992   3.880   6.486   3.932
  698SOL    HW1 2993   3.799   6.536   3.903
  698SOL    HW2 2994   3.875   6.469   4.031
  699SOL     OW 2995   2.169   4.478   0.123
  699SOL    HW1 2996   2.229   4.420   0.178
  699SOL    HW2 2997   2.207   4.487   0.031
  700SOL     OW 2998   2.140   1.261   3.888
  700SOL    HW1 2999   2.228   1.216   3.904
  700SOL    HW2 3000   2.149   1.359   3.907
  701SOL     OW 3001   0.641   4.869   6.011
  701SOL    HW1 3002   0.690   4.871   6.098
  701SOL    HW2 3003   0.563   4.932   6.014
  702SOL     OW 3004   5.451   5.305   5.062
  702SOL    HW1 3005   5.425   5.396   5.093
  702SOL    HW2 3006   5.458   5.304   4.962
  703SOL     OW 3007   4.272   3.848   0.079
  703SOL    HW1 3008   4.362   3.805   0.087
  703SOL    HW2 3009   4.223   3.811   7.025
  704SOL     OW 3010   2.555   0.197   0.725
  704SOL    HW1 3011   2.641   0.216   0.773
  704SOL    HW2 3012   2.561   0.107   0.681
  705SOL     OW 3013   6.164   2.627   3.263
  705SOL    HW1 3014   6.194   2.712   3.219
  705SOL    HW2 3015   6.099   2.649   3.336
  706SOL     OW 3016   4.098   2.176   3.825
  706SOL    HW1 3017   4.098   2.117   3.744
  706SOL    HW2 3018   4.006   2.212   3.839
  707SOL     OW 3019   4.799   1.591   1.415
  707SOL    HW1 3020   4.733   1.658   1.382
  707SOL    HW2 3021   4.885   1.601   1.365
  708SOL     OW 3022   3.923   0.981   1.757
  708SOL    HW1 3023   4.018   0.955   1.773
  708SOL    HW2 3024   3.871   0.972   1.841
  709SOL     OW 3025   1.167   5.024   6.781
  709SOL    HW1 3026   1.077   4.988   6.756
  709SOL    HW2 3027   1.171   5.121   6.759
  710SOL     OW 3028   2.989   3.832   2.705
  710SOL    HW1 3029   3.069   3.782   2.672
  710SOL    HW2 3030   2.993   3.926   2.672
  711SOL     OW 3031   0.933   0.469   3.936
  711SOL    HW1 3032   0.946   0.525   4.018
  711SOL    HW2 3033   0.993   0.388   3.942
  712SOL     OW 3034   1.412   4.016   1.554
  712SOL    HW1 3035   1.400   4.068   1.469
  712SOL    HW2 3036   1.351   3.937   1.554
  713SOL     OW 3037   4.048   3.207   3.190
  713SOL    HW1 3038   4.063   3.224   3.093
  713SOL    HW2 3039   4.046   3.294   3.240
  714SOL     OW 3040   4.690   5.044   5.237
  714SOL    HW1 3041   4.650   4.963   5.195
  714SOL    HW2 3042   4.640   5.125   5.208
  715SOL     OW 3043   4.294   0.444   6.264
  715SOL    HW1 3044   4.204   0.482   6.242
  715SOL    HW2 3045   4.303   0.434   6.363
  716SOL     OW 3046   6.865   4.599   1.668
  716SOL    HW1 3047   6.766   4.592   1.682
  716SOL    HW2 3048   6.897   4.689   1.699
  717SOL     OW 3049   6.252   2.988   0.534
  717SOL    HW1 3050   6.153   2.998   0.523
  717SOL    HW2 3051   6.289   2.931   0.459
  718SOL     OW 3052   3.570   3.667   6.568
  718SOL    HW1 3053   3.634   3.666   6.491
  718SOL    HW2 3054   3.492   3.608   6.546
  719SOL     OW 3055   5.268   4.475   0.206
  719SOL    HW1 3056   5.310   4.564   0.187
  719SOL    HW2 3057   5.218   4.480   0.292
  720SOL     OW 3058   2.244   0.849   6.277
  720SOL    HW1 3059   2.289   0.835   6.188
  720SOL    HW2 3060   2.240   0.762   6.326
  721SOL     OW 3061   1.606   6.895   6.264
  721SOL    HW1 3062   1.549   6.943   6.331
  721SOL    HW2 3063   1.586   6.797   6.267
  722SOL     OW 3064   4.579   0.029   5.799
  722SOL    HW1 3065   4.479   0.024   5.796
  722SOL    HW2 3066   4.610   0.019   5.893
  723SOL     OW 3067   1.522   2.984   1.954
  723SOL    HW1 3068   1.562   3.062   1.906
  723SOL    HW2 3069   1.488   3.014   2.044
  724SOL     OW 3070   6.796   0.998   4.767
  724SOL    HW1 3071   6.801   0.979   4.865
  724SOL    HW2 3072   6.887   1.019   4.732
  725SOL     OW 3073   2.268   5.531   0.887
  725SOL    HW1 3074   2.193   5.590   0.856
  725SOL    HW2 3075   2.285   5.547   0.984
  726SOL     OW 3076   4.087   0.123   6.804
  726SOL    HW1 3077   4.177   0.166   6.800
  726SOL    HW2 3078   4.017   0.193   6.819
  727SOL     OW 3079   2.680   4.772   4.031
  727SOL    HW1 3080   2.648   4.721   4.110
  727SOL    HW2 3081   2.631   4.859   4.024
  728SOL     OW 3082   6.866   3.553   4.925
  728SOL    HW1 3083   6.778   3.533   4.968
  728SOL    HW2 3084   6.929   3.478   4.941
  729SOL     OW 3085   3.152   0.302   1.130
  729SOL    HW1 3086   3.112   0.211   1.144
  729SOL    HW2 3087   3.111   0.366   1.195
  730SOL     OW 3088   6.273   0.389   4.539
  730SOL    HW1 3089   6.320   0.344   4.614
  730SOL    HW2 3090   6.319   0.368   4.453
  731SOL     OW 3091   6.073   3.615   3.524
  731SOL    HW1 3092   5.987   3.570   3.502
  731SOL    HW2 3093   6.119   3.643   3.440
  732SOL     OW 3094   7.013   3.152   1.972
  732SOL    HW1 3095   0.074   3.146   1.921
  732SOL    HW2 3096   6.998   3.067   2.021
  733SOL     OW 3097   4.595   4.308   3.494
  733SOL    HW1 3098   4.547   4.391   3.466
  733SOL    HW2 3099   4.641   4.268   3.415
  734SOL     OW 3100   0.008   4.502   0.826
  734SOL    HW1 3101   0.080   4.433   0.831
  734SOL    HW2 3102   6.943   4.457   0.825
  735SOL     OW 3103   1.363   4.497   6.590
  735SOL    HW1 3104   1.269   4.526   6.604
  735SOL    HW2 3105   1.424   4.576   6.595
  736SOL     OW 3106   6.000   1.325   3.291
  736SOL    HW1 3107   5.937   1.283   3.226
  736SOL    HW2 3108   6.094   1.309   3.262
  737SOL     OW 3109   5.812   3.612   0.457
  737SOL    HW1 3110   5.873   3.540   0.425
  737SOL    HW2 3111   5.721   3.575   0.475
  738SOL     OW 3112   0.520   4.153   4.023
  738SOL    HW1 3113   0.477   4.065   4.045
  738SOL    HW2 3114   0.479   4.191   3.940
  739SOL     OW 3115   4.949   6.080   6.909
  739SOL    HW1 3116   4.955   6.034   6.997
  739SOL    HW2 3117   4.976   6.176   6.919
  740SOL     OW 3118   5.542   6.792   1.452
  740SOL    HW1 3119   5.511   6.878   1.411
  740SOL    HW2 3120   5.485   6.717   1.419
  741SOL     OW 3121   1.744   0.743   2.936
  741SOL    HW1 3122   1.698   0.721   3.022
  741SOL    HW2 3123   1.793   0.662   2.903
  742SOL     OW 3124   0.988   0.100   3.328
  742SOL    HW1 3125   0.968   0.067   3.236
  742SOL    HW2 3126   0.986   0.023   3.392
  743SOL     OW 3127   1.811   4.003   4.368
  743SOL    HW1 3128   1.888   3.965   4.317
  743SOL    HW2 3129   1.828   3.991   4.466
  744SOL     OW 3130   0.673   6.112   1.010
  744SOL    HW1 3131   0.611   6.182   1.045
  744SOL    HW2 3132   0.700   6.134   0.916
  745SOL     OW 3133   1.788   5.885   2.954
  745SOL    HW1 3134   1.768   5.982   2.936
  745SOL    HW2 3135   1.717   5.828   2.913
  746SOL     OW 3136   1.896   0.344   4.849
  746SOL    HW1 3137   1.927   0.389   4.933
  746SOL    HW2 3138   1.804   0.307   4.863
  747SOL     OW 3139   5.355   4.910   2.925
  747SOL    HW1 3140   5.368   4.969   2.844
  747SOL    HW2 3141   5.259   4.882   2.930
  748SOL     OW 3142   4.335   3.407   1.370
  748SOL    HW1 3143   4.256   3.353   1.398
  748SOL    HW2 3144   4.397   3.349   1.316
  749SOL     OW 3145   6.895   1.592   5.261
  749SOL    HW1 3146   6.905   1.689   5.284
  749SOL    HW2 3147   6.983   1.545   5.272
  750SOL     OW 3148   2.529   3.906   0.632
  750SOL    HW1 3149   2.621   3.903   0.671
  750SOL    HW2 3150   2.467   3.949   0.698
  751SOL     OW 3151   4.577   0.719   0.193
  751SOL    HW1 3152   4.630   0.741   0.275
  751SOL    HW2 3153   4.609   0.775   0.117
  752SOL     OW 3154   5.191   1.956   2.130
  752SOL    HW1 3155   5.267   1.921   2.185
  752SOL    HW2 3156   5.168   1.889   2.059
  753SOL     OW 3157   1.846   2.533   3.836
  753SOL    HW1 3158   1.818   2.549   3.741
  753SOL    HW2 3159   1.939   2.497   3.837
  754SOL     OW 3160   4.815   5.545   6.845
  754SOL    HW1 3161   4.808   5.535   6.944
  754SOL    HW2 3162   4.770   5.467   6.800
  755SOL     OW 3163   0.314   6.441   1.458
  755SOL    HW1 3164   0.357   6.494   1.385
  755SOL    HW2 3165   0.237   6.492   1.496
  756SOL     OW 3166   4.811   0.009   3.368
  756SOL    HW1 3167   4.894   6.979   3.360
  756SOL    HW2 3168   4.778   0.033   3.277
  757SOL     OW 3169   0.553   0.526   3.407
  757SOL    HW1 3170   0.535   0.574   3.493
  757SOL    HW2 3171   0.646   0.489   3.409
  758SOL     OW 3172   3.957   2.395   1.072
  758SOL    HW1 3173   3.925   2.314   1.122
  758SOL    HW2 3174   3.904   2.475   1.101
  759SOL     OW 3175   1.785   1.635   0.092
  759SOL    HW1 3176   1.802   1.731   0.071
  759SOL    HW2 3177   1.687   1.622   0.109
  760SOL     OW 3178   4.578   1.711   6.129
  760SOL    HW1 3179   4.592   1.730   6.031
  760SOL    HW2 3180   4.515   1.779   6.166
  761SOL     OW 3181   6.179   2.461   6.550
  761SOL    HW1 3182   6.223   2.537   6.598
  761SOL    HW2 3183   6.094   2.493   6.509
  762SOL     OW 3184   2.509   5.635   3.728
  762SOL    HW1 3185   2.483   5.612   3.634
  762SOL    HW2 3186   2.554   5.556   3.770
  763SOL     OW 3187   4.496   6.048   6.643
  763SOL    HW1 3188   4.565   6.028   6.714
  763SOL    HW2 3189   4.413   5.996   6.662
  764SOL     OW 3190   4.349   1.057   2.312
  764SOL    HW1 3191   4.318   1.099   2.397
  764SOL    HW2 3192   4.442   1.021   2.324
  765SOL     OW 3193   0.029   6.713   3.410
  765SOL    HW1 3194   0.094   6.720   3.486
  765SOL    HW2 3195   6.987   6.786   3.416
  766SOL     OW 3196   0.214   6.417   6.980
  766SOL    HW1 3197   0.285   6.347   6.975
  766SOL    HW2 3198   0.148   6.392   0.026
  767SOL     OW 3199   5.682   0.113   2.428
  767SOL    HW1 3200   5.732   0.182   2.480
  767SOL    HW2 3201   5.585   0.138   2.425
  768SOL     OW 3202   3.125   6.389   3.644
  768SOL    HW1 3203   3.145   6.378   3.742
  768SOL    HW2 3204   3.044   6.446   3.633
  769SOL     OW 3205   4.049   1.058   5.952
  769SOL    HW1 3206   4.056   1.074   6.050
  769SOL    HW2 3207   4.024   1.143   5.906
  770SOL     OW 3208   3.371   4.962   4.207
  770SOL    HW1 3209   3.304   5.034   4.193
  770SOL    HW2 3210   3.412   4.937   4.119
  771SOL     OW 3211   0.861   5.552   4.039
  771SOL    HW1 3212   0.909   5.597   3.964
  771SOL    HW2 3213   0.768   5.589   4.046
  772SOL     OW 3214   6.760   4.274   5.960
  772SOL    HW1 3215   6.708   4.303   5.880
  772SOL    HW2 3216   6.835   4.339   5.976
  773SOL     OW 3217   0.183   4.332   2.381
  773SOL    HW1 3218   0.100   4.283   2.406
  773SOL    HW2 3219   0.169   4.380   2.294
  774SOL     OW 3220   1.633   1.254   1.769
  774SOL    HW1 3221   1.677   1.197   1.838
  774SOL    HW2 3222   1.600   1.338   1.812
  775SOL     OW 3223   2.081   1.831   4.492
  775SOL    HW1 3224   2.156   1.828   4.426
  775SOL    HW2 3225   2.109   1.785   4.576
  776SOL     OW 3226   1.948   0.511   6.257
  776SOL    HW1 3227   1.961   0.419   6.220
  776SOL    HW2 3228   1.935   0.505   6.356
  777SOL     OW 3229   4.061   1.270   0.641
  777SOL    HW1 3230   4.132   1.331   0.607
  777SOL    HW2 3231   4.032   1.208   0.568
  778SOL     OW 3232   4.045   6.874   4.596
  778SOL    HW1 3233   3.997   6.821   4.526
  778SOL    HW2 3234   4.010   6.967   4.598
  779SOL     OW 3235   0.931   1.260   2.473
  779SOL    HW1 3236   0.961   1.181   2.418
  779SOL    HW2 3237   0.974   1.255   2.563
  780SOL     OW 3238   5.749   3.143   5.143
  780SOL    HW1 3239   5.653   3.116   5.143
  780SOL    HW2 3240   5.760   3.227   5.089
  781SOL     OW 3241   0.077   1.284   5.575
  781SOL    HW1 3242   0.097   1.382   5.576
  781SOL    HW2 3243   0.020   1.262   5.496
  782SOL     OW 3244   0.211   2.968   0.678
  782SOL    HW1 3245   0.194   2.917   0.763
  782SOL    HW2 3246   0.238   2.905   0.606
  783SOL     OW 3247   3.022   4.652   0.529
  783SOL    HW1 3248   2.998   4.602   0.446
  783SOL    HW2 3249   2.971   4.616   0.607
  784SOL     OW 3250   4.772   0.421   5.249
  784SOL    HW1 3251   4.710   0.343   5.239
  784SOL    HW2 3252   4.719   0.504   5.264
  785SOL     OW 3253   6.449   2.859   3.040
  785SOL    HW1 3254   6.470   2.762   3.047
  785SOL    HW2 3255   6.385   2.885   3.113
  786SOL     OW 3256   6.833   6.820   0.188
  786SOL    HW1 3257   6.813   6.906   0.235
  786SOL    HW2 3258   6.930   6.797   0.201
  787SOL     OW 3259   2.972   2.172   6.306
  787SOL    HW1 3260   3.016   2.262   6.311
  787SOL    HW2 3261   2.886   2.174   6.355
  788SOL     OW 3262   1.499   4.244   4.269
  788SOL    HW1 3263   1.460   4.270   4.181
  788SOL    HW2 3264   1.524   4.148   4.267
  789SOL     OW 3265   5.542   3.904   0.813
  789SOL    HW1 3266   5.508   3.987   0.857
  789SOL    HW2 3267   5.485   3.826   0.839
  790SOL     OW 3268   3.339   1.570   3.873
  790SOL    HW1 3269   3.385   1.516   3.803
  790SOL    HW2 3270   3.311   1.658   3.833
  791SOL     OW 3271   3.324   1.593   4.415
  791SOL    HW1 3272   3.306   1.606   4.317
  791SOL    HW2 3273   3.419   1.617   4.435
  792SOL     OW 3274   6.040   0.050   3.393
  792SOL    HW1 3275   6.101   0.128   3.392
  792SOL    HW2 3276   6.030   0.014   3.300
  793SOL     OW 3277   5.957   0.152   6.966
  793SOL    HW1 3278   6.000   0.079   6.913
  793SOL    HW2 3279   6.020   0.184   0.011
  794SOL     OW 3280   2.283   5.294   5.414
  794SOL    HW1 3281   2.351   5.225   5.437
  794SOL    HW2 3282   2.241   5.328   5.499
  795SOL     OW 3283   4.911   4.777   6.416
  795SOL    HW1 3284   4.904   4.742   6.510
  795SOL    HW2 3285   4.839   4.736   6.360
  796SOL     OW 3286   0.286   2.233   6.430
  796SOL    HW1 3287   0.296   2.135   6.409
  796SOL    HW2 3288   0.279   2.285   6.345
  797SOL     OW 3289   5.754   2.907   3.806
  797SOL    HW1 3290   5.660   2.872   3.810
  797SOL    HW2 3291   5.753   3.005   3.822
  798SOL     OW 3292   5.616   1.002   6.289
  798SOL    HW1 3293   5.595   0.939   6.214
  798SOL    HW2 3294   5.565   1.086   6.277
  799SOL     OW 3295   6.876   3.306   3.193
  799SOL    HW1 3296   6.784   3.267   3.195
  799SOL    HW2 3297   6.917   3.300   3.284
  800SOL     OW 3298   6.029   1.494   2.015
  800SOL    HW1 3299   6.040   1.395   2.024
  800SOL    HW2 3300   5.973   1.514   1.935
  801SOL     OW 3301   0.355   2.563   3.134
  801SOL    HW1 3302   0.263   2.525   3.130
  801SOL    HW2 3303   0.358   2.649   3.083
  802SOL     OW 3304   5.492   1.196   0.737
  802SOL    HW1 3305   5.552   1.182   0.659
  802SOL    HW2 3306   5.403   1.154   0.719
  803SOL     OW 3307   6.810   0.003   5.007
  803SOL    HW1 3308   6.785   0.082   5.064
  803SOL    HW2 3309   6.826   0.033   4.913
  804SOL     OW 3310   0.159   6.933   0.453
  804SOL    HW1 3311   0.109   7.000   0.508
  804SOL    HW2 3312   0.230   6.890   0.510
  805SOL     OW 3313   2.868   3.005   6.336
  805SOL    HW1 3314   2.919   3.064   6.398
  805SOL    HW2 3315   2.929   2.966   6.268
  806SOL     OW 3316   5.341   0.792   0.630
  806SOL    HW1 3317   5.414   0.745   0.581
  806SOL    HW2 3318   5.317   0.876   0.582
  807SOL     OW 3319   1.582   0.028   3.447
  807SOL    HW1 3320   1.595   0.075   3.534
  807SOL    HW2 3321   1.484   0.016   3.429
  808SOL     OW 3322   5.140   3.596   5.381
  808SOL    HW1 3323   5.059   3.650   5.363
  808SOL    HW2 3324   5.117   3.499   5.377
  809SOL     OW 3325   0.186   4.724   5.990
  809SOL    HW1 3326   0.136   4.647   6.032
  809SOL    HW2 3327   0.268   4.689   5.945
  810SOL     OW 3328   5.738   4.465   6.924
  810SOL    HW1 3329   5.749   4.551   6.974
  810SOL    HW2 3330   5.816   4.406   6.943
  811SOL     OW 3331   5.052   5.137   4.198
  811SOL    HW1 3332   5.006   5.217   4.159
  811SOL    HW2 3333   5.021   5.054   4.151
  812SOL     OW 3334   0.199   6.642   1.808
  812SOL    HW1 3335   0.299   6.648   1.812
  812SOL    HW2 3336   0.159   6.724   1.850
  813SOL     OW 3337   5.090   5.568   2.360
  813SOL    HW1 3338   5.087   5.600   2.265
  813SOL    HW2 3339   5.015   5.504   2.377
  814SOL     OW 3340   5.145   6.316   1.539
  814SOL    HW1 3341   5.094   6.277   1.463
  814SOL    HW2 3342   5.236   6.275   1.542
  815SOL     OW 3343   7.013   2.550   1.070
  815SOL    HW1 3344   6.985   2.544   1.165
  815SOL    HW2 3345   6.956   2.489   1.015
  816SOL     OW 3346   6.574   6.707   1.195
  816SOL    HW1 3347   6.626   6.779   1.148
  816SOL    HW2 3348   6.487   6.744   1.227
  817SOL     OW 3349   1.769   2.346   2.742
  817SOL    HW1 3350   1.764   2.379   2.647
  817SOL    HW2 3351   1.682   2.302   2.766
  818SOL     OW 3352   6.524   1.621   1.030
  818SOL    HW1 3353   6.471   1.706   1.036
  818SOL    HW2 3354   6.507   1.565   1.111
  819SOL     OW 3355   7.021   3.493   4.013
  819SOL    HW1 3356   0.017   3.433   4.090
  819SOL    HW2 3357   6.922   3.506   4.006
  820SOL     OW 3358   1.280   3.048   4.726
  820SOL    HW1 3359   1.319   2.992   4.799
  820SOL    HW2 3360   1.302   3.007   4.637
  821SOL     OW 3361   1.383   3.430   6.849
  821SOL    HW1 3362   1.442   3.474   6.781
  821SOL    HW2 3363   1.355   3.498   6.917
  822SOL     OW 3364   1.598   3.736   4.917
  822SOL    HW1 3365   1.509   3.692   4.929
  822SOL    HW2 3366   1.608   3.764   4.821
  823SOL     OW 3367   3.268   4.119   0.879
  823SOL    HW1 3368   3.253   4.216   0.896
  823SOL    HW2 3369   3.357   4.106   0.835
  824SOL     OW 3370   5.426   1.912   5.794
  824SOL    HW1 3371   5.392   1.900   5.701
  824SOL    HW2 3372   5.404   1.831   5.848
  825SOL     OW 3373   2.187   4.099   2.297
  825SOL    HW1 3374   2.139   4.012   2.288
  825SOL    HW2 3375   2.121   4.174   2.304
  826SOL     OW 3376   0.390   4.029   5.695
  826SOL    HW1 3377   0.484   4.060   5.684
  826SOL    HW2 3378   0.327   4.094   5.653
  827SOL     OW 3379   3.972   5.623   6.920
  827SOL    HW1 3380   4.037   5.633   6.995
  827SOL    HW2 3381   3.906   5.698   6.924
  828SOL     OW 3382   6.510   0.194   5.883
  828SOL    HW1 3383   6.486   0.227   5.974
  828SOL    HW2 3384   6.432   0.144   5.845
  829SOL     OW 3385   3.472   2.837   4.765
  829SOL    HW1 3386   3.476   2.744   4.728
  829SOL    HW2 3387   3.556   2.886   4.742
  830SOL     OW 3388   4.431   4.001   5.332
  830SOL    HW1 3389   4.333   4.020   5.327
  830SOL    HW2 3390   4.447   3.920   5.389
  831SOL     OW 3391   6.525   0.785   5.020
  831SOL    HW1 3392   6.457   0.819   4.955
  831SOL    HW2 3393   6.509   0.688   5.039
  832SOL     OW 3394   2.276   1.927   6.052
  832SOL    HW1 3395   2.184   1.891   6.043
  832SOL    HW2 3396   2.292   1.997   5.982
  833SOL     OW 3397   6.989   6.992   6.077
  833SOL    HW1 3398   6.893   7.014   6.061
  833SOL    HW2 3399   0.007   6.966   5.990
  834SOL     OW 3400   3.262   4.117   5.213
  834SOL    HW1 3401   3.182   4.175   5.195
  834SOL    HW2 3402   3.338   4.174   5.245
  835SOL     OW 3403   4.117   0.207   3.426
  835SOL    HW1 3404   4.033   0.173   3.469
  835SOL    HW2 3405   4.093   0.263   3.347
  836SOL     OW 3406   2.354   1.102   0.382
  836SOL    HW1 3407   2.346   1.167   0.306
  836SOL    HW2 3408   2.433   1.126   0.438
  837SOL     OW 3409   4.635   0.980   5.566
  837SOL    HW1 3410   4.702   0.918   5.526
  837SOL    HW2 3411   4.637   1.067   5.516
  838SOL     OW 3412   2.708   5.484   2.882
  838SOL    HW1 3413   2.792   5.524   2.918
  838SOL    HW2 3414   2.732   5.413   2.815
  839SOL     OW 3415   2.743   1.560   2.625
  839SOL    HW1 3416   2.741   1.499   2.546
  839SOL    HW2 3417   2.667   1.625   2.619
  840SOL     OW 3418   0.866   1.233   6.849
  840SOL    HW1 3419   0.928   1.172   6.800
  840SOL    HW2 3420   0.911   1.265   6.933
  841SOL     OW 3421   0.821   3.586   6.895
  841SOL    HW1 3422   0.816   3.674   6.849
  841SOL    HW2 3423   0.732   3.541   6.892
  842SOL     OW 3424   3.632   5.402   3.588
  842SOL    HW1 3425   3.718   5.405   3.538
  842SOL    HW2 3426   3.579   5.322   3.559
  843SOL     OW 3427   6.625   2.263   1.859
  843SOL    HW1 3428   6.534   2.223   1.849
  843SOL    HW2 3429   6.693   2.201   1.821
  844SOL     OW 3430   5.420   5.555   0.468
  844SOL    HW1 3431   5.369   5.559   0.554
  844SOL    HW2 3432   5.478   5.636   0.460
  845SOL     OW 3433   0.575   4.316   4.950
  845SOL    HW1 3434   0.649   4.377   4.976
  845SOL    HW2 3435   0.610   4.246   4.888
  846SOL     OW 3436   6.173   1.862   6.391
  846SOL    HW1 3437   6.269   1.835   6.401
  846SOL    HW2 3438   6.120   1.821   6.465
  847SOL     OW 3439   4.942   3.428   2.117
  847SOL    HW1 3440   4.869   3.469   2.172
  847SOL    HW2 3441   4.938   3.328   2.125
  848SOL     OW 3442   6.115   0.441   5.842
  848SOL    HW1 3443   6.198   0.473   5.887
  848SOL    HW2 3444   6.042   0.431   5.909
  849SOL     OW 3445   0.257   5.295   4.442
  849SOL    HW1 3446   0.316   5.343   4.378
  849SOL    HW2 3447   0.307   5.278   4.527
  850SOL     OW 3448   3.708   0.674   3.027
  850SOL    HW1 3449   3.773   0.630   2.966
  850SOL    HW2 3450   3.623   0.695   2.977
  851SOL     OW 3451   1.275   0.661   6.251
  851SOL    HW1 3452   1.191   0.644   6.198
  851SOL    HW2 3453   1.287   0.588   6.318
  852SOL     OW 3454   2.303   4.096   6.587
  852SOL    HW1 3455   2.347   4.010   6.558
  852SOL    HW2 3456   2.362   4.142   6.653
  853SOL     OW 3457   1.866   3.989   1.473
  853SOL    HW1 3458   1.834   4.025   1.386
  853SOL    HW2 3459   1.899   4.064   1.530
  854SOL     OW 3460   5.711   5.186   1.744
  854SOL    HW1 3461   5.747   5.119   1.679
  854SOL    HW2 3462   5.639   5.144   1.799
  855SOL     OW 3463   5.314   0.384   1.762
  855SOL    HW1 3464   5.399   0.334   1.780
  855SOL    HW2 3465   5.262   0.336   1.691
  856SOL     OW 3466   1.710   6.886   5.272
  856SOL    HW1 3467   1.653   6.820   5.224
  856SOL    HW2 3468   1.788   6.839   5.313
  857SOL     OW 3469   6.696   3.533   2.319
  857SOL    HW1 3470   6.664   3.574   2.233
  857SOL    HW2 3471   6.761   3.595   2.363
  858SOL     OW 3472   3.027   4.447   1.007
  858SOL    HW1 3473   3.118   4.406   1.007
  858SOL    HW2 3474   3.034   4.545   0.987
  859SOL     OW 3475   6.807   4.832   6.696
  859SOL    HW1 3476   6.859   4.880   6.625
  859SOL    HW2 3477   6.784   4.740   6.665
  860SOL     OW 3478   2.133   4.842   1.758
  860SOL    HW1 3479   2.057   4.777   1.770
  860SOL    HW2 3480   2.216   4.803   1.797
  861SOL     OW 3481   3.266   5.633   5.551
  861SOL    HW1 3482   3.274   5.717   5.497
  861SOL    HW2 3483   3.216   5.564   5.499
  862SOL     OW 3484   4.409   4.590   4.385
  862SOL    HW1 3485   4.371   4.601   4.477
  862SOL    HW2 3486   4.462   4.505   4.381
  863SOL     OW 3487   5.869   1.212   1.310
  863SOL    HW1 3488   5.832   1.168   1.229
  863SOL    HW2 3489   5.925   1.146   1.361
  864SOL     OW 3490   6.029   4.380   2.889
  864SOL    HW1 3491   6.006   4.477   2.876
  864SOL    HW2 3492   5.948   4.325   2.869
  865SOL     OW 3493   1.520   0.208   4.648
  865SOL    HW1 3494   1.588   0.268   4.607
  865SOL    HW2 3495   1.452   0.182   4.578
  866SOL     OW 3496   3.498   1.885   1.485
  866SOL    HW1 3497   3.433   1.825   1.437
  866SOL    HW2 3498   3.449   1.964   1.521
  867SOL     OW 3499   1.247   2.570   5.868
  867SOL    HW1 3500   1.188   2.632   5.920
  867SOL    HW2 3501   1.334   2.614   5.850
  868SOL     OW 3502   5.076   2.598   3.183
  868SOL    HW1 3503   5.060   2.611   3.085
  868SOL    HW2 3504   5.128   2.514   3.197
  869SOL     OW 3505   6.622   4.705   2.905
  869SOL    HW1 3506   6.651   4.613   2.930
  869SOL    HW2 3507   6.670   4.734   2.822
  870SOL     OW 3508   0.086   1.923   1.074
  870SOL    HW1 3509   0.068   1.984   1.152
  870SOL    HW2 3510   0.147   1.970   1.009
  871SOL     OW 3511   6.218   3.311   0.548
  871SOL    HW1 3512   6.229   3.402   0.588
  871SOL    HW2 3513   6.303   3.283   0.503
  872SOL     OW 3514   5.998   2.408   2.866
  872SOL    HW1 3515   6.065   2.409   2.941
  872SOL    HW2 3516   6.003   2.321   2.818
  873SOL     OW 3517   4.564   6.687   5.330
  873SOL    HW1 3518   4.532   6.707   5.423
  873SOL    HW2 3519   4.490   6.645   5.278
  874SOL     OW 3520   0.568   3.897   6.002
  874SOL    HW1 3521   0.635   3.880   5.929
  874SOL    HW2 3522   0.481   3.854   5.978
  875SOL     OW 3523   6.151   4.608   6.751
  875SOL    HW1 3524   6.151   4.509   6.736
  875SOL    HW2 3525   6.113   4.653   6.670
  876SOL     OW 3526   0.888   3.285   1.984
  876SOL    HW1 3527   0.962   3.231   2.024
  876SOL    HW2 3528   0.803   3.266   2.032
  877SOL     OW 3529   5.555   5.761   0.412
  877SOL    HW1 3530   5.532   5.814   0.330
  877SOL    HW2 3531   5.653   5.742   0.413
  878SOL     OW 3532   2.901   4.019   0.249
  878SOL    HW1 3533   2.962   3.941   0.241
  878SOL    HW2 3534   2.934   4.093   0.190
  879SOL     OW 3535   4.575   1.982   2.137
  879SOL    HW1 3536   4.643   1.963   2.066
  879SOL    HW2 3537   4.498   2.032   2.097
  880SOL     OW 3538   4.083   5.319   0.743
  880SOL    HW1 3539   4.072   5.238   0.801
  880SOL    HW2 3540   4.131   5.390   0.794
  881SOL     OW 3541   4.350   5.166   4.845
  881SOL    HW1 3542   4.274   5.177   4.909
  881SOL    HW2 3543   4.328   5.211   4.759
  882SOL     OW 3544   0.833   1.111   4.724
  882SOL    HW1 3545   0.909   1.058   4.686
  882SOL    HW2 3546   0.866   1.202   4.748
  883SOL     OW 3547   3.064   5.070   6.295
  883SOL    HW1 3548   3.053   5.134   6.220
  883SOL    HW2 3549   2.993   4.999   6.289
  884SOL     OW 3550   4.807   3.827   1.501
  884SOL    HW1 3551   4.789   3.897   1.432
  884SOL    HW2 3552   4.748   3.843   1.580
  885SOL     OW 3553   4.246   5.976   6.950
  885SOL    HW1 3554   4.343   5.987   6.972
  885SOL    HW2 3555   4.196   5.952   0.008
  886SOL     OW 3556   4.847   1.298   6.077
  886SOL    HW1 3557   4.764   1.339   6.113
  886SOL    HW2 3558   4.893   1.363   6.018
  887SOL     OW 3559   4.869   0.594   6.168
  887SOL    HW1 3560   4.885   0.691   6.188
  887SOL    HW2 3561   4.795   0.585   6.101
  888SOL     OW 3562   6.036   6.316   3.381
  888SOL    HW1 3563   5.990   6.399   3.349
  888SOL    HW2 3564   5.998   6.236   3.335
  889SOL     OW 3565   0.813   6.766   4.772
  889SOL    HW1 3566   0.781   6.765   4.677
  889SOL    HW2 3567   0.884   6.835   4.782
  890SOL     OW 3568   2.693   4.854   2.021
  890SOL    HW1 3569   2.723   4.780   1.961
  890SOL    HW2 3570   2.737   4.844   2.111
  891SOL     OW 3571   6.149   3.198   6.315
  891SOL    HW1 3572   6.138   3.102   6.289
  891SOL    HW2 3573   6.173   3.251   6.233
  892SOL     OW 3574   3.001   5.119   1.835
  892SOL    HW1 3575   3.084   5.173   1.846
  892SOL    HW2 3576   2.961   5.101   1.925
  893SOL     OW 3577   2.154   0.546   0.543
  893SOL    HW1 3578   2.178   0.600   0.461
  893SOL    HW2 3579   2.179   0.450   0.527
  894SOL     OW 3580   0.993   5.506   3.582
  894SOL    HW1 3581   1.006   5.572   3.508
  894SOL    HW2 3582   0.946   5.425   3.545
  895SOL     OW 3583   1.924   7.005   4.961
  895SOL    HW1 3584   1.871   0.045   5.017
  895SOL    HW2 3585   1.871   6.921   4.948
  896SOL     OW 3586   5.561   6.754   3.159
  896SOL    HW1 3587   5.630   6.813   3.202
  896SOL    HW2 3588   5.475   6.804   3.150
  897SOL     OW 3589   5.618   2.750   6.027
  897SOL    HW1 3590   5.544   2.748   5.960
  897SOL    HW2 3591   5.619   2.838   6.074
  898SOL     OW 3592   6.060   6.368   4.147
  898SOL    HW1 3593   6.001   6.332   4.075
  898SOL    HW2 3594   6.092   6.460   4.122
  899SOL     OW 3595   0.715   5.083   6.573
  899SOL    HW1 3596   0.638   5.138   6.538
  899SOL    HW2 3597   0.681   4.997   6.611
  900SOL     OW 3598   0.835   5.914   3.749
  900SOL    HW1 3599   0.907   5.956   3.694
  900SOL    HW2 3600   0.750   5.966   3.737
  901SOL     OW 3601   5.569   2.577   3.315
  901SOL    HW1 3602   5.507   2.520   3.370
  901SOL    HW2 3603   5.664   2.553   3.337
  902SOL     OW 3604   0.028   6.380   0.170
  902SOL    HW1 3605   0.039   6.411   0.264
  902SOL    HW2 3606   6.972   6.424   0.130
  903SOL     OW 3607   0.840   4.109   0.468
  903SOL    HW1 3608   0.823   4.039   0.538
  903SOL    HW2 3609   0.910   4.172   0.501
  904SOL     OW 3610   1.793   1.637   3.376
  904SOL    HW1 3611   1.884   1.598   3.366
  904SOL    HW2 3612   1.799   1.725   3.423
  905SOL     OW 3613   5.468   1.690   5.247
  905SOL    HW1 3614   5.427   1.599   5.240
  905SOL    HW2 3615   5.555   1.691   5.199
  906SOL     OW 3616   6.346   4.005   5.143
  906SOL    HW1 3617   6.304   4.065   5.074
  906SOL    HW2 3618   6.313   4.031   5.234
  907SOL     OW 3619   6.610   3.387   1.704
  907SOL    HW1 3620   6.692   3.330   1.704
  907SOL    HW2 3621   6.549   3.357   1.778
  908SOL     OW 3622   1.566   0.765   3.282
  908SOL    HW1 3623   1.552   0.783   3.380
  908SOL    HW2 3624   1.478   0.761   3.236
  909SOL     OW 3625   3.733   0.357   1.098
  909SOL    HW1 3626   3.765   0.286   1.034
  909SOL    HW2 3627   3.810   0.415   1.124
  910SOL     OW 3628   2.052   1.634   1.622
  910SOL    HW1 3629   1.995   1.678   1.691
  910SOL    HW2 3630   2.127   1.585   1.667
  911SOL     OW 3631   0.292   4.014   1.025
  911SOL    HW1 3632   0.375   3.971   0.991
  911SOL    HW2 3633   0.301   4.030   1.124
  912SOL     OW 3634   0.735   0.518   6.111
  912SOL    HW1 3635   0.791   0.529   6.193
  912SOL    HW2 3636   0.673   0.441   6.124
  913SOL     OW 3637   2.342   1.235   1.801
  913SOL    HW1 3638   2.345   1.160   1.734
  913SOL    HW2 3639   2.421   1.227   1.862
  914SOL     OW 3640   2.892   6.726   3.204
  914SOL    HW1 3641   2.902   6.659   3.130
  914SOL    HW2 3642   2.907   6.818   3.167
  915SOL     OW 3643   1.080   2.194   6.865
  915SOL    HW1 3644   0.988   2.157   6.877
  915SOL    HW2 3645   1.145   2.120   6.848
  916SOL     OW 3646   1.587   3.315   3.020
  916SOL    HW1 3647   1.588   3.414   3.030
  916SOL    HW2 3648   1.671   3.284   2.976
  917SOL     OW 3649   3.368   2.445   6.633
  917SOL    HW1 3650   3.305   2.369   6.620
  917SOL    HW2 3651   3.458   2.410   6.658
  918SOL     OW 3652   1.194   0.793   5.715
  918SOL    HW1 3653   1.274   0.821   5.768
  918SOL    HW2 3654   1.146   0.874   5.682
  919SOL     OW 3655   2.336   6.577   1.201
  919SOL    HW1 3656   2.366   6.547   1.292
  919SOL    HW2 3657   2.236   6.585   1.200
  920SOL     OW 3658   1.931   0.466   4.412
  920SOL    HW1 3659   1.975   0.419   4.336
  920SOL    HW2 3660   1.942   0.565   4.402
  921SOL     OW 3661   5.272   5.130   6.350
  921SOL    HW1 3662   5.310   5.085   6.269
  921SOL    HW2 3663   5.234   5.219   6.323
  922SOL     OW 3664   2.106   3.767   6.437
  922SOL    HW1 3665   2.124   3.735   6.344
  922SOL    HW2 3666   2.088   3.865   6.436
  923SOL     OW 3667   4.176   1.124   6.655
  923SOL    HW1 3668   4.115   1.054   6.690
  923SOL    HW2 3669   4.198   1.105   6.559
  924SOL     OW 3670   6.366   3.960   3.288
  924SOL    HW1 3671   6.311   3.876   3.280
  924SOL    HW2 3672   6.362   4.011   3.202
  925SOL     OW 3673   6.068   2.176   3.152
  925SOL    HW1 3674   6.142   2.144   3.092
  925SOL    HW2 3675   5.981   2.139   3.120
  926SOL     OW 3676   5.256   6.276   0.723
  926SOL    HW1 3677   5.166   6.253   0.759
  926SOL    HW2 3678   5.326   6.239   0.784
  927SOL     OW 3679   4.266   4.904   4.840
  927SOL    HW1 3680   4.263   4.860   4.930
  927SOL    HW2 3681   4.314   4.991   4.848
  928SOL     OW 3682   0.841   0.966   1.574
  928SOL    HW1 3683   0.826   0.869   1.560
  928SOL    HW2 3684   0.838   0.987   1.672
  929SOL     OW 3685   0.757   2.534   2.661
  929SOL    HW1 3686   0.796   2.460   2.715
  929SOL    HW2 3687   0.710   2.496   2.582
  930SOL     OW 3688   4.879   6.100   3.405
  930SOL    HW1 3689   4.967   6.053   3.405
  930SOL    HW2 3690   4.809   6.040   3.447
  931SOL     OW 3691   1.895   2.896   1.995
  931SOL    HW1 3692   1.881   2.944   1.908
  931SOL    HW2 3693   1.821   2.829   2.008
  932SOL     OW 3694   4.685   6.376   1.099
  932SOL    HW1 3695   4.598   6.330   1.117
  932SOL    HW2 3696   4.668   6.473   1.080
  933SOL     OW 3697   1.928   6.388   3.310
  933SOL    HW1 3698   1.990   6.377   3.233
  933SOL    HW2 3699   1.846   6.332   3.295
  934SOL     OW 3700   3.008   1.313   5.542
  934SOL    HW1 3701   2.923   1.264   5.559
  934SOL    HW2 3702   2.998   1.409   5.568
  935SOL     OW 3703   2.684   2.926   6.645
  935SOL    HW1 3704   2.762   2.978   6.610
  935SOL    HW2 3705   2.628   2.986   6.702
  936SOL     OW 3706   0.281   1.614   1.811
  936SOL    HW1 3707   0.315   1.583   1.722
  936SOL    HW2 3708   0.193   1.570   1.830
  937SOL     OW 3709   4.715   2.341   3.942
  937SOL    HW1 3710   4.768   2.407   3.995
  937SOL    HW2 3711   4.759   2.328   3.853
  938SOL     OW 3712   6.670   2.051   0.198
  938SOL    HW1 3713   6.584   2.050   0.250
  938SOL    HW2 3714   6.706   1.959   0.191
  939SOL     OW 3715   6.169   0.938   6.026
  939SOL    HW1 3716   6.117   1.023   6.020
  939SOL    HW2 3717   6.255   0.949   5.976
  940SOL     OW 3718   0.516   0.746   4.426
  940SOL    HW1 3719   0.580   0.712   4.357
  940SOL    HW2 3720   0.537   0.841   4.447
  941SOL     OW 3721   5.335   3.009   4.895
  941SOL    HW1 3722   5.376   3.020   4.804
  941SOL    HW2 3723   5.256   2.948   4.888
  942SOL     OW 3724   5.010   0.147   5.569
  942SOL    HW1 3725   5.028   0.105   5.480
  942SOL    HW2 3726   5.012   0.247   5.560
  943SOL     OW 3727   5.827   1.992   6.947
  943SOL    HW1 3728   5.878   1.977   6.862
  943SOL    HW2 3729   5.768   1.914   6.965
  944SOL     OW 3730   6.231   3.996   4.623
  944SOL    HW1 3731   6.168   3.932   4.579
  944SOL    HW2 3732   6.290   3.946   4.687
  945SOL     OW 3733   5.427   4.010   5.384
  945SOL    HW1 3734   5.474   3.922   5.376
  945SOL    HW2 3735   5.452   4.068   5.307
  946SOL     OW 3736   6.058   3.243   5.872
  946SOL    HW1 3737   5.973   3.275   5.832
  946SOL    HW2 3738   6.070   3.146   5.851
  947SOL     OW 3739   1.623   3.199   5.570
  947SOL    HW1 3740   1.717   3.199   5.537
  947SOL    HW2 3741   1.592   3.294   5.583
  948SOL     OW 3742   3.752   1.870   0.409
  948SOL    HW1 3743   3.671   1.889   0.353
  948SOL    HW2 3744   3.725   1.862   0.505
  949SOL     OW 3745   5.817   5.887   6.394
  949SOL    HW1 3746   5.795   5.979   6.426
  949SOL    HW2 3747   5.907   5.889   6.348
  950SOL     OW 3748   4.073   5.572   1.164
  950SOL    HW1 3749   4.124   5.575   1.079
  950SOL    HW2 3750   4.088   5.484   1.209
  951SOL     OW 3751   1.093   2.346   3.360
  951SOL    HW1 3752   1.077   2.420   3.425
  951SOL    HW2 3753   1.007   2.326   3.312
  952SOL     OW 3754   5.423   1.727   1.588
  952SOL    HW1 3755   5.465   1.739   1.498
  952SOL    HW2 3756   5.492   1.697   1.653
  953SOL     OW 3757   3.768   6.991   6.323
  953SOL    HW1 3758   3.762   6.892   6.311
  953SOL    HW2 3759   3.759   0.011   6.234
  954SOL     OW 3760   0.499   6.330   1.048
  954SOL    HW1 3761   0.421   6.327   0.985
  954SOL    HW2 3762   0.475   6.285   1.133
  955SOL     OW 3763   6.470   6.820   2.086
  955SOL    HW1 3764   6.490   6.902   2.033
  955SOL    HW2 3765   6.541   6.807   2.156
  956SOL     OW 3766   0.712   2.467   0.323
  956SOL    HW1 3767   0.788   2.450   0.260
  956SOL    HW2 3768   0.641   2.520   0.276
  957SOL     OW 3769   2.665   6.324   5.540
  957SOL    HW1 3770   2.664   6.406   5.483
  957SOL    HW2 3771   2.636   6.245   5.486
  958SOL     OW 3772   4.967   2.344   0.179
  958SOL    HW1 3773   4.879   2.302   0.202
  958SOL    HW2 3774   5.016   2.367   0.263
  959SOL     OW 3775   1.486   4.382   2.424
  959SOL    HW1 3776   1.499   4.461   2.365
  959SOL    HW2 3777   1.568   4.324   2.421
  960SOL     OW 3778   1.728   5.628   5.462
  960SOL    HW1 3779   1.714   5.650   5.366
  960SOL    HW2 3780   1.777   5.704   5.506
  961SOL     OW 3781   3.789   6.863   1.796
  961SOL    HW1 3782   3.834   6.951   1.780
  961SOL    HW2 3783   3.716   6.875   1.864
  962SOL     OW 3784   1.315   6.692   3.955
  962SOL    HW1 3785   1.349   6.630   3.884
  962SOL    HW2 3786   1.388   6.754   3.983
  963SOL     OW 3787   5.792   0.671   1.949
  963SOL    HW1 3788   5.811   0.640   2.042
  963SOL    HW2 3789   5.878   0.695   1.903
  964SOL     OW 3790   5.138   4.002   1.428
  964SOL    HW1 3791   5.202   4.079   1.428
  964SOL    HW2 3792   5.045   4.035   1.414
  965SOL     OW 3793   1.361   2.146   1.034
  965SOL    HW1 3794   1.419   2.227   1.039
  965SOL    HW2 3795   1.323   2.127   1.125
  966SOL     OW 3796   0.267   2.090   1.592
  966SOL    HW1 3797   0.282   2.010   1.533
  966SOL    HW2 3798   0.195   2.069   1.658
  967SOL     OW 3799   0.633   5.955   2.510
  967SOL    HW1 3800   0.725   5.976   2.477
  967SOL    HW2 3801   0.592   6.038   2.549
  968SOL     OW 3802   6.247   3.976   2.386
  968SOL    HW1 3803   6.160   3.943   2.422
  968SOL    HW2 3804   6.233   4.063   2.339
  969SOL     OW 3805   4.457   6.472   6.217
  969SOL    HW1 3806   4.383   6.405   6.210
  969SOL    HW2 3807   4.431   6.545   6.281
  970SOL     OW 3808   4.409   2.282   5.279
  970SOL    HW1 3809   4.457   2.233   5.206
  970SOL    HW2 3810   4.475   2.316   5.346
  971SOL     OW 3811   0.568   2.500   1.687
  971SOL    HW1 3812   0.591   2.496   1.784
  971SOL    HW2 3813   0.532   2.411   1.658
  972SOL     OW 3814   6.588   5.712   1.810
  972SOL    HW1 3815   6.686   5.695   1.818
  972SOL    HW2 3816   6.549   5.725   1.901
  973SOL     OW 3817   6.228   4.306   5.354
  973SOL    HW1 3818   6.301   4.375   5.346
  973SOL    HW2 3819   6.239   4.256   5.440
  974SOL     OW 3820   2.731   1.301   4.189
  974SOL    HW1 3821   2.678   1.252   4.120
  974SOL    HW2 3822   2.670   1.356   4.246
  975SOL     OW 3823   3.722   6.932   5.547
  975SOL    HW1 3824   3.786   6.862   5.579
  975SOL    HW2 3825   3.739   7.017   5.596
  976SOL     OW 3826   0.174   5.567   3.731
  976SOL    HW1 3827   0.116   5.563   3.649
  976SOL    HW2 3828   0.263   5.528   3.710
  977SOL     OW 3829   1.278   1.968   3.061
  977SOL    HW1 3830   1.284   2.016   3.149
  977SOL    HW2 3831   1.190   1.988   3.018
  978SOL     OW 3832   5.774   3.008   4.862
  978SOL    HW1 3833   5.869   2.979   4.876
  978SOL    HW2 3834   5.750   3.078   4.929
  979SOL     OW 3835   5.233   0.842   3.359
  979SOL    HW1 3836   5.250   0.760   3.414
  979SOL    HW2 3837   5.145   0.834   3.313
  980SOL     OW 3838   6.085   0.870   4.703
  980SOL    HW1 3839   6.021   0.863   4.780
  980SOL    HW2 3840   6.092   0.781   4.657
  981SOL     OW 3841   0.285   2.921   5.455
  981SOL    HW1 3842   0.320   2.829   5.436
  981SOL    HW2 3843   0.326   2.986   5.391
  982SOL     OW 3844   1.421   3.141   1.404
  982SOL    HW1 3845   1.404   3.164   1.500
  982SOL    HW2 3846   1.374   3.055   1.382
  983SOL     OW 3847   5.561   1.580   2.788
  983SOL    HW1 3848   5.634   1.610   2.850
  983SOL    HW2 3849   5.518   1.498   2.824
  984SOL     OW 3850   4.819   1.121   4.343
  984SOL    HW1 3851   4.724   1.149   4.344
  984SOL    HW2 3852   4.856   1.133   4.250
  985SOL     OW 3853   3.308   5.195   0.129
  985SOL    HW1 3854   3.396   5.241   0.114
  985SOL    HW2 3855   3.319   5.123   0.197
  986SOL     OW 3856   4.600   5.005   6.463
  986SOL    HW1 3857   4.568   5.099   6.467
  986SOL    HW2 3858   4.699   5.004   6.451
  987SOL     OW 3859   3.459   6.807   2.549
  987SOL    HW1 3860   3.530   6.738   2.560
  987SOL    HW2 3861   3.501   6.897   2.542
  988SOL     OW 3862   3.323   3.999   2.080
  988SOL    HW1 3863   3.259   4.060   2.034
  988SOL    HW2 3864   3.395   4.053   2.123
  989SOL     OW 3865   1.295   0.003   4.794
  989SOL    HW1 3866   1.302   6.981   4.707
  989SOL    HW2 3867   1.380   0.054   4.811
  990SOL     OW 3868   4.831   6.069   3.756
  990SOL    HW1 3869   4.798   6.163   3.763
  990SOL    HW2 3870   4.875   6.042   3.841
  991SOL     OW 3871   6.486   1.373   4.870
  991SOL    HW1 3872   6.491   1.332   4.961
  991SOL    HW2 3873   6.421   1.449   4.872
  992SOL     OW 3874   0.403   3.498   0.903
  992SOL    HW1 3875   0.498   3.514   0.875
  992SOL    HW2 3876   0.380   3.402   0.891
  993SOL     OW 3877   3.459   4.908   3.947
  993SOL    HW1 3878   3.420   4.901   3.855
  993SOL    HW2 3879   3.558   4.910   3.942
  994SOL     OW 3880   2.860   3.367   2.369
  994SOL    HW1 3881   2.901   3.277   2.359
  994SOL    HW2 3882   2.802   3.386   2.290
  995SOL     OW 3883   0.996   1.436   5.047
  995SOL    HW1 3884   1.092   1.441   5.072
  995SOL    HW2 3885   0.949   1.519   5.079
  996SOL     OW 3886   1.257   4.012   2.257
  996SOL    HW1 3887   1.239   3.981   2.350
  996SOL    HW2 3888   1.248   3.935   2.194
  997SOL     OW 3889   6.647   1.104   1.615
  997SOL    HW1 3890   6.576   1.070   1.676
  997SOL    HW2 3891   6.624   1.082   1.520
  998SOL     OW 3892   5.158   0.256   3.107
  998SOL    HW1 3893   5.241   0.302   3.136
  998SOL    HW2 3894   5.080   0.293   3.158
  999SOL     OW 3895   0.064   5.709   1.055
  999SOL    HW1 3896   0.098   5.615   1.062
  999SOL    HW2 3897   0.001   5.716   0.978
 1000SOL     OW 3898   3.789   1.707   3.782
 1000SOL    HW1 3899   3.787   1.611   3.812
 1000SOL    HW2 3900   3.700   1.749   3.801
 1001SOL     OW 3901   4.626   0.176   5.443
 1001SOL    HW1 3902   4.684   0.166   5.363
 1001SOL    HW2 3903   4.638   0.097   5.503
 1002SOL     OW 3904   6.773   1.451   0.937
 1002SOL    HW1 3905   6.694   1.453   0.998
 1002SOL    HW2 3906   6.829   1.371   0.958
 1003SOL     OW 3907   4.346   5.245   2.647
 1003SOL    HW1 3908   4.333   5.343   2.634
 1003SOL    HW2 3909   4.257   5.199   2.652
 1004SOL     OW 3910   6.084   5.709   0.050
 1004SOL    HW1 3911   6.077   5.781   7.007
 1004SOL    HW2 3912   6.153   5.642   0.021
 1005SOL     OW 3913   6.682   6.496   4.034
 1005SOL    HW1 3914   6.638   6.418   4.079
 1005SOL    HW2 3915   6.765   6.466   3.988
 1006SOL     OW 3916   2.367   4.323   1.058
 1006SOL    HW1 3917   2.327   4.371   1.136
 1006SOL    HW2 3918   2.364   4.224   1.073
 1007SOL     OW 3919   0.553   0.824   3.309
 1007SOL    HW1 3920   0.628   0.867   3.259
 1007SOL    HW2 3921   0.568   0.726   3.314
 1008SOL     OW 3922   2.185   3.161   3.259
 1008SOL    HW1 3923   2.261   3.226   3.262
 1008SOL    HW2 3924   2.104   3.207   3.222
 1009SOL     OW 3925   1.546   6.052   4.995
 1009SOL    HW1 3926   1.525   6.148   4.976
 1009SOL    HW2 3927   1.467   5.995   4.971
 1010SOL     OW 3928   4.972   1.325   0.070
 1010SOL    HW1 3929   4.954   1.418   0.039
 1010SOL    HW2 3930   4.886   1.276   0.081
 1011SOL     OW 3931   3.585   6.179   3.634
 1011SOL    HW1 3932   3.540   6.227   3.559
 1011SOL    HW2 3933   3.610   6.087   3.606
 1012SOL     OW 3934   5.063   5.448   7.017
 1012SOL    HW1 3935   5.117   5.501   0.057
 1012SOL    HW2 3936   5.090   5.469   6.924
 1013SOL     OW 3937   0.700   0.945   1.329
 1013SOL    HW1 3938   0.769   0.963   1.399
 1013SOL    HW2 3939   0.744   0.929   1.241
 1014SOL     OW 3940   4.525   0.311   5.926
 1014SOL    HW1 3941   4.439   0.352   5.896
 1014SOL    HW2 3942   4.571   0.269   5.848
 1015SOL     OW 3943   3.302   6.163   4.241
 1015SOL    HW1 3944   3.227   6.192   4.300
 1015SOL    HW2 3945   3.264   6.130   4.154
 1016SOL     OW 3946   4.564   2.783   1.459
 1016SOL    HW1 3947   4.656   2.795   1.423
 1016SOL    HW2 3948   4.559   2.822   1.551
 1017SOL     OW 3949   4.182   1.855   6.737
 1017SOL    HW1 3950   4.178   1.839   6.639
 1017SOL    HW2 3951   4.215   1.773   6.784
 1018SOL     OW 3952   1.551   3.768   2.502
 1018SOL    HW1 3953   1.633   3.782   2.558
 1018SOL    HW2 3954   1.470   3.777   2.560
 1019SOL     OW 3955   6.636   1.023   0.551
 1019SOL    HW1 3956   6.732   1.003   0.570
 1019SOL    HW2 3957   6.595   1.071   0.629
 1020SOL     OW 3958   2.784   1.510   1.711
 1020SOL    HW1 3959   2.837   1.482   1.792
 1020SOL    HW2 3960   2.837   1.578   1.660
 1021SOL     OW 3961   6.707   1.470   1.232
 1021SOL    HW1 3962   6.786   1.431   1.185
 1021SOL    HW2 3963   6.739   1.533   1.304
 1022SOL     OW 3964   4.092   2.908   6.547
 1022SOL    HW1 3965   4.112   3.004   6.530
 1022SOL    HW2 3966   4.111   2.887   6.643
 1023SOL     OW 3967   5.185   1.293   3.749
 1023SOL    HW1 3968   5.247   1.372   3.751
 1023SOL    HW2 3969   5.193   1.246   3.661
 1024SOL     OW 3970   6.209   1.640   3.335
 1024SOL    HW1 3971   6.180   1.616   3.242
 1024SOL    HW2 3972   6.308   1.628   3.344
 1025SOL     OW 3973   3.087   4.677   1.184
 1025SOL    HW1 3974   3.018   4.687   1.255
 1025SOL    HW2 3975   3.160   4.616   1.216
 1026SOL     OW 3976   1.333   2.661   0.134
 1026SOL    HW1 3977   1.400   2.596   0.098
 1026SOL    HW2 3978   1.377   2.719   0.203
 1027SOL     OW 3979   2.803   4.922   2.590
 1027SOL    HW1 3980   2.758   4.840   2.624
 1027SOL    HW2 3981   2.826   4.910   2.493
 1028SOL     OW 3982   1.644   6.366   0.681
 1028SOL    HW1 3983   1.650   6.271   0.713
 1028SOL    HW2 3984   1.715   6.383   0.613
 1029SOL     OW 3985   2.750   1.177   6.320
 1029SOL    HW1 3986   2.756   1.080   6.341
 1029SOL    HW2 3987   2.808   1.197   6.241
 1030SOL     OW 3988   3.514   4.179   4.580
 1030SOL    HW1 3989   3.586   4.183   4.650
 1030SOL    HW2 3990   3.458   4.262   4.587
 1031SOL     OW 3991   2.486   5.344   1.124
 1031SOL    HW1 3992   2.559   5.377   1.185
 1031SOL    HW2 3993   2.409   5.407   1.127
 1032SOL     OW 3994   1.951   0.724   4.369
 1032SOL    HW1 3995   1.881   0.792   4.390
 1032SOL    HW2 3996   1.987   0.740   4.278
 1033SOL     OW 3997   2.214   5.813   3.477
 1033SOL    HW1 3998   2.281   5.885   3.457
 1033SOL    HW2 3999   2.171   5.783   3.393
 1034SOL     OW 4000   1.341   4.916   3.629
 1034SOL    HW1 4001   1.266   4.956   3.681
 1034SOL    HW2 4002   1.426   4.965   3.649
 1035SOL     OW 4003   2.490   1.337   4.630
 1035SOL    HW1 4004   2.424   1.409   4.654
 1035SOL    HW2 4005   2.473   1.256   4.687
 1036SOL     OW 4006   5.156   1.935   0.096
 1036SOL    HW1 4007   5.207   1.856   0.130
 1036SOL    HW2 4008   5.202   2.019   0.125
 1037SOL     OW 4009   2.855   2.246   6.701
 1037SOL    HW1 4010   2.931   2.297   6.739
 1037SOL    HW2 4011   2.871   2.148   6.711
 1038SOL     OW 4012   2.243   1.117   4.364
 1038SOL    HW1 4013   2.289   1.177   4.298
 1038SOL    HW2 4014   2.285   1.026   4.360
 1039SOL     OW 4015   3.907   1.464   3.422
 1039SOL    HW1 4016   3.901   1.547   3.479
 1039SOL    HW2 4017   3.895   1.489   3.326
 1040SOL     OW 4018   6.689   4.311   3.219
 1040SOL    HW1 4019   6.592   4.284   3.213
 1040SOL    HW2 4020   6.744   4.230   3.238
 1041SOL     OW 4021   0.602   0.019   4.352
 1041SOL    HW1 4022   0.630   7.022   4.445
 1041SOL    HW2 4023   0.572   0.115   4.347
 1042SOL     OW 4024   5.283   4.187   0.697
 1042SOL    HW1 4025   5.342   4.264   0.722
 1042SOL    HW2 4026   5.276   4.124   0.775
 1043SOL     OW 4027   2.890   1.310   6.650
 1043SOL    HW1 4028   2.900   1.406   6.673
 1043SOL    HW2 4029   2.852   1.300   6.558
 1044SOL     OW 4030   4.163   3.608   1.851
 1044SOL    HW1 4031   4.073   3.611   1.809
 1044SOL    HW2 4032   4.232   3.587   1.782
 1045SOL     OW 4033   3.314   1.432   3.233
 1045SOL    HW1 4034   3.217   1.434   3.207
 1045SOL    HW2 4035   3.351   1.524   3.230
 1046SOL     OW 4036   3.541   0.945   1.866
 1046SOL    HW1 4037   3.499   0.877   1.926
 1046SOL    HW2 4038   3.521   1.037   1.899
 1047SOL     OW 4039   1.069   5.120   2.122
 1047SOL    HW1 4040   1.063   5.122   2.222
 1047SOL    HW2 4041   1.103   5.208   2.089
 1048SOL     OW 4042   5.797   4.534   5.647
 1048SOL    HW1 4043   5.740   4.505   5.570
 1048SOL    HW2 4044   5.848   4.456   5.682
 1049SOL     OW 4045   0.691   3.174   4.751
 1049SOL    HW1 4046   0.660   3.112   4.680
 1049SOL    HW2 4047   0.746   3.248   4.711
 1050SOL     OW 4048   3.492   0.505   6.635
 1050SOL    HW1 4049   3.403   0.483   6.675
 1050SOL    HW2 4050   3.484   0.589   6.582
 1051SOL     OW 4051   4.353   4.571   1.528
 1051SOL    HW1 4052   4.432   4.604   1.579
 1051SOL    HW2 4053   4.309   4.496   1.578
 1052SOL     OW 4054   3.469   6.909   4.496
 1052SOL    HW1 4055   3.409   6.875   4.568
 1052SOL    HW2 4056   3.503   7.000   4.522
 1053SOL     OW 4057   4.129   4.738   3.286
 1053SOL    HW1 4058   4.143   4.803   3.211
 1053SOL    HW2 4059   4.218   4.705   3.319
 1054SOL     OW 4060   3.727   6.164   4.354
 1054SOL    HW1 4061   3.648   6.149   4.413
 1054SOL    HW2 4062   3.698   6.157   4.258
 1055SOL     OW 4063   4.628   5.105   4.840
 1055SOL    HW1 4064   4.655   5.144   4.928
 1055SOL    HW2 4065   4.530   5.114   4.827
 1056SOL     OW 4066   1.165   6.425   5.036
 1056SOL    HW1 4067   1.120   6.506   5.075
 1056SOL    HW2 4068   1.234   6.454   4.971
 1057SOL     OW 4069   3.684   4.120   1.788
 1057SOL    HW1 4070   3.681   4.073   1.876
 1057SOL    HW2 4071   3.620   4.197   1.788
 1058SOL     OW 4072   3.630   1.032   1.280
 1058SOL    HW1 4073   3.647   0.958   1.215
 1058SOL    HW2 4074   3.694   1.024   1.357
 1059SOL     OW 4075   3.180   1.570   1.007
 1059SOL    HW1 4076   3.104   1.633   0.996
 1059SOL    HW2 4077   3.205   1.564   1.104
 1060SOL     OW 4078   2.635   2.478   4.994
 1060SOL    HW1 4079   2.723   2.436   4.973
 1060SOL    HW2 4080   2.645   2.538   5.073
 1061SOL     OW 4081   3.201   6.013   1.564
 1061SOL    HW1 4082   3.189   6.084   1.633
 1061SOL    HW2 4083   3.162   6.044   1.477
 1062SOL     OW 4084   5.061   4.591   5.196
 1062SOL    HW1 4085   5.152   4.550   5.200
 1062SOL    HW2 4086   5.038   4.631   5.285
 1063SOL     OW 4087   2.010   2.610   5.917
 1063SOL    HW1 4088   2.110   2.620   5.919
 1063SOL    HW2 4089   1.982   2.577   5.827
 1064SOL     OW 4090   0.060   3.468   1.471
 1064SOL    HW1 4091   0.149   3.444   1.432
 1064SOL    HW2 4092   0.072   3.510   1.561
 1065SOL     OW 4093   5.836   6.089   5.267
 1065SOL    HW1 4094   5.785   6.020   5.318
 1065SOL    HW2 4095   5.931   6.091   5.297
 1066SOL     OW 4096   3.811   0.502   3.804
 1066SOL    HW1 4097   3.878   0.470   3.737
 1066SOL    HW2 4098   3.842   0.588   3.844
 1067SOL     OW 4099   1.774   3.240   1.559
 1067SOL    HW1 4100   1.842   3.226   1.631
 1067SOL    HW2 4101   1.688   3.272   1.599
 1068SOL     OW 4102   0.898   3.837   1.864
 1068SOL    HW1 4103   0.873   3.774   1.790
 1068SOL    HW2 4104   0.912   3.785   1.948
 1069SOL     OW 4105   3.450   4.159   1.466
 1069SOL    HW1 4106   3.362   4.187   1.504
 1069SOL    HW2 4107   3.438   4.131   1.370
 1070SOL     OW 4108   1.993   0.911   6.877
 1070SOL    HW1 4109   1.938   0.975   6.929
 1070SOL    HW2 4110   2.090   0.924   6.898
 1071SOL     OW 4111   3.812   6.314   3.669
 1071SOL    HW1 4112   3.739   6.246   3.679
 1071SOL    HW2 4113   3.850   6.335   3.759
 1072SOL     OW 4114   3.478   5.802   3.014
 1072SOL    HW1 4115   3.513   5.809   3.108
 1072SOL    HW2 4116   3.492   5.889   2.967
 1073SOL     OW 4117   2.744   4.708   2.780
 1073SOL    HW1 4118   2.838   4.734   2.801
 1073SOL    HW2 4119   2.699   4.675   2.863
 1074SOL     OW 4120   1.566   5.367   2.368
 1074SOL    HW1 4121   1.537   5.370   2.272
 1074SOL    HW2 4122   1.588   5.460   2.399
 1075SOL     OW 4123   0.183   4.134   3.075
 1075SOL    HW1 4124   0.223   4.101   2.990
 1075SOL    HW2 4125   0.239   4.208   3.112
 1076SOL     OW 4126   0.298   5.010   3.614
 1076SOL    HW1 4127   0.318   4.949   3.538
 1076SOL    HW2 4128   0.274   5.101   3.579
 1077SOL     OW 4129   4.691   0.478   0.532
 1077SOL    HW1 4130   4.730   0.458   0.622
 1077SOL    HW2 4131   4.761   0.465   0.462
 1078SOL     OW 4132   1.216   2.176   1.709
 1078SOL    HW1 4133   1.143   2.213   1.651
 1078SOL    HW2 4134   1.176   2.117   1.779
 1079SOL     OW 4135   2.439   5.232   2.967
 1079SOL    HW1 4136   2.441   5.321   2.921
 1079SOL    HW2 4137   2.467   5.244   3.062
 1080SOL     OW 4138   1.600   5.290   3.933
 1080SOL    HW1 4139   1.662   5.368   3.937
 1080SOL    HW2 4140   1.630   5.220   3.998
 1081SOL     OW 4141   1.347   1.134   0.138
 1081SOL    HW1 4142   1.292   1.174   0.065
 1081SOL    HW2 4143   1.317   1.170   0.226
 1082SOL     OW 4144   2.141   0.202   6.964
 1082SOL    HW1 4145   2.057   0.191   7.018
 1082SOL    HW2 4146   2.150   0.124   6.901
 1083SOL     OW 4147   3.819   2.928   1.248
 1083SOL    HW1 4148   3.777   2.909   1.337
 1083SOL    HW2 4149   3.919   2.929   1.258
 1084SOL     OW 4150   6.687   3.922   0.416
 1084SOL    HW1 4151   6.689   3.978   0.333
 1084SOL    HW2 4152   6.604   3.866   0.416
 1085SOL     OW 4153   2.152   3.821   3.954
 1085SOL    HW1 4154   2.057   3.795   3.932
 1085SOL    HW2 4155   2.211   3.740   3.945
 1086SOL     OW 4156   4.284   5.370   2.051
 1086SOL    HW1 4157   4.217   5.387   2.123
 1086SOL    HW2 4158   4.244   5.392   1.962
 1087SOL     OW 4159   4.186   2.911   5.423
 1087SOL    HW1 4160   4.118   2.841   5.403
 1087SOL    HW2 4161   4.203   2.966   5.341
 1088SOL     OW 4162   5.163   3.780   3.559
 1088SOL    HW1 4163   5.070   3.747   3.573
 1088SOL    HW2 4164   5.197   3.821   3.643
 1089SOL     OW 4165   6.167   0.334   3.057
 1089SOL    HW1 4166   6.153   0.362   2.962
 1089SOL    HW2 4167   6.097   0.376   3.115
 1090SOL     OW 4168   0.837   2.084   5.243
 1090SOL    HW1 4169   0.889   2.136   5.311
 1090SOL    HW2 4170   0.790   2.008   5.287
 1091SOL     OW 4171   1.192   2.060   4.727
 1091SOL    HW1 4172   1.204   1.961   4.716
 1091SOL    HW2 4173   1.191   2.083   4.824
 1092SOL     OW 4174   2.299   4.480   1.250
 1092SOL    HW1 4175   2.286   4.579   1.243
 1092SOL    HW2 4176   2.358   4.459   1.327
 1093SOL     OW 4177   0.178   1.660   2.790
 1093SOL    HW1 4178   0.140   1.728   2.853
 1093SOL    HW2 4179   0.255   1.699   2.740
 1094SOL     OW 4180   0.918   6.246   1.702
 1094SOL    HW1 4181   0.825   6.268   1.733
 1094SOL    HW2 4182   0.980   6.245   1.781
 1095SOL     OW 4183   6.290   3.792   5.849
 1095SOL    HW1 4184   6.386   3.819   5.852
 1095SOL    HW2 4185   6.265   3.746   5.934
 1096SOL     OW 4186   3.498   4.323   1.802
 1096SOL    HW1 4187   3.476   4.344   1.707
 1096SOL    HW2 4188   3.536   4.405   1.846
 1097SOL     OW 4189   1.679   4.655   5.399
 1097SOL    HW1 4190   1.703   4.703   5.483
 1097SOL    HW2 4191   1.590   4.686   5.367
 1098SOL     OW 4192   4.051   1.064   3.556
 1098SOL    HW1 4193   3.962   1.054   3.512
 1098SOL    HW2 4194   4.060   0.997   3.630
 1099SOL     OW 4195   3.610   1.571   2.736
 1099SOL    HW1 4196   3.563   1.643   2.685
 1099SOL    HW2 4197   3.699   1.604   2.766
 1100SOL     OW 4198   0.725   0.025   0.736
 1100SOL    HW1 4199   0.813   0.065   0.713
 1100SOL    HW2 4200   0.652   0.090   0.715
 1101SOL     OW 4201   5.450   2.662   0.678
 1101SOL    HW1 4202   5.486   2.698   0.592
 1101SOL    HW2 4203   5.481   2.721   0.753
 1102SOL     OW 4204   0.862   4.610   3.852
 1102SOL    HW1 4205   0.881   4.625   3.755
 1102SOL    HW2 4206   0.774   4.563   3.861
 1103SOL     OW 4207   0.835   3.165   1.365
 1103SOL    HW1 4208   0.925   3.159   1.408
 1103SOL    HW2 4209   0.765   3.167   1.436
 1104SOL     OW 4210   2.961   5.141   5.752
 1104SOL    HW1 4211   2.937   5.177   5.662
 1104SOL    HW2 4212   3.047   5.181   5.782
 1105SOL     OW 4213   4.180   5.687   0.087
 1105SOL    HW1 4214   4.219   5.647   0.170
 1105SOL    HW2 4215   4.249   5.743   0.042
 1106SOL     OW 4216   0.988   1.911   6.128
 1106SOL    HW1 4217   0.889   1.896   6.118
 1106SOL    HW2 4218   1.027   1.936   6.039
 1107SOL     OW 4219   1.306   0.376   1.415
 1107SOL    HW1 4220   1.341   0.414   1.330
 1107SOL    HW2 4221   1.331   0.435   1.491
 1108SOL     OW 4222   0.936   1.781   6.398
 1108SOL    HW1 4223   1.003   1.822   6.336
 1108SOL    HW2 4224   0.935   1.682   6.385
 1109SOL     OW 4225   4.563   1.268   3.916
 1109SOL    HW1 4226   4.542   1.351   3.865
 1109SOL    HW2 4227   4.623   1.290   3.992
 1110SOL     OW 4228   3.778   2.941   2.056
 1110SOL    HW1 4229   3.837   2.902   1.986
 1110SOL    HW2 4230   3.685   2.951   2.019
 1111SOL     OW 4231   5.364   0.088   0.151
 1111SOL    HW1 4232   5.457   0.084   0.114
 1111SOL    HW2 4233   5.336   7.021   0.179
 1112SOL     OW 4234   6.500   1.045   2.914
 1112SOL    HW1 4235   6.558   0.968   2.888
 1112SOL    HW2 4236   6.404   1.018   2.905
 1113SOL     OW 4237   6.169   3.802   1.306
 1113SOL    HW1 4238   6.225   3.724   1.278
 1113SOL    HW2 4239   6.157   3.799   1.405
 1114SOL     OW 4240   5.449   1.689   4.910
 1114SOL    HW1 4241   5.469   1.783   4.884
 1114SOL    HW2 4242   5.509   1.662   4.985
 1115SOL     OW 4243   2.395   3.288   0.759
 1115SOL    HW1 4244   2.485   3.319   0.790
 1115SOL    HW2 4245   2.332   3.366   0.759
 1116SOL     OW 4246   4.268   5.461   4.955
 1116SOL    HW1 4247   4.308   5.426   4.870
 1116SOL    HW2 4248   4.263   5.388   5.022
 1117SOL     OW 4249   2.881   3.286   1.109
 1117SOL    HW1 4250   2.906   3.189   1.114
 1117SOL    HW2 4251   2.803   3.297   1.048
 1118SOL     OW 4252   1.976   3.779   3.467
 1118SOL    HW1 4253   2.043   3.739   3.530
 1118SOL    HW2 4254   1.972   3.878   3.482
 1119SOL     OW 4255   3.161   4.110   2.374
 1119SOL    HW1 4256   3.139   4.195   2.327
 1119SOL    HW2 4257   3.111   4.035   2.332
 1120SOL     OW 4258   4.040   0.565   4.406
 1120SOL    HW1 4259   4.078   0.498   4.343
 1120SOL    HW2 4260   4.037   0.655   4.363
 1121SOL     OW 4261   5.396   3.201   2.356
 1121SOL    HW1 4262   5.307   3.235   2.327
 1121SOL    HW2 4263   5.442   3.158   2.278
 1122SOL     OW 4264   5.167   4.795   6.993
 1122SOL    HW1 4265   5.109   4.716   7.015
 1122SOL    HW2 4266   5.249   4.763   6.946
 1123SOL     OW 4267   3.643   0.785   1.645
 1123SOL    HW1 4268   3.635   0.827   1.554
 1123SOL    HW2 4269   3.608   0.848   1.714
 1124SOL     OW 4270   1.258   4.626   4.531
 1124SOL    HW1 4271   1.215   4.556   4.588
 1124SOL    HW2 4272   1.223   4.716   4.558
 1125SOL     OW 4273   4.018   3.270   4.963
 1125SOL    HW1 4274   4.002   3.218   4.879
 1125SOL    HW2 4275   4.028   3.367   4.940
 1126SOL     OW 4276   5.736   6.879   2.495
 1126SOL    HW1 4277   5.715   6.973   2.470
 1126SOL    HW2 4278   5.813   6.876   2.557
 1127SOL     OW 4279   1.432   4.726   6.939
 1127SOL    HW1 4280   1.384   4.737   0.001
 1127SOL    HW2 4281   1.365   4.724   6.865
 1128SOL     OW 4282   3.107   1.658   4.970
 1128SOL    HW1 4283   3.148   1.642   5.059
 1128SOL    HW2 4284   3.092   1.756   4.957
 1129SOL     OW 4285   5.197   0.021   6.990
 1129SOL    HW1 4286   5.114   0.019   0.020
 1129SOL    HW2 4287   5.273   0.052   0.022
 1130SOL     OW 4288   0.264   5.091   5.794
 1130SOL    HW1 4289   0.170   5.120   5.809
 1130SOL    HW2 4290   0.300   5.049   5.877
 1131SOL     OW 4291   0.444   5.336   6.056
 1131SOL    HW1 4292   0.440   5.353   5.958
 1131SOL    HW2 4293   0.420   5.419   6.106
 1132SOL     OW 4294   4.920   0.180   5.954
 1132SOL    HW1 4295   4.889   0.200   6.047
 1132SOL    HW2 4296   4.938   0.083   5.945
 1133SOL     OW 4297   0.835   2.847   0.720
 1133SOL    HW1 4298   0.927   2.856   0.756
 1133SOL    HW2 4299   0.783   2.930   0.740
 1134SOL     OW 4300   6.400   3.106   5.693
 1134SOL    HW1 4301   6.333   3.178   5.709
 1134SOL    HW2 4302   6.483   3.145   5.652
 1135SOL     OW 4303   5.001   1.497   3.474
 1135SOL    HW1 4304   4.980   1.401   3.455
 1135SOL    HW2 4305   5.099   1.512   3.466
 1136SOL     OW 4306   3.733   5.374   4.311
 1136SOL    HW1 4307   3.772   5.417   4.230
 1136SOL    HW2 4308   3.770   5.281   4.320
 1137SOL     OW 4309   1.648   1.329   5.633
 1137SOL    HW1 4310   1.684   1.349   5.542
 1137SOL    HW2 4311   1.641   1.414   5.685
 1138SOL     OW 4312   0.562   4.288   5.585
 1138SOL    HW1 4313   0.517   4.318   5.500
 1138SOL    HW2 4314   0.609   4.201   5.568
 1139SOL     OW 4315   1.255   6.635   1.790
 1139SOL    HW1 4316   1.243   6.596   1.881
 1139SOL    HW2 4317   1.322   6.710   1.795
 1140SOL     OW 4318   3.502   1.652   3.487
 1140SOL    HW1 4319   3.555   1.576   3.449
 1140SOL    HW2 4320   3.477   1.632   3.581
 1141SOL     OW 4321   6.466   5.829   5.912
 1141SOL    HW1 4322   6.372   5.807   5.940
 1141SOL    HW2 4323   6.521   5.847   5.993
 1142SOL     OW 4324   6.092   0.897   3.787
 1142SOL    HW1 4325   6.006   0.913   3.738
 1142SOL    HW2 4326   6.153   0.843   3.729
 1143SOL     OW 4327   4.487   1.525   2.705
 1143SOL    HW1 4328   4.420   1.581   2.753
 1143SOL    HW2 4329   4.573   1.525   2.756
 1144SOL     OW 4330   0.490   6.202   5.198
 1144SOL    HW1 4331   0.563   6.245   5.145
 1144SOL    HW2 4332   0.465   6.115   5.155
 1145SOL     OW 4333   1.397   5.038   5.423
 1145SOL    HW1 4334   1.425   5.099   5.349
 1145SOL    HW2 4335   1.326   5.081   5.478
 1146SOL     OW 4336   5.764   2.077   0.672
 1146SOL    HW1 4337   5.728   2.169   0.688
 1146SOL    HW2 4338   5.831   2.055   0.743
 1147SOL     OW 4339   6.302   2.645   1.846
 1147SOL    HW1 4340   6.369   2.572   1.839
 1147SOL    HW2 4341   6.312   2.707   1.769
 1148SOL     OW 4342   4.430   0.576   0.407
 1148SOL    HW1 4343   4.480   0.605   0.325
 1148SOL    HW2 4344   4.481   0.604   0.489
 1149SOL     OW 4345   0.497   3.668   2.737
 1149SOL    HW1 4346   0.491   3.723   2.820
 1149SOL    HW2 4347   0.415   3.683   2.681
 1150SOL     OW 4348   1.242   4.810   6.236
 1150SOL    HW1 4349   1.325   4.848   6.195
 1150SOL    HW2 4350   1.247   4.710   6.233
 1151SOL     OW 4351   4.804   5.470   0.084
 1151SOL    HW1 4352   4.759   5.411   0.150
 1151SOL    HW2 4353   4.903   5.454   0.087
 1152SOL     OW 4354   0.457   0.718   5.054
 1152SOL    HW1 4355   0.362   0.687   5.048
 1152SOL    HW2 4356   0.516   0.641   5.081
 1153SOL     OW 4357   2.163   5.288   2.813
 1153SOL    HW1 4358   2.152   5.235   2.729
 1153SOL    HW2 4359   2.195   5.228   2.887
 1154SOL     OW 4360   1.791   4.889   2.022
 1154SOL    HW1 4361   1.706   4.838   2.026
 1154SOL    HW2 4362   1.868   4.825   2.023
 1155SOL     OW 4363   3.081   5.728   1.905
 1155SOL    HW1 4364   3.011   5.770   1.963
 1155SOL    HW2 4365   3.037   5.664   1.842
 1156SOL     OW 4366   2.018   0.752   4.117
 1156SOL    HW1 4367   1.973   0.840   4.098
 1156SOL    HW2 4368   2.058   0.716   4.032
 1157SOL     OW 4369   1.448   1.914   4.113
 1157SOL    HW1 4370   1.532   1.935   4.064
 1157SOL    HW2 4371   1.446   1.817   4.136
 1158SOL     OW 4372   4.419   5.314   5.746
 1158SOL    HW1 4373   4.511   5.280   5.728
 1158SOL    HW2 4374   4.366   5.243   5.793
 1159SOL     OW 4375   5.323   5.244   3.046
 1159SOL    HW1 4376   5.375   5.244   3.131
 1159SOL    HW2 4377   5.237   5.194   3.059
 1160SOL     OW 4378   2.862   2.962   0.820
 1160SOL    HW1 4379   2.942   2.933   0.873
 1160SOL    HW2 4380   2.877   3.056   0.787
 1161SOL     OW 4381   4.236   0.052   4.200
 1161SOL    HW1 4382   4.177   0.036   4.121
 1161SOL    HW2 4383   4.183   0.095   4.273
 1162SOL     OW 4384   3.637   4.471   1.582
 1162SOL    HW1 4385   3.672   4.377   1.575
 1162SOL    HW2 4386   3.538   4.470   1.572
 1163SOL     OW 4387   4.493   2.034   2.569
 1163SOL    HW1 4388   4.483   2.131   2.594
 1163SOL    HW2 4389   4.449   2.018   2.481
 1164SOL     OW 4390   6.181   3.260   3.947
 1164SOL    HW1 4391   6.264   3.260   3.891
 1164SOL    HW2 4392   6.103   3.287   3.890
 1165SOL     OW 4393   1.594   4.675   1.736
 1165SOL    HW1 4394   1.609   4.763   1.780
 1165SOL    HW2 4395   1.507   4.676   1.687
 1166SOL     OW 4396   3.872   2.954   6.265
 1166SOL    HW1 4397   3.923   2.924   6.184
 1166SOL    HW2 4398   3.935   2.960   6.342
 1167SOL     OW 4399   4.412   1.702   4.377
 1167SOL    HW1 4400   4.328   1.741   4.340
 1167SOL    HW2 4401   4.488   1.765   4.359
 1168SOL     OW 4402   6.342   5.852   3.597
 1168SOL    HW1 4403   6.418   5.876   3.657
 1168SOL    HW2 4404   6.299   5.935   3.563
 1169SOL     OW 4405   0.966   3.526   1.856
 1169SOL    HW1 4406   0.944   3.465   1.931
 1169SOL    HW2 4407   0.882   3.559   1.813
 1170SOL     OW 4408   2.782   0.408   0.670
 1170SOL    HW1 4409   2.696   0.396   0.622
 1170SOL    HW2 4410   2.854   0.433   0.605
 1171SOL     OW 4411   2.365   0.060   0.424
 1171SOL    HW1 4412   2.324   0.151   0.421
 1171SOL    HW2 4413   2.332   0.006   0.347
 1172SOL     OW 4414   3.353   3.372   5.079
 1172SOL    HW1 4415   3.377   3.422   5.162
 1172SOL    HW2 4416   3.429   3.376   5.014
 1173SOL     OW 4417   4.863   0.876   6.131
 1173SOL    HW1 4418   4.818   0.891   6.043
 1173SOL    HW2 4419   4.914   0.958   6.157
 1174SOL     OW 4420   3.257   6.669   1.095
 1174SOL    HW1 4421   3.195   6.606   1.142
 1174SOL    HW2 4422   3.321   6.617   1.039
 1175SOL     OW 4423   6.451   5.047   5.134
 1175SOL    HW1 4424   6.502   5.034   5.218
 1175SOL    HW2 4425   6.353   5.036   5.151
 1176SOL     OW 4426   6.522   3.647   0.955
 1176SOL    HW1 4427   6.599   3.704   0.984
 1176SOL    HW2 4428   6.470   3.694   0.883
 1177SOL     OW 4429   6.618   3.201   0.041
 1177SOL    HW1 4430   6.689   3.258   0.001
 1177SOL    HW2 4431   6.651   3.162   0.127
 1178SOL     OW 4432   5.509   4.113   2.045
 1178SOL    HW1 4433   5.553   4.185   2.098
 1178SOL    HW2 4434   5.461   4.153   1.967
 1179SOL     OW 4435   2.427   5.895   6.744
 1179SOL    HW1 4436   2.360   5.823   6.725
 1179SOL    HW2 4437   2.495   5.895   6.670
 1180SOL     OW 4438   2.628   1.838   4.033
 1180SOL    HW1 4439   2.700   1.785   4.076
 1180SOL    HW2 4440   2.539   1.813   4.073
 1181SOL     OW 4441   2.422   4.528   3.062
 1181SOL    HW1 4442   2.397   4.624   3.077
 1181SOL    HW2 4443   2.367   4.470   3.122
 1182SOL     OW 4444   1.480   4.689   2.963
 1182SOL    HW1 4445   1.453   4.611   2.906
 1182SOL    HW2 4446   1.423   4.692   3.045
 1183SOL     OW 4447   4.581   5.414   1.217
 1183SOL    HW1 4448   4.580   5.341   1.148
 1183SOL    HW2 4449   4.659   5.474   1.200
 1184SOL     OW 4450   3.073   3.034   5.543
 1184SOL    HW1 4451   3.074   2.950   5.490
 1184SOL    HW2 4452   3.114   3.018   5.633
 1185SOL     OW 4453   2.109   1.958   0.211
 1185SOL    HW1 4454   2.114   1.951   0.311
 1185SOL    HW2 4455   2.166   1.887   0.170
 1186SOL     OW 4456   3.917   1.089   5.151
 1186SOL    HW1 4457   3.892   1.072   5.056
 1186SOL    HW2 4458   4.016   1.086   5.161
 1187SOL     OW 4459   0.111   1.058   5.347
 1187SOL    HW1 4460   0.188   1.109   5.308
 1187SOL    HW2 4461   0.072   0.998   5.277
 1188SOL     OW 4462   1.268   0.032   5.604
 1188SOL    HW1 4463   1.321   0.041   5.688
 1188SOL    HW2 4464   1.211   0.113   5.592
 1189SOL     OW 4465   6.878   0.847   1.568
 1189SOL    HW1 4466   6.902   0.805   1.480
 1189SOL    HW2 4467   6.868   0.946   1.555
 1190SOL     OW 4468   4.504   4.903   2.971
 1190SOL    HW1 4469   4.410   4.917   2.939
 1190SOL    HW2 4470   4.528   4.974   3.038
 1191SOL     OW 4471   3.847   4.837   6.824
 1191SOL    HW1 4472   3.777   4.767   6.842
 1191SOL    HW2 4473   3.917   4.833   6.896
 1192SOL     OW 4474   4.581   4.768   2.410
 1192SOL    HW1 4475   4.638   4.847   2.434
 1192SOL    HW2 4476   4.486   4.785   2.436
 1193SOL     OW 4477   4.330   6.732   3.894
 1193SOL    HW1 4478   4.420   6.707   3.930
 1193SOL    HW2 4479   4.260   6.716   3.964
 1194SOL     OW 4480   6.229   0.303   1.297
 1194SOL    HW1 4481   6.266   0.218   1.334
 1194SOL    HW2 4482   6.290   0.337   1.225
 1195SOL     OW 4483   4.154   0.786   6.747
 1195SOL    HW1 4484   4.190   0.815   6.659
 1195SOL    HW2 4485   4.091   0.855   6.782
 1196SOL     OW 4486   6.827   5.442   2.366
 1196SOL    HW1 4487   6.871   5.352   2.377
 1196SOL    HW2 4488   6.830   5.468   2.270
 1197SOL     OW 4489   3.238   5.447   6.346
 1197SOL    HW1 4490   3.258   5.372   6.283
 1197SOL    HW2 4491   3.194   5.522   6.296
 1198SOL     OW 4492   3.206   1.237   2.800
 1198SOL    HW1 4493   3.282   1.271   2.854
 1198SOL    HW2 4494   3.122   1.243   2.854
 1199SOL     OW 4495   3.643   4.145   3.286
 1199SOL    HW1 4496   3.587   4.127   3.367
 1199SOL    HW2 4497   3.659   4.243   3.278
 1200SOL     OW 4498   3.788   4.230   0.237
 1200SOL    HW1 4499   3.832   4.318   0.217
 1200SOL    HW2 4500   3.704   4.247   0.289
 1201SOL     OW 4501   1.412   0.989   4.529
 1201SOL    HW1 4502   1.345   1.061   4.549
 1201SOL    HW2 4503   1.465   1.015   4.448
 1202SOL     OW 4504   5.954   0.296   4.796
 1202SOL    HW1 4505   5.997   0.360   4.860
 1202SOL    HW2 4506   5.956   0.204   4.834
 1203SOL     OW 4507   5.854   6.975   1.804
 1203SOL    HW1 4508   5.890   6.883   1.818
 1203SOL    HW2 4509   5.761   6.979   1.840
 1204SOL     OW 4510   2.940   0.435   0.236
 1204SOL    HW1 4511   2.931   0.379   0.153
 1204SOL    HW2 4512   2.862   0.497   0.243
 1205SOL     OW 4513   0.331   2.488   4.873
 1205SOL    HW1 4514   0.307   2.407   4.819
 1205SOL    HW2 4515   0.430   2.490   4.888
 1206SOL     OW 4516   0.577   1.620   4.668
 1206SOL    HW1 4517   0.496   1.663   4.707
 1206SOL    HW2 4518   0.551   1.540   4.615
 1207SOL     OW 4519   5.515   6.014   6.823
 1207SOL    HW1 4520   5.507   5.983   6.729
 1207SOL    HW2 4521   5.442   5.975   6.879
 1208SOL     OW 4522   3.882   3.984   3.554
 1208SOL    HW1 4523   3.916   3.897   3.516
 1208SOL    HW2 4524   3.944   4.058   3.527
 1209SOL     OW 4525   6.273   5.082   4.681
 1209SOL    HW1 4526   6.275   4.990   4.642
 1209SOL    HW2 4527   6.277   5.149   4.608
 1210SOL     OW 4528   2.864   6.672   2.766
 1210SOL    HW1 4529   2.858   6.572   2.768
 1210SOL    HW2 4530   2.911   6.701   2.682
 1211SOL     OW 4531   0.977   3.342   4.387
 1211SOL    HW1 4532   1.005   3.438   4.384
 1211SOL    HW2 4533   1.027   3.291   4.318
 1212SOL     OW 4534   2.181   4.034   4.847
 1212SOL    HW1 4535   2.147   4.128   4.857
 1212SOL    HW2 4536   2.269   4.026   4.893
 1213SOL     OW 4537   5.872   3.241   5.479
 1213SOL    HW1 4538   5.945   3.190   5.434
 1213SOL    HW2 4539   5.795   3.254   5.415
 1214SOL     OW 4540   2.180   2.504   3.180
 1214SOL    HW1 4541   2.183   2.440   3.256
 1214SOL    HW2 4542   2.088   2.542   3.172
 1215SOL     OW 4543   0.334   5.155   1.806
 1215SOL    HW1 4544   0.402   5.084   1.825
 1215SOL    HW2 4545   0.320   5.162   1.707
 1216SOL     OW 4546   3.010   0.284   1.794
 1216SOL    HW1 4547   3.003   0.305   1.697
 1216SOL    HW2 4548   3.102   0.305   1.827
 1217SOL     OW 4549   1.538   1.388   2.705
 1217SOL    HW1 4550   1.495   1.320   2.644
 1217SOL    HW2 4551   1.584   1.341   2.780
 1218SOL     OW 4552   0.476   3.788   4.275
 1218SOL    HW1 4553   0.452   3.692   4.263
 1218SOL    HW2 4554   0.496   3.829   4.186
 1219SOL     OW 4555   2.558   5.949   2.971
 1219SOL    HW1 4556   2.512   5.867   3.006
 1219SOL    HW2 4557   2.490   6.019   2.950
 1220SOL     OW 4558   6.817   4.275   2.835
 1220SOL    HW1 4559   6.791   4.365   2.869
 1220SOL    HW2 4560   6.828   4.212   2.911
 1221SOL     OW 4561   4.945   3.110   0.043
 1221SOL    HW1 4562   4.942   3.018   0.004
 1221SOL    HW2 4563   4.952   3.104   0.143
 1222SOL     OW 4564   6.269   6.334   1.031
 1222SOL    HW1 4565   6.277   6.385   0.946
 1222SOL    HW2 4566   6.186   6.362   1.080
 1223SOL     OW 4567   6.111   5.789   5.305
 1223SOL    HW1 4568   6.175   5.818   5.233
 1223SOL    HW2 4569   6.108   5.858   5.377
 1224SOL     OW 4570   5.073   4.578   2.004
 1224SOL    HW1 4571   4.985   4.583   1.957
 1224SOL    HW2 4572   5.068   4.629   2.090
 1225SOL     OW 4573   5.084   1.253   0.303
 1225SOL    HW1 4574   5.020   1.203   0.362
 1225SOL    HW2 4575   5.037   1.279   0.219
 1226SOL     OW 4576   5.099   4.752   0.497
 1226SOL    HW1 4577   5.157   4.823   0.458
 1226SOL    HW2 4578   5.028   4.726   0.432
 1227SOL     OW 4579   5.356   4.700   6.842
 1227SOL    HW1 4580   5.417   4.779   6.843
 1227SOL    HW2 4581   5.362   4.654   6.753
 1228SOL     OW 4582   3.673   3.371   4.097
 1228SOL    HW1 4583   3.665   3.466   4.070
 1228SOL    HW2 4584   3.688   3.314   4.017
 1229SOL     OW 4585   2.032   5.697   2.954
 1229SOL    HW1 4586   1.963   5.763   2.986
 1229SOL    HW2 4587   2.064   5.725   2.863
 1230SOL     OW 4588   5.404   4.992   1.788
 1230SOL    HW1 4589   5.454   5.030   1.865
 1230SOL    HW2 4590   5.469   4.957   1.720
 1231SOL     OW 4591   1.834   2.111   6.912
 1231SOL    HW1 4592   1.864   2.132   6.819
 1231SOL    HW2 4593   1.774   2.184   6.945
 1232SOL     OW 4594   2.953   0.685   5.051
 1232SOL    HW1 4595   2.878   0.743   5.017
 1232SOL    HW2 4596   2.953   0.686   5.151
 1233SOL     OW 4597   0.231   5.151   5.111
 1233SOL    HW1 4598   0.296   5.216   5.150
 1233SOL    HW2 4599   0.246   5.061   5.151
 1234SOL     OW 4600   6.759   3.816   6.960
 1234SOL    HW1 4601   6.832   3.748   6.959
 1234SOL    HW2 4602   6.683   3.784   6.904
 1235SOL     OW 4603   6.106   4.867   1.087
 1235SOL    HW1 4604   6.113   4.804   1.165
 1235SOL    HW2 4605   6.194   4.872   1.040
 1236SOL     OW 4606   1.405   1.584   2.846
 1236SOL    HW1 4607   1.436   1.497   2.808
 1236SOL    HW2 4608   1.484   1.642   2.866
 1237SOL     OW 4609   0.452   6.770   5.172
 1237SOL    HW1 4610   0.400   6.850   5.202
 1237SOL    HW2 4611   0.393   6.709   5.120
 1238SOL     OW 4612   0.890   0.672   4.402
 1238SOL    HW1 4613   0.835   0.692   4.483
 1238SOL    HW2 4614   0.949   0.593   4.420
 1239SOL     OW 4615   5.010   4.836   4.373
 1239SOL    HW1 4616   5.066   4.874   4.446
 1239SOL    HW2 4617   4.945   4.905   4.341
 1240SOL     OW 4618   0.913   3.993   2.255
 1240SOL    HW1 4619   0.900   4.054   2.333
 1240SOL    HW2 4620   0.824   3.960   2.223
 1241SOL     OW 4621   4.050   5.035   5.235
 1241SOL    HW1 4622   3.970   4.978   5.254
 1241SOL    HW2 4623   4.062   5.100   5.310
 1242SOL     OW 4624   2.432   4.493   0.865
 1242SOL    HW1 4625   2.422   4.429   0.942
 1242SOL    HW2 4626   2.342   4.533   0.844
 1243SOL     OW 4627   0.899   4.159   4.959
 1243SOL    HW1 4628   0.969   4.138   4.890
 1243SOL    HW2 4629   0.871   4.254   4.950
 1244SOL     OW 4630   5.971   0.444   5.425
 1244SOL    HW1 4631   6.041   0.473   5.359
 1244SOL    HW2 4632   5.910   0.521   5.445
 1245SOL     OW 4633   4.518   6.033   1.286
 1245SOL    HW1 4634   4.515   6.101   1.213
 1245SOL    HW2 4635   4.434   6.040   1.341
 1246SOL     OW 4636   5.080   0.672   0.321
 1246SOL    HW1 4637   5.061   0.737   0.394
 1246SOL    HW2 4638   5.173   0.686   0.287
 1247SOL     OW 4639   6.604   0.011   2.918
 1247SOL    HW1 4640   6.630   6.949   2.877
 1247SOL    HW2 4641   6.674   0.080   2.900
 1248SOL     OW 4642   1.351   6.571   4.869
 1248SOL    HW1 4643   1.291   6.635   4.918
 1248SOL    HW2 4644   1.437   6.560   4.920
 1249SOL     OW 4645   5.403   5.764   6.280
 1249SOL    HW1 4646   5.363   5.846   6.320
 1249SOL    HW2 4647   5.472   5.727   6.342
 1250SOL     OW 4648   6.962   3.269   4.851
 1250SOL    HW1 4649   6.908   3.311   4.778
 1250SOL    HW2 4650   6.900   3.220   4.913
 1251SOL     OW 4651   2.789   1.103   2.764
 1251SOL    HW1 4652   2.789   1.057   2.675
 1251SOL    HW2 4653   2.877   1.088   2.809
 1252SOL     OW 4654   1.903   6.029   6.412
 1252SOL    HW1 4655   1.930   6.051   6.318
 1252SOL    HW2 4656   1.979   5.982   6.458
 1253SOL     OW 4657   3.138   6.916   0.229
 1253SOL    HW1 4658   3.045   6.878   0.231
 1253SOL    HW2 4659   3.149   6.969   0.145
 1254SOL     OW 4660   5.830   0.222   3.000
 1254SOL    HW1 4661   5.866   0.144   3.051
 1254SOL    HW2 4662   5.854   0.307   3.047
 1255SOL     OW 4663   5.385   1.310   5.476
 1255SOL    HW1 4664   5.395   1.389   5.416
 1255SOL    HW2 4665   5.289   1.300   5.502
 1256SOL     OW 4666   0.487   5.758   4.639
 1256SOL    HW1 4667   0.524   5.695   4.706
 1256SOL    HW2 4668   0.476   5.711   4.551
 1257SOL     OW 4669   0.780   6.402   3.596
 1257SOL    HW1 4670   0.725   6.359   3.524
 1257SOL    HW2 4671   0.871   6.361   3.597
 1258SOL     OW 4672   4.326   6.147   5.982
 1258SOL    HW1 4673   4.407   6.178   5.933
 1258SOL    HW2 4674   4.335   6.050   6.004
 1259SOL     OW 4675   5.555   0.447   5.429
 1259SOL    HW1 4676   5.641   0.498   5.431
 1259SOL    HW2 4677   5.494   0.485   5.360
 1260SOL     OW 4678   2.748   1.393   1.326
 1260SOL    HW1 4679   2.817   1.321   1.315
 1260SOL    HW2 4680   2.687   1.369   1.402
 1261SOL     OW 4681   6.568   4.357   5.450
 1261SOL    HW1 4682   6.499   4.427   5.432
 1261SOL    HW2 4683   6.524   4.274   5.483
 1262SOL     OW 4684   4.056   4.650   1.278
 1262SOL    HW1 4685   3.973   4.616   1.232
 1262SOL    HW2 4686   4.112   4.572   1.306
 1263SOL     OW 4687   6.479   2.008   0.910
 1263SOL    HW1 4688   6.536   2.044   0.837
 1263SOL    HW2 4689   6.522   2.026   0.999
 1264SOL     OW 4690   0.342   2.985   3.915
 1264SOL    HW1 4691   0.399   2.950   3.840
 1264SOL    HW2 4692   0.265   3.037   3.877
 1265SOL     OW 4693   7.004   5.810   4.851
 1265SOL    HW1 4694   6.951   5.727   4.836
 1265SOL    HW2 4695   0.040   5.825   4.773
 1266SOL     OW 4696   1.858   1.409   4.618
 1266SOL    HW1 4697   1.758   1.413   4.618
 1266SOL    HW2 4698   1.893   1.473   4.549
 1267SOL     OW 4699   6.248   4.941   2.199
 1267SOL    HW1 4700   6.232   4.919   2.295
 1267SOL    HW2 4701   6.187   5.014   2.171
 1268SOL     OW 4702   6.469   3.559   0.040
 1268SOL    HW1 4703   6.529   3.632   0.074
 1268SOL    HW2 4704   6.510   3.520   6.982
 1269SOL     OW 4705   6.818   5.449   6.213
 1269SOL    HW1 4706   6.774   5.445   6.123
 1269SOL    HW2 4707   6.861   5.361   6.232
 1270SOL     OW 4708   1.656   2.565   4.965
 1270SOL    HW1 4709   1.637   2.544   5.061
 1270SOL    HW2 4710   1.706   2.651   4.959
 1271SOL     OW 4711   5.133   1.933   2.902
 1271SOL    HW1 4712   5.092   1.956   2.990
 1271SOL    HW2 4713   5.191   1.853   2.912
 1272SOL     OW 4714   0.422   6.170   1.809
 1272SOL    HW1 4715   0.345   6.226   1.780
 1272SOL    HW2 4716   0.448   6.196   1.902
 1273SOL     OW 4717   2.567   6.655   6.402
 1273SOL    HW1 4718   2.487   6.606   6.365
 1273SOL    HW2 4719   2.609   6.709   6.330
 1274SOL     OW 4720   6.509   3.000   1.713
 1274SOL    HW1 4721   6.548   2.909   1.721
 1274SOL    HW2 4722   6.581   3.069   1.721
 1275SOL     OW 4723   3.673   1.395   4.107
 1275SOL    HW1 4724   3.676   1.474   4.168
 1275SOL    HW2 4725   3.732   1.411   4.028
 1276SOL     OW 4726   6.215   0.296   3.473
 1276SOL    HW1 4727   6.147   0.349   3.524
 1276SOL    HW2 4728   6.306   0.335   3.489
 1277SOL     OW 4729   0.347   1.159   5.226
 1277SOL    HW1 4730   0.361   1.221   5.149
 1277SOL    HW2 4731   0.361   1.065   5.197
 1278SOL     OW 4732   2.669   1.895   5.538
 1278SOL    HW1 4733   2.723   1.942   5.468
 1278SOL    HW2 4734   2.675   1.945   5.624
 1279SOL     OW 4735   2.558   5.354   6.955
 1279SOL    HW1 4736   2.582   5.409   6.876
 1279SOL    HW2 4737   2.640   5.314   6.995
 1280SOL     OW 4738   1.998   6.593   3.477
 1280SOL    HW1 4739   2.009   6.573   3.574
 1280SOL    HW2 4740   1.974   6.509   3.428
 1281SOL     OW 4741   1.047   7.007   3.692
 1281SOL    HW1 4742   0.994   7.000   3.776
 1281SOL    HW2 4743   0.997   6.965   3.617
 1282SOL     OW 4744   1.005   0.742   2.152
 1282SOL    HW1 4745   1.046   0.676   2.215
 1282SOL    HW2 4746   0.910   0.758   2.178
 1283SOL     OW 4747   5.187   5.282   5.942
 1283SOL    HW1 4748   5.271   5.323   5.978
 1283SOL    HW2 4749   5.119   5.353   5.926
 1284SOL     OW 4750   2.445   2.219   1.844
 1284SOL    HW1 4751   2.360   2.168   1.855
 1284SOL    HW2 4752   2.464   2.232   1.747
 1285SOL     OW 4753   4.764   2.126   5.439
 1285SOL    HW1 4754   4.680   2.104   5.488
 1285SOL    HW2 4755   4.803   2.211   5.476
 1286SOL     OW 4756   6.210   5.478   1.897
 1286SOL    HW1 4757   6.197   5.569   1.857
 1286SOL    HW2 4758   6.130   5.454   1.952
 1287SOL     OW 4759   6.846   4.807   6.098
 1287SOL    HW1 4760   6.860   4.730   6.159
 1287SOL    HW2 4761   6.766   4.860   6.127
 1288SOL     OW 4762   6.796   2.955   2.378
 1288SOL    HW1 4763   6.757   2.929   2.466
 1288SOL    HW2 4764   6.730   2.934   2.305
 1289SOL     OW 4765   6.499   6.176   2.452
 1289SOL    HW1 4766   6.484   6.258   2.397
 1289SOL    HW2 4767   6.502   6.096   2.392
 1290SOL     OW 4768   0.611   6.556   1.725
 1290SOL    HW1 4769   0.568   6.606   1.800
 1290SOL    HW2 4770   0.695   6.603   1.698
 1291SOL     OW 4771   2.380   6.597   0.436
 1291SOL    HW1 4772   2.287   6.560   0.440
 1291SOL    HW2 4773   2.404   6.637   0.524
 1292SOL     OW 4774   1.202   6.034   0.627
 1292SOL    HW1 4775   1.245   5.962   0.681
 1292SOL    HW2 4776   1.269   6.073   0.564
 1293SOL     OW 4777   0.257   2.727   5.714
 1293SOL    HW1 4778   0.210   2.780   5.643
 1293SOL    HW2 4779   0.352   2.758   5.722
 1294SOL     OW 4780   0.246   2.055   2.557
 1294SOL    HW1 4781   0.307   2.065   2.479
 1294SOL    HW2 4782   0.152   2.044   2.523
 1295SOL     OW 4783   6.236   3.084   1.717
 1295SOL    HW1 4784   6.324   3.037   1.724
 1295SOL    HW2 4785   6.171   3.041   1.780
 1296SOL     OW 4786   4.023   2.326   6.246
 1296SOL    HW1 4787   4.037   2.313   6.148
 1296SOL    HW2 4788   3.986   2.418   6.262
 1297SOL     OW 4789   6.499   1.565   5.972
 1297SOL    HW1 4790   6.489   1.639   5.905
 1297SOL    HW2 4791   6.546   1.488   5.930
 1298SOL     OW 4792   5.630   3.270   3.555
 1298SOL    HW1 4793   5.577   3.185   3.544
 1298SOL    HW2 4794   5.586   3.343   3.502
 1299SOL     OW 4795   0.833   4.004   3.814
 1299SOL    HW1 4796   0.789   3.933   3.868
 1299SOL    HW2 4797   0.823   4.092   3.861
 1300SOL     OW 4798   2.900   3.434   1.333
 1300SOL    HW1 4799   2.993   3.416   1.364
 1300SOL    HW2 4800   2.870   3.361   1.272
 1301SOL     OW 4801   0.527   0.194   3.012
 1301SOL    HW1 4802   0.586   0.214   2.934
 1301SOL    HW2 4803   0.466   0.118   2.988
 1302SOL     OW 4804   2.719   5.946   4.909
 1302SOL    HW1 4805   2.702   5.975   4.814
 1302SOL    HW2 4806   2.681   5.855   4.924
 1303SOL     OW 4807   3.694   1.371   1.203
 1303SOL    HW1 4808   3.672   1.300   1.270
 1303SOL    HW2 4809   3.653   1.348   1.115
 1304SOL     OW 4810   2.804   0.777   6.714
 1304SOL    HW1 4811   2.728   0.712   6.710
 1304SOL    HW2 4812   2.771   0.869   6.691
 1305SOL     OW 4813   4.797   6.756   4.829
 1305SOL    HW1 4814   4.852   6.817   4.886
 1305SOL    HW2 4815   4.703   6.757   4.862
 1306SOL     OW 4816   1.052   4.743   3.967
 1306SOL    HW1 4817   1.137   4.724   3.918
 1306SOL    HW2 4818   0.981   4.681   3.935
 1307SOL     OW 4819   1.716   1.835   4.549
 1307SOL    HW1 4820   1.744   1.921   4.592
 1307SOL    HW2 4821   1.795   1.793   4.504
 1308SOL     OW 4822   4.980   6.209   2.979
 1308SOL    HW1 4823   5.062   6.156   3.001
 1308SOL    HW2 4824   4.917   6.152   2.928
 1309SOL     OW 4825   5.453   2.818   4.532
 1309SOL    HW1 4826   5.473   2.772   4.446
 1309SOL    HW2 4827   5.370   2.874   4.522
 1310SOL     OW 4828   4.881   3.702   5.339
 1310SOL    HW1 4829   4.838   3.688   5.429
 1310SOL    HW2 4830   4.839   3.641   5.272
 1311SOL     OW 4831   5.061   5.833   5.178
 1311SOL    HW1 4832   4.981   5.891   5.194
 1311SOL    HW2 4833   5.081   5.780   5.260
 1312SOL     OW 4834   0.718   6.537   0.996
 1312SOL    HW1 4835   0.699   6.610   1.062
 1312SOL    HW2 4836   0.645   6.468   1.001
 1313SOL     OW 4837   3.523   5.020   5.384
 1313SOL    HW1 4838   3.447   5.075   5.349
 1313SOL    HW2 4839   3.525   4.931   5.339
 1314SOL     OW 4840   6.079   1.756   4.484
 1314SOL    HW1 4841   5.982   1.768   4.462
 1314SOL    HW2 4842   6.109   1.666   4.452
 1315SOL     OW 4843   2.222   0.942   2.742
 1315SOL    HW1 4844   2.203   0.962   2.646
 1315SOL    HW2 4845   2.162   0.998   2.800
 1316SOL     OW 4846   2.973   6.775   2.542
 1316SOL    HW1 4847   2.946   6.733   2.456
 1316SOL    HW2 4848   2.943   6.870   2.545
 1317SOL     OW 4849   0.013   5.847   4.033
 1317SOL    HW1 4850   0.075   5.892   4.097
 1317SOL    HW2 4851   6.956   5.816   4.081
 1318SOL     OW 4852   6.729   6.811   0.678
 1318SOL    HW1 4853   6.731   6.735   0.613
 1318SOL    HW2 4854   6.751   6.777   0.770
 1319SOL     OW 4855   6.321   0.949   0.166
 1319SOL    HW1 4856   6.309   1.026   0.104
 1319SOL    HW2 4857   6.409   0.957   0.213
 1320SOL     OW 4858   5.678   5.145   6.365
 1320SOL    HW1 4859   5.771   5.121   6.391
 1320SOL    HW2 4860   5.618   5.137   6.445
 1321SOL     OW 4861   3.894   2.348   6.676
 1321SOL    HW1 4862   3.926   2.302   6.593
 1321SOL    HW2 4863   3.897   2.283   6.753
 1322SOL     OW 4864   6.031   1.809   5.240
 1322SOL    HW1 4865   6.016   1.724   5.291
 1322SOL    HW2 4866   6.070   1.788   5.150
 1323SOL     OW 4867   6.569   1.979   4.744
 1323SOL    HW1 4868   6.470   1.989   4.737
 1323SOL    HW2 4869   6.613   2.022   4.665
 1324SOL     OW 4870   1.408   4.047   0.699
 1324SOL    HW1 4871   1.423   4.078   0.793
 1324SOL    HW2 4872   1.398   4.126   0.639
 1325SOL     OW 4873   3.356   6.002   2.722
 1325SOL    HW1 4874   3.397   6.034   2.808
 1325SOL    HW2 4875   3.417   5.934   2.680
 1326SOL     OW 4876   5.836   3.383   4.338
 1326SOL    HW1 4877   5.907   3.314   4.353
 1326SOL    HW2 4878   5.746   3.345   4.362
 1327SOL     OW 4879   3.186   5.217   3.018
 1327SOL    HW1 4880   3.131   5.218   3.101
 1327SOL    HW2 4881   3.186   5.124   2.979
 1328SOL     OW 4882   1.741   2.351   6.760
 1328SOL    HW1 4883   1.810   2.424   6.763
 1328SOL    HW2 4884   1.660   2.380   6.811
 1329SOL     OW 4885   1.001   0.142   0.777
 1329SOL    HW1 4886   1.037   0.053   0.807
 1329SOL    HW2 4887   1.060   0.180   0.707
 1330SOL     OW 4888   6.016   6.469   1.139
 1330SOL    HW1 4889   6.014   6.481   1.238
 1330SOL    HW2 4890   6.022   6.559   1.094
 1331SOL     OW 4891   5.586   0.430   2.254
 1331SOL    HW1 4892   5.587   0.484   2.170
 1331SOL    HW2 4893   5.504   0.373   2.255
 1332SOL     OW 4894   4.321   1.457   1.352
 1332SOL    HW1 4895   4.326   1.485   1.448
 1332SOL    HW2 4896   4.234   1.411   1.336
 1333SOL     OW 4897   3.788   4.261   5.362
 1333SOL    HW1 4898   3.880   4.270   5.323
 1333SOL    HW2 4899   3.740   4.186   5.317
 1334SOL     OW 4900   0.283   3.822   4.499
 1334SOL    HW1 4901   0.288   3.885   4.577
 1334SOL    HW2 4902   0.365   3.832   4.442
 1335SOL     OW 4903   2.794   5.003   2.907
 1335SOL    HW1 4904   2.724   4.975   2.973
 1335SOL    HW2 4905   2.859   4.929   2.893
 1336SOL     OW 4906   0.644   0.434   5.214
 1336SOL    HW1 4907   0.671   0.441   5.310
 1336SOL    HW2 4908   0.592   0.350   5.199
 1337SOL     OW 4909   2.550   1.522   6.177
 1337SOL    HW1 4910   2.520   1.434   6.212
 1337SOL    HW2 4911   2.476   1.565   6.125
 1338SOL     OW 4912   3.868   5.816   0.421
 1338SOL    HW1 4913   3.948   5.872   0.396
 1338SOL    HW2 4914   3.866   5.734   0.365
 1339SOL     OW 4915   0.232   4.540   4.659
 1339SOL    HW1 4916   0.319   4.579   4.689
 1339SOL    HW2 4917   0.238   4.514   4.562
 1340SOL     OW 4918   2.010   1.874   6.072
 1340SOL    HW1 4919   1.938   1.888   6.004
 1340SOL    HW2 4920   1.977   1.813   6.144
 1341SOL     OW 4921   4.160   1.678   3.353
 1341SOL    HW1 4922   4.097   1.608   3.320
 1341SOL    HW2 4923   4.112   1.765   3.362
 1342SOL     OW 4924   0.301   6.410   0.877
 1342SOL    HW1 4925   0.326   6.507   0.878
 1342SOL    HW2 4926   0.288   6.380   0.782
 1343SOL     OW 4927   4.062   4.996   3.103
 1343SOL    HW1 4928   4.034   5.036   3.190
 1343SOL    HW2 4929   3.984   4.994   3.040
 1344SOL     OW 4930   6.058   1.134   2.409
 1344SOL    HW1 4931   6.040   1.038   2.431
 1344SOL    HW2 4932   5.973   1.185   2.413
 1345SOL     OW 4933   0.904   6.913   3.467
 1345SOL    HW1 4934   0.817   6.962   3.463
 1345SOL    HW2 4935   0.886   6.815   3.481
 1346SOL     OW 4936   0.340   0.734   3.941
 1346SOL    HW1 4937   0.256   0.785   3.920
 1346SOL    HW2 4938   0.321   0.669   4.015
 1347SOL     OW 4939   5.846   0.452   3.155
 1347SOL    HW1 4940   5.851   0.545   3.119
 1347SOL    HW2 4941   5.808   0.455   3.248
 1348SOL     OW 4942   5.186   4.456   4.625
 1348SOL    HW1 4943   5.104   4.502   4.591
 1348SOL    HW2 4944   5.209   4.492   4.716
 1349SOL     OW 4945   4.687   2.667   6.696
 1349SOL    HW1 4946   4.692   2.570   6.669
 1349SOL    HW2 4947   4.748   2.683   6.774
 1350SOL     OW 4948   3.350   0.402   5.623
 1350SOL    HW1 4949   3.381   0.429   5.532
 1350SOL    HW2 4950   3.423   0.415   5.689
 1351SOL     OW 4951   0.752   0.746   4.619
 1351SOL    HW1 4952   0.661   0.771   4.586
 1351SOL    HW2 4953   0.750   0.730   4.717
 1352SOL     OW 4954   0.160   0.396   3.556
 1352SOL    HW1 4955   0.144   0.487   3.517
 1352SOL    HW2 4956   0.256   0.388   3.584
 1353SOL     OW 4957   1.391   4.697   4.053
 1353SOL    HW1 4958   1.449   4.775   4.030
 1353SOL    HW2 4959   1.333   4.674   3.975
 1354SOL     OW 4960   0.515   0.350   1.755
 1354SOL    HW1 4961   0.540   0.385   1.665
 1354SOL    HW2 4962   0.451   0.413   1.799
 1355SOL     OW 4963   4.817   3.040   6.499
 1355SOL    HW1 4964   4.724   3.059   6.466
 1355SOL    HW2 4965   4.814   3.027   6.598
 1356SOL     OW 4966   3.011   3.883   2.245
 1356SOL    HW1 4967   2.988   3.800   2.296
 1356SOL    HW2 4968   3.020   3.861   2.148
 1357SOL     OW 4969   2.878   2.731   5.589
 1357SOL    HW1 4970   2.824   2.648   5.570
 1357SOL    HW2 4971   2.951   2.739   5.521
 1358SOL     OW 4972   2.262   2.649   5.383
 1358SOL    HW1 4973   2.174   2.697   5.378
 1358SOL    HW2 4974   2.316   2.670   5.301
 1359SOL     OW 4975   6.918   1.007   0.588
 1359SOL    HW1 4976   6.905   1.090   0.536
 1359SOL    HW2 4977   6.982   0.947   0.540
 1360SOL     OW 4978   3.334   3.528   4.357
 1360SOL    HW1 4979   3.303   3.498   4.447
 1360SOL    HW2 4980   3.405   3.598   4.367
 1361SOL     OW 4981   1.000   6.043   0.813
 1361SOL    HW1 4982   1.094   6.025   0.783
 1361SOL    HW2 4983   0.953   5.956   0.828
 1362SOL     OW 4984   3.107   3.187   6.264
 1362SOL    HW1 4985   3.189   3.156   6.312
 1362SOL    HW2 4986   3.094   3.134   6.181
 1363SOL     OW 4987   5.540   6.406   2.269
 1363SOL    HW1 4988   5.543   6.497   2.229
 1363SOL    HW2 4989   5.621   6.354   2.239
 1364SOL     OW 4990   0.886   3.501   1.310
 1364SOL    HW1 4991   0.868   3.518   1.407
 1364SOL    HW2 4992   0.801   3.476   1.263
 1365SOL     OW 4993   0.482   3.534   5.596
 1365SOL    HW1 4994   0.396   3.540   5.647
 1365SOL    HW2 4995   0.559   3.541   5.659
 1366SOL     OW 4996   5.098   0.737   1.036
 1366SOL    HW1 4997   5.189   0.715   1.070
 1366SOL    HW2 4998   5.096   0.727   0.937
 1367SOL     OW 4999   0.506   6.301   4.447
 1367SOL    HW1 5000   0.442   6.373   4.423
 1367SOL    HW2 5001   0.573   6.336   4.512
 1368SOL     OW 5002   0.909   6.386   5.648
 1368SOL    HW1 5003   0.898   6.467   5.591
 1368SOL    HW2 5004   0.942   6.310   5.593
 1369SOL     OW 5005   2.938   6.612   3.447
 1369SOL    HW1 5006   2.983   6.661   3.372
 1369SOL    HW2 5007   2.881   6.539   3.409
 1370SOL     OW 5008   6.482   2.217   2.765
 1370SOL    HW1 5009   6.459   2.270   2.683
 1370SOL    HW2 5010   6.581   2.204   2.769
 1371SOL     OW 5011   5.710   1.895   5.586
 1371SOL    HW1 5012   5.730   1.935   5.675
 1371SOL    HW2 5013   5.775   1.822   5.566
 1372SOL     OW 5014   6.574   2.847   0.183
 1372SOL    HW1 5015   6.620   2.762   0.209
 1372SOL    HW2 5016   6.579   2.860   0.084
 1373SOL     OW 5017   5.138   2.419   2.184
 1373SOL    HW1 5018   5.216   2.481   2.178
 1373SOL    HW2 5019   5.065   2.451   2.123
 1374SOL     OW 5020   4.124   3.940   0.272
 1374SOL    HW1 5021   4.167   4.028   0.293
 1374SOL    HW2 5022   4.183   3.887   0.212
 1375SOL     OW 5023   5.580   5.458   4.116
 1375SOL    HW1 5024   5.562   5.539   4.060
 1375SOL    HW2 5025   5.522   5.383   4.087
 1376SOL     OW 5026   2.570   4.898   5.884
 1376SOL    HW1 5027   2.599   4.875   5.791
 1376SOL    HW2 5028   2.650   4.921   5.939
 1377SOL     OW 5029   1.664   1.401   2.982
 1377SOL    HW1 5030   1.758   1.399   3.017
 1377SOL    HW2 5031   1.641   1.494   2.954
 1378SOL     OW 5032   4.644   2.263   4.339
 1378SOL    HW1 5033   4.624   2.336   4.272
 1378SOL    HW2 5034   4.588   2.276   4.420
 1379SOL     OW 5035   4.810   5.516   1.153
 1379SOL    HW1 5036   4.889   5.454   1.154
 1379SOL    HW2 5037   4.841   5.610   1.156
 1380SOL     OW 5038   6.897   6.052   1.746
 1380SOL    HW1 5039   6.866   6.087   1.835
 1380SOL    HW2 5040   6.996   6.043   1.747
 1381SOL     OW 5041   6.339   2.062   5.798
 1381SOL    HW1 5042   6.298   2.128   5.862
 1381SOL    HW2 5043   6.431   2.038   5.828
 1382SOL     OW 5044   4.871   2.555   0.005
 1382SOL    HW1 5045   4.879   2.476   0.066
 1382SOL    HW2 5046   4.830   2.631   0.055
 1383SOL     OW 5047   0.644   1.421   2.157
 1383SOL    HW1 5048   0.676   1.490   2.092
 1383SOL    HW2 5049   0.691   1.433   2.244
 1384SOL     OW 5050   6.045   1.767   1.346
 1384SOL    HW1 5051   6.068   1.817   1.429
 1384SOL    HW2 5052   6.105   1.687   1.337
 1385SOL     OW 5053   0.893   5.877   1.807
 1385SOL    HW1 5054   0.942   5.835   1.731
 1385SOL    HW2 5055   0.803   5.908   1.777
 1386SOL     OW 5056   2.391   5.927   4.364
 1386SOL    HW1 5057   2.325   5.998   4.392
 1386SOL    HW2 5058   2.348   5.838   4.367
 1387SOL     OW 5059   2.807   5.752   2.289
 1387SOL    HW1 5060   2.862   5.669   2.281
 1387SOL    HW2 5061   2.847   5.812   2.358
 1388SOL     OW 5062   6.707   0.537   1.919
 1388SOL    HW1 5063   6.742   0.533   1.826
 1388SOL    HW2 5064   6.613   0.570   1.919
 1389SOL     OW 5065   6.129   0.870   2.548
 1389SOL    HW1 5066   6.219   0.881   2.591
 1389SOL    HW2 5067   6.057   0.899   2.611
 1390SOL     OW 5068   0.497   2.032   6.030
 1390SOL    HW1 5069   0.467   1.940   6.055
 1390SOL    HW2 5070   0.540   2.076   6.109
 1391SOL     OW 5071   0.731   3.101   2.560
 1391SOL    HW1 5072   0.806   3.071   2.619
 1391SOL    HW2 5073   0.725   3.201   2.561
 1392SOL     OW 5074   5.032   4.654   5.464
 1392SOL    HW1 5075   5.093   4.719   5.511
 1392SOL    HW2 5076   5.047   4.562   5.501
 1393SOL     OW 5077   4.093   6.272   5.721
 1393SOL    HW1 5078   4.119   6.364   5.754
 1393SOL    HW2 5079   4.173   6.229   5.679
 1394SOL     OW 5080   2.287   6.202   5.887
 1394SOL    HW1 5081   2.367   6.145   5.907
 1394SOL    HW2 5082   2.306   6.260   5.808
 1395SOL     OW 5083   3.179   4.635   5.533
 1395SOL    HW1 5084   3.228   4.567   5.588
 1395SOL    HW2 5085   3.108   4.678   5.588
 1396SOL     OW 5086   5.598   6.088   4.432
 1396SOL    HW1 5087   5.619   6.076   4.335
 1396SOL    HW2 5088   5.674   6.135   4.477
 1397SOL     OW 5089   4.163   5.952   4.764
 1397SOL    HW1 5090   4.182   5.874   4.705
 1397SOL    HW2 5091   4.090   5.928   4.828
 1398SOL     OW 5092   1.560   1.250   4.981
 1398SOL    HW1 5093   1.581   1.229   4.885
 1398SOL    HW2 5094   1.469   1.289   4.987
 1399SOL     OW 5095   3.480   6.495   1.647
 1399SOL    HW1 5096   3.557   6.453   1.600
 1399SOL    HW2 5097   3.398   6.486   1.590
 1400SOL     OW 5098   0.908   0.467   2.133
 1400SOL    HW1 5099   0.836   0.449   2.199
 1400SOL    HW2 5100   0.869   0.510   2.052
 1401SOL     OW 5101   0.131   1.320   4.686
 1401SOL    HW1 5102   0.189   1.278   4.616
 1401SOL    HW2 5103   0.180   1.397   4.728
 1402SOL     OW 5104   6.922   3.035   0.121
 1402SOL    HW1 5105   6.989   3.108   0.132
 1402SOL    HW2 5106   6.898   2.997   0.211
 1403SOL     OW 5107   2.212   0.485   2.211
 1403SOL    HW1 5108   2.309   0.463   2.218
 1403SOL    HW2 5109   2.170   0.429   2.139
 1404SOL     OW 5110   5.975   0.374   0.275
 1404SOL    HW1 5111   5.982   0.299   0.341
 1404SOL    HW2 5112   5.933   0.454   0.320
 1405SOL     OW 5113   2.274   3.596   1.104
 1405SOL    HW1 5114   2.345   3.641   1.050
 1405SOL    HW2 5115   2.192   3.585   1.048
 1406SOL     OW 5116   1.802   4.107   1.153
 1406SOL    HW1 5117   1.784   4.181   1.218
 1406SOL    HW2 5118   1.753   4.025   1.181
 1407SOL     OW 5119   6.656   2.103   2.505
 1407SOL    HW1 5120   6.676   2.097   2.603
 1407SOL    HW2 5121   6.695   2.023   2.459
 1408SOL     OW 5122   6.195   0.555   6.463
 1408SOL    HW1 5123   6.121   0.595   6.408
 1408SOL    HW2 5124   6.237   0.626   6.519
 1409SOL     OW 5125   0.309   0.671   4.720
 1409SOL    HW1 5126   0.250   0.601   4.679
 1409SOL    HW2 5127   0.403   0.638   4.721
 1410SOL     OW 5128   0.365   2.985   7.000
 1410SOL    HW1 5129   0.324   2.970   0.065
 1410SOL    HW2 5130   0.447   2.928   6.990
 1411SOL     OW 5131   1.399   6.877   1.858
 1411SOL    HW1 5132   1.398   6.937   1.778
 1411SOL    HW2 5133   1.403   6.932   1.941
 1412SOL     OW 5134   1.056   2.702   0.204
 1412SOL    HW1 5135   1.043   2.689   0.302
 1412SOL    HW2 5136   1.148   2.674   0.178
 1413SOL     OW 5137   2.162   0.490   4.240
 1413SOL    HW1 5138   2.155   0.577   4.190
 1413SOL    HW2 5139   2.236   0.496   4.307
 1414SOL     OW 5140   2.078   1.821   1.938
 1414SOL    HW1 5141   2.024   1.871   1.870
 1414SOL    HW2 5142   2.144   1.884   1.980
 1415SOL     OW 5143   3.944   6.160   6.019
 1415SOL    HW1 5144   3.974   6.115   5.935
 1415SOL    HW2 5145   3.984   6.251   6.024
 1416SOL     OW 5146   4.522   5.425   2.212
 1416SOL    HW1 5147   4.434   5.460   2.243
 1416SOL    HW2 5148   4.511   5.380   2.123
 1417SOL     OW 5149   2.615   2.074   6.307
 1417SOL    HW1 5150   2.645   2.153   6.252
 1417SOL    HW2 5151   2.667   1.993   6.279
 1418SOL     OW 5152   3.587   4.019   2.963
 1418SOL    HW1 5153   3.679   4.024   3.002
 1418SOL    HW2 5154   3.520   4.051   3.030
 1419SOL     OW 5155   4.089   6.378   5.117
 1419SOL    HW1 5156   4.071   6.341   5.026
 1419SOL    HW2 5157   4.132   6.308   5.174
 1420SOL     OW 5158   0.842   5.794   2.324
 1420SOL    HW1 5159   0.912   5.788   2.253
 1420SOL    HW2 5160   0.885   5.812   2.412
 1421SOL     OW 5161   3.076   1.825   2.266
 1421SOL    HW1 5162   3.037   1.781   2.346
 1421SOL    HW2 5163   3.017   1.809   2.187
 1422SOL     OW 5164   2.873   5.344   0.484
 1422SOL    HW1 5165   2.775   5.332   0.498
 1422SOL    HW2 5166   2.919   5.256   0.497
 1423SOL     OW 5167   4.912   6.868   2.551
 1423SOL    HW1 5168   4.975   6.848   2.625
 1423SOL    HW2 5169   4.844   6.795   2.543
 1424SOL     OW 5170   5.951   5.567   4.767
 1424SOL    HW1 5171   5.982   5.506   4.841
 1424SOL    HW2 5172   5.866   5.531   4.728
 1425SOL     OW 5173   2.402   6.699   4.067
 1425SOL    HW1 5174   2.359   6.609   4.071
 1425SOL    HW2 5175   2.336   6.767   4.036
 1426SOL     OW 5176   1.125   1.395   5.634
 1426SOL    HW1 5177   1.034   1.388   5.592
 1426SOL    HW2 5178   1.116   1.435   5.726
 1427SOL     OW 5179   5.749   0.763   3.900
 1427SOL    HW1 5180   5.743   0.756   3.999
 1427SOL    HW2 5181   5.703   0.847   3.869
 1428SOL     OW 5182   5.869   2.325   6.553
 1428SOL    HW1 5183   5.932   2.293   6.623
 1428SOL    HW2 5184   5.807   2.394   6.592
 1429SOL     OW 5185   0.083   0.869   0.467
 1429SOL    HW1 5186   0.169   0.821   0.484
 1429SOL    HW2 5187   0.093   0.927   0.386
 1430SOL     OW 5188   1.663   4.971   3.153
 1430SOL    HW1 5189   1.697   4.949   3.245
 1430SOL    HW2 5190   1.566   4.993   3.158
 1431SOL     OW 5191   2.536   0.717   1.269
 1431SOL    HW1 5192   2.539   0.621   1.297
 1431SOL    HW2 5193   2.490   0.724   1.181
 1432SOL     OW 5194   2.065   1.278   2.503
 1432SOL    HW1 5195   2.026   1.313   2.417
 1432SOL    HW2 5196   2.093   1.183   2.490
 1433SOL     OW 5197   3.777   0.475   4.252
 1433SOL    HW1 5198   3.810   0.524   4.332
 1433SOL    HW2 5199   3.698   0.524   4.213
 1434SOL     OW 5200   1.052   1.048   5.650
 1434SOL    HW1 5201   0.988   1.070   5.723
 1434SOL    HW2 5202   1.044   1.117   5.577
 1435SOL     OW 5203   6.243   1.798   2.585
 1435SOL    HW1 5204   6.296   1.777   2.504
 1435SOL    HW2 5205   6.253   1.895   2.608
 1436SOL     OW 5206   4.027   3.385   0.235
 1436SOL    HW1 5207   4.010   3.418   0.327
 1436SOL    HW2 5208   4.120   3.410   0.207
 1437SOL     OW 5209   3.225   0.668   2.433
 1437SOL    HW1 5210   3.157   0.728   2.476
 1437SOL    HW2 5211   3.208   0.665   2.334
 1438SOL     OW 5212   3.173   6.828   1.483
 1438SOL    HW1 5213   3.241   6.866   1.546
 1438SOL    HW2 5214   3.096   6.892   1.474
 1439SOL     OW 5215   0.470   5.800   2.365
 1439SOL    HW1 5216   0.546   5.849   2.408
 1439SOL    HW2 5217   0.423   5.744   2.433
 1440SOL     OW 5218   2.836   2.923   1.375
 1440SOL    HW1 5219   2.860   2.958   1.465
 1440SOL    HW2 5220   2.849   2.824   1.374
 1441SOL     OW 5221   5.671   6.503   1.139
 1441SOL    HW1 5222   5.722   6.524   1.223
 1441SOL    HW2 5223   5.701   6.564   1.066
 1442SOL     OW 5224   6.039   5.120   0.644
 1442SOL    HW1 5225   6.006   5.089   0.555
 1442SOL    HW2 5226   6.128   5.164   0.632
 1443SOL     OW 5227   1.203   2.666   2.949
 1443SOL    HW1 5228   1.142   2.608   2.895
 1443SOL    HW2 5229   1.193   2.645   3.046
 1444SOL     OW 5230   6.136   5.377   0.254
 1444SOL    HW1 5231   6.103   5.284   0.270
 1444SOL    HW2 5232   6.145   5.392   0.156
 1445SOL     OW 5233   1.343   3.727   2.694
 1445SOL    HW1 5234   1.297   3.717   2.606
 1445SOL    HW2 5235   1.278   3.760   2.763
 1446SOL     OW 5236   6.290   0.290   6.852
 1446SOL    HW1 5237   6.247   0.350   6.919
 1446SOL    HW2 5238   6.272   0.325   6.760
 1447SOL     OW 5239   6.005   5.199   4.430
 1447SOL    HW1 5240   6.057   5.269   4.479
 1447SOL    HW2 5241   5.919   5.182   4.477
 1448SOL     OW 5242   1.082   3.137   5.980
 1448SOL    HW1 5243   1.088   3.140   6.080
 1448SOL    HW2 5244   1.170   3.163   5.941
 1449SOL     OW 5245   2.017   4.314   4.448
 1449SOL    HW1 5246   1.930   4.321   4.399
 1449SOL    HW2 5247   2.089   4.288   4.383
 1450SOL     OW 5248   2.224   2.098   4.489
 1450SOL    HW1 5249   2.223   2.015   4.434
 1450SOL    HW2 5250   2.163   2.088   4.567
 1451SOL     OW 5251   2.259   0.214   2.075
 1451SOL    HW1 5252   2.305   0.252   1.994
 1451SOL    HW2 5253   2.166   0.251   2.081
 1452SOL     OW 5254   5.026   2.844   5.720
 1452SOL    HW1 5255   5.090   2.915   5.690
 1452SOL    HW2 5256   4.981   2.873   5.805
 1453SOL     OW 5257   0.879   4.482   4.987
 1453SOL    HW1 5258   0.952   4.520   5.043
 1453SOL    HW2 5259   0.914   4.465   4.894
 1454SOL     OW 5260   3.302   1.810   3.701
 1454SOL    HW1 5261   3.270   1.841   3.611
 1454SOL    HW2 5262   3.255   1.862   3.773
 1455SOL     OW 5263   1.202   5.909   2.147
 1455SOL    HW1 5264   1.263   5.887   2.223
 1455SOL    HW2 5265   1.257   5.932   2.067
 1456SOL     OW 5266   6.123   5.500   5.520
 1456SOL    HW1 5267   6.060   5.478   5.446
 1456SOL    HW2 5268   6.115   5.432   5.593
 1457SOL     OW 5269   0.319   4.389   6.001
 1457SOL    HW1 5270   0.360   4.468   5.955
 1457SOL    HW2 5271   0.360   4.378   6.092
 1458SOL     OW 5272   5.170   4.887   5.199
 1458SOL    HW1 5273   5.175   4.833   5.282
 1458SOL    HW2 5274   5.252   4.944   5.190
 1459SOL     OW 5275   5.252   6.662   5.390
 1459SOL    HW1 5276   5.285   6.692   5.301
 1459SOL    HW2 5277   5.266   6.735   5.457
 1460SOL     OW 5278   1.852   6.458   5.443
 1460SOL    HW1 5279   1.932   6.400   5.456
 1460SOL    HW2 5280   1.781   6.433   5.510
 1461SOL     OW 5281   0.501   3.078   3.257
 1461SOL    HW1 5282   0.424   3.015   3.264
 1461SOL    HW2 5283   0.522   3.096   3.161
 1462SOL     OW 5284   0.560   0.108   0.424
 1462SOL    HW1 5285   0.547   0.159   0.510
 1462SOL    HW2 5286   0.472   0.104   0.376
 1463SOL     OW 5287   2.053   5.430   6.517
 1463SOL    HW1 5288   2.070   5.332   6.509
 1463SOL    HW2 5289   1.955   5.448   6.504
 1464SOL     OW 5290   0.443   4.559   4.324
 1464SOL    HW1 5291   0.430   4.500   4.245
 1464SOL    HW2 5292   0.482   4.505   4.399
 1465SOL     OW 5293   1.342   2.129   3.273
 1465SOL    HW1 5294   1.350   2.228   3.261
 1465SOL    HW2 5295   1.395   2.100   3.353
 1466SOL     OW 5296   4.338   2.025   1.528
 1466SOL    HW1 5297   4.253   2.075   1.546
 1466SOL    HW2 5298   4.320   1.950   1.465
 1467SOL     OW 5299   1.342   1.157   4.235
 1467SOL    HW1 5300   1.405   1.213   4.290
 1467SOL    HW2 5301   1.272   1.117   4.294
 1468SOL     OW 5302   2.388   6.110   2.573
 1468SOL    HW1 5303   2.462   6.067   2.623
 1468SOL    HW2 5304   2.406   6.208   2.563
 1469SOL     OW 5305   6.330   5.046   3.137
 1469SOL    HW1 5306   6.347   5.004   3.048
 1469SOL    HW2 5307   6.311   5.143   3.124
 1470SOL     OW 5308   6.099   1.915   0.349
 1470SOL    HW1 5309   6.103   1.831   0.294
 1470SOL    HW2 5310   6.004   1.936   0.372
 1471SOL     OW 5311   5.213   6.841   1.577
 1471SOL    HW1 5312   5.171   6.932   1.578
 1471SOL    HW2 5313   5.270   6.830   1.659
 1472SOL     OW 5314   1.747   6.939   6.520
 1472SOL    HW1 5315   1.798   6.953   6.435
 1472SOL    HW2 5316   1.693   7.020   6.541
 1473SOL     OW 5317   2.753   5.267   4.615
 1473SOL    HW1 5318   2.657   5.288   4.632
 1473SOL    HW2 5319   2.791   5.333   4.551
 1474SOL     OW 5320   3.781   5.381   1.419
 1474SOL    HW1 5321   3.791   5.475   1.386
 1474SOL    HW2 5322   3.703   5.375   1.482
 1475SOL     OW 5323   5.039   0.324   0.167
 1475SOL    HW1 5324   5.133   0.357   0.164
 1475SOL    HW2 5325   4.987   0.365   0.092
 1476SOL     OW 5326   4.146   0.836   1.508
 1476SOL    HW1 5327   4.062   0.788   1.533
 1476SOL    HW2 5328   4.124   0.922   1.462
 1477SOL     OW 5329   4.289   4.804   1.225
 1477SOL    HW1 5330   4.222   4.732   1.245
 1477SOL    HW2 5331   4.355   4.809   1.301
 1478SOL     OW 5332   5.003   5.464   5.837
 1478SOL    HW1 5333   5.070   5.531   5.804
 1478SOL    HW2 5334   4.913   5.484   5.798
 1479SOL     OW 5335   3.717   3.952   1.350
 1479SOL    HW1 5336   3.759   3.965   1.440
 1479SOL    HW2 5337   3.721   3.856   1.325
 1480SOL     OW 5338   2.882   0.201   4.951
 1480SOL    HW1 5339   2.843   0.162   4.867
 1480SOL    HW2 5340   2.978   0.173   4.959
 1481SOL     OW 5341   5.145   2.278   5.633
 1481SOL    HW1 5342   5.100   2.368   5.631
 1481SOL    HW2 5343   5.076   2.206   5.638
 1482SOL     OW 5344   4.547   1.041   0.224
 1482SOL    HW1 5345   4.610   1.005   0.293
 1482SOL    HW2 5346   4.493   1.115   0.263
 1483SOL     OW 5347   5.212   1.234   5.929
 1483SOL    HW1 5348   5.293   1.186   5.895
 1483SOL    HW2 5349   5.134   1.214   5.870
 1484SOL     OW 5350   3.474   5.468   5.235
 1484SOL    HW1 5351   3.384   5.436   5.264
 1484SOL    HW2 5352   3.525   5.392   5.195
 1485SOL     OW 5353   4.974   2.480   2.641
 1485SOL    HW1 5354   5.068   2.512   2.637
 1485SOL    HW2 5355   4.926   2.503   2.556
 1486SOL     OW 5356   4.884   0.135   3.884
 1486SOL    HW1 5357   4.879   0.043   3.847
 1486SOL    HW2 5358   4.829   0.197   3.828
 1487SOL     OW 5359   6.740   0.053   0.837
 1487SOL    HW1 5360   6.759   7.019   0.915
 1487SOL    HW2 5361   6.789   0.139   0.847
 1488SOL     OW 5362   5.948   0.926   2.759
 1488SOL    HW1 5363   5.919   0.839   2.801
 1488SOL    HW2 5364   5.894   1.001   2.798
 1489SOL     OW 5365   4.025   4.566   6.497
 1489SOL    HW1 5366   3.947   4.548   6.437
 1489SOL    HW2 5367   4.024   4.662   6.524
 1490SOL     OW 5368   0.319   2.265   2.719
 1490SOL    HW1 5369   0.365   2.336   2.665
 1490SOL    HW2 5370   0.292   2.190   2.658
 1491SOL     OW 5371   0.217   3.367   2.590
 1491SOL    HW1 5372   0.139   3.426   2.574
 1491SOL    HW2 5373   0.185   3.274   2.612
 1492SOL     OW 5374   5.896   1.594   2.863
 1492SOL    HW1 5375   5.879   1.558   2.771
 1492SOL    HW2 5376   5.988   1.634   2.865
 1493SOL     OW 5377   4.612   2.988   5.804
 1493SOL    HW1 5378   4.707   2.984   5.835
 1493SOL    HW2 5379   4.607   2.955   5.710
 1494SOL     OW 5380   6.359   4.547   5.393
 1494SOL    HW1 5381   6.356   4.627   5.452
 1494SOL    HW2 5382   6.348   4.575   5.298
 1495SOL     OW 5383   5.926   4.517   4.413
 1495SOL    HW1 5384   5.938   4.430   4.363
 1495SOL    HW2 5385   6.009   4.536   4.465
 1496SOL     OW 5386   6.409   5.675   6.767
 1496SOL    HW1 5387   6.410   5.770   6.798
 1496SOL    HW2 5388   6.364   5.618   6.837
 1497SOL     OW 5389   5.820   3.211   2.905
 1497SOL    HW1 5390   5.728   3.250   2.910
 1497SOL    HW2 5391   5.844   3.197   2.809
 1498SOL     OW 5392   3.107   4.707   0.860
 1498SOL    HW1 5393   3.166   4.672   0.787
 1498SOL    HW2 5394   3.018   4.731   0.823
 1499SOL     OW 5395   0.671   3.939   5.295
 1499SOL    HW1 5396   0.764   3.937   5.258
 1499SOL    HW2 5397   0.633   3.847   5.295
 1500SOL     OW 5398   0.853   5.542   1.927
 1500SOL    HW1 5399   0.879   5.619   1.984
 1500SOL    HW2 5400   0.831   5.574   1.835
 1501SOL     OW 5401   6.032   1.667   0.039
 1501SOL    HW1 5402   6.122   1.626   0.029
 1501SOL    HW2 5403   6.041   1.767   0.040
 1502SOL     OW 5404   6.321   0.063   6.702
 1502SOL    HW1 5405   6.299   0.082   6.607
 1502SOL    HW2 5406   6.288   0.138   6.760
 1503SOL     OW 5407   0.684   4.490   1.884
 1503SOL    HW1 5408   0.598   4.541   1.882
 1503SOL    HW2 5409   0.753   4.543   1.934
 1504SOL     OW 5410   0.704   0.676   2.520
 1504SOL    HW1 5411   0.751   0.639   2.600
 1504SOL    HW2 5412   0.605   0.679   2.538
 1505SOL     OW 5413   4.867   5.694   4.918
 1505SOL    HW1 5414   4.802   5.754   4.872
 1505SOL    HW2 5415   4.956   5.739   4.923
 1506SOL     OW 5416   0.511   1.095   0.390
 1506SOL    HW1 5417   0.605   1.065   0.373
 1506SOL    HW2 5418   0.447   1.025   0.361
 1507SOL     OW 5419   1.854   2.229   4.423
 1507SOL    HW1 5420   1.945   2.271   4.423
 1507SOL    HW2 5421   1.785   2.300   4.435
 1508SOL     OW 5422   1.120   0.775   0.662
 1508SOL    HW1 5423   1.063   0.704   0.620
 1508SOL    HW2 5424   1.078   0.804   0.748
 1509SOL     OW 5425   5.213   0.897   3.988
 1509SOL    HW1 5426   5.289   0.832   3.983
 1509SOL    HW2 5427   5.128   0.851   3.963
 1510SOL     OW 5428   3.560   5.619   3.976
 1510SOL    HW1 5429   3.552   5.709   3.933
 1510SOL    HW2 5430   3.493   5.612   4.050
 1511SOL     OW 5431   3.724   3.262   4.582
 1511SOL    HW1 5432   3.765   3.265   4.491
 1511SOL    HW2 5433   3.626   3.244   4.574
 1512SOL     OW 5434   6.529   6.350   1.135
 1512SOL    HW1 5435   6.438   6.363   1.098
 1512SOL    HW2 5436   6.525   6.289   1.215
 1513SOL     OW 5437   3.298   0.289   6.272
 1513SOL    HW1 5438   3.340   0.380   6.269
 1513SOL    HW2 5439   3.351   0.226   6.216
 1514SOL     OW 5440   3.548   1.854   5.765
 1514SOL    HW1 5441   3.635   1.904   5.771
 1514SOL    HW2 5442   3.509   1.846   5.857
 1515SOL     OW 5443   6.129   1.771   1.788
 1515SOL    HW1 5444   6.136   1.743   1.884
 1515SOL    HW2 5445   6.088   1.862   1.783
 1516SOL     OW 5446   5.677   7.011   4.777
 1516SOL    HW1 5447   5.731   6.931   4.800
 1516SOL    HW2 5448   5.677   0.001   4.678
 1517SOL     OW 5449   4.073   6.290   3.862
 1517SOL    HW1 5450   4.035   6.380   3.885
 1517SOL    HW2 5451   4.012   6.218   3.894
 1518SOL     OW 5452   0.282   2.652   0.296
 1518SOL    HW1 5453   0.207   2.592   0.323
 1518SOL    HW2 5454   0.338   2.607   0.227
 1519SOL     OW 5455   6.873   4.316   6.727
 1519SOL    HW1 5456   6.952   4.260   6.753
 1519SOL    HW2 5457   6.808   4.260   6.675
 1520SOL     OW 5458   6.860   5.926   2.019
 1520SOL    HW1 5459   6.823   5.834   2.003
 1520SOL    HW2 5460   6.950   5.919   2.063
 1521SOL     OW 5461   2.111   4.772   6.473
 1521SOL    HW1 5462   2.042   4.732   6.534
 1521SOL    HW2 5463   2.070   4.844   6.418
 1522SOL     OW 5464   4.882   5.225   4.439
 1522SOL    HW1 5465   4.848   5.141   4.397
 1522SOL    HW2 5466   4.883   5.215   4.538
 1523SOL     OW 5467   3.784   5.837   6.940
 1523SOL    HW1 5468   3.730   5.894   7.002
 1523SOL    HW2 5469   3.742   5.836   6.850
 1524SOL     OW 5470   2.259   1.670   2.190
 1524SOL    HW1 5471   2.209   1.694   2.273
 1524SOL    HW2 5472   2.206   1.604   2.136
 1525SOL     OW 5473   6.065   2.638   6.896
 1525SOL    HW1 5474   6.024   2.580   6.967
 1525SOL    HW2 5475   6.091   2.726   6.936
 1526SOL     OW 5476   0.999   0.939   0.344
 1526SOL    HW1 5477   1.073   0.872   0.340
 1526SOL    HW2 5478   1.015   1.001   0.421
 1527SOL     OW 5479   4.157   1.188   4.035
 1527SOL    HW1 5480   4.145   1.208   3.938
 1527SOL    HW2 5481   4.125   1.095   4.055
 1528SOL     OW 5482   4.743   3.573   1.114
 1528SOL    HW1 5483   4.759   3.475   1.101
 1528SOL    HW2 5484   4.783   3.602   1.200
 1529SOL     OW 5485   4.889   1.290   5.685
 1529SOL    HW1 5486   4.828   1.361   5.720
 1529SOL    HW2 5487   4.846   1.245   5.606
 1530SOL     OW 5488   3.680   6.231   1.781
 1530SOL    HW1 5489   3.684   6.246   1.683
 1530SOL    HW2 5490   3.738   6.299   1.827
 1531SOL     OW 5491   3.265   6.489   4.759
 1531SOL    HW1 5492   3.194   6.499   4.690
 1531SOL    HW2 5493   3.355   6.496   4.716
 1532SOL     OW 5494   2.441   5.352   5.969
 1532SOL    HW1 5495   2.423   5.401   6.054
 1532SOL    HW2 5496   2.408   5.257   5.978
 1533SOL     OW 5497   5.676   5.190   1.137
 1533SOL    HW1 5498   5.755   5.132   1.156
 1533SOL    HW2 5499   5.596   5.152   1.183
 1534SOL     OW 5500   3.824   5.584   6.539
 1534SOL    HW1 5501   3.791   5.661   6.594
 1534SOL    HW2 5502   3.757   5.509   6.542
 1535SOL     OW 5503   5.708   0.021   4.514
 1535SOL    HW1 5504   5.802   0.000   4.485
 1535SOL    HW2 5505   5.659   0.063   4.438
 1536SOL     OW 5506   4.156   3.805   6.857
 1536SOL    HW1 5507   4.159   3.868   6.779
 1536SOL    HW2 5508   4.173   3.712   6.825
 1537SOL     OW 5509   3.219   5.150   4.109
 1537SOL    HW1 5510   3.125   5.178   4.127
 1537SOL    HW2 5511   3.275   5.230   4.092
 1538SOL     OW 5512   2.979   1.467   6.894
 1538SOL    HW1 5513   3.009   1.449   6.988
 1538SOL    HW2 5514   2.884   1.436   6.883
 1539SOL     OW 5515   5.538   3.186   0.724
 1539SOL    HW1 5516   5.529   3.265   0.785
 1539SOL    HW2 5517   5.621   3.135   0.748
 1540SOL     OW 5518   3.190   0.424   5.131
 1540SOL    HW1 5519   3.225   0.503   5.081
 1540SOL    HW2 5520   3.261   0.355   5.139
 1541SOL     OW 5521   3.918   3.150   4.739
 1541SOL    HW1 5522   3.857   3.219   4.700
 1541SOL    HW2 5523   3.863   3.074   4.774
 1542SOL     OW 5524   6.849   0.155   2.912
 1542SOL    HW1 5525   6.945   0.133   2.933
 1542SOL    HW2 5526   6.843   0.249   2.880
 1543SOL     OW 5527   2.952   4.846   6.531
 1543SOL    HW1 5528   3.047   4.815   6.528
 1543SOL    HW2 5529   2.909   4.813   6.615
 1544SOL     OW 5530   4.143   3.450   4.281
 1544SOL    HW1 5531   4.190   3.399   4.209
 1544SOL    HW2 5532   4.111   3.387   4.351
 1545SOL     OW 5533   6.447   6.630   2.531
 1545SOL    HW1 5534   6.414   6.549   2.481
 1545SOL    HW2 5535   6.415   6.626   2.625
 1546SOL     OW 5536   5.158   6.384   5.852
 1546SOL    HW1 5537   5.234   6.412   5.794
 1546SOL    HW2 5538   5.138   6.456   5.919
 1547SOL     OW 5539   1.583   3.516   6.658
 1547SOL    HW1 5540   1.641   3.435   6.658
 1547SOL    HW2 5541   1.633   3.593   6.619
 1548SOL     OW 5542   6.064   2.237   6.710
 1548SOL    HW1 5543   6.118   2.304   6.659
 1548SOL    HW2 5544   6.108   2.220   6.799
 1549SOL     OW 5545   4.551   1.209   5.000
 1549SOL    HW1 5546   4.561   1.129   4.941
 1549SOL    HW2 5547   4.555   1.292   4.943
 1550SOL     OW 5548   3.725   2.895   3.087
 1550SOL    HW1 5549   3.655   2.828   3.111
 1550SOL    HW2 5550   3.712   2.923   2.992
 1551SOL     OW 5551   0.070   5.445   6.008
 1551SOL    HW1 5552   0.044   5.373   6.071
 1551SOL    HW2 5553   7.015   5.503   5.988
 1552SOL     OW 5554   2.277   4.359   2.025
 1552SOL    HW1 5555   2.341   4.288   1.998
 1552SOL    HW2 5556   2.245   4.407   1.943
 1553SOL     OW 5557   0.237   1.915   5.747
 1553SOL    HW1 5558   0.216   1.984   5.817
 1553SOL    HW2 5559   0.156   1.859   5.730
 1554SOL     OW 5560   2.630   1.814   3.683
 1554SOL    HW1 5561   2.692   1.753   3.730
 1554SOL    HW2 5562   2.576   1.762   3.617
 1555SOL     OW 5563   0.093   3.366   6.358
 1555SOL    HW1 5564   0.075   3.270   6.380
 1555SOL    HW2 5565   0.149   3.371   6.275
 1556SOL     OW 5566   2.079   1.297   6.073
 1556SOL    HW1 5567   2.098   1.393   6.050
 1556SOL    HW2 5568   2.100   1.239   5.995
 1557SOL     OW 5569   0.536   3.349   6.651
 1557SOL    HW1 5570   0.508   3.390   6.738
 1557SOL    HW2 5571   0.459   3.350   6.587
 1558SOL     OW 5572   6.696   0.444   5.191
 1558SOL    HW1 5573   6.762   0.370   5.183
 1558SOL    HW2 5574   6.743   0.532   5.182
 1559SOL     OW 5575   0.486   2.450   5.740
 1559SOL    HW1 5576   0.408   2.487   5.791
 1559SOL    HW2 5577   0.494   2.352   5.758
 1560SOL     OW 5578   6.999   0.816   6.459
 1560SOL    HW1 5579   0.019   0.867   6.532
 1560SOL    HW2 5580   6.994   0.872   6.376
 1561SOL     OW 5581   5.634   5.841   2.686
 1561SOL    HW1 5582   5.553   5.784   2.703
 1561SOL    HW2 5583   5.607   5.924   2.638
 1562SOL     OW 5584   5.764   0.563   3.401
 1562SOL    HW1 5585   5.685   0.507   3.378
 1562SOL    HW2 5586   5.736   0.638   3.460
 1563SOL     OW 5587   3.498   0.985   5.870
 1563SOL    HW1 5588   3.486   1.037   5.954
 1563SOL    HW2 5589   3.595   0.966   5.856
 1564SOL     OW 5590   1.555   2.164   2.769
 1564SOL    HW1 5591   1.554   2.090   2.837
 1564SOL    HW2 5592   1.529   2.128   2.679
 1565SOL     OW 5593   5.125   3.605   2.009
 1565SOL    HW1 5594   5.089   3.516   2.035
 1565SOL    HW2 5595   5.113   3.619   1.911
 1566SOL     OW 5596   5.438   4.071   3.614
 1566SOL    HW1 5597   5.487   4.158   3.623
 1566SOL    HW2 5598   5.348   4.078   3.656
 1567SOL     OW 5599   6.857   5.532   5.905
 1567SOL    HW1 5600   6.819   5.500   5.819
 1567SOL    HW2 5601   6.888   5.627   5.895
 1568SOL     OW 5602   0.238   0.511   0.903
 1568SOL    HW1 5603   0.159   0.456   0.928
 1568SOL    HW2 5604   0.230   0.539   0.807
 1569SOL     OW 5605   3.653   5.830   5.720
 1569SOL    HW1 5606   3.644   5.740   5.763
 1569SOL    HW2 5607   3.738   5.873   5.751
 1570SOL     OW 5608   3.253   2.045   1.563
 1570SOL    HW1 5609   3.286   2.107   1.634
 1570SOL    HW2 5610   3.182   1.986   1.600
 1571SOL     OW 5611   6.676   3.651   1.439
 1571SOL    HW1 5612   6.753   3.690   1.389
 1571SOL    HW2 5613   6.707   3.570   1.490
 1572SOL     OW 5614   1.360   6.980   2.115
 1572SOL    HW1 5615   1.273   6.935   2.135
 1572SOL    HW2 5616   1.390   0.006   2.195
 1573SOL     OW 5617   4.304   0.243   1.879
 1573SOL    HW1 5618   4.217   0.237   1.928
 1573SOL    HW2 5619   4.288   0.236   1.781
 1574SOL     OW 5620   6.890   2.251   2.056
 1574SOL    HW1 5621   6.852   2.163   2.083
 1574SOL    HW2 5622   6.915   2.247   1.959
 1575SOL     OW 5623   1.860   2.320   0.532
 1575SOL    HW1 5624   1.913   2.327   0.616
 1575SOL    HW2 5625   1.918   2.340   0.453
 1576SOL     OW 5626   6.275   6.196   4.114
 1576SOL    HW1 5627   6.193   6.249   4.134
 1576SOL    HW2 5628   6.284   6.184   4.015
 1577SOL     OW 5629   2.723   0.215   6.181
 1577SOL    HW1 5630   2.717   0.128   6.131
 1577SOL    HW2 5631   2.819   0.237   6.198
 1578SOL     OW 5632   6.146   4.560   5.638
 1578SOL    HW1 5633   6.062   4.508   5.629
 1578SOL    HW2 5634   6.215   4.525   5.575
 1579SOL     OW 5635   0.891   0.564   3.646
 1579SOL    HW1 5636   0.798   0.529   3.656
 1579SOL    HW2 5637   0.949   0.526   3.718
 1580SOL     OW 5638   3.170   4.269   5.517
 1580SOL    HW1 5639   3.238   4.196   5.514
 1580SOL    HW2 5640   3.108   4.260   5.439
 1581SOL     OW 5641   6.650   4.338   4.466
 1581SOL    HW1 5642   6.639   4.363   4.369
 1581SOL    HW2 5643   6.713   4.261   4.474
 1582SOL     OW 5644   6.675   5.466   4.603
 1582SOL    HW1 5645   6.660   5.472   4.702
 1582SOL    HW2 5646   6.589   5.443   4.558
 1583SOL     OW 5647   1.587   2.961   2.898
 1583SOL    HW1 5648   1.550   3.034   2.841
 1583SOL    HW2 5649   1.683   2.981   2.918
 1584SOL     OW 5650   2.410   7.014   6.132
 1584SOL    HW1 5651   2.345   6.945   6.163
 1584SOL    HW2 5652   2.368   0.046   6.061
 1585SOL     OW 5653   5.189   1.473   4.560
 1585SOL    HW1 5654   5.094   1.493   4.586
 1585SOL    HW2 5655   5.190   1.393   4.500
 1586SOL     OW 5656   3.575   3.787   2.835
 1586SOL    HW1 5657   3.586   3.821   2.742
 1586SOL    HW2 5658   3.552   3.863   2.896
 1587SOL     OW 5659   3.450   6.816   6.753
 1587SOL    HW1 5660   3.370   6.757   6.760
 1587SOL    HW2 5661   3.512   6.781   6.683
 1588SOL     OW 5662   5.722   3.247   1.820
 1588SOL    HW1 5663   5.648   3.202   1.770
 1588SOL    HW2 5664   5.808   3.236   1.769
 1589SOL     OW 5665   6.131   4.154   3.932
 1589SOL    HW1 5666   6.175   4.213   3.864
 1589SOL    HW2 5667   6.176   4.065   3.934
 1590SOL     OW 5668   1.576   1.104   6.077
 1590SOL    HW1 5669   1.561   1.005   6.083
 1590SOL    HW2 5670   1.675   1.123   6.076
 1591SOL     OW 5671   1.199   4.787   1.727
 1591SOL    HW1 5672   1.174   4.702   1.773
 1591SOL    HW2 5673   1.274   4.769   1.663
 1592SOL     OW 5674   3.432   3.322   2.701
 1592SOL    HW1 5675   3.338   3.298   2.723
 1592SOL    HW2 5676   3.494   3.286   2.772
 1593SOL     OW 5677   1.067   5.497   5.208
 1593SOL    HW1 5678   1.061   5.519   5.305
 1593SOL    HW2 5679   0.974   5.485   5.171
 1594SOL     OW 5680   6.669   5.065   2.726
 1594SOL    HW1 5681   6.727   5.115   2.791
 1594SOL    HW2 5682   6.621   4.992   2.773
 1595SOL     OW 5683   6.602   4.881   6.154
 1595SOL    HW1 5684   6.563   4.834   6.234
 1595SOL    HW2 5685   6.551   4.966   6.137
 1596SOL     OW 5686   2.833   4.958   5.936
 1596SOL    HW1 5687   2.909   4.908   5.977
 1596SOL    HW2 5688   2.868   5.034   5.882
 1597SOL     OW 5689   2.741   6.685   1.444
 1597SOL    HW1 5690   2.719   6.590   1.425
 1597SOL    HW2 5691   2.734   6.702   1.542
 1598SOL     OW 5692   0.079   5.394   1.571
 1598SOL    HW1 5693   7.011   5.430   1.580
 1598SOL    HW2 5694   0.139   5.438   1.637
 1599SOL     OW 5695   3.970   4.802   0.067
 1599SOL    HW1 5696   4.064   4.835   0.069
 1599SOL    HW2 5697   3.938   4.785   0.160
 1600SOL     OW 5698   3.530   1.234   4.411
 1600SOL    HW1 5699   3.531   1.136   4.395
 1600SOL    HW2 5700   3.445   1.273   4.376
 1601SOL     OW 5701   0.700   5.141   3.691
 1601SOL    HW1 5702   0.748   5.206   3.749
 1601SOL    HW2 5703   0.689   5.054   3.740
 1602SOL     OW 5704   1.441   4.783   3.397
 1602SOL    HW1 5705   1.393   4.850   3.454
 1602SOL    HW2 5706   1.401   4.782   3.305
 1603SOL     OW 5707   6.780   6.785   1.565
 1603SOL    HW1 5708   6.838   6.711   1.599
 1603SOL    HW2 5709   6.703   6.746   1.514
 1604SOL     OW 5710   0.657   5.429   6.242
 1604SOL    HW1 5711   0.646   5.335   6.210
 1604SOL    HW2 5712   0.605   5.491   6.183
 1605SOL     OW 5713   5.455   6.482   3.298
 1605SOL    HW1 5714   5.525   6.553   3.288
 1605SOL    HW2 5715   5.388   6.490   3.225
 1606SOL     OW 5716   5.357   6.856   6.544
 1606SOL    HW1 5717   5.277   6.796   6.546
 1606SOL    HW2 5718   5.438   6.802   6.522
 1607SOL     OW 5719   3.994   1.782   0.761
 1607SOL    HW1 5720   4.018   1.685   0.757
 1607SOL    HW2 5721   3.898   1.794   0.735
 1608SOL     OW 5722   2.534   0.341   0.412
 1608SOL    HW1 5723   2.603   0.274   0.438
 1608SOL    HW2 5724   2.450   0.324   0.465
 1609SOL     OW 5725   4.847   1.892   5.282
 1609SOL    HW1 5726   4.824   1.966   5.344
 1609SOL    HW2 5727   4.833   1.804   5.327
 1610SOL     OW 5728   6.255   5.551   4.721
 1610SOL    HW1 5729   6.214   5.565   4.811
 1610SOL    HW2 5730   6.274   5.640   4.678
 1611SOL     OW 5731   2.909   3.786   1.557
 1611SOL    HW1 5732   2.971   3.709   1.565
 1611SOL    HW2 5733   2.844   3.768   1.483
 1612SOL     OW 5734   2.952   0.720   4.566
 1612SOL    HW1 5735   2.966   0.816   4.540
 1612SOL    HW2 5736   2.916   0.669   4.489
 1613SOL     OW 5737   2.259   5.889   0.687
 1613SOL    HW1 5738   2.331   5.864   0.623
 1613SOL    HW2 5739   2.229   5.983   0.669
 1614SOL     OW 5740   6.212   2.147   6.919
 1614SOL    HW1 5741   6.197   2.170   7.015
 1614SOL    HW2 5742   6.304   2.109   6.909
 1615SOL     OW 5743   6.455   5.004   6.566
 1615SOL    HW1 5744   6.504   5.090   6.578
 1615SOL    HW2 5745   6.416   4.974   6.653
 1616SOL     OW 5746   3.233   2.053   5.817
 1616SOL    HW1 5747   3.293   2.118   5.863
 1616SOL    HW2 5748   3.282   2.008   5.743
 1617SOL     OW 5749   4.623   0.077   3.566
 1617SOL    HW1 5750   4.686   0.052   3.492
 1617SOL    HW2 5751   4.530   0.086   3.529
 1618SOL     OW 5752   5.366   2.665   0.972
 1618SOL    HW1 5753   5.380   2.611   0.889
 1618SOL    HW2 5754   5.268   2.677   0.989
 1619SOL     OW 5755   1.509   3.190   4.504
 1619SOL    HW1 5756   1.503   3.287   4.481
 1619SOL    HW2 5757   1.559   3.142   4.432
 1620SOL     OW 5758   3.101   5.475   1.236
 1620SOL    HW1 5759   3.168   5.401   1.232
 1620SOL    HW2 5760   3.094   5.508   1.330
 1621SOL     OW 5761   1.852   0.955   1.608
 1621SOL    HW1 5762   1.907   0.914   1.536
 1621SOL    HW2 5763   1.771   0.898   1.624
 1622SOL     OW 5764   2.280   1.885   4.310
 1622SOL    HW1 5765   2.313   1.800   4.268
 1622SOL    HW2 5766   2.258   1.951   4.238
 1623SOL     OW 5767   2.984   2.206   5.233
 1623SOL    HW1 5768   3.034   2.122   5.213
 1623SOL    HW2 5769   3.049   2.283   5.237
 1624SOL     OW 5770   2.006   1.322   0.378
 1624SOL    HW1 5771   1.995   1.371   0.465
 1624SOL    HW2 5772   1.928   1.343   0.319
 1625SOL     OW 5773   0.614   5.133   2.103
 1625SOL    HW1 5774   0.645   5.200   2.036
 1625SOL    HW2 5775   0.514   5.132   2.106
 1626SOL     OW 5776   1.875   2.126   6.617
 1626SOL    HW1 5777   1.783   2.116   6.580
 1626SOL    HW2 5778   1.936   2.060   6.573
 1627SOL     OW 5779   5.731   3.289   3.929
 1627SOL    HW1 5780   5.766   3.315   3.839
 1627SOL    HW2 5781   5.804   3.245   3.981
 1628SOL     OW 5782   3.086   3.817   0.215
 1628SOL    HW1 5783   3.086   3.740   0.151
 1628SOL    HW2 5784   3.164   3.876   0.197
 1629SOL     OW 5785   4.287   2.291   3.460
 1629SOL    HW1 5786   4.210   2.345   3.493
 1629SOL    HW2 5787   4.372   2.329   3.495
 1630SOL     OW 5788   6.953   4.740   4.437
 1630SOL    HW1 5789   6.895   4.821   4.447
 1630SOL    HW2 5790   0.023   4.765   4.457
 1631SOL     OW 5791   0.650   6.835   5.802
 1631SOL    HW1 5792   0.632   6.933   5.810
 1631SOL    HW2 5793   0.566   6.784   5.820
 1632SOL     OW 5794   5.709   0.823   1.268
 1632SOL    HW1 5795   5.647   0.780   1.202
 1632SOL    HW2 5796   5.686   0.920   1.276
 1633SOL     OW 5797   5.286   2.675   3.849
 1633SOL    HW1 5798   5.226   2.718   3.917
 1633SOL    HW2 5799   5.261   2.578   3.841
 1634SOL     OW 5800   3.563   1.108   6.617
 1634SOL    HW1 5801   3.512   1.024   6.636
 1634SOL    HW2 5802   3.520   1.185   6.664
 1635SOL     OW 5803   0.147   5.573   4.040
 1635SOL    HW1 5804   0.105   5.484   4.057
 1635SOL    HW2 5805   0.143   5.595   3.943
 1636SOL     OW 5806   2.084   6.036   0.953
 1636SOL    HW1 5807   2.047   6.007   1.042
 1636SOL    HW2 5808   2.183   6.046   0.960
 1637SOL     OW 5809   7.018   3.551   1.808
 1637SOL    HW1 5810   6.924   3.584   1.793
 1637SOL    HW2 5811   0.004   3.525   1.904
 1638SOL     OW 5812   0.878   2.792   4.623
 1638SOL    HW1 5813   0.785   2.804   4.587
 1638SOL    HW2 5814   0.900   2.869   4.683
 1639SOL     OW 5815   5.042   4.776   2.210
 1639SOL    HW1 5816   4.961   4.834   2.199
 1639SOL    HW2 5817   5.102   4.816   2.280
 1640SOL     OW 5818   5.790   0.429   1.518
 1640SOL    HW1 5819   5.858   0.433   1.444
 1640SOL    HW2 5820   5.727   0.507   1.510
 1641SOL     OW 5821   6.303   2.209   5.449
 1641SOL    HW1 5822   6.247   2.226   5.368
 1641SOL    HW2 5823   6.391   2.170   5.420
 1642SOL     OW 5824   6.996   2.563   1.868
 1642SOL    HW1 5825   0.000   2.649   1.827
 1642SOL    HW2 5826   6.915   2.528   1.821
 1643SOL     OW 5827   4.370   0.566   5.455
 1643SOL    HW1 5828   4.282   0.612   5.463
 1643SOL    HW2 5829   4.423   0.581   5.539
 1644SOL     OW 5830   3.344   0.495   1.058
 1644SOL    HW1 5831   3.371   0.551   1.136
 1644SOL    HW2 5832   3.320   0.403   1.089
 1645SOL     OW 5833   2.192   0.347   6.638
 1645SOL    HW1 5834   2.208   0.298   6.552
 1645SOL    HW2 5835   2.224   0.291   6.714
 1646SOL     OW 5836   1.082   3.690   1.302
 1646SOL    HW1 5837   1.060   3.745   1.221
 1646SOL    HW2 5838   1.007   3.625   1.319
 1647SOL     OW 5839   5.976   3.391   3.799
 1647SOL    HW1 5840   5.946   3.350   3.713
 1647SOL    HW2 5841   6.064   3.436   3.786
 1648SOL     OW 5842   4.470   0.167   2.338
 1648SOL    HW1 5843   4.390   0.170   2.398
 1648SOL    HW2 5844   4.531   0.242   2.360
 1649SOL     OW 5845   2.931   0.789   3.069
 1649SOL    HW1 5846   2.998   0.805   2.996
 1649SOL    HW2 5847   2.850   0.744   3.031
 1650SOL     OW 5848   2.730   6.077   3.615
 1650SOL    HW1 5849   2.680   6.012   3.673
 1650SOL    HW2 5850   2.816   6.102   3.659
 1651SOL     OW 5851   1.486   6.891   0.755
 1651SOL    HW1 5852   1.563   6.955   0.760
 1651SOL    HW2 5853   1.406   6.931   0.800
 1652SOL     OW 5854   3.002   2.631   1.357
 1652SOL    HW1 5855   3.067   2.705   1.370
 1652SOL    HW2 5856   3.016   2.562   1.428
 1653SOL     OW 5857   0.898   6.016   1.538
 1653SOL    HW1 5858   0.917   6.104   1.582
 1653SOL    HW2 5859   0.799   6.005   1.528
 1654SOL     OW 5860   0.574   3.408   2.918
 1654SOL    HW1 5861   0.589   3.449   3.008
 1654SOL    HW2 5862   0.499   3.456   2.872
 1655SOL     OW 5863   4.906   5.064   6.410
 1655SOL    HW1 5864   4.924   4.965   6.411
 1655SOL    HW2 5865   4.927   5.102   6.500
 1656SOL     OW 5866   0.331   5.086   3.278
 1656SOL    HW1 5867   0.415   5.118   3.322
 1656SOL    HW2 5868   0.263   5.160   3.277
 1657SOL     OW 5869   1.183   0.637   5.272
 1657SOL    HW1 5870   1.282   0.622   5.275
 1657SOL    HW2 5871   1.163   0.729   5.304
 1658SOL     OW 5872   6.206   6.261   2.659
 1658SOL    HW1 5873   6.234   6.283   2.753
 1658SOL    HW2 5874   6.272   6.198   2.618
 1659SOL     OW 5875   4.353   2.484   5.747
 1659SOL    HW1 5876   4.343   2.497   5.846
 1659SOL    HW2 5877   4.286   2.541   5.699
 1660SOL     OW 5878   1.156   5.707   3.300
 1660SOL    HW1 5879   1.191   5.613   3.306
 1660SOL    HW2 5880   1.214   5.768   3.353
 1661SOL     OW 5881   2.765   0.316   2.184
 1661SOL    HW1 5882   2.682   0.271   2.217
 1661SOL    HW2 5883   2.822   0.340   2.263
 1662SOL     OW 5884   0.595   0.654   2.875
 1662SOL    HW1 5885   0.620   0.748   2.895
 1662SOL    HW2 5886   0.525   0.653   2.803
 1663SOL     OW 5887   2.746   6.928   3.401
 1663SOL    HW1 5888   2.648   6.947   3.394
 1663SOL    HW2 5889   2.768   6.845   3.351
 1664SOL     OW 5890   2.303   5.953   4.762
 1664SOL    HW1 5891   2.222   5.971   4.706
 1664SOL    HW2 5892   2.375   5.912   4.705
 1665SOL     OW 5893   0.058   0.238   4.113
 1665SOL    HW1 5894   0.132   0.208   4.174
 1665SOL    HW2 5895   0.094   0.253   4.021
 1666SOL     OW 5896   5.896   2.417   5.794
 1666SOL    HW1 5897   5.945   2.418   5.881
 1666SOL    HW2 5898   5.801   2.389   5.811
 1667SOL     OW 5899   6.596   0.800   6.152
 1667SOL    HW1 5900   6.513   0.753   6.183
 1667SOL    HW2 5901   6.668   0.733   6.135
 1668SOL     OW 5902   3.471   1.287   5.423
 1668SOL    HW1 5903   3.472   1.190   5.448
 1668SOL    HW2 5904   3.486   1.296   5.325
 1669SOL     OW 5905   5.995   6.716   6.390
 1669SOL    HW1 5906   5.935   6.721   6.470
 1669SOL    HW2 5907   5.960   6.648   6.327
 1670SOL     OW 5908   5.822   4.344   5.934
 1670SOL    HW1 5909   5.889   4.419   5.935
 1670SOL    HW2 5910   5.866   4.262   5.897
 1671SOL     OW 5911   5.869   3.903   0.452
 1671SOL    HW1 5912   5.782   3.950   0.462
 1671SOL    HW2 5913   5.863   3.812   0.493
 1672SOL     OW 5914   1.551   5.106   2.294
 1672SOL    HW1 5915   1.614   5.045   2.343
 1672SOL    HW2 5916   1.557   5.198   2.333
 1673SOL     OW 5917   6.914   1.980   4.011
 1673SOL    HW1 5918   6.891   1.888   3.978
 1673SOL    HW2 5919   7.008   2.002   3.984
 1674SOL     OW 5920   0.281   4.308   6.464
 1674SOL    HW1 5921   0.301   4.277   6.558
 1674SOL    HW2 5922   0.363   4.351   6.425
 1675SOL     OW 5923   4.980   1.973   6.691
 1675SOL    HW1 5924   4.967   2.021   6.778
 1675SOL    HW2 5925   4.891   1.944   6.656
 1676SOL     OW 5926   1.295   0.220   3.267
 1676SOL    HW1 5927   1.246   0.137   3.240
 1676SOL    HW2 5928   1.230   0.285   3.307
 1677SOL     OW 5929   5.998   1.615   5.464
 1677SOL    HW1 5930   5.985   1.646   5.559
 1677SOL    HW2 5931   6.054   1.533   5.464
 1678SOL     OW 5932   5.156   0.306   1.506
 1678SOL    HW1 5933   5.172   0.224   1.451
 1678SOL    HW2 5934   5.131   0.382   1.447
 1679SOL     OW 5935   0.402   3.641   6.779
 1679SOL    HW1 5936   0.461   3.709   6.734
 1679SOL    HW2 5937   0.458   3.584   6.840
 1680SOL     OW 5938   1.084   1.696   4.482
 1680SOL    HW1 5939   1.056   1.771   4.422
 1680SOL    HW2 5940   1.114   1.733   4.569
 1681SOL     OW 5941   6.276   5.518   1.197
 1681SOL    HW1 5942   6.362   5.569   1.190
 1681SOL    HW2 5943   6.250   5.510   1.293
 1682SOL     OW 5944   6.661   3.432   5.495
 1682SOL    HW1 5945   6.573   3.475   5.517
 1682SOL    HW2 5946   6.675   3.353   5.554
 1683SOL     OW 5947   5.483   5.628   0.895
 1683SOL    HW1 5948   5.476   5.720   0.857
 1683SOL    HW2 5949   5.578   5.605   0.911
 1684SOL     OW 5950   0.818   5.784   5.145
 1684SOL    HW1 5951   0.721   5.760   5.143
 1684SOL    HW2 5952   0.870   5.719   5.089
 1685SOL     OW 5953   1.201   1.555   0.419
 1685SOL    HW1 5954   1.281   1.507   0.383
 1685SOL    HW2 5955   1.222   1.653   0.428
 1686SOL     OW 5956   1.898   6.956   0.170
 1686SOL    HW1 5957   1.895   6.876   0.111
 1686SOL    HW2 5958   1.897   6.927   0.266
 1687SOL     OW 5959   1.491   0.017   1.607
 1687SOL    HW1 5960   1.513   0.104   1.564
 1687SOL    HW2 5961   1.494   6.969   1.538
 1688SOL     OW 5962   0.729   2.190   3.424
 1688SOL    HW1 5963   0.700   2.269   3.479
 1688SOL    HW2 5964   0.671   2.112   3.445
 1689SOL     OW 5965   1.898   1.363   3.129
 1689SOL    HW1 5966   1.909   1.329   3.223
 1689SOL    HW2 5967   1.960   1.440   3.115
 1690SOL     OW 5968   1.028   1.226   0.977
 1690SOL    HW1 5969   0.967   1.236   1.056
 1690SOL    HW2 5970   1.115   1.271   0.996
 1691SOL     OW 5971   5.324   4.307   2.261
 1691SOL    HW1 5972   5.314   4.209   2.275
 1691SOL    HW2 5973   5.283   4.356   2.339
 1692SOL     OW 5974   1.361   0.744   3.527
 1692SOL    HW1 5975   1.315   0.761   3.614
 1692SOL    HW2 5976   1.425   0.668   3.538
 1693SOL     OW 5977   2.769   2.317   3.498
 1693SOL    HW1 5978   2.867   2.303   3.511
 1693SOL    HW2 5979   2.719   2.237   3.530
 1694SOL     OW 5980   4.733   5.706   5.157
 1694SOL    HW1 5981   4.724   5.798   5.196
 1694SOL    HW2 5982   4.793   5.710   5.077
 1695SOL     OW 5983   2.835   2.252   5.467
 1695SOL    HW1 5984   2.877   2.184   5.527
 1695SOL    HW2 5985   2.878   2.247   5.377
 1696SOL     OW 5986   3.884   5.935   0.725
 1696SOL    HW1 5987   3.912   5.854   0.675
 1696SOL    HW2 5988   3.831   5.995   0.665
 1697SOL     OW 5989   0.403   1.418   2.024
 1697SOL    HW1 5990   0.393   1.461   1.934
 1697SOL    HW2 5991   0.494   1.440   2.061
 1698SOL     OW 5992   4.738   2.250   1.179
 1698SOL    HW1 5993   4.778   2.191   1.108
 1698SOL    HW2 5994   4.804   2.319   1.207
 1699SOL     OW 5995   2.345   3.350   1.187
 1699SOL    HW1 5996   2.330   3.449   1.180
 1699SOL    HW2 5997   2.260   3.302   1.163
 1700SOL     OW 5998   6.419   3.411   3.526
 1700SOL    HW1 5999   6.404   3.356   3.444
 1700SOL    HW2 6000   6.482   3.363   3.587
 1701SOL     OW 6001   5.679   2.982   4.570
 1701SOL    HW1 6002   5.602   2.920   4.554
 1701SOL    HW2 6003   5.708   2.974   4.665
 1702SOL     OW 6004   4.838   2.788   0.282
 1702SOL    HW1 6005   4.937   2.785   0.292
 1702SOL    HW2 6006   4.796   2.724   0.346
 1703SOL     OW 6007   1.864   3.703   0.278
 1703SOL    HW1 6008   1.869   3.755   0.192
 1703SOL    HW2 6009   1.816   3.616   0.261
 1704SOL     OW 6010   1.063   1.230   2.156
 1704SOL    HW1 6011   1.140   1.233   2.220
 1704SOL    HW2 6012   1.007   1.148   2.175
 1705SOL     OW 6013   4.410   3.168   1.677
 1705SOL    HW1 6014   4.332   3.154   1.738
 1705SOL    HW2 6015   4.493   3.134   1.720
 1706SOL     OW 6016   2.723   1.147   0.022
 1706SOL    HW1 6017   2.723   1.152   0.122
 1706SOL    HW2 6018   2.662   1.074   7.017
 1707SOL     OW 6019   5.299   2.206   3.055
 1707SOL    HW1 6020   5.313   2.246   2.965
 1707SOL    HW2 6021   5.257   2.116   3.046
 1708SOL     OW 6022   6.856   5.169   2.945
 1708SOL    HW1 6023   6.802   5.139   3.024
 1708SOL    HW2 6024   6.948   5.129   2.950
 1709SOL     OW 6025   2.868   6.167   2.864
 1709SOL    HW1 6026   2.801   6.118   2.809
 1709SOL    HW2 6027   2.884   6.257   2.824
 1710SOL     OW 6028   0.108   6.097   3.854
 1710SOL    HW1 6029   0.149   6.166   3.913
 1710SOL    HW2 6030   0.074   6.140   3.771
 1711SOL     OW 6031   1.593   4.419   5.829
 1711SOL    HW1 6032   1.495   4.414   5.810
 1711SOL    HW2 6033   1.623   4.515   5.826
 1712SOL     OW 6034   0.852   4.574   0.521
 1712SOL    HW1 6035   0.805   4.511   0.583
 1712SOL    HW2 6036   0.786   4.615   0.458
 1713SOL     OW 6037   1.016   3.182   0.876
 1713SOL    HW1 6038   0.954   3.128   0.933
 1713SOL    HW2 6039   1.110   3.152   0.892
 1714SOL     OW 6040   3.179   1.754   0.593
 1714SOL    HW1 6041   3.218   1.663   0.605
 1714SOL    HW2 6042   3.251   1.819   0.571
 1715SOL     OW 6043   0.242   3.331   3.571
 1715SOL    HW1 6044   0.235   3.431   3.568
 1715SOL    HW2 6045   0.320   3.302   3.517
 1716SOL     OW 6046   0.449   6.494   0.431
 1716SOL    HW1 6047   0.532   6.467   0.383
 1716SOL    HW2 6048   0.422   6.586   0.401
 1717SOL     OW 6049   3.209   0.492   6.855
 1717SOL    HW1 6050   3.227   0.396   6.832
 1717SOL    HW2 6051   3.180   0.541   6.773
 1718SOL     OW 6052   1.116   4.751   5.964
 1718SOL    HW1 6053   1.143   4.733   5.870
 1718SOL    HW2 6054   1.161   4.835   5.996
 1719SOL     OW 6055   2.129   3.536   1.732
 1719SOL    HW1 6056   2.147   3.456   1.675
 1719SOL    HW2 6057   2.179   3.528   1.818
 1720SOL     OW 6058   6.510   1.274   1.281
 1720SOL    HW1 6059   6.582   1.343   1.269
 1720SOL    HW2 6060   6.448   1.277   1.202
 1721SOL     OW 6061   1.718   6.245   3.748
 1721SOL    HW1 6062   1.812   6.264   3.717
 1721SOL    HW2 6063   1.663   6.213   3.671
 1722SOL     OW 6064   6.031   6.256   2.253
 1722SOL    HW1 6065   5.934   6.280   2.251
 1722SOL    HW2 6066   6.074   6.299   2.332
 1723SOL     OW 6067   6.138   1.559   2.269
 1723SOL    HW1 6068   6.116   1.656   2.272
 1723SOL    HW2 6069   6.111   1.521   2.180
 1724SOL     OW 6070   4.921   0.723   7.016
 1724SOL    HW1 6071   4.870   0.778   0.058
 1724SOL    HW2 6072   5.015   0.756   7.011
 1725SOL     OW 6073   3.976   4.543   1.668
 1725SOL    HW1 6074   3.983   4.470   1.600
 1725SOL    HW2 6075   4.065   4.557   1.711
 1726SOL     OW 6076   0.906   4.700   4.581
 1726SOL    HW1 6077   0.922   4.678   4.485
 1726SOL    HW2 6078   0.973   4.769   4.611
 1727SOL     OW 6079   3.239   3.689   5.312
 1727SOL    HW1 6080   3.229   3.769   5.371
 1727SOL    HW2 6081   3.275   3.716   5.223
 1728SOL     OW 6082   4.566   4.633   3.044
 1728SOL    HW1 6083   4.504   4.711   3.039
 1728SOL    HW2 6084   4.575   4.592   2.953
 1729SOL     OW 6085   2.103   3.664   3.135
 1729SOL    HW1 6086   2.132   3.721   3.058
 1729SOL    HW2 6087   2.145   3.698   3.219
 1730SOL     OW 6088   6.014   2.683   5.048
 1730SOL    HW1 6089   5.985   2.699   5.143
 1730SOL    HW2 6090   5.938   2.645   4.996
 1731SOL     OW 6091   1.849   5.320   0.432
 1731SOL    HW1 6092   1.938   5.288   0.464
 1731SOL    HW2 6093   1.797   5.243   0.396
 1732SOL     OW 6094   0.605   4.892   0.063
 1732SOL    HW1 6095   0.634   4.821   7.024
 1732SOL    HW2 6096   0.628   4.982   0.025
 1733SOL     OW 6097   1.603   3.805   0.566
 1733SOL    HW1 6098   1.629   3.872   0.636
 1733SOL    HW2 6099   1.609   3.713   0.604
 1734SOL     OW 6100   4.854   2.570   0.465
 1734SOL    HW1 6101   4.953   2.575   0.471
 1734SOL    HW2 6102   4.821   2.495   0.522
 1735SOL     OW 6103   6.175   5.075   1.535
 1735SOL    HW1 6104   6.250   5.117   1.483
 1735SOL    HW2 6105   6.112   5.146   1.566
 1736SOL     OW 6106   3.818   3.362   0.857
 1736SOL    HW1 6107   3.866   3.287   0.903
 1736SOL    HW2 6108   3.786   3.330   0.768
 1737SOL     OW 6109   2.023   6.537   3.769
 1737SOL    HW1 6110   2.040   6.439   3.772
 1737SOL    HW2 6111   1.930   6.556   3.799
 1738SOL     OW 6112   1.817   2.734   2.351
 1738SOL    HW1 6113   1.797   2.680   2.269
 1738SOL    HW2 6114   1.907   2.710   2.385
 1739SOL     OW 6115   4.283   1.474   4.940
 1739SOL    HW1 6116   4.242   1.565   4.931
 1739SOL    HW2 6117   4.346   1.474   5.017
 1740SOL     OW 6118   0.590   1.458   5.779
 1740SOL    HW1 6119   0.546   1.407   5.852
 1740SOL    HW2 6120   0.541   1.543   5.763
 1741SOL     OW 6121   1.269   6.984   3.152
 1741SOL    HW1 6122   1.345   6.919   3.141
 1741SOL    HW2 6123   1.185   6.933   3.167
 1742SOL     OW 6124   6.072   0.586   4.622
 1742SOL    HW1 6125   6.153   0.546   4.580
 1742SOL    HW2 6126   5.990   0.539   4.589
 1743SOL     OW 6127   4.046   1.213   1.112
 1743SOL    HW1 6128   4.098   1.294   1.084
 1743SOL    HW2 6129   3.957   1.213   1.067
 1744SOL     OW 6130   2.673   0.644   0.790
 1744SOL    HW1 6131   2.619   0.678   0.713
 1744SOL    HW2 6132   2.732   0.570   0.758
 1745SOL     OW 6133   0.102   2.388   3.075
 1745SOL    HW1 6134   0.080   2.296   3.043
 1745SOL    HW2 6135   0.017   2.439   3.092
 1746SOL     OW 6136   2.869   0.964   5.990
 1746SOL    HW1 6137   2.782   0.945   6.035
 1746SOL    HW2 6138   2.865   0.934   5.895
 1747SOL     OW 6139   3.279   0.311   1.826
 1747SOL    HW1 6140   3.300   0.398   1.870
 1747SOL    HW2 6141   3.332   0.238   1.868
 1748SOL     OW 6142   5.659   2.170   2.067
 1748SOL    HW1 6143   5.586   2.180   2.135
 1748SOL    HW2 6144   5.656   2.246   2.002
 1749SOL     OW 6145   3.997   6.510   6.393
 1749SOL    HW1 6146   3.912   6.457   6.402
 1749SOL    HW2 6147   3.975   6.607   6.384
 1750SOL     OW 6148   4.713   0.800   3.520
 1750SOL    HW1 6149   4.644   0.775   3.452
 1750SOL    HW2 6150   4.708   0.898   3.538
 1751SOL     OW 6151   2.101   5.581   3.650
 1751SOL    HW1 6152   2.138   5.662   3.604
 1751SOL    HW2 6153   2.024   5.545   3.597
 1752SOL     OW 6154   5.894   2.391   0.461
 1752SOL    HW1 6155   5.856   2.349   0.378
 1752SOL    HW2 6156   5.835   2.368   0.539
 1753SOL     OW 6157   1.990   0.339   2.051
 1753SOL    HW1 6158   1.985   0.240   2.062
 1753SOL    HW2 6159   1.910   0.382   2.094
 1754SOL     OW 6160   4.134   3.305   1.106
 1754SOL    HW1 6161   4.102   3.327   1.198
 1754SOL    HW2 6162   4.071   3.242   1.062
 1755SOL     OW 6163   5.207   3.788   0.632
 1755SOL    HW1 6164   5.286   3.748   0.679
 1755SOL    HW2 6165   5.154   3.842   0.696
 1756SOL     OW 6166   6.542   5.825   4.546
 1756SOL    HW1 6167   6.609   5.899   4.543
 1756SOL    HW2 6168   6.589   5.737   4.535
 1757SOL     OW 6169   3.013   6.644   4.621
 1757SOL    HW1 6170   2.919   6.612   4.608
 1757SOL    HW2 6171   3.062   6.639   4.535
 1758SOL     OW 6172   1.997   0.671   3.098
 1758SOL    HW1 6173   2.002   0.765   3.064
 1758SOL    HW2 6174   1.935   0.667   3.176
 1759SOL     OW 6175   0.975   5.699   6.419
 1759SOL    HW1 6176   0.889   5.667   6.458
 1759SOL    HW2 6177   0.965   5.709   6.320
 1760SOL     OW 6178   5.886   0.542   2.562
 1760SOL    HW1 6179   5.973   0.563   2.518
 1760SOL    HW2 6180   5.813   0.592   2.516
 1761SOL     OW 6181   6.428   2.692   1.354
 1761SOL    HW1 6182   6.430   2.770   1.291
 1761SOL    HW2 6183   6.446   2.724   1.447
 1762SOL     OW 6184   6.487   1.802   6.380
 1762SOL    HW1 6185   6.572   1.771   6.422
 1762SOL    HW2 6186   6.490   1.783   6.282
 1763SOL     OW 6187   2.221   4.075   4.030
 1763SOL    HW1 6188   2.162   3.994   4.030
 1763SOL    HW2 6189   2.264   4.085   3.940
 1764SOL     OW 6190   6.922   3.297   3.804
 1764SOL    HW1 6191   6.998   3.311   3.867
 1764SOL    HW2 6192   6.948   3.230   3.735
 1765SOL     OW 6193   2.614   2.542   5.957
 1765SOL    HW1 6194   2.687   2.531   6.025
 1765SOL    HW2 6195   2.576   2.634   5.963
 1766SOL     OW 6196   5.482   3.072   5.146
 1766SOL    HW1 6197   5.450   3.003   5.082
 1766SOL    HW2 6198   5.404   3.111   5.195
 1767SOL     OW 6199   5.873   3.396   2.537
 1767SOL    HW1 6200   5.845   3.301   2.552
 1767SOL    HW2 6201   5.825   3.431   2.456
 1768SOL     OW 6202   5.273   6.816   4.100
 1768SOL    HW1 6203   5.346   6.858   4.046
 1768SOL    HW2 6204   5.305   6.729   4.138
 1769SOL     OW 6205   4.101   1.618   2.325
 1769SOL    HW1 6206   4.181   1.663   2.365
 1769SOL    HW2 6207   4.031   1.687   2.305
 1770SOL     OW 6208   2.149   5.799   5.463
 1770SOL    HW1 6209   2.215   5.729   5.434
 1770SOL    HW2 6210   2.180   5.839   5.549
 1771SOL     OW 6211   4.677   5.767   6.738
 1771SOL    HW1 6212   4.720   5.693   6.790
 1771SOL    HW2 6213   4.679   5.746   6.641
 1772SOL     OW 6214   3.459   6.528   2.984
 1772SOL    HW1 6215   3.440   6.461   3.056
 1772SOL    HW2 6216   3.375   6.573   2.957
 1773SOL     OW 6217   1.198   5.551   6.332
 1773SOL    HW1 6218   1.223   5.645   6.305
 1773SOL    HW2 6219   1.111   5.553   6.382
 1774SOL     OW 6220   4.127   5.213   1.653
 1774SOL    HW1 6221   4.108   5.307   1.622
 1774SOL    HW2 6222   4.050   5.180   1.708
 1775SOL     OW 6223   0.936   4.389   2.250
 1775SOL    HW1 6224   0.850   4.341   2.271
 1775SOL    HW2 6225   1.003   4.323   2.216
 1776SOL     OW 6226   3.236   5.858   4.926
 1776SOL    HW1 6227   3.272   5.819   5.012
 1776SOL    HW2 6228   3.212   5.783   4.864
 1777SOL     OW 6229   4.376   5.991   0.494
 1777SOL    HW1 6230   4.324   5.992   0.579
 1777SOL    HW2 6231   4.398   5.896   0.470
 1778SOL     OW 6232   5.589   3.432   5.711
 1778SOL    HW1 6233   5.520   3.378   5.760
 1778SOL    HW2 6234   5.554   3.456   5.620
 1779SOL     OW 6235   3.418   6.891   4.918
 1779SOL    HW1 6236   3.397   6.850   5.007
 1779SOL    HW2 6237   3.406   6.990   4.922
 1780SOL     OW 6238   3.250   3.382   6.145
 1780SOL    HW1 6239   3.182   3.326   6.191
 1780SOL    HW2 6240   3.341   3.341   6.157
 1781SOL     OW 6241   3.721   5.651   2.934
 1781SOL    HW1 6242   3.638   5.679   2.982
 1781SOL    HW2 6243   3.726   5.551   2.931
 1782SOL     OW 6244   3.001   1.652   3.584
 1782SOL    HW1 6245   3.077   1.698   3.538
 1782SOL    HW2 6246   2.917   1.664   3.531
 1783SOL     OW 6247   1.905   5.770   6.735
 1783SOL    HW1 6248   1.908   5.834   6.812
 1783SOL    HW2 6249   1.939   5.681   6.765
 1784SOL     OW 6250   3.370   6.855   5.548
 1784SOL    HW1 6251   3.407   6.850   5.641
 1784SOL    HW2 6252   3.308   6.778   5.533
 1785SOL     OW 6253   6.534   4.157   2.470
 1785SOL    HW1 6254   6.465   4.109   2.524
 1785SOL    HW2 6255   6.556   4.104   2.389
 1786SOL     OW 6256   3.426   2.265   0.796
 1786SOL    HW1 6257   3.458   2.232   0.885
 1786SOL    HW2 6258   3.487   2.337   0.763
 1787SOL     OW 6259   3.447   1.158   6.152
 1787SOL    HW1 6260   3.389   1.136   6.230
 1787SOL    HW2 6261   3.392   1.201   6.080
 1788SOL     OW 6262   1.694   5.185   5.627
 1788SOL    HW1 6263   1.786   5.148   5.643
 1788SOL    HW2 6264   1.691   5.229   5.538
 1789SOL     OW 6265   6.705   1.640   0.056
 1789SOL    HW1 6266   6.645   1.599   0.126
 1789SOL    HW2 6267   6.798   1.604   0.068
 1790SOL     OW 6268   3.923   6.843   3.871
 1790SOL    HW1 6269   3.830   6.878   3.883
 1790SOL    HW2 6270   3.919   6.749   3.837
 1791SOL     OW 6271   6.833   6.583   2.731
 1791SOL    HW1 6272   6.813   6.664   2.675
 1791SOL    HW2 6273   6.867   6.613   2.820
 1792SOL     OW 6274   1.103   3.305   5.065
 1792SOL    HW1 6275   1.094   3.353   5.152
 1792SOL    HW2 6276   1.024   3.246   5.050
 1793SOL     OW 6277   6.761   0.166   3.868
 1793SOL    HW1 6278   6.795   0.254   3.834
 1793SOL    HW2 6279   6.805   0.145   3.955
 1794SOL     OW 6280   4.664   5.108   6.165
 1794SOL    HW1 6281   4.639   5.020   6.123
 1794SOL    HW2 6282   4.761   5.108   6.187
 1795SOL     OW 6283   0.608   2.681   0.733
 1795SOL    HW1 6284   0.695   2.731   0.724
 1795SOL    HW2 6285   0.594   2.655   0.829
 1796SOL     OW 6286   3.171   0.688   6.265
 1796SOL    HW1 6287   3.179   0.772   6.319
 1796SOL    HW2 6288   3.183   0.710   6.168
 1797SOL     OW 6289   1.209   6.522   0.365
 1797SOL    HW1 6290   1.179   6.428   0.381
 1797SOL    HW2 6291   1.288   6.542   0.424
 1798SOL     OW 6292   4.416   2.433   2.998
 1798SOL    HW1 6293   4.378   2.522   3.023
 1798SOL    HW2 6294   4.360   2.360   3.037
 1799SOL     OW 6295   1.132   2.056   6.321
 1799SOL    HW1 6296   1.111   1.995   6.245
 1799SOL    HW2 6297   1.057   2.120   6.334
 1800SOL     OW 6298   4.213   4.938   1.567
 1800SOL    HW1 6299   4.177   5.027   1.597
 1800SOL    HW2 6300   4.145   4.893   1.509
 1801SOL     OW 6301   6.711   6.715   1.888
 1801SOL    HW1 6302   6.789   6.668   1.847
 1801SOL    HW2 6303   6.627   6.666   1.867
 1802SOL     OW 6304   5.794   5.800   4.799
 1802SOL    HW1 6305   5.834   5.859   4.869
 1802SOL    HW2 6306   5.851   5.719   4.786
 1803SOL     OW 6307   0.178   5.996   0.659
 1803SOL    HW1 6308   0.259   6.033   0.704
 1803SOL    HW2 6309   0.202   5.964   0.567
 1804SOL     OW 6310   2.996   3.649   5.197
 1804SOL    HW1 6311   3.032   3.619   5.109
 1804SOL    HW2 6312   3.068   3.695   5.249
 1805SOL     OW 6313   5.056   3.208   5.756
 1805SOL    HW1 6314   5.081   3.223   5.852
 1805SOL    HW2 6315   5.127   3.155   5.710
 1806SOL     OW 6316   1.177   6.990   1.316
 1806SOL    HW1 6317   1.197   6.895   1.342
 1806SOL    HW2 6318   1.183   0.023   1.398
 1807SOL     OW 6319   6.302   1.597   4.838
 1807SOL    HW1 6320   6.291   1.663   4.912
 1807SOL    HW2 6321   6.312   1.647   4.751
 1808SOL     OW 6322   0.913   4.052   4.256
 1808SOL    HW1 6323   0.845   3.978   4.268
 1808SOL    HW2 6324   0.902   4.092   4.165
 1809SOL     OW 6325   3.390   1.497   5.550
 1809SOL    HW1 6326   3.433   1.422   5.499
 1809SOL    HW2 6327   3.429   1.584   5.521
 1810SOL     OW 6328   2.894   6.286   3.119
 1810SOL    HW1 6329   2.980   6.332   3.097
 1810SOL    HW2 6330   2.865   6.231   3.040
 1811SOL     OW 6331   5.963   5.333   3.332
 1811SOL    HW1 6332   5.979   5.299   3.239
 1811SOL    HW2 6333   5.906   5.268   3.381
 1812SOL     OW 6334   4.300   5.435   6.354
 1812SOL    HW1 6335   4.275   5.380   6.433
 1812SOL    HW2 6336   4.222   5.491   6.326
 1813SOL     OW 6337   6.395   4.673   6.967
 1813SOL    HW1 6338   6.479   4.622   6.949
 1813SOL    HW2 6339   6.325   4.647   6.900
 1814SOL     OW 6340   4.591   6.384   3.014
 1814SOL    HW1 6341   4.614   6.354   3.106
 1814SOL    HW2 6342   4.499   6.425   3.014
 1815SOL     OW 6343   0.083   0.265   3.119
 1815SOL    HW1 6344   0.131   0.353   3.128
 1815SOL    HW2 6345   0.098   0.227   3.028
 1816SOL     OW 6346   1.218   4.185   0.222
 1816SOL    HW1 6347   1.234   4.212   0.127
 1816SOL    HW2 6348   1.130   4.139   0.229
 1817SOL     OW 6349   2.104   5.393   2.084
 1817SOL    HW1 6350   2.047   5.336   2.144
 1817SOL    HW2 6351   2.176   5.337   2.044
 1818SOL     OW 6352   1.682   1.024   3.700
 1818SOL    HW1 6353   1.753   1.074   3.749
 1818SOL    HW2 6354   1.593   1.040   3.744
 1819SOL     OW 6355   1.293   4.636   1.529
 1819SOL    HW1 6356   1.311   4.671   1.437
 1819SOL    HW2 6357   1.287   4.536   1.526
 1820SOL     OW 6358   4.879   0.215   2.640
 1820SOL    HW1 6359   4.940   0.204   2.719
 1820SOL    HW2 6360   4.920   0.173   2.559
 1821SOL     OW 6361   2.597   1.912   2.868
 1821SOL    HW1 6362   2.644   1.928   2.781
 1821SOL    HW2 6363   2.520   1.976   2.877
 1822SOL     OW 6364   3.174   2.826   1.439
 1822SOL    HW1 6365   3.200   2.916   1.406
 1822SOL    HW2 6366   3.254   2.781   1.479
 1823SOL     OW 6367   4.011   6.671   2.370
 1823SOL    HW1 6368   4.087   6.707   2.317
 1823SOL    HW2 6369   4.036   6.667   2.466
 1824SOL     OW 6370   4.788   2.461   1.528
 1824SOL    HW1 6371   4.806   2.556   1.553
 1824SOL    HW2 6372   4.757   2.410   1.608
 1825SOL     OW 6373   1.391   0.731   1.908
 1825SOL    HW1 6374   1.332   0.652   1.927
 1825SOL    HW2 6375   1.346   0.791   1.842
 1826SOL     OW 6376   3.385   0.037   6.929
 1826SOL    HW1 6377   3.410   6.979   6.878
 1826SOL    HW2 6378   3.460   0.063   6.989
 1827SOL     OW 6379   0.048   6.064   1.481
 1827SOL    HW1 6380   0.133   6.046   1.531
 1827SOL    HW2 6381   0.060   6.145   1.423
 1828SOL     OW 6382   0.635   2.353   6.442
 1828SOL    HW1 6383   0.612   2.376   6.347
 1828SOL    HW2 6384   0.628   2.254   6.454
 1829SOL     OW 6385   5.440   5.672   2.730
 1829SOL    HW1 6386   5.439   5.640   2.636
 1829SOL    HW2 6387   5.351   5.711   2.753
 1830SOL     OW 6388   4.615   6.363   3.407
 1830SOL    HW1 6389   4.607   6.462   3.420
 1830SOL    HW2 6390   4.691   6.344   3.345
 1831SOL     OW 6391   5.361   6.727   2.347
 1831SOL    HW1 6392   5.351   6.666   2.268
 1831SOL    HW2 6393   5.275   6.774   2.364
 1832SOL     OW 6394   4.521   2.711   0.904
 1832SOL    HW1 6395   4.501   2.644   0.976
 1832SOL    HW2 6396   4.540   2.800   0.945
 1833SOL     OW 6397   5.006   0.872   4.842
 1833SOL    HW1 6398   4.943   0.817   4.788
 1833SOL    HW2 6399   5.006   0.966   4.808
 1834SOL     OW 6400   3.393   3.212   1.081
 1834SOL    HW1 6401   3.416   3.118   1.055
 1834SOL    HW2 6402   3.466   3.274   1.051
 1835SOL     OW 6403   1.807   5.216   0.992
 1835SOL    HW1 6404   1.747   5.295   0.982
 1835SOL    HW2 6405   1.771   5.139   0.939
 1836SOL     OW 6406   0.898   6.594   0.783
 1836SOL    HW1 6407   0.836   6.577   0.860
 1836SOL    HW2 6408   0.980   6.538   0.792
 1837SOL     OW 6409   0.910   2.105   4.685
 1837SOL    HW1 6410   0.890   2.188   4.737
 1837SOL    HW2 6411   0.994   2.064   4.719
 1838SOL     OW 6412   6.908   2.596   3.975
 1838SOL    HW1 6413   6.847   2.558   4.044
 1838SOL    HW2 6414   6.992   2.628   4.019
 1839SOL     OW 6415   6.637   2.444   5.541
 1839SOL    HW1 6416   6.617   2.411   5.449
 1839SOL    HW2 6417   6.598   2.382   5.608
 1840SOL     OW 6418   2.813   5.978   0.599
 1840SOL    HW1 6419   2.835   5.904   0.536
 1840SOL    HW2 6420   2.858   6.062   0.569
 1841SOL     OW 6421   2.115   2.906   3.255
 1841SOL    HW1 6422   2.131   2.867   3.164
 1841SOL    HW2 6423   2.127   3.005   3.251
 1842SOL     OW 6424   0.936   4.878   0.458
 1842SOL    HW1 6425   0.912   4.781   0.455
 1842SOL    HW2 6426   0.863   4.928   0.505
 1843SOL     OW 6427   2.622   1.795   4.832
 1843SOL    HW1 6428   2.600   1.825   4.925
 1843SOL    HW2 6429   2.711   1.749   4.832
 1844SOL     OW 6430   4.292   2.276   3.997
 1844SOL    HW1 6431   4.341   2.347   3.947
 1844SOL    HW2 6432   4.223   2.234   3.937
 1845SOL     OW 6433   4.591   0.490   7.014
 1845SOL    HW1 6434   4.544   0.528   6.934
 1845SOL    HW2 6435   4.584   0.555   0.065
 1846SOL     OW 6436   3.103   1.915   6.018
 1846SOL    HW1 6437   3.073   1.828   5.979
 1846SOL    HW2 6438   3.153   1.967   5.949
 1847SOL     OW 6439   0.106   0.419   0.660
 1847SOL    HW1 6440   0.121   0.330   0.703
 1847SOL    HW2 6441   0.106   0.408   0.561
 1848SOL     OW 6442   2.878   6.937   1.809
 1848SOL    HW1 6443   2.958   6.922   1.868
 1848SOL    HW2 6444   2.804   6.978   1.863
 1849SOL     OW 6445   3.247   1.947   6.241
 1849SOL    HW1 6446   3.183   1.945   6.164
 1849SOL    HW2 6447   3.204   1.994   6.318
 1850SOL     OW 6448   6.546   2.651   2.694
 1850SOL    HW1 6449   6.449   2.645   2.718
 1850SOL    HW2 6450   6.564   2.599   2.611
 1851SOL     OW 6451   0.482   3.039   2.701
 1851SOL    HW1 6452   0.525   3.102   2.636
 1851SOL    HW2 6453   0.552   2.981   2.742
 1852SOL     OW 6454   4.396   3.178   0.130
 1852SOL    HW1 6455   4.363   3.104   0.189
 1852SOL    HW2 6456   4.492   3.196   0.150
 1853SOL     OW 6457   1.065   4.700   1.144
 1853SOL    HW1 6458   1.011   4.784   1.141
 1853SOL    HW2 6459   1.086   4.671   1.051
 1854SOL     OW 6460   2.565   5.704   4.943
 1854SOL    HW1 6461   2.600   5.641   5.013
 1854SOL    HW2 6462   2.474   5.735   4.968
 1855SOL     OW 6463   5.312   5.034   0.783
 1855SOL    HW1 6464   5.354   4.944   0.792
 1855SOL    HW2 6465   5.267   5.059   0.870
 1856SOL     OW 6466   5.509   2.194   4.763
 1856SOL    HW1 6467   5.483   2.172   4.857
 1856SOL    HW2 6468   5.452   2.269   4.730
 1857SOL     OW 6469   4.358   1.025   3.541
 1857SOL    HW1 6470   4.304   1.100   3.580
 1857SOL    HW2 6471   4.315   0.994   3.457
 1858SOL     OW 6472   4.945   3.138   3.821
 1858SOL    HW1 6473   4.972   3.055   3.870
 1858SOL    HW2 6474   4.991   3.217   3.861
 1859SOL     OW 6475   4.621   2.298   3.145
 1859SOL    HW1 6476   4.707   2.337   3.113
 1859SOL    HW2 6477   4.547   2.328   3.084
 1860SOL     OW 6478   5.629   0.799   4.536
 1860SOL    HW1 6479   5.613   0.851   4.620
 1860SOL    HW2 6480   5.721   0.818   4.502
 1861SOL     OW 6481   5.404   6.236   3.108
 1861SOL    HW1 6482   5.371   6.144   3.085
 1861SOL    HW2 6483   5.328   6.292   3.139
 1862SOL     OW 6484   2.012   1.797   0.694
 1862SOL    HW1 6485   1.955   1.811   0.613
 1862SOL    HW2 6486   2.066   1.879   0.712
 1863SOL     OW 6487   3.172   2.481   1.085
 1863SOL    HW1 6488   3.107   2.495   1.159
 1863SOL    HW2 6489   3.126   2.492   0.997
 1864SOL     OW 6490   1.272   6.763   4.671
 1864SOL    HW1 6491   1.290   6.759   4.769
 1864SOL    HW2 6492   1.227   6.678   4.642
 1865SOL     OW 6493   4.521   2.540   6.289
 1865SOL    HW1 6494   4.598   2.582   6.336
 1865SOL    HW2 6495   4.447   2.525   6.354
 1866SOL     OW 6496   4.778   4.598   2.562
 1866SOL    HW1 6497   4.723   4.515   2.574
 1866SOL    HW2 6498   4.726   4.665   2.509
 1867SOL     OW 6499   0.483   4.480   0.218
 1867SOL    HW1 6500   0.482   4.519   0.126
 1867SOL    HW2 6501   0.486   4.380   0.211
 1868SOL     OW 6502   6.070   4.519   6.025
 1868SOL    HW1 6503   6.166   4.548   6.035
 1868SOL    HW2 6504   6.039   4.478   6.111
 1869SOL     OW 6505   6.457   1.090   4.995
 1869SOL    HW1 6506   6.365   1.111   4.962
 1869SOL    HW2 6507   6.486   1.002   4.958
 1870SOL     OW 6508   1.598   5.781   4.250
 1870SOL    HW1 6509   1.687   5.763   4.210
 1870SOL    HW2 6510   1.570   5.702   4.305
 1871SOL     OW 6511   2.121   0.167   0.732
 1871SOL    HW1 6512   2.177   0.183   0.814
 1871SOL    HW2 6513   2.037   0.121   0.758
 1872SOL     OW 6514   2.155   4.198   0.313
 1872SOL    HW1 6515   2.238   4.254   0.307
 1872SOL    HW2 6516   2.177   4.102   0.297
 1873SOL     OW 6517   4.813   1.662   6.797
 1873SOL    HW1 6518   4.853   1.659   6.705
 1873SOL    HW2 6519   4.724   1.706   6.793
 1874SOL     OW 6520   1.051   1.828   2.649
 1874SOL    HW1 6521   1.082   1.768   2.723
 1874SOL    HW2 6522   0.998   1.775   2.583
 1875SOL     OW 6523   1.152   6.414   6.718
 1875SOL    HW1 6524   1.151   6.315   6.732
 1875SOL    HW2 6525   1.165   6.460   6.806
 1876SOL     OW 6526   3.125   6.992   3.798
 1876SOL    HW1 6527   3.154   0.044   3.742
 1876SOL    HW2 6528   3.129   6.908   3.744
 1877SOL     OW 6529   0.543   6.833   3.210
 1877SOL    HW1 6530   0.584   6.815   3.121
 1877SOL    HW2 6531   0.489   6.917   3.206
 1878SOL     OW 6532   6.421   2.660   4.905
 1878SOL    HW1 6533   6.436   2.561   4.914
 1878SOL    HW2 6534   6.329   2.676   4.869
 1879SOL     OW 6535   1.355   3.807   5.344
 1879SOL    HW1 6536   1.452   3.816   5.369
 1879SOL    HW2 6537   1.314   3.731   5.393
 1880SOL     OW 6538   5.889   1.042   5.655
 1880SOL    HW1 6539   5.856   1.058   5.562
 1880SOL    HW2 6540   5.916   1.129   5.697
 1881SOL     OW 6541   6.644   2.104   0.724
 1881SOL    HW1 6542   6.625   2.202   0.721
 1881SOL    HW2 6543   6.730   2.088   0.772
 1882SOL     OW 6544   0.990   4.013   6.261
 1882SOL    HW1 6545   0.891   4.004   6.254
 1882SOL    HW2 6546   1.013   4.100   6.302
 1883SOL     OW 6547   0.204   2.123   3.546
 1883SOL    HW1 6548   0.230   2.171   3.630
 1883SOL    HW2 6549   0.231   2.178   3.467
 1884SOL     OW 6550   0.151   2.488   1.503
 1884SOL    HW1 6551   0.180   2.457   1.594
 1884SOL    HW2 6552   0.203   2.570   1.479
 1885SOL     OW 6553   2.433   1.968   5.309
 1885SOL    HW1 6554   2.403   1.907   5.383
 1885SOL    HW2 6555   2.458   2.057   5.347
 1886SOL     OW 6556   1.112   6.217   3.382
 1886SOL    HW1 6557   1.019   6.253   3.379
 1886SOL    HW2 6558   1.133   6.185   3.475
 1887SOL     OW 6559   1.329   5.849   6.746
 1887SOL    HW1 6560   1.395   5.833   6.820
 1887SOL    HW2 6561   1.378   5.857   6.659
 1888SOL     OW 6562   2.399   0.788   1.545
 1888SOL    HW1 6563   2.465   0.755   1.614
 1888SOL    HW2 6564   2.438   0.778   1.454
 1889SOL     OW 6565   1.542   3.373   3.425
 1889SOL    HW1 6566   1.573   3.281   3.447
 1889SOL    HW2 6567   1.610   3.439   3.457
 1890SOL     OW 6568   0.404   5.921   3.587
 1890SOL    HW1 6569   0.333   5.911   3.516
 1890SOL    HW2 6570   0.362   5.954   3.671
 1891SOL     OW 6571   4.058   3.780   2.690
 1891SOL    HW1 6572   4.123   3.825   2.629
 1891SOL    HW2 6573   4.017   3.848   2.751
 1892SOL     OW 6574   0.419   0.681   2.090
 1892SOL    HW1 6575   0.393   0.614   2.021
 1892SOL    HW2 6576   0.367   0.663   2.174
 1893SOL     OW 6577   3.387   3.176   3.463
 1893SOL    HW1 6578   3.301   3.126   3.461
 1893SOL    HW2 6579   3.460   3.118   3.426
 1894SOL     OW 6580   3.532   3.733   4.349
 1894SOL    HW1 6581   3.590   3.739   4.430
 1894SOL    HW2 6582   3.494   3.823   4.328
 1895SOL     OW 6583   3.443   6.541   6.930
 1895SOL    HW1 6584   3.472   6.572   7.020
 1895SOL    HW2 6585   3.343   6.546   6.924
 1896SOL     OW 6586   5.619   2.319   1.091
 1896SOL    HW1 6587   5.685   2.331   1.165
 1896SOL    HW2 6588   5.552   2.250   1.118
 1897SOL     OW 6589   2.017   5.015   3.657
 1897SOL    HW1 6590   2.007   5.043   3.561
 1897SOL    HW2 6591   2.103   5.052   3.693
 1898SOL     OW 6592   1.676   5.917   3.666
 1898SOL    HW1 6593   1.774   5.900   3.656
 1898SOL    HW2 6594   1.650   5.998   3.612
 1899SOL     OW 6595   6.956   0.104   1.950
 1899SOL    HW1 6596   6.943   0.059   1.862
 1899SOL    HW2 6597   6.888   0.070   2.015
 1900SOL     OW 6598   2.875   6.851   0.210
 1900SOL    HW1 6599   2.864   6.763   0.164
 1900SOL    HW2 6600   2.814   6.855   0.289
 1901SOL     OW 6601   3.084   3.769   1.274
 1901SOL    HW1 6602   3.137   3.685   1.291
 1901SOL    HW2 6603   2.987   3.748   1.274
 1902SOL     OW 6604   1.416   6.459   4.620
 1902SOL    HW1 6605   1.513   6.440   4.610
 1902SOL    HW2 6606   1.396   6.486   4.714
 1903SOL     OW 6607   1.333   2.534   4.588
 1903SOL    HW1 6608   1.238   2.562   4.589
 1903SOL    HW2 6609   1.374   2.551   4.678
 1904SOL     OW 6610   5.302   5.314   2.367
 1904SOL    HW1 6611   5.231   5.335   2.300
 1904SOL    HW2 6612   5.338   5.400   2.405
 1905SOL     OW 6613   6.789   0.445   3.839
 1905SOL    HW1 6614   6.837   0.528   3.811
 1905SOL    HW2 6615   6.696   0.446   3.804
 1906SOL     OW 6616   2.300   0.204   5.684
 1906SOL    HW1 6617   2.282   0.293   5.641
 1906SOL    HW2 6618   2.349   0.145   5.619
 1907SOL     OW 6619   5.389   2.745   0.091
 1907SOL    HW1 6620   5.322   2.712   0.157
 1907SOL    HW2 6621   5.395   2.844   0.096
 1908SOL     OW 6622   3.481   1.239   1.037
 1908SOL    HW1 6623   3.508   1.156   0.987
 1908SOL    HW2 6624   3.410   1.216   1.103
 1909SOL     OW 6625   6.740   4.406   4.993
 1909SOL    HW1 6626   6.808   4.341   5.025
 1909SOL    HW2 6627   6.766   4.440   4.903
 1910SOL     OW 6628   6.701   6.620   5.589
 1910SOL    HW1 6629   6.679   6.533   5.634
 1910SOL    HW2 6630   6.618   6.675   5.581
 1911SOL     OW 6631   6.986   5.008   4.252
 1911SOL    HW1 6632   6.944   4.974   4.336
 1911SOL    HW2 6633   6.915   5.026   4.183
 1912SOL     OW 6634   2.897   5.429   2.422
 1912SOL    HW1 6635   2.888   5.475   2.510
 1912SOL    HW2 6636   2.872   5.333   2.432
 1913SOL     OW 6637   2.677   4.510   5.294
 1913SOL    HW1 6638   2.611   4.447   5.254
 1913SOL    HW2 6639   2.764   4.502   5.246
 1914SOL     OW 6640   2.651   4.079   6.386
 1914SOL    HW1 6641   2.617   4.091   6.293
 1914SOL    HW2 6642   2.595   4.010   6.433
 1915SOL     OW 6643   4.704   1.960   6.278
 1915SOL    HW1 6644   4.633   2.031   6.279
 1915SOL    HW2 6645   4.784   1.993   6.228
 1916SOL     OW 6646   3.771   0.975   1.980
 1916SOL    HW1 6647   3.693   0.952   1.921
 1916SOL    HW2 6648   3.755   1.064   2.023
 1917SOL     OW 6649   2.475   4.132   1.695
 1917SOL    HW1 6650   2.503   4.208   1.754
 1917SOL    HW2 6651   2.537   4.127   1.616
 1918SOL     OW 6652   6.155   2.509   4.095
 1918SOL    HW1 6653   6.160   2.517   4.195
 1918SOL    HW2 6654   6.081   2.447   4.070
 1919SOL     OW 6655   0.868   1.849   1.262
 1919SOL    HW1 6656   0.793   1.914   1.247
 1919SOL    HW2 6657   0.927   1.848   1.180
 1920SOL     OW 6658   5.182   2.327   0.420
 1920SOL    HW1 6659   5.227   2.320   0.509
 1920SOL    HW2 6660   5.083   2.315   0.431
 1921SOL     OW 6661   1.619   2.833   0.142
 1921SOL    HW1 6662   1.672   2.841   0.058
 1921SOL    HW2 6663   1.656   2.759   0.198
 1922SOL     OW 6664   3.182   3.357   2.333
 1922SOL    HW1 6665   3.138   3.380   2.420
 1922SOL    HW2 6666   3.281   3.348   2.346
 1923SOL     OW 6667   4.023   0.231   5.346
 1923SOL    HW1 6668   3.991   0.136   5.342
 1923SOL    HW2 6669   4.082   0.250   5.268
 1924SOL     OW 6670   3.889   0.202   0.679
 1924SOL    HW1 6671   3.882   0.128   0.612
 1924SOL    HW2 6672   3.985   0.217   0.701
 1925SOL     OW 6673   1.697   4.619   1.215
 1925SOL    HW1 6674   1.624   4.657   1.159
 1925SOL    HW2 6675   1.657   4.578   1.298
 1926SOL     OW 6676   3.464   0.103   1.870
 1926SOL    HW1 6677   3.508   0.028   1.920
 1926SOL    HW2 6678   3.534   0.155   1.821
 1927SOL     OW 6679   2.136   5.329   1.344
 1927SOL    HW1 6680   2.192   5.405   1.312
 1927SOL    HW2 6681   2.195   5.257   1.380
 1928SOL     OW 6682   5.529   4.168   2.882
 1928SOL    HW1 6683   5.532   4.110   2.963
 1928SOL    HW2 6684   5.458   4.237   2.893
 1929SOL     OW 6685   3.083   0.070   2.826
 1929SOL    HW1 6686   3.147   0.068   2.902
 1929SOL    HW2 6687   3.130   0.043   2.742
 1930SOL     OW 6688   4.585   3.362   6.682
 1930SOL    HW1 6689   4.643   3.429   6.635
 1930SOL    HW2 6690   4.631   3.331   6.765
 1931SOL     OW 6691   0.527   1.760   4.366
 1931SOL    HW1 6692   0.446   1.816   4.382
 1931SOL    HW2 6693   0.608   1.819   4.368
 1932SOL     OW 6694   4.396   2.327   2.210
 1932SOL    HW1 6695   4.403   2.417   2.166
 1932SOL    HW2 6696   4.382   2.257   2.140
 1933SOL     OW 6697   1.424   1.509   1.315
 1933SOL    HW1 6698   1.480   1.580   1.272
 1933SOL    HW2 6699   1.331   1.515   1.281
 1934SOL     OW 6700   0.222   0.295   6.116
 1934SOL    HW1 6701   0.161   0.330   6.187
 1934SOL    HW2 6702   0.238   0.366   6.047
 1935SOL     OW 6703   6.431   5.422   4.083
 1935SOL    HW1 6704   6.461   5.449   3.992
 1935SOL    HW2 6705   6.418   5.323   4.086
 1936SOL     OW 6706   4.646   3.179   5.382
 1936SOL    HW1 6707   4.675   3.151   5.474
 1936SOL    HW2 6708   4.551   3.152   5.367
 1937SOL     OW 6709   5.526   5.149   6.606
 1937SOL    HW1 6710   5.437   5.146   6.653
 1937SOL    HW2 6711   5.578   5.227   6.640
 1938SOL     OW 6712   0.601   3.076   6.524
 1938SOL    HW1 6713   0.549   3.062   6.440
 1938SOL    HW2 6714   0.603   3.173   6.546
 1939SOL     OW 6715   0.785   0.385   4.685
 1939SOL    HW1 6716   0.713   0.452   4.705
 1939SOL    HW2 6717   0.869   0.433   4.660
 1940SOL     OW 6718   6.992   4.970   0.541
 1940SOL    HW1 6719   0.012   5.050   0.502
 1940SOL    HW2 6720   6.917   4.999   0.601
 1941SOL     OW 6721   6.123   2.113   4.089
 1941SOL    HW1 6722   6.103   2.113   4.187
 1941SOL    HW2 6723   6.167   2.027   4.063
 1942SOL     OW 6724   6.174   3.690   2.679
 1942SOL    HW1 6725   6.251   3.630   2.655
 1942SOL    HW2 6726   6.208   3.782   2.697
 1943SOL     OW 6727   0.870   1.339   2.791
 1943SOL    HW1 6728   0.962   1.316   2.759
 1943SOL    HW2 6729   0.815   1.372   2.715
 1944SOL     OW 6730   0.233   2.822   3.030
 1944SOL    HW1 6731   0.143   2.780   3.016
 1944SOL    HW2 6732   0.244   2.848   3.126
 1945SOL     OW 6733   4.700   1.353   2.284
 1945SOL    HW1 6734   4.679   1.387   2.192
 1945SOL    HW2 6735   4.720   1.430   2.344
 1946SOL     OW 6736   6.055   5.289   1.094
 1946SOL    HW1 6737   6.154   5.296   1.079
 1946SOL    HW2 6738   6.008   5.300   1.006
 1947SOL     OW 6739   5.877   4.555   3.691
 1947SOL    HW1 6740   5.890   4.654   3.686
 1947SOL    HW2 6741   5.851   4.520   3.601
 1948SOL     OW 6742   5.044   3.002   3.174
 1948SOL    HW1 6743   4.951   2.978   3.201
 1948SOL    HW2 6744   5.074   3.083   3.225
 1949SOL     OW 6745   3.798   4.458   6.866
 1949SOL    HW1 6746   3.893   4.479   6.844
 1949SOL    HW2 6747   3.738   4.526   6.824
 1950SOL     OW 6748   2.999   3.912   3.307
 1950SOL    HW1 6749   3.001   3.847   3.383
 1950SOL    HW2 6750   2.929   3.885   3.242
 1951SOL     OW 6751   5.906   4.700   5.902
 1951SOL    HW1 6752   5.986   4.641   5.912
 1951SOL    HW2 6753   5.851   4.696   5.985
 1952SOL     OW 6754   5.918   4.986   0.424
 1952SOL    HW1 6755   5.983   4.945   0.360
 1952SOL    HW2 6756   5.855   4.916   0.457
 1953SOL     OW 6757   0.702   0.645   7.013
 1953SOL    HW1 6758   0.738   0.568   0.041
 1953SOL    HW2 6759   0.766   0.722   7.018
 1954SOL     OW 6760   4.092   6.982   2.186
 1954SOL    HW1 6761   4.186   6.948   2.190
 1954SOL    HW2 6762   4.053   6.984   2.278
 1955SOL     OW 6763   0.231   2.124   2.946
 1955SOL    HW1 6764   0.276   2.198   2.895
 1955SOL    HW2 6765   0.165   2.078   2.887
 1956SOL     OW 6766   5.790   0.460   1.794
 1956SOL    HW1 6767   5.801   0.480   1.696
 1956SOL    HW2 6768   5.786   0.545   1.845
 1957SOL     OW 6769   5.478   1.891   4.260
 1957SOL    HW1 6770   5.418   1.866   4.336
 1957SOL    HW2 6771   5.493   1.811   4.202
 1958SOL     OW 6772   4.509   1.783   0.851
 1958SOL    HW1 6773   4.516   1.882   0.855
 1958SOL    HW2 6774   4.586   1.746   0.799
 1959SOL     OW 6775   0.473   0.989   5.012
 1959SOL    HW1 6776   0.480   1.018   4.916
 1959SOL    HW2 6777   0.464   0.889   5.015
 1960SOL     OW 6778   6.067   4.421   4.058
 1960SOL    HW1 6779   6.042   4.402   3.963
 1960SOL    HW2 6780   5.991   4.395   4.118
 1961SOL     OW 6781   6.930   3.977   4.209
 1961SOL    HW1 6782   6.974   4.055   4.253
 1961SOL    HW2 6783   6.991   3.897   4.214
 1962SOL     OW 6784   1.092   0.419   2.687
 1962SOL    HW1 6785   1.132   0.392   2.775
 1962SOL    HW2 6786   1.151   0.386   2.613
 1963SOL     OW 6787   0.399   2.651   1.532
 1963SOL    HW1 6788   0.395   2.746   1.562
 1963SOL    HW2 6789   0.448   2.597   1.600
 1964SOL     OW 6790   5.788   3.633   1.107
 1964SOL    HW1 6791   5.836   3.672   1.186
 1964SOL    HW2 6792   5.756   3.708   1.048
 1965SOL     OW 6793   0.176   4.344   4.113
 1965SOL    HW1 6794   0.117   4.274   4.154
 1965SOL    HW2 6795   0.129   4.385   4.034
 1966SOL     OW 6796   1.766   5.042   0.084
 1966SOL    HW1 6797   1.857   5.036   0.042
 1966SOL    HW2 6798   1.710   5.107   0.033
 1967SOL     OW 6799   6.495   3.488   3.142
 1967SOL    HW1 6800   6.500   3.399   3.187
 1967SOL    HW2 6801   6.586   3.530   3.143
 1968SOL     OW 6802   2.710   1.130   5.102
 1968SOL    HW1 6803   2.778   1.202   5.090
 1968SOL    HW2 6804   2.621   1.162   5.070
 1969SOL     OW 6805   2.652   6.453   0.059
 1969SOL    HW1 6806   2.618   6.444   6.990
 1969SOL    HW2 6807   2.587   6.504   0.114
 1970SOL     OW 6808   6.018   5.522   5.228
 1970SOL    HW1 6809   5.926   5.528   5.189
 1970SOL    HW2 6810   6.047   5.612   5.260
 1971SOL     OW 6811   1.856   5.769   4.705
 1971SOL    HW1 6812   1.881   5.776   4.608
 1971SOL    HW2 6813   1.829   5.859   4.738
 1972SOL     OW 6814   6.702   2.896   2.607
 1972SOL    HW1 6815   6.687   2.809   2.656
 1972SOL    HW2 6816   6.629   2.960   2.632
 1973SOL     OW 6817   2.475   3.164   0.271
 1973SOL    HW1 6818   2.568   3.189   0.294
 1973SOL    HW2 6819   2.470   3.066   0.251
 1974SOL     OW 6820   3.068   6.739   4.868
 1974SOL    HW1 6821   3.053   6.720   4.771
 1974SOL    HW2 6822   3.111   6.660   4.912
 1975SOL     OW 6823   2.053   2.614   3.479
 1975SOL    HW1 6824   2.143   2.658   3.489
 1975SOL    HW2 6825   2.065   2.515   3.477
 1976SOL     OW 6826   6.895   0.159   6.334
 1976SOL    HW1 6827   6.912   0.117   6.245
 1976SOL    HW2 6828   6.799   0.148   6.359
 1977SOL     OW 6829   2.019   4.452   5.502
 1977SOL    HW1 6830   2.089   4.512   5.462
 1977SOL    HW2 6831   1.989   4.490   5.589
 1978SOL     OW 6832   2.692   0.014   1.484
 1978SOL    HW1 6833   2.778   6.998   1.515
 1978SOL    HW2 6834   2.704   0.053   1.393
 1979SOL     OW 6835   0.076   4.935   6.130
 1979SOL    HW1 6836   7.005   4.905   6.127
 1979SOL    HW2 6837   0.131   4.875   6.072
 1980SOL     OW 6838   3.408   1.902   0.246
 1980SOL    HW1 6839   3.457   1.975   0.198
 1980SOL    HW2 6840   3.394   1.929   0.341
 1981SOL     OW 6841   3.063   2.082   2.827
 1981SOL    HW1 6842   3.144   2.131   2.860
 1981SOL    HW2 6843   2.981   2.124   2.865
 1982SOL     OW 6844   0.823   2.891   5.014
 1982SOL    HW1 6845   0.897   2.854   4.959
 1982SOL    HW2 6846   0.827   2.991   5.013
 1983SOL     OW 6847   0.179   0.523   2.571
 1983SOL    HW1 6848   0.114   0.548   2.643
 1983SOL    HW2 6849   0.161   0.430   2.540
 1984SOL     OW 6850   4.882   2.942   5.942
 1984SOL    HW1 6851   4.812   2.883   5.981
 1984SOL    HW2 6852   4.942   2.976   6.014
 1985SOL     OW 6853   6.254   3.568   2.165
 1985SOL    HW1 6854   6.177   3.505   2.155
 1985SOL    HW2 6855   6.338   3.516   2.179
 1986SOL     OW 6856   4.343   2.645   1.724
 1986SOL    HW1 6857   4.381   2.578   1.660
 1986SOL    HW2 6858   4.374   2.737   1.698
 1987SOL     OW 6859   2.630   1.131   1.464
 1987SOL    HW1 6860   2.683   1.062   1.415
 1987SOL    HW2 6861   2.536   1.131   1.429
 1988SOL     OW 6862   0.054   2.048   1.310
 1988SOL    HW1 6863   0.092   2.138   1.332
 1988SOL    HW2 6864   0.124   1.978   1.326
 1989SOL     OW 6865   2.415   4.954   4.697
 1989SOL    HW1 6866   2.417   4.967   4.598
 1989SOL    HW2 6867   2.479   5.016   4.741
 1990SOL     OW 6868   3.985   0.132   0.254
 1990SOL    HW1 6869   4.022   0.074   0.182
 1990SOL    HW2 6870   3.951   0.217   0.214
 1991SOL     OW 6871   2.533   5.179   0.792
 1991SOL    HW1 6872   2.487   5.097   0.759
 1991SOL    HW2 6873   2.588   5.156   0.872
 1992SOL     OW 6874   0.649   6.293   1.703
 1992SOL    HW1 6875   0.573   6.241   1.743
 1992SOL    HW2 6876   0.639   6.390   1.726
 1993SOL     OW 6877   2.473   2.666   3.694
 1993SOL    HW1 6878   2.492   2.743   3.633
 1993SOL    HW2 6879   2.384   2.681   3.738
 1994SOL     OW 6880   3.642   2.637   0.974
 1994SOL    HW1 6881   3.604   2.705   0.911
 1994SOL    HW2 6882   3.742   2.638   0.968
 1995SOL     OW 6883   5.794   2.137   3.914
 1995SOL    HW1 6884   5.863   2.197   3.955
 1995SOL    HW2 6885   5.836   2.050   3.889
 1996SOL     OW 6886   3.724   1.516   0.899
 1996SOL    HW1 6887   3.633   1.500   0.861
 1996SOL    HW2 6888   3.716   1.541   0.995
 1997SOL     OW 6889   3.953   0.276   3.959
 1997SOL    HW1 6890   3.898   0.312   3.884
 1997SOL    HW2 6891   3.989   0.352   4.013
 1998SOL     OW 6892   1.899   3.705   1.331
 1998SOL    HW1 6893   1.839   3.760   1.273
 1998SOL    HW2 6894   1.847   3.628   1.370
 1999SOL     OW 6895   1.501   0.044   6.915
 1999SOL    HW1 6896   1.492   6.974   6.943
 1999SOL    HW2 6897   1.598   0.067   6.904
 2000SOL     OW 6898   3.623   4.145   5.681
 2000SOL    HW1 6899   3.695   4.077   5.664
 2000SOL    HW2 6900   3.658   4.236   5.660
 2001SOL     OW 6901   2.054   2.060   0.782
 2001SOL    HW1 6902   2.114   2.077   0.860
 2001SOL    HW2 6903   1.961   2.091   0.804
 2002SOL     OW 6904   0.104   4.780   0.250
 2002SOL    HW1 6905   0.184   4.749   0.199
 2002SOL    HW2 6906   0.105   4.880   0.257
 2003SOL     OW 6907   6.513   4.982   2.967
 2003SOL    HW1 6908   6.558   5.049   3.026
 2003SOL    HW2 6909   6.563   4.896   2.969
 2004SOL     OW 6910   3.308   7.014   3.451
 2004SOL    HW1 6911   3.259   0.027   3.530
 2004SOL    HW2 6912   3.307   0.055   3.376
 2005SOL     OW 6913   1.613   6.325   0.209
 2005SOL    HW1 6914   1.688   6.368   0.259
 2005SOL    HW2 6915   1.604   6.230   0.237
 2006SOL     OW 6916   5.466   6.044   2.564
 2006SOL    HW1 6917   5.527   6.116   2.531
 2006SOL    HW2 6918   5.393   6.084   2.619
 2007SOL     OW 6919   5.609   4.381   6.679
 2007SOL    HW1 6920   5.525   4.332   6.702
 2007SOL    HW2 6921   5.648   4.420   6.763
 2008SOL     OW 6922   1.494   3.823   4.168
 2008SOL    HW1 6923   1.511   3.892   4.239
 2008SOL    HW2 6924   1.407   3.844   4.122
 2009SOL     OW 6925   6.414   0.259   3.017
 2009SOL    HW1 6926   6.406   0.160   3.015
 2009SOL    HW2 6927   6.328   0.299   3.049
 2010SOL     OW 6928   1.093   1.683   1.872
 2010SOL    HW1 6929   1.124   1.778   1.875
 2010SOL    HW2 6930   1.163   1.626   1.829
 2011SOL     OW 6931   1.283   6.600   5.680
 2011SOL    HW1 6932   1.201   6.656   5.678
 2011SOL    HW2 6933   1.361   6.657   5.707
 2012SOL     OW 6934   1.596   2.933   1.687
 2012SOL    HW1 6935   1.562   2.896   1.774
 2012SOL    HW2 6936   1.670   2.997   1.705
 2013SOL     OW 6937   0.930   3.476   2.250
 2013SOL    HW1 6938   0.981   3.391   2.241
 2013SOL    HW2 6939   0.897   3.485   2.344
 2014SOL     OW 6940   3.724   0.595   4.521
 2014SOL    HW1 6941   3.766   0.605   4.611
 2014SOL    HW2 6942   3.734   0.680   4.470
 2015SOL     OW 6943   4.551   0.892   2.375
 2015SOL    HW1 6944   4.589   0.941   2.454
 2015SOL    HW2 6945   4.487   0.822   2.407
 2016SOL     OW 6946   1.598   0.540   5.675
 2016SOL    HW1 6947   1.599   0.445   5.646
 2016SOL    HW2 6948   1.540   0.549   5.757
 2017SOL     OW 6949   3.698   6.619   3.588
 2017SOL    HW1 6950   3.675   6.529   3.550
 2017SOL    HW2 6951   3.794   6.621   3.614
 2018SOL     OW 6952   1.042   0.992   3.790
 2018SOL    HW1 6953   0.959   0.998   3.734
 2018SOL    HW2 6954   1.016   0.986   3.887
 2019SOL     OW 6955   5.970   5.394   6.411
 2019SOL    HW1 6956   5.883   5.440   6.394
 2019SOL    HW2 6957   6.002   5.417   6.503
 2020SOL     OW 6958   1.839   5.977   6.911
 2020SOL    HW1 6959   1.874   5.939   6.996
 2020SOL    HW2 6960   1.877   6.069   6.897
 2021SOL     OW 6961   6.613   6.074   4.208
 2021SOL    HW1 6962   6.548   6.016   4.159
 2021SOL    HW2 6963   6.591   6.170   4.191
 2022SOL     OW 6964   1.811   4.136   4.810
 2022SOL    HW1 6965   1.748   4.210   4.788
 2022SOL    HW2 6966   1.899   4.173   4.839
 2023SOL     OW 6967   6.455   6.565   0.441
 2023SOL    HW1 6968   6.422   6.484   0.490
 2023SOL    HW2 6969   6.485   6.634   0.507
 2024SOL     OW 6970   0.342   5.981   4.741
 2024SOL    HW1 6971   0.244   5.962   4.755
 2024SOL    HW2 6972   0.390   5.896   4.722
 2025SOL     OW 6973   1.171   6.468   4.115
 2025SOL    HW1 6974   1.073   6.451   4.104
 2025SOL    HW2 6975   1.199   6.540   4.051
 2026SOL     OW 6976   6.922   0.349   6.057
 2026SOL    HW1 6977   6.973   0.352   6.143
 2026SOL    HW2 6978   6.962   0.280   5.998
 2027SOL     OW 6979   6.840   6.204   1.980
 2027SOL    HW1 6980   6.845   6.105   1.993
 2027SOL    HW2 6981   6.933   6.242   1.977
 2028SOL     OW 6982   3.291   5.229   4.457
 2028SOL    HW1 6983   3.284   5.242   4.556
 2028SOL    HW2 6984   3.211   5.179   4.424
 2029SOL     OW 6985   6.571   2.616   6.350
 2029SOL    HW1 6986   6.660   2.656   6.326
 2029SOL    HW2 6987   6.536   2.564   6.272
 2030SOL     OW 6988   2.217   6.746   1.903
 2030SOL    HW1 6989   2.202   6.844   1.884
 2030SOL    HW2 6990   2.144   6.693   1.859
 2031SOL     OW 6991   6.805   5.848   4.224
 2031SOL    HW1 6992   6.731   5.916   4.222
 2031SOL    HW2 6993   6.768   5.761   4.254
 2032SOL     OW 6994   2.966   2.106   5.669
 2032SOL    HW1 6995   2.969   2.015   5.627
 2032SOL    HW2 6996   3.055   2.127   5.709
 2033SOL     OW 6997   2.403   2.090   0.776
 2033SOL    HW1 6998   2.364   1.999   0.761
 2033SOL    HW2 6999   2.352   2.157   0.722
 2034SOL     OW 7000   0.043   4.202   4.338
 2034SOL    HW1 7001   6.978   4.244   4.335
 2034SOL    HW2 7002   0.065   4.175   4.432
 2035SOL     OW 7003   5.424   0.222   2.783
 2035SOL    HW1 7004   5.477   0.260   2.708
 2035SOL    HW2 7005   5.422   0.122   2.776
 2036SOL     OW 7006   0.797   4.423   0.782
 2036SOL    HW1 7007   0.885   4.379   0.799
 2036SOL    HW2 7008   0.725   4.372   0.827
 2037SOL     OW 7009   0.452   2.350   6.884
 2037SOL    HW1 7010   0.436   2.263   6.929
 2037SOL    HW2 7011   0.431   2.342   6.786
 2038SOL     OW 7012   1.517   1.123   6.770
 2038SOL    HW1 7013   1.531   1.210   6.817
 2038SOL    HW2 7014   1.419   1.105   6.761
 2039SOL     OW 7015   5.661   6.123   2.874
 2039SOL    HW1 7016   5.735   6.161   2.818
 2039SOL    HW2 7017   5.575   6.168   2.850
 2040SOL     OW 7018   1.736   2.379   0.874
 2040SOL    HW1 7019   1.710   2.440   0.799
 2040SOL    HW2 7020   1.674   2.391   0.951
 2041SOL     OW 7021   2.201   0.595   6.460
 2041SOL    HW1 7022   2.245   0.510   6.489
 2041SOL    HW2 7023   2.118   0.574   6.409
 2042SOL     OW 7024   5.443   1.340   5.749
 2042SOL    HW1 7025   5.420   1.330   5.653
 2042SOL    HW2 7026   5.519   1.404   5.759
 2043SOL     OW 7027   7.011   3.966   1.267
 2043SOL    HW1 7028   6.997   3.903   1.191
 2043SOL    HW2 7029   0.074   3.946   1.311
 2044SOL     OW 7030   4.014   0.589   0.908
 2044SOL    HW1 7031   3.940   0.554   0.850
 2044SOL    HW2 7032   3.990   0.681   0.940
 2045SOL     OW 7033   1.051   6.347   5.319
 2045SOL    HW1 7034   1.146   6.333   5.346
 2045SOL    HW2 7035   1.000   6.261   5.330
 2046SOL     OW 7036   1.045   1.687   4.835
 2046SOL    HW1 7037   0.998   1.760   4.885
 2046SOL    HW2 7038   0.980   1.640   4.776
 2047SOL     OW 7039   0.333   0.768   0.505
 2047SOL    HW1 7040   0.396   0.783   0.429
 2047SOL    HW2 7041   0.378   0.711   0.574
 2048SOL     OW 7042   0.867   2.084   4.172
 2048SOL    HW1 7043   0.947   2.120   4.123
 2048SOL    HW2 7044   0.898   2.033   4.252
 2049SOL     OW 7045   4.691   1.879   5.014
 2049SOL    HW1 7046   4.665   1.963   4.966
 2049SOL    HW2 7047   4.790   1.871   5.017
 2050SOL     OW 7048   0.378   1.209   3.960
 2050SOL    HW1 7049   0.363   1.303   3.991
 2050SOL    HW2 7050   0.328   1.146   4.019
 2051SOL     OW 7051   3.008   6.682   6.915
 2051SOL    HW1 7052   3.042   6.776   6.922
 2051SOL    HW2 7053   3.083   6.622   6.888
 2052SOL     OW 7054   1.583   4.264   6.432
 2052SOL    HW1 7055   1.624   4.175   6.413
 2052SOL    HW2 7056   1.568   4.274   6.531
 2053SOL     OW 7057   6.611   6.300   3.456
 2053SOL    HW1 7058   6.534   6.240   3.478
 2053SOL    HW2 7059   6.646   6.278   3.365
 2054SOL     OW 7060   3.081   3.271   3.066
 2054SOL    HW1 7061   3.056   3.232   2.977
 2054SOL    HW2 7062   3.177   3.251   3.085
 2055SOL     OW 7063   3.386   2.270   5.887
 2055SOL    HW1 7064   3.392   2.345   5.952
 2055SOL    HW2 7065   3.307   2.283   5.827
 2056SOL     OW 7066   3.980   4.302   1.011
 2056SOL    HW1 7067   3.947   4.227   1.069
 2056SOL    HW2 7068   4.079   4.309   1.018
 2057SOL     OW 7069   4.969   2.514   4.393
 2057SOL    HW1 7070   4.969   2.606   4.432
 2057SOL    HW2 7071   4.916   2.453   4.451
 2058SOL     OW 7072   6.884   6.912   2.832
 2058SOL    HW1 7073   6.875   7.009   2.854
 2058SOL    HW2 7074   6.794   6.868   2.838
 2059SOL     OW 7075   1.241   0.522   5.632
 2059SOL    HW1 7076   1.294   0.483   5.708
 2059SOL    HW2 7077   1.215   0.616   5.654
 2060SOL     OW 7078   1.543   2.659   6.849
 2060SOL    HW1 7079   1.621   2.696   6.899
 2060SOL    HW2 7080   1.498   2.732   6.798
 2061SOL     OW 7081   2.047   2.665   2.534
 2061SOL    HW1 7082   2.052   2.739   2.600
 2061SOL    HW2 7083   2.133   2.613   2.535
 2062SOL     OW 7084   0.195   5.195   4.856
 2062SOL    HW1 7085   0.178   5.207   4.954
 2062SOL    HW2 7086   0.111   5.214   4.805
 2063SOL     OW 7087   0.963   1.342   4.790
 2063SOL    HW1 7088   0.964   1.405   4.868
 2063SOL    HW2 7089   1.048   1.289   4.788
 2064SOL     OW 7090   1.012   3.131   3.741
 2064SOL    HW1 7091   1.041   3.123   3.837
 2064SOL    HW2 7092   1.059   3.208   3.698
 2065SOL     OW 7093   4.089   3.690   5.527
 2065SOL    HW1 7094   4.174   3.660   5.483
 2065SOL    HW2 7095   4.105   3.702   5.625
 2066SOL     OW 7096   0.653   3.038   5.946
 2066SOL    HW1 7097   0.627   3.042   6.042
 2066SOL    HW2 7098   0.646   3.129   5.905
 2067SOL     OW 7099   6.352   5.248   1.383
 2067SOL    HW1 7100   6.407   5.233   1.465
 2067SOL    HW2 7101   6.312   5.339   1.385
 2068SOL     OW 7102   4.263   0.807   4.792
 2068SOL    HW1 7103   4.309   0.721   4.814
 2068SOL    HW2 7104   4.277   0.828   4.696
 2069SOL     OW 7105   0.231   1.507   3.735
 2069SOL    HW1 7106   0.207   1.441   3.663
 2069SOL    HW2 7107   0.272   1.588   3.693
 2070SOL     OW 7108   0.924   4.948   1.108
 2070SOL    HW1 7109   0.975   5.026   1.144
 2070SOL    HW2 7110   0.852   4.922   1.173
 2071SOL     OW 7111   0.136   1.552   5.568
 2071SOL    HW1 7112   0.155   1.618   5.496
 2071SOL    HW2 7113   0.220   1.534   5.620
 2072SOL     OW 7114   4.915   4.332   5.670
 2072SOL    HW1 7115   4.999   4.375   5.635
 2072SOL    HW2 7116   4.876   4.273   5.600
 2073SOL     OW 7117   3.000   5.164   6.561
 2073SOL    HW1 7118   3.059   5.124   6.630
 2073SOL    HW2 7119   3.033   5.139   6.470
 2074SOL     OW 7120   1.632   4.491   6.273
 2074SOL    HW1 7121   1.555   4.459   6.218
 2074SOL    HW2 7122   1.632   4.444   6.361
 2075SOL     OW 7123   6.278   2.907   1.222
 2075SOL    HW1 7124   6.220   2.827   1.204
 2075SOL    HW2 7125   6.255   2.944   1.312
 2076SOL     OW 7126   6.230   6.483   4.549
 2076SOL    HW1 7127   6.287   6.456   4.626
 2076SOL    HW2 7128   6.245   6.421   4.472
 2077SOL     OW 7129   6.245   4.505   0.893
 2077SOL    HW1 7130   6.278   4.478   0.802
 2077SOL    HW2 7131   6.167   4.448   0.918
 2078SOL     OW 7132   0.808   3.235   5.566
 2078SOL    HW1 7133   0.853   3.205   5.482
 2078SOL    HW2 7134   0.875   3.276   5.627
 2079SOL     OW 7135   4.929   1.219   2.459
 2079SOL    HW1 7136   4.954   1.268   2.376
 2079SOL    HW2 7137   4.902   1.125   2.436
 2080SOL     OW 7138   2.623   2.905   6.265
 2080SOL    HW1 7139   2.719   2.924   6.288
 2080SOL    HW2 7140   2.564   2.971   6.310
 2081SOL     OW 7141   6.149   5.417   2.367
 2081SOL    HW1 7142   6.109   5.506   2.386
 2081SOL    HW2 7143   6.248   5.426   2.357
 2082SOL     OW 7144   6.477   6.492   4.346
 2082SOL    HW1 7145   6.419   6.413   4.366
 2082SOL    HW2 7146   6.423   6.575   4.354
 2083SOL     OW 7147   0.131   6.659   3.687
 2083SOL    HW1 7148   0.033   6.642   3.700
 2083SOL    HW2 7149   0.180   6.572   3.688
 2084SOL     OW 7150   6.286   2.510   0.715
 2084SOL    HW1 7151   6.336   2.502   0.801
 2084SOL    HW2 7152   6.254   2.604   0.704
 2085SOL     OW 7153   5.770   5.744   1.208
 2085SOL    HW1 7154   5.717   5.660   1.215
 2085SOL    HW2 7155   5.858   5.724   1.165
 2086SOL     OW 7156   5.180   0.833   7.010
 2086SOL    HW1 7157   5.217   0.910   0.037
 2086SOL    HW2 7158   5.238   0.753   7.024
 2087SOL     OW 7159   4.005   1.610   6.505
 2087SOL    HW1 7160   4.079   1.564   6.553
 2087SOL    HW2 7161   3.918   1.568   6.530
 2088SOL     OW 7162   1.060   5.700   5.682
 2088SOL    HW1 7163   0.961   5.716   5.679
 2088SOL    HW2 7164   1.098   5.708   5.590
 2089SOL     OW 7165   2.365   3.401   0.139
 2089SOL    HW1 7166   2.433   3.473   0.152
 2089SOL    HW2 7167   2.390   3.322   0.194
 2090SOL     OW 7168   5.462   2.893   5.688
 2090SOL    HW1 7169   5.490   2.807   5.644
 2090SOL    HW2 7170   5.527   2.965   5.665
 2091SOL     OW 7171   5.115   6.556   1.180
 2091SOL    HW1 7172   5.131   6.554   1.081
 2091SOL    HW2 7173   5.031   6.506   1.200
 2092SOL     OW 7174   3.822   3.908   1.660
 2092SOL    HW1 7175   3.752   3.956   1.714
 2092SOL    HW2 7176   3.814   3.810   1.675
 2093SOL     OW 7177   4.017   1.104   1.387
 2093SOL    HW1 7178   4.054   1.032   1.329
 2093SOL    HW2 7179   4.091   1.152   1.434
 2094SOL     OW 7180   5.232   2.047   5.959
 2094SOL    HW1 7181   5.222   1.975   6.029
 2094SOL    HW2 7182   5.306   2.023   5.897
 2095SOL     OW 7183   5.261   5.539   4.049
 2095SOL    HW1 7184   5.191   5.478   4.013
 2095SOL    HW2 7185   5.293   5.599   3.976
 2096SOL     OW 7186   4.219   6.872   1.948
 2096SOL    HW1 7187   4.151   6.903   2.014
 2096SOL    HW2 7188   4.284   6.946   1.931
 2097SOL     OW 7189   0.935   5.959   6.185
 2097SOL    HW1 7190   0.944   5.860   6.174
 2097SOL    HW2 7191   0.873   5.979   6.261
 2098SOL     OW 7192   3.036   5.867   3.679
 2098SOL    HW1 7193   3.102   5.794   3.695
 2098SOL    HW2 7194   2.972   5.871   3.756
 2099SOL     OW 7195   4.720   1.587   6.399
 2099SOL    HW1 7196   4.634   1.623   6.436
 2099SOL    HW2 7197   4.753   1.649   6.328
 2100SOL     OW 7198   5.115   6.991   1.829
 2100SOL    HW1 7199   5.206   6.977   1.867
 2100SOL    HW2 7200   5.069   6.903   1.816
 2101SOL     OW 7201   0.562   0.251   2.512
 2101SOL    HW1 7202   0.534   0.201   2.594
 2101SOL    HW2 7203   0.660   0.270   2.517
 2102SOL     OW 7204   3.851   2.107   1.068
 2102SOL    HW1 7205   3.859   2.018   1.023
 2102SOL    HW2 7206   3.757   2.120   1.101
 2103SOL     OW 7207   2.555   6.112   0.206
 2103SOL    HW1 7208   2.599   6.193   0.245
 2103SOL    HW2 7209   2.619   6.035   0.209
 2104SOL     OW 7210   1.540   3.946   3.556
 2104SOL    HW1 7211   1.565   3.976   3.648
 2104SOL    HW2 7212   1.454   3.989   3.529
 2105SOL     OW 7213   5.454   6.135   5.059
 2105SOL    HW1 7214   5.436   6.189   4.978
 2105SOL    HW2 7215   5.374   6.137   5.119
 2106SOL     OW 7216   4.146   3.117   0.762
 2106SOL    HW1 7217   4.188   3.197   0.804
 2106SOL    HW2 7218   4.148   3.127   0.663
 2107SOL     OW 7219   5.447   4.748   5.274
 2107SOL    HW1 7220   5.411   4.789   5.190
 2107SOL    HW2 7221   5.428   4.650   5.274
 2108SOL     OW 7222   4.815   0.084   5.257
 2108SOL    HW1 7223   4.897   0.058   5.309
 2108SOL    HW2 7224   4.842   0.120   5.168
 2109SOL     OW 7225   2.517   6.639   2.207
 2109SOL    HW1 7226   2.555   6.724   2.243
 2109SOL    HW2 7227   2.501   6.648   2.109
 2110SOL     OW 7228   3.899   6.523   0.095
 2110SOL    HW1 7229   3.845   6.563   0.021
 2110SOL    HW2 7230   3.843   6.517   0.177
 2111SOL     OW 7231   0.813   2.107   5.782
 2111SOL    HW1 7232   0.893   2.050   5.800
 2111SOL    HW2 7233   0.840   2.188   5.731
 2112SOL     OW 7234   1.047   0.514   6.940
 2112SOL    HW1 7235   0.966   0.501   6.883
 2112SOL    HW2 7236   1.117   0.448   6.913
 2113SOL     OW 7237   0.215   1.179   4.478
 2113SOL    HW1 7238   0.313   1.197   4.476
 2113SOL    HW2 7239   0.199   1.081   4.489
 2114SOL     OW 7240   1.630   1.517   6.176
 2114SOL    HW1 7241   1.561   1.451   6.144
 2114SOL    HW2 7242   1.694   1.471   6.237
 2115SOL     OW 7243   6.317   6.124   3.175
 2115SOL    HW1 7244   6.303   6.205   3.232
 2115SOL    HW2 7245   6.392   6.140   3.111
 2116SOL     OW 7246   1.188   1.941   0.070
 2116SOL    HW1 7247   1.112   1.940   0.136
 2116SOL    HW2 7248   1.207   2.034   0.042
 2117SOL     OW 7249   6.457   1.729   2.423
 2117SOL    HW1 7250   6.489   1.657   2.485
 2117SOL    HW2 7251   6.487   1.708   2.330
 2118SOL     OW 7252   6.743   2.621   2.898
 2118SOL    HW1 7253   6.680   2.644   2.823
 2118SOL    HW2 7254   6.690   2.589   2.976
 2119SOL     OW 7255   1.280   1.185   0.417
 2119SOL    HW1 7256   1.343   1.152   0.488
 2119SOL    HW2 7257   1.189   1.147   0.434
 2120SOL     OW 7258   5.939   1.135   0.893
 2120SOL    HW1 7259   5.892   1.106   0.809
 2120SOL    HW2 7260   5.926   1.234   0.905
 2121SOL     OW 7261   1.740   0.682   6.996
 2121SOL    HW1 7262   1.784   0.772   7.002
 2121SOL    HW2 7263   1.797   0.614   0.018
 2122SOL     OW 7264   6.300   1.270   4.379
 2122SOL    HW1 7265   6.380   1.237   4.329
 2122SOL    HW2 7266   6.328   1.297   4.471
 2123SOL     OW 7267   1.203   5.353   2.822
 2123SOL    HW1 7268   1.262   5.344   2.902
 2123SOL    HW2 7269   1.243   5.303   2.745
 2124SOL     OW 7270   4.012   3.875   6.201
 2124SOL    HW1 7271   3.990   3.967   6.234
 2124SOL    HW2 7272   4.060   3.824   6.274
 2125SOL     OW 7273   1.579   5.986   4.428
 2125SOL    HW1 7274   1.575   6.079   4.391
 2125SOL    HW2 7275   1.580   5.920   4.352
 2126SOL     OW 7276   2.651   3.812   6.699
 2126SOL    HW1 7277   2.742   3.851   6.693
 2126SOL    HW2 7278   2.602   3.851   6.777
 2127SOL     OW 7279   0.753   2.504   4.399
 2127SOL    HW1 7280   0.838   2.489   4.347
 2127SOL    HW2 7281   0.684   2.439   4.368
 2128SOL     OW 7282   5.249   3.178   1.350
 2128SOL    HW1 7283   5.332   3.222   1.384
 2128SOL    HW2 7284   5.264   3.147   1.256
 2129SOL     OW 7285   5.754   3.983   4.448
 2129SOL    HW1 7286   5.816   3.965   4.371
 2129SOL    HW2 7287   5.710   4.071   4.436
 2130SOL     OW 7288   3.178   1.031   1.025
 2130SOL    HW1 7289   3.082   1.018   1.001
 2130SOL    HW2 7290   3.224   0.942   1.029
 2131SOL     OW 7291   5.217   0.434   5.329
 2131SOL    HW1 7292   5.207   0.484   5.415
 2131SOL    HW2 7293   5.296   0.470   5.279
 2132SOL     OW 7294   2.088   2.367   0.355
 2132SOL    HW1 7295   2.157   2.437   0.371
 2132SOL    HW2 7296   2.104   2.324   0.267
 2133SOL     OW 7297   3.271   2.563   1.654
 2133SOL    HW1 7298   3.250   2.485   1.595
 2133SOL    HW2 7299   3.194   2.581   1.715
 2134SOL     OW 7300   2.382   6.566   5.484
 2134SOL    HW1 7301   2.353   6.642   5.425
 2134SOL    HW2 7302   2.482   6.564   5.489
 2135SOL     OW 7303   0.805   6.632   4.158
 2135SOL    HW1 7304   0.864   6.713   4.156
 2135SOL    HW2 7305   0.846   6.562   4.216
 2136SOL     OW 7306   1.283   4.683   3.791
 2136SOL    HW1 7307   1.214   4.639   3.734
 2136SOL    HW2 7308   1.323   4.760   3.741
 2137SOL     OW 7309   1.273   1.208   4.613
 2137SOL    HW1 7310   1.249   1.208   4.710
 2137SOL    HW2 7311   1.296   1.302   4.585
 2138SOL     OW 7312   0.891   2.187   6.571
 2138SOL    HW1 7313   0.911   2.242   6.490
 2138SOL    HW2 7314   0.915   2.239   6.654
 2139SOL     OW 7315   2.139   0.775   4.565
 2139SOL    HW1 7316   2.133   0.711   4.641
 2139SOL    HW2 7317   2.065   0.757   4.500
 2140SOL     OW 7318   1.578   5.762   3.853
 2140SOL    HW1 7319   1.631   5.822   3.792
 2140SOL    HW2 7320   1.501   5.813   3.891
 2141SOL     OW 7321   6.875   1.409   6.989
 2141SOL    HW1 7322   6.848   1.368   6.902
 2141SOL    HW2 7323   6.950   1.472   6.974
 2142SOL     OW 7324   2.788   1.574   3.400
 2142SOL    HW1 7325   2.717   1.611   3.461
 2142SOL    HW2 7326   2.752   1.497   3.349
 2143SOL     OW 7327   3.762   6.379   6.875
 2143SOL    HW1 7328   3.693   6.348   6.941
 2143SOL    HW2 7329   3.765   6.479   6.875
 2144SOL     OW 7330   6.956   0.582   2.677
 2144SOL    HW1 7331   6.941   0.648   2.750
 2144SOL    HW2 7332   6.929   0.622   2.589
 2145SOL     OW 7333   4.007   5.430   2.981
 2145SOL    HW1 7334   3.997   5.529   2.992
 2145SOL    HW2 7335   3.982   5.384   3.066
 2146SOL     OW 7336   3.853   2.626   1.191
 2146SOL    HW1 7337   3.848   2.722   1.162
 2146SOL    HW2 7338   3.788   2.611   1.266
 2147SOL     OW 7339   0.146   0.858   5.147
 2147SOL    HW1 7340   0.132   0.759   5.145
 2147SOL    HW2 7341   0.169   0.891   5.055
 2148SOL     OW 7342   4.722   2.841   2.728
 2148SOL    HW1 7343   4.632   2.801   2.746
 2148SOL    HW2 7344   4.773   2.847   2.814
 2149SOL     OW 7345   3.525   0.937   3.423
 2149SOL    HW1 7346   3.512   0.983   3.510
 2149SOL    HW2 7347   3.595   0.984   3.370
 2150SOL     OW 7348   3.672   1.383   2.436
 2150SOL    HW1 7349   3.738   1.374   2.510
 2150SOL    HW2 7350   3.586   1.338   2.462
 2151SOL     OW 7351   3.671   2.784   5.675
 2151SOL    HW1 7352   3.657   2.686   5.689
 2151SOL    HW2 7353   3.627   2.812   5.590
 2152SOL     OW 7354   6.046   6.069   1.877
 2152SOL    HW1 7355   6.106   6.087   1.955
 2152SOL    HW2 7356   6.065   6.135   1.804
 2153SOL     OW 7357   4.682   2.514   2.825
 2153SOL    HW1 7358   4.614   2.505   2.752
 2153SOL    HW2 7359   4.750   2.440   2.816
 2154SOL     OW 7360   4.296   5.735   5.058
 2154SOL    HW1 7361   4.340   5.807   5.004
 2154SOL    HW2 7362   4.286   5.652   5.003
 2155SOL     OW 7363   6.137   3.855   6.715
 2155SOL    HW1 7364   6.095   3.875   6.804
 2155SOL    HW2 7365   6.235   3.870   6.720
 2156SOL     OW 7366   1.298   1.098   1.721
 2156SOL    HW1 7367   1.244   1.146   1.789
 2156SOL    HW2 7368   1.248   1.095   1.634
 2157SOL     OW 7369   0.452   1.190   4.619
 2157SOL    HW1 7370   0.512   1.268   4.602
 2157SOL    HW2 7371   0.503   1.119   4.669
 2158SOL     OW 7372   4.694   6.445   2.571
 2158SOL    HW1 7373   4.707   6.416   2.666
 2158SOL    HW2 7374   4.681   6.365   2.513
 2159SOL     OW 7375   2.071   6.397   5.209
 2159SOL    HW1 7376   2.101   6.302   5.218
 2159SOL    HW2 7377   2.067   6.439   5.299
 2160SOL     OW 7378   2.935   3.195   0.677
 2160SOL    HW1 7379   2.852   3.201   0.621
 2160SOL    HW2 7380   2.975   3.286   0.686
 2161SOL     OW 7381   4.907   2.285   3.749
 2161SOL    HW1 7382   4.975   2.347   3.788
 2161SOL    HW2 7383   4.940   2.191   3.753
 2162SOL     OW 7384   1.252   1.511   6.850
 2162SOL    HW1 7385   1.264   1.574   6.927
 2162SOL    HW2 7386   1.211   1.560   6.773
 2163SOL     OW 7387   2.809   2.378   0.571
 2163SOL    HW1 7388   2.792   2.312   0.645
 2163SOL    HW2 7389   2.743   2.452   0.577
 2164SOL     OW 7390   0.827   0.276   1.419
 2164SOL    HW1 7391   0.772   0.220   1.357
 2164SOL    HW2 7392   0.924   0.258   1.402
 2165SOL     OW 7393   2.974   0.025   1.553
 2165SOL    HW1 7394   2.939   0.117   1.533
 2165SOL    HW2 7395   2.981   0.013   1.652
 2166SOL     OW 7396   6.261   2.335   6.345
 2166SOL    HW1 7397   6.166   2.313   6.326
 2166SOL    HW2 7398   6.266   2.391   6.428
 2167SOL     OW 7399   2.493   0.497   2.033
 2167SOL    HW1 7400   2.585   0.479   1.999
 2167SOL    HW2 7401   2.426   0.456   1.972
 2168SOL     OW 7402   5.978   5.960   4.973
 2168SOL    HW1 7403   5.900   6.022   4.973
 2168SOL    HW2 7404   6.016   5.955   5.066
 2169SOL     OW 7405   5.810   1.966   4.956
 2169SOL    HW1 7406   5.847   1.874   4.941
 2169SOL    HW2 7407   5.761   1.968   5.043
 2170SOL     OW 7408   5.755   5.213   4.619
 2170SOL    HW1 7409   5.750   5.312   4.623
 2170SOL    HW2 7410   5.697   5.174   4.691
 2171SOL     OW 7411   6.507   2.655   0.514
 2171SOL    HW1 7412   6.408   2.672   0.507
 2171SOL    HW2 7413   6.540   2.616   0.427
 2172SOL     OW 7414   2.468   0.647   0.978
 2172SOL    HW1 7415   2.428   0.557   0.958
 2172SOL    HW2 7416   2.540   0.667   0.912
 2173SOL     OW 7417   5.152   1.667   4.844
 2173SOL    HW1 7418   5.131   1.739   4.778
 2173SOL    HW2 7419   5.249   1.667   4.865
 2174SOL     OW 7420   1.258   5.385   4.721
 2174SOL    HW1 7421   1.319   5.366   4.644
 2174SOL    HW2 7422   1.301   5.450   4.783
 2175SOL     OW 7423   2.118   6.485   5.471
 2175SOL    HW1 7424   2.213   6.508   5.494
 2175SOL    HW2 7425   2.061   6.492   5.552
 2176SOL     OW 7426   1.995   2.279   2.186
 2176SOL    HW1 7427   1.967   2.245   2.276
 2176SOL    HW2 7428   2.034   2.370   2.196
 2177SOL     OW 7429   6.544   0.996   2.380
 2177SOL    HW1 7430   6.628   1.049   2.388
 2177SOL    HW2 7431   6.508   1.003   2.287
 2178SOL     OW 7432   0.591   5.385   0.597
 2178SOL    HW1 7433   0.678   5.428   0.573
 2178SOL    HW2 7434   0.608   5.305   0.654
 2179SOL     OW 7435   1.173   4.803   4.224
 2179SOL    HW1 7436   1.238   4.764   4.158
 2179SOL    HW2 7437   1.217   4.876   4.276
 2180SOL     OW 7438   4.205   3.166   1.884
 2180SOL    HW1 7439   4.172   3.251   1.925
 2180SOL    HW2 7440   4.284   3.133   1.936
 2181SOL     OW 7441   4.778   6.388   0.419
 2181SOL    HW1 7442   4.704   6.322   0.407
 2181SOL    HW2 7443   4.865   6.344   0.400
 2182SOL     OW 7444   5.561   2.004   0.325
 2182SOL    HW1 7445   5.614   2.086   0.305
 2182SOL    HW2 7446   5.520   2.012   0.416
 2183SOL     OW 7447   2.590   2.738   1.220
 2183SOL    HW1 7448   2.645   2.705   1.297
 2183SOL    HW2 7449   2.512   2.677   1.206
 2184SOL     OW 7450   4.351   3.023   5.855
 2184SOL    HW1 7451   4.451   3.015   5.847
 2184SOL    HW2 7452   4.311   3.036   5.765
 2185SOL     OW 7453   1.228   0.611   1.167
 2185SOL    HW1 7454   1.320   0.572   1.165
 2185SOL    HW2 7455   1.235   0.711   1.164
 2186SOL     OW 7456   0.061   4.885   2.701
 2186SOL    HW1 7457   0.149   4.855   2.666
 2186SOL    HW2 7458   7.020   4.888   2.626
 2187SOL     OW 7459   0.898   1.400   6.615
 2187SOL    HW1 7460   0.891   1.356   6.705
 2187SOL    HW2 7461   0.982   1.453   6.609
 2188SOL     OW 7462   5.222   1.060   3.503
 2188SOL    HW1 7463   5.170   1.112   3.435
 2188SOL    HW2 7464   5.240   0.968   3.469
 2189SOL     OW 7465   2.866   0.413   6.761
 2189SOL    HW1 7466   2.916   0.497   6.742
 2189SOL    HW2 7467   2.869   0.393   6.859
 2190SOL     OW 7468   5.007   2.106   1.345
 2190SOL    HW1 7469   5.090   2.054   1.365
 2190SOL    HW2 7470   5.032   2.197   1.311
 2191SOL     OW 7471   2.728   2.115   6.944
 2191SOL    HW1 7472   2.724   2.044   6.874
 2191SOL    HW2 7473   2.818   2.160   6.942
 2192SOL     OW 7474   4.184   5.505   3.374
 2192SOL    HW1 7475   4.262   5.458   3.416
 2192SOL    HW2 7476   4.198   5.604   3.380
 2193SOL     OW 7477   0.499   5.256   5.776
 2193SOL    HW1 7478   0.588   5.244   5.732
 2193SOL    HW2 7479   0.446   5.171   5.770
 2194SOL     OW 7480   3.418   0.124   1.355
 2194SOL    HW1 7481   3.342   0.152   1.413
 2194SOL    HW2 7482   3.393   0.041   1.306
 2195SOL     OW 7483   1.393   4.965   2.482
 2195SOL    HW1 7484   1.467   5.021   2.445
 2195SOL    HW2 7485   1.335   4.933   2.407
 2196SOL     OW 7486   4.407   2.848   6.501
 2196SOL    HW1 7487   4.379   2.760   6.540
 2196SOL    HW2 7488   4.433   2.835   6.405
 2197SOL     OW 7489   4.370   4.303   0.293
 2197SOL    HW1 7490   4.343   4.237   0.362
 2197SOL    HW2 7491   4.290   4.326   0.236
 2198SOL     OW 7492   6.102   4.550   0.232
 2198SOL    HW1 7493   6.124   4.543   0.135
 2198SOL    HW2 7494   6.159   4.487   0.284
 2199SOL     OW 7495   4.303   0.489   2.289
 2199SOL    HW1 7496   4.377   0.423   2.301
 2199SOL    HW2 7497   4.217   0.448   2.321
 2200SOL     OW 7498   2.381   6.829   4.710
 2200SOL    HW1 7499   2.376   6.729   4.712
 2200SOL    HW2 7500   2.369   6.861   4.616
 2201SOL     OW 7501   4.922   4.115   2.762
 2201SOL    HW1 7502   4.934   4.206   2.801
 2201SOL    HW2 7503   4.864   4.121   2.681
 2202SOL     OW 7504   4.954   5.733   3.572
 2202SOL    HW1 7505   4.941   5.634   3.584
 2202SOL    HW2 7506   4.870   5.773   3.535
 2203SOL     OW 7507   3.228   2.121   2.565
 2203SOL    HW1 7508   3.140   2.088   2.600
 2203SOL    HW2 7509   3.232   2.108   2.466
 2204SOL     OW 7510   2.827   2.620   1.017
 2204SOL    HW1 7511   2.757   2.676   1.062
 2204SOL    HW2 7512   2.830   2.530   1.061
 2205SOL     OW 7513   2.168   0.426   1.319
 2205SOL    HW1 7514   2.161   0.350   1.254
 2205SOL    HW2 7515   2.204   0.506   1.272
 2206SOL     OW 7516   2.101   2.987   0.410
 2206SOL    HW1 7517   2.019   3.043   0.416
 2206SOL    HW2 7518   2.180   3.040   0.441
 2207SOL     OW 7519   0.588   4.419   4.507
 2207SOL    HW1 7520   0.613   4.488   4.575
 2207SOL    HW2 7521   0.534   4.347   4.550
 2208SOL     OW 7522   6.584   4.596   1.684
 2208SOL    HW1 7523   6.487   4.590   1.706
 2208SOL    HW2 7524   6.609   4.521   1.622
 2209SOL     OW 7525   1.197   6.732   1.380
 2209SOL    HW1 7526   1.125   6.709   1.446
 2209SOL    HW2 7527   1.215   6.653   1.321
 2210SOL     OW 7528   1.328   5.416   3.710
 2210SOL    HW1 7529   1.306   5.351   3.782
 2210SOL    HW2 7530   1.286   5.387   3.624
 2211SOL     OW 7531   0.334   1.238   5.502
 2211SOL    HW1 7532   0.345   1.213   5.406
 2211SOL    HW2 7533   0.241   1.216   5.531
 2212SOL     OW 7534   2.168   0.015   6.759
 2212SOL    HW1 7535   2.077   6.999   6.759
 2212SOL    HW2 7536   2.227   6.993   6.693
 2213SOL     OW 7537   3.276   1.228   3.494
 2213SOL    HW1 7538   3.320   1.267   3.413
 2213SOL    HW2 7539   3.262   1.130   3.481
 2214SOL     OW 7540   4.082   6.999   5.541
 2214SOL    HW1 7541   4.174   6.960   5.551
 2214SOL    HW2 7542   4.084   0.071   5.568
 2215SOL     OW 7543   5.534   2.679   4.746
 2215SOL    HW1 7544   5.506   2.757   4.691
 2215SOL    HW2 7545   5.508   2.695   4.842
 2216SOL     OW 7546   2.104   0.639   2.408
 2216SOL    HW1 7547   2.170   0.714   2.417
 2216SOL    HW2 7548   2.134   0.576   2.336
 2217SOL     OW 7549   4.186   0.935   2.128
 2217SOL    HW1 7550   4.163   1.015   2.073
 2217SOL    HW2 7551   4.266   0.956   2.185
 2218SOL     OW 7552   0.995   6.639   2.596
 2218SOL    HW1 7553   1.076   6.656   2.542
 2218SOL    HW2 7554   0.916   6.625   2.536
 2219SOL     OW 7555   1.549   2.001   2.970
 2219SOL    HW1 7556   1.450   1.995   2.968
 2219SOL    HW2 7557   1.587   1.918   3.013
 2220SOL     OW 7558   0.764   0.416   1.139
 2220SOL    HW1 7559   0.700   0.438   1.065
 2220SOL    HW2 7560   0.736   0.331   1.183
 2221SOL     OW 7561   0.486   1.687   0.094
 2221SOL    HW1 7562   0.552   1.752   0.056
 2221SOL    HW2 7563   0.520   1.593   0.082
 2222SOL     OW 7564   5.857   5.864   3.221
 2222SOL    HW1 7565   5.951   5.882   3.192
 2222SOL    HW2 7566   5.851   5.771   3.258
 2223SOL     OW 7567   5.971   5.436   1.300
 2223SOL    HW1 7568   6.010   5.378   1.229
 2223SOL    HW2 7569   5.871   5.441   1.289
 2224SOL     OW 7570   0.691   4.843   2.135
 2224SOL    HW1 7571   0.781   4.871   2.102
 2224SOL    HW2 7572   0.626   4.919   2.124
 2225SOL     OW 7573   0.250   4.666   1.118
 2225SOL    HW1 7574   0.214   4.618   1.198
 2225SOL    HW2 7575   0.175   4.710   1.069
 2226SOL     OW 7576   4.202   3.774   1.526
 2226SOL    HW1 7577   4.149   3.830   1.589
 2226SOL    HW2 7578   4.255   3.706   1.578
 2227SOL     OW 7579   0.656   3.010   4.556
 2227SOL    HW1 7580   0.711   3.048   4.482
 2227SOL    HW2 7581   0.615   2.924   4.526
 2228SOL     OW 7582   2.648   5.077   4.793
 2228SOL    HW1 7583   2.696   4.992   4.769
 2228SOL    HW2 7584   2.690   5.153   4.744
 2229SOL     OW 7585   5.798   6.892   3.256
 2229SOL    HW1 7586   5.734   6.964   3.282
 2229SOL    HW2 7587   5.862   6.928   3.188
 2230SOL     OW 7588   2.822   5.173   0.730
 2230SOL    HW1 7589   2.722   5.173   0.728
 2230SOL    HW2 7590   2.855   5.261   0.764
 2231SOL     OW 7591   2.491   5.763   1.114
 2231SOL    HW1 7592   2.428   5.685   1.118
 2231SOL    HW2 7593   2.509   5.796   1.206
 2232SOL     OW 7594   6.281   2.902   3.740
 2232SOL    HW1 7595   6.190   2.929   3.772
 2232SOL    HW2 7596   6.351   2.947   3.796
 2233SOL     OW 7597   2.990   1.991   6.751
 2233SOL    HW1 7598   3.072   1.952   6.709
 2233SOL    HW2 7599   2.912   1.931   6.734
 2234SOL     OW 7600   3.214   2.237   1.362
 2234SOL    HW1 7601   3.230   2.148   1.405
 2234SOL    HW2 7602   3.301   2.275   1.331
 2235SOL     OW 7603   1.999   0.883   1.374
 2235SOL    HW1 7604   1.959   0.960   1.325
 2235SOL    HW2 7605   1.945   0.801   1.358
 2236SOL     OW 7606   0.021   4.042   5.820
 2236SOL    HW1 7607   0.074   4.072   5.900
 2236SOL    HW2 7608   0.044   4.100   5.742
 2237SOL     OW 7609   6.354   2.933   4.212
 2237SOL    HW1 7610   6.292   2.894   4.279
 2237SOL    HW2 7611   6.351   3.033   4.216
 2238SOL     OW 7612   6.818   6.318   1.678
 2238SOL    HW1 7613   6.825   6.219   1.694
 2238SOL    HW2 7614   6.723   6.342   1.658
 2239SOL     OW 7615   5.693   5.461   2.778
 2239SOL    HW1 7616   5.600   5.497   2.787
 2239SOL    HW2 7617   5.743   5.477   2.863
 2240SOL     OW 7618   5.777   3.677   2.045
 2240SOL    HW1 7619   5.729   3.594   2.015
 2240SOL    HW2 7620   5.732   3.757   2.006
 2241SOL     OW 7621   0.794   6.904   2.339
 2241SOL    HW1 7622   0.784   6.952   2.252
 2241SOL    HW2 7623   0.706   6.903   2.386
 2242SOL     OW 7624   4.322   1.750   2.749
 2242SOL    HW1 7625   4.385   1.822   2.780
 2242SOL    HW2 7626   4.300   1.764   2.653
 2243SOL     OW 7627   3.188   6.237   5.763
 2243SOL    HW1 7628   3.089   6.247   5.753
 2243SOL    HW2 7629   3.216   6.148   5.728
 2244SOL     OW 7630   2.874   0.644   5.315
 2244SOL    HW1 7631   2.775   0.655   5.327
 2244SOL    HW2 7632   2.892   0.552   5.280
 2245SOL     OW 7633   0.153   2.051   2.003
 2245SOL    HW1 7634   0.209   2.129   2.028
 2245SOL    HW2 7635   0.066   2.055   2.053
 2246SOL     OW 7636   1.499   4.695   4.956
 2246SOL    HW1 7637   1.582   4.749   4.968
 2246SOL    HW2 7638   1.462   4.670   5.045
 2247SOL     OW 7639   1.843   1.372   5.425
 2247SOL    HW1 7640   1.828   1.469   5.441
 2247SOL    HW2 7641   1.905   1.360   5.348
 2248SOL     OW 7642   4.480   4.340   5.281
 2248SOL    HW1 7643   4.520   4.254   5.313
 2248SOL    HW2 7644   4.396   4.321   5.231
 2249SOL     OW 7645   4.320   5.348   4.651
 2249SOL    HW1 7646   4.378   5.416   4.605
 2249SOL    HW2 7647   4.231   5.346   4.606
 2250SOL     OW 7648   5.152   5.404   0.630
 2250SOL    HW1 7649   5.079   5.451   0.680
 2250SOL    HW2 7650   5.229   5.386   0.692
 2251SOL     OW 7651   0.193   0.568   5.991
 2251SOL    HW1 7652   0.099   0.580   6.026
 2251SOL    HW2 7653   0.248   0.647   6.018
 2252SOL     OW 7654   3.477   1.275   5.799
 2252SOL    HW1 7655   3.567   1.252   5.836
 2252SOL    HW2 7656   3.454   1.213   5.724
 2253SOL     OW 7657   1.574   2.556   6.054
 2253SOL    HW1 7658   1.488   2.606   6.041
 2253SOL    HW2 7659   1.569   2.469   6.004
 2254SOL     OW 7660   1.589   3.410   5.949
 2254SOL    HW1 7661   1.616   3.485   5.890
 2254SOL    HW2 7662   1.604   3.436   6.045
 2255SOL     OW 7663   5.316   3.433   0.470
 2255SOL    HW1 7664   5.254   3.355   0.463
 2255SOL    HW2 7665   5.269   3.516   0.443
 2256SOL     OW 7666   3.415   4.919   2.154
 2256SOL    HW1 7667   3.440   4.969   2.237
 2256SOL    HW2 7668   3.478   4.842   2.141
 2257SOL     OW 7669   1.929   3.537   4.057
 2257SOL    HW1 7670   1.914   3.449   4.102
 2257SOL    HW2 7671   1.996   3.590   4.109
 2258SOL     OW 7672   1.932   5.293   5.263
 2258SOL    HW1 7673   1.964   5.204   5.296
 2258SOL    HW2 7674   2.009   5.341   5.220
 2259SOL     OW 7675   6.657   3.100   6.468
 2259SOL    HW1 7676   6.604   3.178   6.502
 2259SOL    HW2 7677   6.594   3.030   6.434
 2260SOL     OW 7678   4.714   4.084   0.909
 2260SOL    HW1 7679   4.806   4.081   0.948
 2260SOL    HW2 7680   4.665   3.999   0.931
 2261SOL     OW 7681   3.689   6.279   4.941
 2261SOL    HW1 7682   3.739   6.350   4.990
 2261SOL    HW2 7683   3.674   6.201   5.002
 2262SOL     OW 7684   3.334   1.724   3.288
 2262SOL    HW1 7685   3.396   1.705   3.363
 2262SOL    HW2 7686   3.266   1.792   3.316
 2263SOL     OW 7687   0.070   4.377   5.407
 2263SOL    HW1 7688   0.017   4.457   5.377
 2263SOL    HW2 7689   0.042   4.297   5.354
 2264SOL     OW 7690   3.373   3.951   3.518
 2264SOL    HW1 7691   3.458   4.003   3.524
 2264SOL    HW2 7692   3.319   3.968   3.601
 2265SOL     OW 7693   0.691   6.812   2.879
 2265SOL    HW1 7694   0.592   6.831   2.879
 2265SOL    HW2 7695   0.730   6.844   2.792
 2266SOL     OW 7696   6.010   6.995   6.734
 2266SOL    HW1 7697   6.068   6.932   6.682
 2266SOL    HW2 7698   5.925   7.009   6.685
 2267SOL     OW 7699   5.195   1.831   5.409
 2267SOL    HW1 7700   5.213   1.929   5.396
 2267SOL    HW2 7701   5.276   1.788   5.450
 2268SOL     OW 7702   6.463   4.959   6.909
 2268SOL    HW1 7703   6.427   4.873   6.947
 2268SOL    HW2 7704   6.560   4.967   6.931
 2269SOL     OW 7705   0.277   5.904   3.869
 2269SOL    HW1 7706   0.242   5.827   3.923
 2269SOL    HW2 7707   0.206   5.975   3.864
 2270SOL     OW 7708   4.129   3.523   2.764
 2270SOL    HW1 7709   4.114   3.479   2.676
 2270SOL    HW2 7710   4.120   3.622   2.754
 2271SOL     OW 7711   0.497   4.495   2.726
 2271SOL    HW1 7712   0.399   4.492   2.748
 2271SOL    HW2 7713   0.547   4.533   2.804
 2272SOL     OW 7714   4.855   2.253   6.208
 2272SOL    HW1 7715   4.755   2.259   6.207
 2272SOL    HW2 7716   4.894   2.342   6.230
 2273SOL     OW 7717   0.542   0.628   3.672
 2273SOL    HW1 7718   0.533   0.725   3.697
 2273SOL    HW2 7719   0.576   0.577   3.752
 2274SOL     OW 7720   1.312   3.915   3.188
 2274SOL    HW1 7721   1.383   3.970   3.143
 2274SOL    HW2 7722   1.223   3.958   3.175
 2275SOL     OW 7723   4.926   6.430   3.371
 2275SOL    HW1 7724   4.955   6.398   3.280
 2275SOL    HW2 7725   4.888   6.353   3.422
 2276SOL     OW 7726   3.550   5.397   1.874
 2276SOL    HW1 7727   3.639   5.393   1.828
 2276SOL    HW2 7728   3.536   5.488   1.912
 2277SOL     OW 7729   3.657   3.444   1.275
 2277SOL    HW1 7730   3.610   3.456   1.187
 2277SOL    HW2 7731   3.599   3.390   1.336
 2278SOL     OW 7732   5.081   6.792   0.971
 2278SOL    HW1 7733   5.069   6.701   0.932
 2278SOL    HW2 7734   5.171   6.828   0.945
 2279SOL     OW 7735   5.238   4.046   4.981
 2279SOL    HW1 7736   5.151   4.095   4.991
 2279SOL    HW2 7737   5.299   4.071   5.056
 2280SOL     OW 7738   6.005   6.925   6.158
 2280SOL    HW1 7739   6.063   6.883   6.089
 2280SOL    HW2 7740   5.916   6.879   6.161
 2281SOL     OW 7741   3.434   2.753   0.418
 2281SOL    HW1 7742   3.350   2.753   0.363
 2281SOL    HW2 7743   3.512   2.735   0.358
 2282SOL     OW 7744   4.397   5.979   2.277
 2282SOL    HW1 7745   4.346   6.065   2.280
 2282SOL    HW2 7746   4.347   5.913   2.220
 2283SOL     OW 7747   0.074   3.888   1.916
 2283SOL    HW1 7748   0.043   3.831   1.991
 2283SOL    HW2 7749   0.018   3.870   1.835
 2284SOL     OW 7750   2.706   2.349   2.273
 2284SOL    HW1 7751   2.787   2.290   2.272
 2284SOL    HW2 7752   2.680   2.370   2.179
 2285SOL     OW 7753   1.865   3.648   6.494
 2285SOL    HW1 7754   1.854   3.596   6.409
 2285SOL    HW2 7755   1.919   3.729   6.477
 2286SOL     OW 7756   5.142   6.906   4.325
 2286SOL    HW1 7757   5.197   6.902   4.242
 2286SOL    HW2 7758   5.110   6.999   4.340
 2287SOL     OW 7759   2.354   2.700   1.440
 2287SOL    HW1 7760   2.280   2.648   1.397
 2287SOL    HW2 7761   2.405   2.640   1.502
 2288SOL     OW 7762   1.948   5.838   4.467
 2288SOL    HW1 7763   1.894   5.888   4.399
 2288SOL    HW2 7764   2.028   5.799   4.424
 2289SOL     OW 7765   4.499   1.625   0.481
 2289SOL    HW1 7766   4.415   1.669   0.515
 2289SOL    HW2 7767   4.494   1.617   0.382
 2290SOL     OW 7768   3.356   3.289   3.180
 2290SOL    HW1 7769   3.442   3.339   3.192
 2290SOL    HW2 7770   3.343   3.226   3.256
 2291SOL     OW 7771   1.343   3.016   6.279
 2291SOL    HW1 7772   1.377   2.927   6.309
 2291SOL    HW2 7773   1.248   3.007   6.249
 2292SOL     OW 7774   5.089   1.609   2.475
 2292SOL    HW1 7775   5.102   1.708   2.482
 2292SOL    HW2 7776   5.046   1.586   2.388
 2293SOL     OW 7777   0.491   0.535   0.288
 2293SOL    HW1 7778   0.391   0.529   0.291
 2293SOL    HW2 7779   0.526   0.471   0.220
 2294SOL     OW 7780   6.952   1.009   5.584
 2294SOL    HW1 7781   0.007   1.067   5.571
 2294SOL    HW2 7782   6.921   0.974   5.495
 2295SOL     OW 7783   5.949   6.196   1.111
 2295SOL    HW1 7784   5.948   6.136   1.031
 2295SOL    HW2 7785   5.929   6.290   1.083
 2296SOL     OW 7786   3.810   4.939   3.961
 2296SOL    HW1 7787   3.787   4.945   4.058
 2296SOL    HW2 7788   3.879   5.008   3.939
 2297SOL     OW 7789   4.973   3.968   5.342
 2297SOL    HW1 7790   5.045   3.937   5.281
 2297SOL    HW2 7791   4.952   3.896   5.409
 2298SOL     OW 7792   3.617   3.863   3.930
 2298SOL    HW1 7793   3.711   3.897   3.936
 2298SOL    HW2 7794   3.554   3.938   3.951
 2299SOL     OW 7795   5.676   2.807   4.218
 2299SOL    HW1 7796   5.766   2.834   4.252
 2299SOL    HW2 7797   5.687   2.752   4.135
 2300SOL     OW 7798   4.781   6.584   2.168
 2300SOL    HW1 7799   4.855   6.564   2.232
 2300SOL    HW2 7800   4.731   6.500   2.147
 2301SOL     OW 7801   3.816   2.992   4.967
 2301SOL    HW1 7802   3.881   3.013   5.040
 2301SOL    HW2 7803   3.731   2.959   5.007
 2302SOL     OW 7804   6.365   2.754   5.886
 2302SOL    HW1 7805   6.288   2.696   5.859
 2302SOL    HW2 7806   6.448   2.723   5.840
 2303SOL     OW 7807   2.856   2.623   0.228
 2303SOL    HW1 7808   2.894   2.705   0.271
 2303SOL    HW2 7809   2.927   2.578   0.172
 2304SOL     OW 7810   6.507   6.407   2.305
 2304SOL    HW1 7811   6.458   6.484   2.264
 2304SOL    HW2 7812   6.605   6.417   2.288
 2305SOL     OW 7813   2.810   0.083   4.719
 2305SOL    HW1 7814   2.737   0.015   4.710
 2305SOL    HW2 7815   2.889   0.054   4.665
 2306SOL     OW 7816   1.411   4.990   4.893
 2306SOL    HW1 7817   1.324   5.006   4.848
 2306SOL    HW2 7818   1.425   4.892   4.905
 2307SOL     OW 7819   6.501   3.398   5.233
 2307SOL    HW1 7820   6.498   3.446   5.321
 2307SOL    HW2 7821   6.576   3.332   5.233
 2308SOL     OW 7822   1.496   4.973   1.712
 2308SOL    HW1 7823   1.400   4.999   1.702
 2308SOL    HW2 7824   1.543   5.040   1.769
 2309SOL     OW 7825   1.903   0.312   5.242
 2309SOL    HW1 7826   1.970   0.324   5.169
 2309SOL    HW2 7827   1.827   0.257   5.209
 2310SOL     OW 7828   4.155   0.256   1.122
 2310SOL    HW1 7829   4.142   0.171   1.071
 2310SOL    HW2 7830   4.196   0.325   1.062
 2311SOL     OW 7831   2.717   5.144   1.000
 2311SOL    HW1 7832   2.768   5.222   0.962
 2311SOL    HW2 7833   2.765   5.109   1.081
 2312SOL     OW 7834   3.450   5.173   1.783
 2312SOL    HW1 7835   3.515   5.096   1.792
 2312SOL    HW2 7836   3.493   5.256   1.817
 2313SOL     OW 7837   5.327   5.610   1.176
 2313SOL    HW1 7838   5.377   5.524   1.190
 2313SOL    HW2 7839   5.340   5.640   1.082
 2314SOL     OW 7840   1.863   5.004   4.727
 2314SOL    HW1 7841   1.912   4.917   4.724
 2314SOL    HW2 7842   1.860   5.043   4.635
 2315SOL     OW 7843   4.751   2.696   6.422
 2315SOL    HW1 7844   4.690   2.702   6.501
 2315SOL    HW2 7845   4.822   2.767   6.429
 2316SOL     OW 7846   5.987   3.815   2.159
 2316SOL    HW1 7847   6.072   3.814   2.108
 2316SOL    HW2 7848   5.918   3.761   2.110
 2317SOL     OW 7849   0.207   5.905   3.378
 2317SOL    HW1 7850   0.189   5.958   3.295
 2317SOL    HW2 7851   0.190   5.808   3.362
 2318SOL     OW 7852   6.638   0.840   4.011
 2318SOL    HW1 7853   6.701   0.917   4.023
 2318SOL    HW2 7854   6.544   0.874   4.011
 2319SOL     OW 7855   0.769   5.681   2.880
 2319SOL    HW1 7856   0.709   5.695   2.801
 2319SOL    HW2 7857   0.819   5.595   2.870
 2320SOL     OW 7858   6.425   5.360   5.596
 2320SOL    HW1 7859   6.426   5.339   5.498
 2320SOL    HW2 7860   6.330   5.372   5.626
 2321SOL     OW 7861   3.706   4.976   5.055
 2321SOL    HW1 7862   3.741   5.068   5.037
 2321SOL    HW2 7863   3.608   4.972   5.035
 2322SOL     OW 7864   3.196   0.646   5.689
 2322SOL    HW1 7865   3.096   0.645   5.687
 2322SOL    HW2 7866   3.231   0.573   5.630
 2323SOL     OW 7867   5.376   3.711   1.969
 2323SOL    HW1 7868   5.434   3.700   2.050
 2323SOL    HW2 7869   5.283   3.679   1.991
 2324SOL     OW 7870   6.997   5.143   3.395
 2324SOL    HW1 7871   6.967   5.167   3.488
 2324SOL    HW2 7872   0.070   5.162   3.386
 2325SOL     OW 7873   0.577   2.370   0.871
 2325SOL    HW1 7874   0.614   2.372   0.778
 2325SOL    HW2 7875   0.481   2.345   0.868
 2326SOL     OW 7876   1.577   4.135   0.266
 2326SOL    HW1 7877   1.645   4.062   0.255
 2326SOL    HW2 7878   1.485   4.097   0.262
 2327SOL     OW 7879   5.474   2.003   3.652
 2327SOL    HW1 7880   5.441   2.098   3.653
 2327SOL    HW2 7881   5.543   1.993   3.580
 2328SOL     OW 7882   6.127   6.640   3.991
 2328SOL    HW1 7883   6.105   6.601   3.902
 2328SOL    HW2 7884   6.219   6.612   4.019
 2329SOL     OW 7885   6.397   5.703   3.196
 2329SOL    HW1 7886   6.321   5.638   3.188
 2329SOL    HW2 7887   6.428   5.707   3.291
 2330SOL     OW 7888   0.453   3.456   1.789
 2330SOL    HW1 7889   0.369   3.411   1.759
 2330SOL    HW2 7890   0.430   3.541   1.837
 2331SOL     OW 7891   0.931   4.993   5.915
 2331SOL    HW1 7892   0.887   4.919   5.967
 2331SOL    HW2 7893   0.968   4.956   5.830
 2332SOL     OW 7894   5.481   2.430   4.382
 2332SOL    HW1 7895   5.483   2.467   4.474
 2332SOL    HW2 7896   5.422   2.349   4.379
 2333SOL     OW 7897   2.624   4.730   3.549
 2333SOL    HW1 7898   2.605   4.701   3.642
 2333SOL    HW2 7899   2.552   4.698   3.488
 2334SOL     OW 7900   2.995   0.425   0.516
 2334SOL    HW1 7901   2.991   0.422   0.416
 2334SOL    HW2 7902   3.090   0.420   0.545
 2335SOL     OW 7903   4.567   5.116   4.206
 2335SOL    HW1 7904   4.536   5.202   4.247
 2335SOL    HW2 7905   4.488   5.057   4.188
 2336SOL     OW 7906   4.509   2.363   5.580
 2336SOL    HW1 7907   4.512   2.265   5.599
 2336SOL    HW2 7908   4.453   2.409   5.650
 2337SOL     OW 7909   5.953   0.579   4.165
 2337SOL    HW1 7910   6.049   0.592   4.193
 2337SOL    HW2 7911   5.949   0.554   4.068
 2338SOL     OW 7912   1.677   0.241   6.551
 2338SOL    HW1 7913   1.721   0.253   6.462
 2338SOL    HW2 7914   1.680   0.326   6.603
 2339SOL     OW 7915   4.672   4.343   6.405
 2339SOL    HW1 7916   4.725   4.413   6.452
 2339SOL    HW2 7917   4.734   4.280   6.359
 2340SOL     OW 7918   3.867   5.394   3.456
 2340SOL    HW1 7919   3.877   5.343   3.541
 2340SOL    HW2 7920   3.945   5.455   3.445
 2341SOL     OW 7921   6.008   4.954   6.041
 2341SOL    HW1 7922   5.927   4.896   6.036
 2341SOL    HW2 7923   6.074   4.914   6.105
 2342SOL     OW 7924   6.411   0.172   5.421
 2342SOL    HW1 7925   6.454   0.244   5.476
 2342SOL    HW2 7926   6.331   0.210   5.374
 2343SOL     OW 7927   1.176   0.022   0.554
 2343SOL    HW1 7928   1.254   0.033   0.492
 2343SOL    HW2 7929   1.092   0.043   0.505
 2344SOL     OW 7930   2.220   1.348   3.175
 2344SOL    HW1 7931   2.191   1.274   3.236
 2344SOL    HW2 7932   2.302   1.319   3.125
 2345SOL     OW 7933   1.140   1.560   3.342
 2345SOL    HW1 7934   1.138   1.615   3.425
 2345SOL    HW2 7935   1.226   1.575   3.293
 2346SOL     OW 7936   5.302   3.379   5.716
 2346SOL    HW1 7937   5.262   3.375   5.808
 2346SOL    HW2 7938   5.242   3.331   5.652
 2347SOL     OW 7939   1.286   3.935   1.138
 2347SOL    HW1 7940   1.214   3.887   1.087
 2347SOL    HW2 7941   1.251   3.958   1.229
 2348SOL     OW 7942   2.632   5.657   1.975
 2348SOL    HW1 7943   2.663   5.752   1.987
 2348SOL    HW2 7944   2.562   5.654   1.903
 2349SOL     OW 7945   4.408   4.614   5.982
 2349SOL    HW1 7946   4.345   4.601   6.059
 2349SOL    HW2 7947   4.491   4.560   5.998
 2350SOL     OW 7948   1.864   5.814   5.590
 2350SOL    HW1 7949   1.946   5.811   5.534
 2350SOL    HW2 7950   1.878   5.762   5.674
 2351SOL     OW 7951   2.608   5.469   3.170
 2351SOL    HW1 7952   2.643   5.435   3.082
 2351SOL    HW2 7953   2.519   5.510   3.156
 2352SOL     OW 7954   5.993   4.075   1.844
 2352SOL    HW1 7955   6.035   4.166   1.846
 2352SOL    HW2 7956   5.942   4.064   1.759
 2353SOL     OW 7957   2.916   3.695   6.362
 2353SOL    HW1 7958   2.851   3.693   6.286
 2353SOL    HW2 7959   2.951   3.788   6.374
 2354SOL     OW 7960   3.832   2.607   1.610
 2354SOL    HW1 7961   3.750   2.627   1.663
 2354SOL    HW2 7962   3.843   2.508   1.602
 2355SOL     OW 7963   6.881   1.030   1.332
 2355SOL    HW1 7964   6.783   1.036   1.353
 2355SOL    HW2 7965   6.926   1.113   1.364
 2356SOL     OW 7966   2.790   5.104   3.556
 2356SOL    HW1 7967   2.852   5.026   3.557
 2356SOL    HW2 7968   2.797   5.151   3.468
 2357SOL     OW 7969   6.620   4.276   0.905
 2357SOL    HW1 7970   6.621   4.184   0.945
 2357SOL    HW2 7971   6.612   4.343   0.979
 2358SOL     OW 7972   3.739   2.103   5.528
 2358SOL    HW1 7973   3.800   2.062   5.461
 2358SOL    HW2 7974   3.691   2.180   5.486
 2359SOL     OW 7975   1.823   1.841   5.900
 2359SOL    HW1 7976   1.830   1.743   5.883
 2359SOL    HW2 7977   1.856   1.892   5.820
 2360SOL     OW 7978   3.535   4.950   6.928
 2360SOL    HW1 7979   3.467   5.012   6.888
 2360SOL    HW2 7980   3.627   4.981   6.904
 2361SOL     OW 7981   4.015   5.604   1.810
 2361SOL    HW1 7982   4.028   5.631   1.905
 2361SOL    HW2 7983   4.095   5.554   1.777
 2362SOL     OW 7984   3.877   5.234   3.650
 2362SOL    HW1 7985   3.857   5.138   3.630
 2362SOL    HW2 7986   3.848   5.255   3.743
 2363SOL     OW 7987   1.807   3.926   0.404
 2363SOL    HW1 7988   1.830   3.836   0.366
 2363SOL    HW2 7989   1.736   3.915   0.474
 2364SOL     OW 7990   3.555   1.114   3.021
 2364SOL    HW1 7991   3.511   1.024   3.031
 2364SOL    HW2 7992   3.485   1.183   3.004
 2365SOL     OW 7993   4.954   4.313   3.393
 2365SOL    HW1 7994   5.045   4.288   3.361
 2365SOL    HW2 7995   4.886   4.280   3.328
 2366SOL     OW 7996   2.753   4.832   5.231
 2366SOL    HW1 7997   2.765   4.908   5.167
 2366SOL    HW2 7998   2.796   4.750   5.195
 2367SOL     OW 7999   5.733   5.483   5.995
 2367SOL    HW1 8000   5.693   5.402   6.038
 2367SOL    HW2 8001   5.682   5.565   6.024
 2368SOL     OW 8002   6.169   7.018   4.553
 2368SOL    HW1 8003   6.096   7.007   4.486
 2368SOL    HW2 8004   6.185   0.091   4.569
 2369SOL     OW 8005   3.296   2.184   4.387
 2369SOL    HW1 8006   3.346   2.104   4.423
 2369SOL    HW2 8007   3.236   2.220   4.459
 2370SOL     OW 8008   5.807   2.570   1.903
 2370SOL    HW1 8009   5.880   2.503   1.895
 2370SOL    HW2 8010   5.845   2.662   1.903
 2371SOL     OW 8011   0.772   6.157   2.777
 2371SOL    HW1 8012   0.832   6.081   2.802
 2371SOL    HW2 8013   0.816   6.211   2.705
 2372SOL     OW 8014   6.321   6.312   6.765
 2372SOL    HW1 8015   6.380   6.388   6.794
 2372SOL    HW2 8016   6.262   6.342   6.690
 2373SOL     OW 8017   6.518   5.118   6.039
 2373SOL    HW1 8018   6.475   5.145   5.953
 2373SOL    HW2 8019   6.464   5.152   6.115
 2374SOL     OW 8020   6.082   6.423   2.472
 2374SOL    HW1 8021   6.140   6.369   2.533
 2374SOL    HW2 8022   5.990   6.429   2.510
 2375SOL     OW 8023   1.516   0.692   4.389
 2375SOL    HW1 8024   1.453   0.765   4.366
 2375SOL    HW2 8025   1.549   0.704   4.482
 2376SOL     OW 8026   5.422   1.811   2.737
 2376SOL    HW1 8027   5.322   1.807   2.738
 2376SOL    HW2 8028   5.460   1.720   2.755
 2377SOL     OW 8029   4.784   4.021   5.868
 2377SOL    HW1 8030   4.769   3.986   5.776
 2377SOL    HW2 8031   4.876   4.062   5.874
 2378SOL     OW 8032   0.021   1.174   0.096
 2378SOL    HW1 8033   0.015   1.082   0.057
 2378SOL    HW2 8034   6.996   1.238   0.037
 2379SOL     OW 8035   6.381   5.235   2.120
 2379SOL    HW1 8036   6.283   5.217   2.110
 2379SOL    HW2 8037   6.405   5.239   2.217
 2380SOL     OW 8038   4.878   5.742   5.848
 2380SOL    HW1 8039   4.831   5.653   5.849
 2380SOL    HW2 8040   4.822   5.808   5.798
 2381SOL     OW 8041   2.143   4.460   4.665
 2381SOL    HW1 8042   2.113   4.451   4.570
 2381SOL    HW2 8043   2.173   4.554   4.681
 2382SOL     OW 8044   6.935   5.639   2.555
 2382SOL    HW1 8045   6.988   5.592   2.627
 2382SOL    HW2 8046   6.918   5.576   2.480
 2383SOL     OW 8047   4.903   4.673   5.966
 2383SOL    HW1 8048   4.921   4.748   5.902
 2383SOL    HW2 8049   4.986   4.654   6.018
 2384SOL     OW 8050   7.018   1.725   3.082
 2384SOL    HW1 8051   6.990   1.631   3.064
 2384SOL    HW2 8052   6.958   1.765   3.151
 2385SOL     OW 8053   0.592   1.260   0.680
 2385SOL    HW1 8054   0.689   1.284   0.674
 2385SOL    HW2 8055   0.545   1.291   0.598
 2386SOL     OW 8056   6.133   6.088   4.487
 2386SOL    HW1 8057   6.090   6.038   4.411
 2386SOL    HW2 8058   6.199   6.029   4.532
 2387SOL     OW 8059   0.799   1.382   3.746
 2387SOL    HW1 8060   0.808   1.322   3.667
 2387SOL    HW2 8061   0.810   1.477   3.716
 2388SOL     OW 8062   0.416   2.703   5.339
 2388SOL    HW1 8063   0.483   2.691   5.413
 2388SOL    HW2 8064   0.392   2.613   5.302
 2389SOL     OW 8065   4.093   4.895   3.602
 2389SOL    HW1 8066   4.155   4.962   3.562
 2389SOL    HW2 8067   4.145   4.814   3.631
 2390SOL     OW 8068   5.068   3.001   6.153
 2390SOL    HW1 8069   5.130   2.979   6.077
 2390SOL    HW2 8070   5.119   3.050   6.224
 2391SOL     OW 8071   3.243   3.956   5.745
 2391SOL    HW1 8072   3.212   3.888   5.811
 2391SOL    HW2 8073   3.168   3.983   5.685
 2392SOL     OW 8074   4.516   4.196   5.602
 2392SOL    HW1 8075   4.433   4.147   5.579
 2392SOL    HW2 8076   4.593   4.161   5.549
 2393SOL     OW 8077   4.252   4.446   1.320
 2393SOL    HW1 8078   4.308   4.496   1.386
 2393SOL    HW2 8079   4.244   4.351   1.349
 2394SOL     OW 8080   0.581   1.922   3.801
 2394SOL    HW1 8081   0.504   1.864   3.772
 2394SOL    HW2 8082   0.576   1.938   3.899
 2395SOL     OW 8083   1.058   2.419   4.341
 2395SOL    HW1 8084   1.121   2.432   4.264
 2395SOL    HW2 8085   1.075   2.330   4.383
 2396SOL     OW 8086   0.602   0.522   5.816
 2396SOL    HW1 8087   0.689   0.497   5.774
 2396SOL    HW2 8088   0.618   0.580   5.895
 2397SOL     OW 8089   0.015   3.794   4.952
 2397SOL    HW1 8090   6.973   3.720   4.949
 2397SOL    HW2 8091   0.106   3.758   4.932
 2398SOL     OW 8092   3.652   6.487   4.210
 2398SOL    HW1 8093   3.563   6.455   4.178
 2398SOL    HW2 8094   3.661   6.585   4.193
 2399SOL     OW 8095   3.254   2.123   3.415
 2399SOL    HW1 8096   3.343   2.132   3.459
 2399SOL    HW2 8097   3.266   2.118   3.315
 2400SOL     OW 8098   1.659   4.312   0.515
 2400SOL    HW1 8099   1.562   4.310   0.491
 2400SOL    HW2 8100   1.709   4.251   0.454
 2401SOL     OW 8101   1.762   0.222   6.310
 2401SOL    HW1 8102   1.783   0.305   6.259
 2401SOL    HW2 8103   1.846   0.184   6.349
 2402SOL     OW 8104   1.282   4.101   1.908
 2402SOL    HW1 8105   1.206   4.070   1.964
 2402SOL    HW2 8106   1.319   4.186   1.945
 2403SOL     OW 8107   4.056   3.583   4.047
 2403SOL    HW1 8108   4.068   3.588   4.146
 2403SOL    HW2 8109   4.026   3.491   4.022
 2404SOL     OW 8110   6.062   0.939   1.043
 2404SOL    HW1 8111   6.035   1.016   0.984
 2404SOL    HW2 8112   6.159   0.946   1.063
 2405SOL     OW 8113   2.002   3.162   0.699
 2405SOL    HW1 8114   2.096   3.133   0.717
 2405SOL    HW2 8115   1.942   3.124   0.769
 2406SOL     OW 8116   2.750   6.107   4.437
 2406SOL    HW1 8117   2.741   6.117   4.338
 2406SOL    HW2 8118   2.720   6.191   4.482
 2407SOL     OW 8119   2.456   1.160   3.337
 2407SOL    HW1 8120   2.449   1.173   3.238
 2407SOL    HW2 8121   2.498   1.072   3.356
 2408SOL     OW 8122   3.418   6.209   5.575
 2408SOL    HW1 8123   3.410   6.252   5.665
 2408SOL    HW2 8124   3.510   6.224   5.539
 2409SOL     OW 8125   1.392   3.508   0.220
 2409SOL    HW1 8126   1.403   3.409   0.210
 2409SOL    HW2 8127   1.340   3.527   0.303
 2410SOL     OW 8128   0.606   2.751   4.431
 2410SOL    HW1 8129   0.659   2.667   4.416
 2410SOL    HW2 8130   0.516   2.727   4.467
 2411SOL     OW 8131   3.380   2.328   0.354
 2411SOL    HW1 8132   3.315   2.267   0.310
 2411SOL    HW2 8133   3.459   2.342   0.294
 2412SOL     OW 8134   3.451   1.895   6.085
 2412SOL    HW1 8135   3.487   1.968   6.027
 2412SOL    HW2 8136   3.366   1.926   6.128
 2413SOL     OW 8137   0.262   3.588   0.257
 2413SOL    HW1 8138   0.315   3.513   0.296
 2413SOL    HW2 8139   0.212   3.556   0.177
 2414SOL     OW 8140   6.118   1.939   4.845
 2414SOL    HW1 8141   6.148   1.872   4.913
 2414SOL    HW2 8142   6.113   2.029   4.887
 2415SOL     OW 8143   2.734   5.207   6.540
 2415SOL    HW1 8144   2.826   5.174   6.564
 2415SOL    HW2 8145   2.709   5.283   6.599
 2416SOL     OW 8146   0.110   3.340   2.289
 2416SOL    HW1 8147   0.120   3.341   2.389
 2416SOL    HW2 8148   0.074   3.252   2.260
 2417SOL     OW 8149   3.042   2.686   1.799
 2417SOL    HW1 8150   3.069   2.749   1.871
 2417SOL    HW2 8151   2.979   2.618   1.836
 2418SOL     OW 8152   5.005   3.990   6.850
 2418SOL    HW1 8153   5.091   3.962   6.891
 2418SOL    HW2 8154   4.956   4.050   6.914
 2419SOL     OW 8155   2.966   0.366   3.454
 2419SOL    HW1 8156   2.900   0.358   3.379
 2419SOL    HW2 8157   3.058   0.351   3.420
 2420SOL     OW 8158   1.631   4.100   2.778
 2420SOL    HW1 8159   1.691   4.103   2.698
 2420SOL    HW2 8160   1.636   4.009   2.819
 2421SOL     OW 8161   3.190   6.767   3.412
 2421SOL    HW1 8162   3.152   6.780   3.504
 2421SOL    HW2 8163   3.241   6.849   3.386
 2422SOL     OW 8164   4.220   5.514   0.906
 2422SOL    HW1 8165   4.268   5.431   0.937
 2422SOL    HW2 8166   4.287   5.586   0.887
 2423SOL     OW 8167   2.429   5.833   2.720
 2423SOL    HW1 8168   2.348   5.787   2.756
 2423SOL    HW2 8169   2.450   5.798   2.629
 2424SOL     OW 8170   5.447   6.950   6.222
 2424SOL    HW1 8171   5.482   6.979   6.311
 2424SOL    HW2 8172   5.361   6.900   6.234
 2425SOL     OW 8173   5.196   5.548   4.830
 2425SOL    HW1 8174   5.161   5.641   4.840
 2425SOL    HW2 8175   5.161   5.491   4.904
 2426SOL     OW 8176   2.112   3.108   5.561
 2426SOL    HW1 8177   2.092   3.040   5.632
 2426SOL    HW2 8178   2.139   3.062   5.477
 2427SOL     OW 8179   5.851   0.611   0.394
 2427SOL    HW1 8180   5.883   0.696   0.352
 2427SOL    HW2 8181   5.842   0.624   0.493
 2428SOL     OW 8182   0.816   0.871   3.187
 2428SOL    HW1 8183   0.837   0.841   3.280
 2428SOL    HW2 8184   0.848   0.966   3.175
 2429SOL     OW 8185   5.520   4.769   1.358
 2429SOL    HW1 8186   5.517   4.829   1.438
 2429SOL    HW2 8187   5.518   4.673   1.388
 2430SOL     OW 8188   6.126   0.963   6.616
 2430SOL    HW1 8189   6.194   1.036   6.619
 2430SOL    HW2 8190   6.034   1.002   6.607
 2431SOL     OW 8191   0.593   3.244   1.906
 2431SOL    HW1 8192   0.570   3.331   1.861
 2431SOL    HW2 8193   0.601   3.259   2.005
 2432SOL     OW 8194   2.692   5.337   1.868
 2432SOL    HW1 8195   2.598   5.365   1.889
 2432SOL    HW2 8196   2.745   5.416   1.838
 2433SOL     OW 8197   7.017   4.126   5.298
 2433SOL    HW1 8198   0.070   4.069   5.272
 2433SOL    HW2 8199   6.935   4.070   5.305
 2434SOL     OW 8200   4.321   0.748   2.430
 2434SOL    HW1 8201   4.273   0.668   2.396
 2434SOL    HW2 8202   4.256   0.813   2.470
 2435SOL     OW 8203   6.273   6.863   6.873
 2435SOL    HW1 8204   6.292   6.941   6.813
 2435SOL    HW2 8205   6.178   6.836   6.862
 2436SOL     OW 8206   1.267   1.918   1.535
 2436SOL    HW1 8207   1.250   2.007   1.577
 2436SOL    HW2 8208   1.180   1.877   1.510
 2437SOL     OW 8209   6.927   4.102   3.028
 2437SOL    HW1 8210   7.023   4.119   3.048
 2437SOL    HW2 8211   6.918   4.013   2.984
 2438SOL     OW 8212   3.204   1.272   4.689
 2438SOL    HW1 8213   3.153   1.299   4.771
 2438SOL    HW2 8214   3.270   1.201   4.713
 2439SOL     OW 8215   1.511   6.054   1.502
 2439SOL    HW1 8216   1.562   6.114   1.563
 2439SOL    HW2 8217   1.447   6.108   1.448
 2440SOL     OW 8218   5.536   1.135   5.352
 2440SOL    HW1 8219   5.471   1.112   5.279
 2440SOL    HW2 8220   5.491   1.194   5.418
 2441SOL     OW 8221   6.304   0.253   0.412
 2441SOL    HW1 8222   6.310   0.171   0.355
 2441SOL    HW2 8223   6.212   0.260   0.450
 2442SOL     OW 8224   5.144   2.809   1.091
 2442SOL    HW1 8225   5.144   2.782   1.187
 2442SOL    HW2 8226   5.057   2.784   1.049
 2443SOL     OW 8227   1.154   2.906   2.006
 2443SOL    HW1 8228   1.172   2.908   1.908
 2443SOL    HW2 8229   1.190   2.988   2.049
 2444SOL     OW 8230   3.222   5.829   2.252
 2444SOL    HW1 8231   3.158   5.753   2.257
 2444SOL    HW2 8232   3.188   5.897   2.187
 2445SOL     OW 8233   0.577   2.925   1.532
 2445SOL    HW1 8234   0.633   2.862   1.585
 2445SOL    HW2 8235   0.543   2.879   1.450
 2446SOL     OW 8236   1.250   5.434   1.603
 2446SOL    HW1 8237   1.164   5.420   1.652
 2446SOL    HW2 8238   1.267   5.355   1.543
 2447SOL     OW 8239   2.549   6.913   0.206
 2447SOL    HW1 8240   2.555   6.982   0.133
 2447SOL    HW2 8241   2.611   6.939   0.281
 2448SOL     OW 8242   5.768   1.312   4.537
 2448SOL    HW1 8243   5.673   1.283   4.546
 2448SOL    HW2 8244   5.802   1.287   4.447
 2449SOL     OW 8245   1.635   4.257   1.645
 2449SOL    HW1 8246   1.643   4.159   1.662
 2449SOL    HW2 8247   1.715   4.303   1.683
 2450SOL     OW 8248   1.478   6.717   5.827
 2450SOL    HW1 8249   1.451   6.644   5.890
 2450SOL    HW2 8250   1.468   6.805   5.873
 2451SOL     OW 8251   0.539   6.154   4.832
 2451SOL    HW1 8252   0.611   6.114   4.774
 2451SOL    HW2 8253   0.450   6.116   4.804
 2452SOL     OW 8254   2.009   2.303   3.548
 2452SOL    HW1 8255   2.010   2.205   3.565
 2452SOL    HW2 8256   1.940   2.324   3.479
 2453SOL     OW 8257   0.339   0.806   6.052
 2453SOL    HW1 8258   0.337   0.840   6.146
 2453SOL    HW2 8259   0.433   0.788   6.025
 2454SOL     OW 8260   3.520   5.686   1.434
 2454SOL    HW1 8261   3.596   5.750   1.425
 2454SOL    HW2 8262   3.466   5.685   1.350
 2455SOL     OW 8263   4.205   2.612   0.680
 2455SOL    HW1 8264   4.160   2.548   0.619
 2455SOL    HW2 8265   4.193   2.583   0.775
 2456SOL     OW 8266   0.917   4.234   6.603
 2456SOL    HW1 8267   0.820   4.222   6.583
 2456SOL    HW2 8268   0.928   4.302   6.675
 2457SOL     OW 8269   4.703   2.160   4.918
 2457SOL    HW1 8270   4.800   2.171   4.900
 2457SOL    HW2 8271   4.651   2.177   4.834
 2458SOL     OW 8272   0.705   0.680   2.129
 2458SOL    HW1 8273   0.609   0.698   2.111
 2458SOL    HW2 8274   0.714   0.624   2.212
 2459SOL     OW 8275   2.773   0.174   0.384
 2459SOL    HW1 8276   2.848   0.140   0.441
 2459SOL    HW2 8277   2.809   0.198   0.294
 2460SOL     OW 8278   1.179   1.193   4.880
 2460SOL    HW1 8279   1.139   1.222   4.968
 2460SOL    HW2 8280   1.162   1.095   4.867
 2461SOL     OW 8281   4.543   6.894   3.716
 2461SOL    HW1 8282   4.615   6.953   3.681
 2461SOL    HW2 8283   4.458   6.910   3.665
 2462SOL     OW 8284   0.180   4.063   0.350
 2462SOL    HW1 8285   0.106   4.038   0.412
 2462SOL    HW2 8286   0.259   4.096   0.402
 2463SOL     OW 8287   0.082   0.697   6.988
 2463SOL    HW1 8288   0.154   0.762   6.964
 2463SOL    HW2 8289   0.123   0.616   0.005
 2464SOL     OW 8290   0.749   3.002   3.383
 2464SOL    HW1 8291   0.829   3.017   3.325
 2464SOL    HW2 8292   0.667   3.032   3.334
 2465SOL     OW 8293   6.961   6.341   5.790
 2465SOL    HW1 8294   6.889   6.409   5.776
 2465SOL    HW2 8295   0.003   6.376   5.856
 2466SOL     OW 8296   0.524   2.501   1.972
 2466SOL    HW1 8297   0.535   2.547   2.060
 2466SOL    HW2 8298   0.443   2.538   1.926
 2467SOL     OW 8299   5.665   2.005   5.175
 2467SOL    HW1 8300   5.672   2.016   5.274
 2467SOL    HW2 8301   5.568   2.007   5.149
 2468SOL     OW 8302   3.278   6.472   5.358
 2468SOL    HW1 8303   3.368   6.435   5.337
 2468SOL    HW2 8304   3.286   6.538   5.433
 2469SOL     OW 8305   3.633   2.111   5.979
 2469SOL    HW1 8306   3.582   2.191   5.947
 2469SOL    HW2 8307   3.726   2.113   5.942
 2470SOL     OW 8308   2.847   4.364   6.018
 2470SOL    HW1 8309   2.854   4.426   5.940
 2470SOL    HW2 8310   2.921   4.297   6.014
 2471SOL     OW 8311   3.109   6.022   2.086
 2471SOL    HW1 8312   3.029   5.973   2.054
 2471SOL    HW2 8313   3.143   6.083   2.014
 2472SOL     OW 8314   4.215   1.604   3.635
 2472SOL    HW1 8315   4.154   1.648   3.701
 2472SOL    HW2 8316   4.207   1.652   3.547
 2473SOL     OW 8317   0.648   3.984   4.968
 2473SOL    HW1 8318   0.680   3.892   4.949
 2473SOL    HW2 8319   0.726   4.047   4.969
 2474SOL     OW 8320   1.495   5.769   1.755
 2474SOL    HW1 8321   1.583   5.746   1.715
 2474SOL    HW2 8322   1.422   5.725   1.703
 2475SOL     OW 8323   4.732   0.972   0.638
 2475SOL    HW1 8324   4.678   0.966   0.722
 2475SOL    HW2 8325   4.708   1.055   0.589
 2476SOL     OW 8326   5.336   0.591   6.994
 2476SOL    HW1 8327   5.414   0.529   6.993
 2476SOL    HW2 8328   5.336   0.648   6.912
 2477SOL     OW 8329   3.876   0.180   3.592
 2477SOL    HW1 8330   3.954   0.189   3.653
 2477SOL    HW2 8331   3.815   0.108   3.625
 2478SOL     OW 8332   4.473   0.043   3.987
 2478SOL    HW1 8333   4.529   0.000   3.917
 2478SOL    HW2 8334   4.379   0.009   3.981
 2479SOL     OW 8335   6.956   3.605   6.543
 2479SOL    HW1 8336   6.978   3.533   6.477
 2479SOL    HW2 8337   0.006   3.615   6.608
 2480SOL     OW 8338   3.385   2.755   1.849
 2480SOL    HW1 8339   3.304   2.779   1.903
 2480SOL    HW2 8340   3.356   2.732   1.756
 2481SOL     OW 8341   3.306   0.049   0.913
 2481SOL    HW1 8342   3.387   0.041   0.970
 2481SOL    HW2 8343   3.266   6.983   0.899
 2482SOL     OW 8344   6.012   3.260   6.560
 2482SOL    HW1 8345   6.062   3.233   6.478
 2482SOL    HW2 8346   5.940   3.325   6.534
 2483SOL     OW 8347   0.892   2.636   0.950
 2483SOL    HW1 8348   0.928   2.565   0.888
 2483SOL    HW2 8349   0.968   2.683   0.994
 2484SOL     OW 8350   4.918   1.389   1.195
 2484SOL    HW1 8351   4.863   1.436   1.126
 2484SOL    HW2 8352   4.862   1.370   1.275
 2485SOL     OW 8353   6.126   2.249   5.867
 2485SOL    HW1 8354   6.066   2.240   5.788
 2485SOL    HW2 8355   6.097   2.184   5.938
 2486SOL     OW 8356   0.292   4.041   5.333
 2486SOL    HW1 8357   0.261   3.987   5.255
 2486SOL    HW2 8358   0.380   4.084   5.311
 2487SOL     OW 8359   4.434   5.783   0.163
 2487SOL    HW1 8360   4.466   5.698   0.121
 2487SOL    HW2 8361   4.398   5.763   0.254
 2488SOL     OW 8362   6.524   3.827   1.572
 2488SOL    HW1 8363   6.598   3.767   1.544
 2488SOL    HW2 8364   6.550   3.923   1.556
 2489SOL     OW 8365   0.345   6.511   4.361
 2489SOL    HW1 8366   0.279   6.508   4.286
 2489SOL    HW2 8367   0.418   6.576   4.339
 2490SOL     OW 8368   2.819   6.290   2.473
 2490SOL    HW1 8369   2.788   6.385   2.472
 2490SOL    HW2 8370   2.898   6.280   2.413
 2491SOL     OW 8371   3.725   4.872   1.540
 2491SOL    HW1 8372   3.669   4.829   1.469
 2491SOL    HW2 8373   3.818   4.887   1.505
 2492SOL     OW 8374   6.716   4.509   1.036
 2492SOL    HW1 8375   6.737   4.576   1.107
 2492SOL    HW2 8376   6.649   4.548   0.973
 2493SOL     OW 8377   6.498   6.680   1.636
 2493SOL    HW1 8378   6.461   6.616   1.703
 2493SOL    HW2 8379   6.537   6.629   1.559
 2494SOL     OW 8380   5.975   3.544   1.839
 2494SOL    HW1 8381   6.013   3.503   1.756
 2494SOL    HW2 8382   6.045   3.602   1.882
 2495SOL     OW 8383   6.497   5.100   4.052
 2495SOL    HW1 8384   6.486   5.001   4.038
 2495SOL    HW2 8385   6.438   5.149   3.987
 2496SOL     OW 8386   6.230   5.105   6.395
 2496SOL    HW1 8387   6.306   5.151   6.348
 2496SOL    HW2 8388   6.200   5.162   6.472
 2497SOL     OW 8389   0.182   0.142   2.069
 2497SOL    HW1 8390   0.170   0.117   2.166
 2497SOL    HW2 8391   0.105   0.107   2.016
 2498SOL     OW 8392   2.159   3.260   5.946
 2498SOL    HW1 8393   2.218   3.180   5.938
 2498SOL    HW2 8394   2.215   3.340   5.966
 2499SOL     OW 8395   6.858   3.334   1.543
 2499SOL    HW1 8396   6.937   3.392   1.524
 2499SOL    HW2 8397   6.881   3.239   1.524
 2500SOL     OW 8398   3.611   4.253   6.992
 2500SOL    HW1 8399   3.666   4.323   6.947
 2500SOL    HW2 8400   3.665   4.170   7.003
 2501SOL     OW 8401   6.211   5.891   0.424
 2501SOL    HW1 8402   6.215   5.795   0.395
 2501SOL    HW2 8403   6.148   5.899   0.502
 2502SOL     OW 8404   2.898   5.717   4.595
 2502SOL    HW1 8405   2.817   5.689   4.647
 2502SOL    HW2 8406   2.906   5.817   4.598
 2503SOL     OW 8407   2.311   6.545   5.833
 2503SOL    HW1 8408   2.243   6.508   5.770
 2503SOL    HW2 8409   2.397   6.496   5.822
 2504SOL     OW 8410   3.213   5.684   2.545
 2504SOL    HW1 8411   3.176   5.689   2.452
 2504SOL    HW2 8412   3.172   5.756   2.600
 2505SOL     OW 8413   6.974   5.812   2.880
 2505SOL    HW1 8414   6.921   5.760   2.946
 2505SOL    HW2 8415   6.916   5.883   2.838
 2506SOL     OW 8416   5.180   5.519   5.590
 2506SOL    HW1 8417   5.258   5.493   5.647
 2506SOL    HW2 8418   5.166   5.449   5.520
 2507SOL     OW 8419   0.152   3.500   0.528
 2507SOL    HW1 8420   0.115   3.552   0.605
 2507SOL    HW2 8421   0.091   3.507   0.450
 2508SOL     OW 8422   3.878   1.712   3.522
 2508SOL    HW1 8423   3.861   1.725   3.620
 2508SOL    HW2 8424   3.950   1.775   3.493
 2509SOL     OW 8425   0.168   3.641   5.707
 2509SOL    HW1 8426   0.145   3.593   5.623
 2509SOL    HW2 8427   0.087   3.645   5.766
 2510SOL     OW 8428   3.143   4.092   1.896
 2510SOL    HW1 8429   3.200   4.069   1.817
 2510SOL    HW2 8430   3.074   4.160   1.869
 2511SOL     OW 8431   2.586   0.973   5.275
 2511SOL    HW1 8432   2.629   1.032   5.207
 2511SOL    HW2 8433   2.657   0.924   5.326
 2512SOL     OW 8434   3.750   4.982   4.764
 2512SOL    HW1 8435   3.662   4.975   4.812
 2512SOL    HW2 8436   3.823   4.949   4.824
 2513SOL     OW 8437   2.396   6.135   6.357
 2513SOL    HW1 8438   2.453   6.190   6.418
 2513SOL    HW2 8439   2.399   6.039   6.386
 2514SOL     OW 8440   1.231   3.115   3.263
 2514SOL    HW1 8441   1.240   3.199   3.317
 2514SOL    HW2 8442   1.301   3.113   3.192
 2515SOL     OW 8443   1.744   1.414   1.374
 2515SOL    HW1 8444   1.837   1.383   1.354
 2515SOL    HW2 8445   1.713   1.372   1.460
 2516SOL     OW 8446   5.487   1.695   3.402
 2516SOL    HW1 8447   5.551   1.701   3.479
 2516SOL    HW2 8448   5.538   1.696   3.316
 2517SOL     OW 8449   1.127   1.128   4.389
 2517SOL    HW1 8450   1.153   1.180   4.471
 2517SOL    HW2 8451   1.033   1.151   4.363
 2518SOL     OW 8452   2.734   4.713   1.168
 2518SOL    HW1 8453   2.767   4.719   1.262
 2518SOL    HW2 8454   2.672   4.635   1.159
 2519SOL     OW 8455   1.676   1.377   0.630
 2519SOL    HW1 8456   1.772   1.405   0.627
 2519SOL    HW2 8457   1.627   1.436   0.694
 2520SOL     OW 8458   3.656   2.536   1.348
 2520SOL    HW1 8459   3.603   2.453   1.329
 2520SOL    HW2 8460   3.617   2.584   1.427
 2521SOL     OW 8461   4.530   1.482   5.155
 2521SOL    HW1 8462   4.509   1.578   5.176
 2521SOL    HW2 8463   4.619   1.476   5.110
 2522SOL     OW 8464   0.534   1.655   5.488
 2522SOL    HW1 8465   0.478   1.716   5.432
 2522SOL    HW2 8466   0.501   1.655   5.582
 2523SOL     OW 8467   1.665   4.813   0.203
 2523SOL    HW1 8468   1.717   4.888   0.162
 2523SOL    HW2 8469   1.567   4.827   0.186
 2524SOL     OW 8470   1.575   6.855   3.792
 2524SOL    HW1 8471   1.641   6.923   3.826
 2524SOL    HW2 8472   1.483   6.895   3.792
 2525SOL     OW 8473   0.438   2.105   4.126
 2525SOL    HW1 8474   0.487   2.187   4.095
 2525SOL    HW2 8475   0.501   2.028   4.128
 2526SOL     OW 8476   1.174   6.267   0.382
 2526SOL    HW1 8477   1.100   6.205   0.410
 2526SOL    HW2 8478   1.262   6.228   0.408
 2527SOL     OW 8479   5.206   5.408   6.770
 2527SOL    HW1 8480   5.248   5.452   6.690
 2527SOL    HW2 8481   5.277   5.370   6.829
 2528SOL     OW 8482   4.710   4.966   6.844
 2528SOL    HW1 8483   4.682   5.032   6.914
 2528SOL    HW2 8484   4.749   4.885   6.889
 2529SOL     OW 8485   0.424   0.013   6.182
 2529SOL    HW1 8486   0.413   0.021   6.083
 2529SOL    HW2 8487   0.407   6.943   6.210
 2530SOL     OW 8488   2.540   6.044   5.461
 2530SOL    HW1 8489   2.475   6.009   5.529
 2530SOL    HW2 8490   2.550   5.977   5.387
 2531SOL     OW 8491   6.259   5.240   5.965
 2531SOL    HW1 8492   6.312   5.324   5.978
 2531SOL    HW2 8493   6.174   5.247   6.017
 2532SOL     OW 8494   0.482   6.872   0.771
 2532SOL    HW1 8495   0.575   6.884   0.736
 2532SOL    HW2 8496   0.474   6.916   0.861
 2533SOL     OW 8497   5.430   0.686   3.118
 2533SOL    HW1 8498   5.416   0.623   3.195
 2533SOL    HW2 8499   5.487   0.762   3.148
 2534SOL     OW 8500   4.722   1.909   1.927
 2534SOL    HW1 8501   4.714   1.900   1.828
 2534SOL    HW2 8502   4.777   1.834   1.963
 2535SOL     OW 8503   3.714   2.748   6.194
 2535SOL    HW1 8504   3.667   2.779   6.112
 2535SOL    HW2 8505   3.748   2.827   6.245
 2536SOL     OW 8506   1.431   0.726   6.707
 2536SOL    HW1 8507   1.489   0.793   6.663
 2536SOL    HW2 8508   1.416   0.752   6.803
 2537SOL     OW 8509   4.204   1.226   0.031
 2537SOL    HW1 8510   4.208   1.277   6.970
 2537SOL    HW2 8511   4.270   1.151   0.028
 2538SOL     OW 8512   6.757   3.573   3.702
 2538SOL    HW1 8513   6.668   3.619   3.703
 2538SOL    HW2 8514   6.780   3.544   3.795
 2539SOL     OW 8515   5.241   1.094   4.626
 2539SOL    HW1 8516   5.176   1.102   4.550
 2539SOL    HW2 8517   5.333   1.112   4.593
 2540SOL     OW 8518   3.457   1.769   2.606
 2540SOL    HW1 8519   3.473   1.780   2.508
 2540SOL    HW2 8520   3.440   1.859   2.647
 2541SOL     OW 8521   3.529   6.346   5.274
 2541SOL    HW1 8522   3.503   6.270   5.214
 2541SOL    HW2 8523   3.618   6.382   5.247
 2542SOL     OW 8524   1.153   4.899   0.015
 2542SOL    HW1 8525   1.159   4.950   6.954
 2542SOL    HW2 8526   1.239   4.908   0.066
 2543SOL     OW 8527   1.029   1.867   4.276
 2543SOL    HW1 8528   1.125   1.892   4.262
 2543SOL    HW2 8529   0.981   1.865   4.189
 2544SOL     OW 8530   0.901   5.321   0.563
 2544SOL    HW1 8531   0.963   5.259   0.515
 2544SOL    HW2 8532   0.953   5.378   0.626
 2545SOL     OW 8533   2.099   6.299   3.088
 2545SOL    HW1 8534   2.144   6.216   3.121
 2545SOL    HW2 8535   2.025   6.274   3.026
 2546SOL     OW 8536   6.257   1.521   0.884
 2546SOL    HW1 8537   6.163   1.556   0.878
 2546SOL    HW2 8538   6.259   1.442   0.945
 2547SOL     OW 8539   0.197   3.941   5.090
 2547SOL    HW1 8540   0.265   3.992   5.037
 2547SOL    HW2 8541   0.144   3.883   5.028
 2548SOL     OW 8542   0.279   6.554   4.048
 2548SOL    HW1 8543   0.199   6.614   4.044
 2548SOL    HW2 8544   0.360   6.604   4.019
 2549SOL     OW 8545   0.500   0.809   1.731
 2549SOL    HW1 8546   0.552   0.810   1.646
 2549SOL    HW2 8547   0.541   0.744   1.795
 2550SOL     OW 8548   6.086   6.358   0.453
 2550SOL    HW1 8549   6.170   6.338   0.402
 2550SOL    HW2 8550   6.038   6.435   0.411
 2551SOL     OW 8551   2.108   4.035   6.876
 2551SOL    HW1 8552   2.071   4.110   6.932
 2551SOL    HW2 8553   2.182   4.071   6.818
 2552SOL     OW 8554   3.049   5.353   3.291
 2552SOL    HW1 8555   2.974   5.288   3.302
 2552SOL    HW2 8556   3.015   5.446   3.307
 2553SOL     OW 8557   4.025   3.666   6.041
 2553SOL    HW1 8558   4.028   3.757   6.084
 2553SOL    HW2 8559   4.071   3.670   5.952
 2554SOL     OW 8560   1.284   1.804   0.761
 2554SOL    HW1 8561   1.200   1.760   0.730
 2554SOL    HW2 8562   1.273   1.836   0.855
 2555SOL     OW 8563   5.299   2.566   5.419
 2555SOL    HW1 8564   5.388   2.528   5.443
 2555SOL    HW2 8565   5.252   2.595   5.502
 2556SOL     OW 8566   3.555   5.685   1.076
 2556SOL    HW1 8567   3.486   5.680   1.004
 2556SOL    HW2 8568   3.638   5.637   1.046
 2557SOL     OW 8569   2.057   4.008   6.237
 2557SOL    HW1 8570   1.979   4.051   6.282
 2557SOL    HW2 8571   2.124   4.077   6.212
 2558SOL     OW 8572   4.711   1.225   5.492
 2558SOL    HW1 8573   4.717   1.215   5.392
 2558SOL    HW2 8574   4.659   1.308   5.514
 2559SOL     OW 8575   0.469   4.684   5.410
 2559SOL    HW1 8576   0.487   4.606   5.350
 2559SOL    HW2 8577   0.556   4.720   5.444
 2560SOL     OW 8578   5.762   1.748   5.911
 2560SOL    HW1 8579   5.769   1.757   6.010
 2560SOL    HW2 8580   5.666   1.751   5.883
 2561SOL     OW 8581   2.615   5.605   4.657
 2561SOL    HW1 8582   2.598   5.599   4.755
 2561SOL    HW2 8583   2.549   5.668   4.616
 2562SOL     OW 8584   1.988   3.544   0.501
 2562SOL    HW1 8585   1.959   3.609   0.431
 2562SOL    HW2 8586   2.054   3.480   0.462
 2563SOL     OW 8587   2.237   1.323   0.233
 2563SOL    HW1 8588   2.165   1.356   0.293
 2563SOL    HW2 8589   2.201   1.252   0.172
 2564SOL     OW 8590   1.986   4.982   1.548
 2564SOL    HW1 8591   2.019   5.068   1.587
 2564SOL    HW2 8592   2.015   4.906   1.605
 2565SOL     OW 8593   1.382   0.558   1.625
 2565SOL    HW1 8594   1.389   0.641   1.680
 2565SOL    HW2 8595   1.435   0.485   1.669
 2566SOL     OW 8596   2.167   6.726   6.937
 2566SOL    HW1 8597   2.247   6.697   6.884
 2566SOL    HW2 8598   2.163   6.826   6.939
 2567SOL     OW 8599   1.765   6.644   0.795
 2567SOL    HW1 8600   1.754   6.557   0.747
 2567SOL    HW2 8601   1.680   6.666   0.843
 2568SOL     OW 8602   4.460   1.991   0.117
 2568SOL    HW1 8603   4.512   2.049   0.053
 2568SOL    HW2 8604   4.378   1.957   0.071
 2569SOL     OW 8605   3.408   0.286   3.854
 2569SOL    HW1 8606   3.348   0.294   3.933
 2569SOL    HW2 8607   3.448   0.376   3.834
 2570SOL     OW 8608   5.542   1.585   6.161
 2570SOL    HW1 8609   5.458   1.615   6.207
 2570SOL    HW2 8610   5.544   1.621   6.068
 2571SOL     OW 8611   1.541   5.101   3.694
 2571SOL    HW1 8612   1.488   5.165   3.749
 2571SOL    HW2 8613   1.634   5.095   3.729
 2572SOL     OW 8614   2.608   4.928   3.108
 2572SOL    HW1 8615   2.645   4.858   3.169
 2572SOL    HW2 8616   2.538   4.981   3.156
 2573SOL     OW 8617   0.438   0.830   1.261
 2573SOL    HW1 8618   0.416   0.872   1.173
 2573SOL    HW2 8619   0.536   0.838   1.279
 2574SOL     OW 8620   6.051   3.458   0.375
 2574SOL    HW1 8621   6.100   3.392   0.432
 2574SOL    HW2 8622   6.116   3.518   0.329
 2575SOL     OW 8623   6.750   5.874   0.057
 2575SOL    HW1 8624   6.740   5.953   7.022
 2575SOL    HW2 8625   6.754   5.904   0.152
 2576SOL     OW 8626   5.254   6.116   3.737
 2576SOL    HW1 8627   5.204   6.040   3.779
 2576SOL    HW2 8628   5.197   6.198   3.739
 2577SOL     OW 8629   2.760   4.680   2.206
 2577SOL    HW1 8630   2.700   4.601   2.217
 2577SOL    HW2 8631   2.834   4.657   2.143
 2578SOL     OW 8632   3.538   1.804   3.845
 2578SOL    HW1 8633   3.512   1.853   3.928
 2578SOL    HW2 8634   3.459   1.799   3.784
 2579SOL     OW 8635   0.697   6.884   3.754
 2579SOL    HW1 8636   0.775   6.825   3.774
 2579SOL    HW2 8637   0.676   6.880   3.656
 2580SOL     OW 8638   2.465   2.860   0.215
 2580SOL    HW1 8639   2.434   2.850   0.120
 2580SOL    HW2 8640   2.467   2.771   0.259
 2581SOL     OW 8641   2.752   0.284   5.527
 2581SOL    HW1 8642   2.662   0.255   5.492
 2581SOL    HW2 8643   2.823   0.223   5.492
 2582SOL     OW 8644   0.042   3.173   1.285
 2582SOL    HW1 8645   0.016   3.244   1.219
 2582SOL    HW2 8646   0.112   3.209   1.346
 2583SOL     OW 8647   6.006   6.730   1.024
 2583SOL    HW1 8648   5.944   6.794   1.070
 2583SOL    HW2 8649   5.982   6.724   0.927
 2584SOL     OW 8650   4.530   4.604   5.363
 2584SOL    HW1 8651   4.589   4.625   5.441
 2584SOL    HW2 8652   4.580   4.546   5.299
 2585SOL     OW 8653   3.202   4.757   6.573
 2585SOL    HW1 8654   3.225   4.662   6.553
 2585SOL    HW2 8655   3.237   4.781   6.664
 2586SOL     OW 8656   1.691   0.879   5.499
 2586SOL    HW1 8657   1.700   0.782   5.476
 2586SOL    HW2 8658   1.597   0.898   5.525
 2587SOL     OW 8659   6.545   1.708   3.339
 2587SOL    HW1 8660   6.494   1.634   3.384
 2587SOL    HW2 8661   6.623   1.733   3.396
 2588SOL     OW 8662   4.598   1.376   4.800
 2588SOL    HW1 8663   4.503   1.405   4.784
 2588SOL    HW2 8664   4.627   1.315   4.726
 2589SOL     OW 8665   1.642   6.929   0.291
 2589SOL    HW1 8666   1.717   6.938   0.225
 2589SOL    HW2 8667   1.575   6.863   0.256
 2590SOL     OW 8668   2.741   5.211   0.113
 2590SOL    HW1 8669   2.760   5.126   0.161
 2590SOL    HW2 8670   2.788   5.287   0.159
 2591SOL     OW 8671   5.728   5.156   4.049
 2591SOL    HW1 8672   5.636   5.118   4.060
 2591SOL    HW2 8673   5.742   5.230   4.115
 2592SOL     OW 8674   2.901   4.520   6.576
 2592SOL    HW1 8675   2.959   4.552   6.502
 2592SOL    HW2 8676   2.805   4.523   6.547
 2593SOL     OW 8677   2.820   4.569   0.706
 2593SOL    HW1 8678   2.724   4.595   0.703
 2593SOL    HW2 8679   2.828   4.474   0.735
 2594SOL     OW 8680   1.846   3.937   4.630
 2594SOL    HW1 8681   1.811   4.019   4.675
 2594SOL    HW2 8682   1.896   3.882   4.697
 2595SOL     OW 8683   1.858   0.690   3.334
 2595SOL    HW1 8684   1.855   0.748   3.416
 2595SOL    HW2 8685   1.795   0.614   3.346
 2596SOL     OW 8686   0.882   2.312   0.162
 2596SOL    HW1 8687   0.873   2.353   0.071
 2596SOL    HW2 8688   0.824   2.231   0.168
 2597SOL     OW 8689   0.268   6.036   6.449
 2597SOL    HW1 8690   0.184   6.016   6.398
 2597SOL    HW2 8691   0.251   6.021   6.547
 2598SOL     OW 8692   5.828   2.721   2.444
 2598SOL    HW1 8693   5.854   2.686   2.534
 2598SOL    HW2 8694   5.757   2.663   2.405
 2599SOL     OW 8695   2.316   6.790   2.368
 2599SOL    HW1 8696   2.362   6.715   2.319
 2599SOL    HW2 8697   2.304   6.765   2.464
 2600SOL     OW 8698   6.181   4.062   4.229
 2600SOL    HW1 8699   6.168   4.119   4.147
 2600SOL    HW2 8700   6.270   4.017   4.223
 2601SOL     OW 8701   0.586   1.981   2.914
 2601SOL    HW1 8702   0.643   2.033   2.850
 2601SOL    HW2 8703   0.499   1.958   2.871
 2602SOL     OW 8704   1.780   5.551   3.899
 2602SOL    HW1 8705   1.841   5.575   3.824
 2602SOL    HW2 8706   1.702   5.614   3.900
 2603SOL     OW 8707   3.165   0.560   2.718
 2603SOL    HW1 8708   3.127   0.492   2.780
 2603SOL    HW2 8709   3.192   0.515   2.633
 2604SOL     OW 8710   4.589   1.867   2.790
 2604SOL    HW1 8711   4.679   1.901   2.816
 2604SOL    HW2 8712   4.565   1.899   2.698
 2605SOL     OW 8713   1.258   3.811   2.097
 2605SOL    HW1 8714   1.175   3.758   2.112
 2605SOL    HW2 8715   1.281   3.810   2.000
 2606SOL     OW 8716   4.224   3.946   0.688
 2606SOL    HW1 8717   4.322   3.943   0.667
 2606SOL    HW2 8718   4.184   4.029   0.650
 2607SOL     OW 8719   2.723   2.131   1.030
 2607SOL    HW1 8720   2.789   2.061   1.003
 2607SOL    HW2 8721   2.691   2.179   0.948
 2608SOL     OW 8722   2.356   5.655   6.275
 2608SOL    HW1 8723   2.335   5.558   6.261
 2608SOL    HW2 8724   2.317   5.709   6.201
 2609SOL     OW 8725   0.076   0.658   1.092
 2609SOL    HW1 8726   0.044   0.751   1.073
 2609SOL    HW2 8727   0.135   0.627   1.018
 2610SOL     OW 8728   1.593   4.788   4.685
 2610SOL    HW1 8729   1.593   4.716   4.616
 2610SOL    HW2 8730   1.547   4.756   4.767
 2611SOL     OW 8731   5.821   6.795   6.574
 2611SOL    HW1 8732   5.729   6.756   6.564
 2611SOL    HW2 8733   5.838   6.815   6.670
 2612SOL     OW 8734   6.037   0.304   5.622
 2612SOL    HW1 8735   6.020   0.359   5.540
 2612SOL    HW2 8736   6.090   0.358   5.687
 2613SOL     OW 8737   1.211   5.584   0.034
 2613SOL    HW1 8738   1.153   5.635   6.996
 2613SOL    HW2 8739   1.303   5.623   0.034
 2614SOL     OW 8740   0.204   1.661   0.131
 2614SOL    HW1 8741   0.296   1.699   0.133
 2614SOL    HW2 8742   0.138   1.736   0.120
 2615SOL     OW 8743   1.109   2.995   0.455
 2615SOL    HW1 8744   1.105   2.983   0.356
 2615SOL    HW2 8745   1.069   3.083   0.480
 2616SOL     OW 8746   1.422   0.467   5.390
 2616SOL    HW1 8747   1.374   0.465   5.477
 2616SOL    HW2 8748   1.382   0.399   5.328
 2617SOL     OW 8749   5.230   0.148   1.080
 2617SOL    HW1 8750   5.274   0.226   1.035
 2617SOL    HW2 8751   5.186   0.179   1.164
 2618SOL     OW 8752   1.952   6.636   6.387
 2618SOL    HW1 8753   2.012   6.560   6.361
 2618SOL    HW2 8754   1.903   6.613   6.471
 2619SOL     OW 8755   4.573   1.204   2.506
 2619SOL    HW1 8756   4.488   1.252   2.526
 2619SOL    HW2 8757   4.631   1.262   2.449
 2620SOL     OW 8758   6.525   6.878   1.456
 2620SOL    HW1 8759   6.612   6.916   1.487
 2620SOL    HW2 8760   6.482   6.827   1.530
 2621SOL     OW 8761   1.932   6.201   2.202
 2621SOL    HW1 8762   1.982   6.178   2.119
 2621SOL    HW2 8763   1.863   6.270   2.182
 2622SOL     OW 8764   3.634   3.237   6.127
 2622SOL    HW1 8765   3.638   3.179   6.208
 2622SOL    HW2 8766   3.610   3.181   6.047
 2623SOL     OW 8767   0.628   6.739   3.478
 2623SOL    HW1 8768   0.723   6.712   3.489
 2623SOL    HW2 8769   0.622   6.813   3.411
 2624SOL     OW 8770   0.124   1.790   4.242
 2624SOL    HW1 8771   0.206   1.836   4.277
 2624SOL    HW2 8772   0.083   1.736   4.315
 2625SOL     OW 8773   1.539   5.324   6.006
 2625SOL    HW1 8774   1.516   5.419   6.027
 2625SOL    HW2 8775   1.497   5.298   5.919
 2626SOL     OW 8776   6.778   5.131   5.958
 2626SOL    HW1 8777   6.692   5.098   5.998
 2626SOL    HW2 8778   6.791   5.087   5.869
 2627SOL     OW 8779   1.709   6.776   5.574
 2627SOL    HW1 8780   1.620   6.808   5.543
 2627SOL    HW2 8781   1.781   6.823   5.523
 2628SOL     OW 8782   0.531   4.708   1.917
 2628SOL    HW1 8783   0.578   4.726   2.003
 2628SOL    HW2 8784   0.449   4.765   1.911
 2629SOL     OW 8785   3.137   3.508   3.303
 2629SOL    HW1 8786   3.157   3.491   3.206
 2629SOL    HW2 8787   3.071   3.441   3.336
 2630SOL     OW 8788   3.895   0.757   3.852
 2630SOL    HW1 8789   3.953   0.785   3.775
 2630SOL    HW2 8790   3.852   0.838   3.891
 2631SOL     OW 8791   6.202   0.844   0.394
 2631SOL    HW1 8792   6.280   0.790   0.425
 2631SOL    HW2 8793   6.205   0.854   0.295
 2632SOL     OW 8794   5.496   4.061   2.384
 2632SOL    HW1 8795   5.438   4.068   2.303
 2632SOL    HW2 8796   5.467   3.982   2.439
 2633SOL     OW 8797   0.221   2.989   6.067
 2633SOL    HW1 8798   0.162   2.911   6.087
 2633SOL    HW2 8799   0.218   3.009   5.969
 2634SOL     OW 8800   6.841   1.137   5.783
 2634SOL    HW1 8801   6.792   1.076   5.845
 2634SOL    HW2 8802   6.877   1.085   5.706
 2635SOL     OW 8803   5.309   5.034   3.608
 2635SOL    HW1 8804   5.369   5.061   3.683
 2635SOL    HW2 8805   5.238   4.972   3.642
 2636SOL     OW 8806   3.839   6.081   5.313
 2636SOL    HW1 8807   3.771   6.089   5.386
 2636SOL    HW2 8808   3.930   6.100   5.350
 2637SOL     OW 8809   1.031   1.953   3.335
 2637SOL    HW1 8810   0.945   1.967   3.286
 2637SOL    HW2 8811   1.103   2.008   3.293
 2638SOL     OW 8812   1.291   6.609   4.382
 2638SOL    HW1 8813   1.331   6.571   4.466
 2638SOL    HW2 8814   1.283   6.537   4.313
 2639SOL     OW 8815   4.164   4.725   5.356
 2639SOL    HW1 8816   4.072   4.729   5.318
 2639SOL    HW2 8817   4.170   4.785   5.436
 2640SOL     OW 8818   1.375   6.876   4.356
 2640SOL    HW1 8819   1.441   6.872   4.281
 2640SOL    HW2 8820   1.330   6.787   4.366
 2641SOL     OW 8821   5.798   2.786   6.608
 2641SOL    HW1 8822   5.889   2.805   6.646
 2641SOL    HW2 8823   5.802   2.795   6.508
 2642SOL     OW 8824   6.312   1.289   3.676
 2642SOL    HW1 8825   6.216   1.273   3.651
 2642SOL    HW2 8826   6.367   1.209   3.652
 2643SOL     OW 8827   2.435   4.959   3.603
 2643SOL    HW1 8828   2.528   4.930   3.625
 2643SOL    HW2 8829   2.390   4.886   3.552
 2644SOL     OW 8830   4.788   5.010   4.306
 2644SOL    HW1 8831   4.768   4.923   4.351
 2644SOL    HW2 8832   4.704   5.050   4.271
 2645SOL     OW 8833   5.246   5.502   3.118
 2645SOL    HW1 8834   5.312   5.564   3.076
 2645SOL    HW2 8835   5.262   5.409   3.084
 2646SOL     OW 8836   0.584   2.806   6.995
 2646SOL    HW1 8837   0.664   2.838   0.021
 2646SOL    HW2 8838   0.587   2.840   6.902
 2647SOL     OW 8839   4.998   0.998   1.580
 2647SOL    HW1 8840   4.976   1.095   1.564
 2647SOL    HW2 8841   4.926   0.956   1.634
 2648SOL     OW 8842   1.156   7.008   6.617
 2648SOL    HW1 8843   1.252   6.982   6.608
 2648SOL    HW2 8844   1.112   6.952   6.687
 2649SOL     OW 8845   5.066   2.157   2.261
 2649SOL    HW1 8846   5.109   2.079   2.214
 2649SOL    HW2 8847   5.109   2.242   2.231
 2650SOL     OW 8848   3.052   6.248   4.351
 2650SOL    HW1 8849   3.011   6.161   4.325
 2650SOL    HW2 8850   2.990   6.323   4.326
 2651SOL     OW 8851   3.912   2.194   4.214
 2651SOL    HW1 8852   4.001   2.240   4.214
 2651SOL    HW2 8853   3.925   2.095   4.211
 2652SOL     OW 8854   4.728   4.555   5.775
 2652SOL    HW1 8855   4.772   4.467   5.792
 2652SOL    HW2 8856   4.754   4.620   5.847
 2653SOL     OW 8857   2.588   5.823   0.186
 2653SOL    HW1 8858   2.567   5.726   0.190
 2653SOL    HW2 8859   2.505   5.875   0.169
 2654SOL     OW 8860   6.573   0.961   0.277
 2654SOL    HW1 8861   6.625   1.002   0.203
 2654SOL    HW2 8862   6.599   1.002   0.364
 2655SOL     OW 8863   4.896   6.232   2.592
 2655SOL    HW1 8864   4.938   6.144   2.615
 2655SOL    HW2 8865   4.856   6.272   2.674
 2656SOL     OW 8866   3.857   6.193   2.790
 2656SOL    HW1 8867   3.854   6.267   2.857
 2656SOL    HW2 8868   3.948   6.189   2.748
 2657SOL     OW 8869   1.133   3.997   0.755
 2657SOL    HW1 8870   1.229   3.997   0.726
 2657SOL    HW2 8871   1.086   4.075   0.714
 2658SOL     OW 8872   3.742   5.175   6.874
 2658SOL    HW1 8873   3.700   5.148   6.788
 2658SOL    HW2 8874   3.838   5.145   6.875
 2659SOL     OW 8875   0.381   2.250   4.746
 2659SOL    HW1 8876   0.308   2.210   4.802
 2659SOL    HW2 8877   0.446   2.179   4.721
 2660SOL     OW 8878   0.631   2.102   2.449
 2660SOL    HW1 8879   0.701   2.046   2.405
 2660SOL    HW2 8880   0.542   2.080   2.410
 2661SOL     OW 8881   1.953   1.100   0.826
 2661SOL    HW1 8882   2.021   1.141   0.765
 2661SOL    HW2 8883   1.971   1.002   0.836
 2662SOL     OW 8884   2.294   0.841   2.352
 2662SOL    HW1 8885   2.251   0.886   2.274
 2662SOL    HW2 8886   2.377   0.794   2.321
 2663SOL     OW 8887   4.213   6.618   0.643
 2663SOL    HW1 8888   4.158   6.580   0.718
 2663SOL    HW2 8889   4.307   6.631   0.674
 2664SOL     OW 8890   4.440   3.789   5.532
 2664SOL    HW1 8891   4.380   3.861   5.567
 2664SOL    HW2 8892   4.484   3.742   5.608
 2665SOL     OW 8893   1.623   3.757   4.621
 2665SOL    HW1 8894   1.606   3.740   4.524
 2665SOL    HW2 8895   1.693   3.827   4.631
 2666SOL     OW 8896   2.004   3.845   2.267
 2666SOL    HW1 8897   1.912   3.883   2.265
 2666SOL    HW2 8898   2.019   3.788   2.186
 2667SOL     OW 8899   6.752   3.319   4.670
 2667SOL    HW1 8900   6.731   3.416   4.667
 2667SOL    HW2 8901   6.681   3.271   4.722
 2668SOL     OW 8902   6.520   0.330   3.833
 2668SOL    HW1 8903   6.508   0.382   3.917
 2668SOL    HW2 8904   6.558   0.240   3.855
 2669SOL     OW 8905   2.603   0.400   6.761
 2669SOL    HW1 8906   2.581   0.304   6.780
 2669SOL    HW2 8907   2.702   0.409   6.747
 2670SOL     OW 8908   0.364   6.857   6.815
 2670SOL    HW1 8909   0.264   6.860   6.810
 2670SOL    HW2 8910   0.392   6.793   6.887
 2671SOL     OW 8911   5.071   4.624   6.196
 2671SOL    HW1 8912   4.993   4.660   6.246
 2671SOL    HW2 8913   5.053   4.530   6.168
 2672SOL     OW 8914   3.320   0.600   1.874
 2672SOL    HW1 8915   3.376   0.576   1.795
 2672SOL    HW2 8916   3.224   0.606   1.845
 2673SOL     OW 8917   4.237   0.184   2.491
 2673SOL    HW1 8918   4.188   0.271   2.498
 2673SOL    HW2 8919   4.269   0.156   2.581
 2674SOL     OW 8920   0.332   5.140   2.087
 2674SOL    HW1 8921   0.245   5.143   2.137
 2674SOL    HW2 8922   0.314   5.148   1.989
 2675SOL     OW 8923   5.542   0.181   4.086
 2675SOL    HW1 8924   5.590   0.268   4.097
 2675SOL    HW2 8925   5.606   0.105   4.102
 2676SOL     OW 8926   3.852   4.056   3.118
 2676SOL    HW1 8927   3.775   4.088   3.173
 2676SOL    HW2 8928   3.916   4.006   3.176
 2677SOL     OW 8929   2.520   4.833   1.413
 2677SOL    HW1 8930   2.452   4.797   1.349
 2677SOL    HW2 8931   2.475   4.890   1.481
 2678SOL     OW 8932   4.004   1.872   3.090
 2678SOL    HW1 8933   3.988   1.937   3.015
 2678SOL    HW2 8934   4.102   1.866   3.108
 2679SOL     OW 8935   2.155   3.967   3.204
 2679SOL    HW1 8936   2.165   3.921   3.115
 2679SOL    HW2 8937   2.116   4.057   3.191
 2680SOL     OW 8938   6.594   1.486   0.259
 2680SOL    HW1 8939   6.636   1.395   0.260
 2680SOL    HW2 8940   6.606   1.529   0.349
 2681SOL     OW 8941   2.053   1.753   4.948
 2681SOL    HW1 8942   2.051   1.723   5.043
 2681SOL    HW2 8943   1.964   1.738   4.906
 2682SOL     OW 8944   4.099   3.941   1.689
 2682SOL    HW1 8945   4.125   3.945   1.785
 2682SOL    HW2 8946   4.001   3.961   1.680
 2683SOL     OW 8947   2.482   4.756   2.151
 2683SOL    HW1 8948   2.486   4.678   2.214
 2683SOL    HW2 8949   2.575   4.784   2.128
 2684SOL     OW 8950   6.645   6.550   3.725
 2684SOL    HW1 8951   6.602   6.489   3.791
 2684SOL    HW2 8952   6.576   6.580   3.658
 2685SOL     OW 8953   1.471   5.710   5.778
 2685SOL    HW1 8954   1.464   5.625   5.727
 2685SOL    HW2 8955   1.512   5.781   5.720
 2686SOL     OW 8956   0.618   1.475   5.125
 2686SOL    HW1 8957   0.649   1.381   5.137
 2686SOL    HW2 8958   0.696   1.533   5.101
 2687SOL     OW 8959   4.085   1.867   1.331
 2687SOL    HW1 8960   4.179   1.838   1.354
 2687SOL    HW2 8961   4.042   1.796   1.275
 2688SOL     OW 8962   4.050   2.887   6.066
 2688SOL    HW1 8963   4.076   2.791   6.059
 2688SOL    HW2 8964   4.026   2.922   5.975
 2689SOL     OW 8965   1.026   3.979   3.268
 2689SOL    HW1 8966   1.009   3.955   3.172
 2689SOL    HW2 8967   1.069   4.069   3.272
 2690SOL     OW 8968   3.974   1.276   5.748
 2690SOL    HW1 8969   4.056   1.332   5.759
 2690SOL    HW2 8970   3.942   1.282   5.654
 2691SOL     OW 8971   6.429   4.013   4.146
 2691SOL    HW1 8972   6.460   3.951   4.074
 2691SOL    HW2 8973   6.463   4.106   4.127
 2692SOL     OW 8974   2.559   5.871   2.262
 2692SOL    HW1 8975   2.574   5.969   2.276
 2692SOL    HW2 8976   2.646   5.823   2.270
 2693SOL     OW 8977   1.928   5.368   2.922
 2693SOL    HW1 8978   2.016   5.351   2.877
 2693SOL    HW2 8979   1.914   5.466   2.933
 2694SOL     OW 8980   2.717   0.633   3.022
 2694SOL    HW1 8981   2.697   0.676   3.111
 2694SOL    HW2 8982   2.638   0.646   2.961
 2695SOL     OW 8983   6.965   5.658   3.164
 2695SOL    HW1 8984   0.040   5.656   3.155
 2695SOL    HW2 8985   6.932   5.565   3.183
 2696SOL     OW 8986   5.607   4.536   6.160
 2696SOL    HW1 8987   5.602   4.489   6.247
 2696SOL    HW2 8988   5.565   4.480   6.089
 2697SOL     OW 8989   4.534   2.431   0.013
 2697SOL    HW1 8990   4.477   2.500   6.991
 2697SOL    HW2 8991   4.595   2.389   6.971
 2698SOL     OW 8992   1.855   4.320   6.178
 2698SOL    HW1 8993   1.876   4.331   6.276
 2698SOL    HW2 8994   1.766   4.276   6.168
 2699SOL     OW 8995   2.777   6.282   2.063
 2699SOL    HW1 8996   2.699   6.266   2.123
 2699SOL    HW2 8997   2.755   6.354   1.997
 2700SOL     OW 8998   3.567   1.757   1.784
 2700SOL    HW1 8999   3.576   1.857   1.779
 2700SOL    HW2 9000   3.608   1.716   1.703
 2701SOL     OW 9001   5.130   3.266   4.971
 2701SOL    HW1 9002   5.170   3.329   4.904
 2701SOL    HW2 9003   5.189   3.186   4.980
 2702SOL     OW 9004   2.885   0.941   4.778
 2702SOL    HW1 9005   2.837   0.921   4.864
 2702SOL    HW2 9006   2.919   0.856   4.738
 2703SOL     OW 9007   1.831   6.600   2.825
 2703SOL    HW1 9008   1.793   6.567   2.911
 2703SOL    HW2 9009   1.803   6.695   2.810
 2704SOL     OW 9010   5.318   0.429   3.690
 2704SOL    HW1 9011   5.317   0.376   3.775
 2704SOL    HW2 9012   5.285   0.371   3.614
 2705SOL     OW 9013   0.292   0.293   5.587
 2705SOL    HW1 9014   0.294   0.372   5.527
 2705SOL    HW2 9015   0.335   0.316   5.674
 2706SOL     OW 9016   0.217   3.594   3.612
 2706SOL    HW1 9017   0.191   3.631   3.523
 2706SOL    HW2 9018   0.146   3.615   3.679
 2707SOL     OW 9019   4.322   0.992   3.206
 2707SOL    HW1 9020   4.235   0.943   3.200
 2707SOL    HW2 9021   4.325   1.064   3.137
 2708SOL     OW 9022   6.265   3.435   6.525
 2708SOL    HW1 9023   6.255   3.337   6.542
 2708SOL    HW2 9024   6.179   3.471   6.491
 2709SOL     OW 9025   5.073   1.332   5.279
 2709SOL    HW1 9026   4.978   1.350   5.256
 2709SOL    HW2 9027   5.132   1.387   5.220
 2710SOL     OW 9028   1.175   2.756   4.049
 2710SOL    HW1 9029   1.079   2.749   4.022
 2710SOL    HW2 9030   1.184   2.738   4.146
 2711SOL     OW 9031   3.180   1.088   1.968
 2711SOL    HW1 9032   3.213   1.111   1.876
 2711SOL    HW2 9033   3.228   1.008   2.002
 2712SOL     OW 9034   3.976   5.962   2.179
 2712SOL    HW1 9035   3.936   5.962   2.271
 2712SOL    HW2 9036   4.064   6.010   2.181
 2713SOL     OW 9037   3.905   4.834   6.219
 2713SOL    HW1 9038   3.847   4.910   6.249
 2713SOL    HW2 9039   3.985   4.828   6.278
 2714SOL     OW 9040   3.090   4.810   6.037
 2714SOL    HW1 9041   3.153   4.734   6.053
 2714SOL    HW2 9042   3.038   4.828   6.120
 2715SOL     OW 9043   3.969   0.958   6.854
 2715SOL    HW1 9044   3.950   0.955   6.952
 2715SOL    HW2 9045   3.911   1.027   6.810
 2716SOL     OW 9046   3.478   1.194   3.306
 2716SOL    HW1 9047   3.575   1.171   3.317
 2716SOL    HW2 9048   3.470   1.290   3.278
 2717SOL     OW 9049   0.677   1.139   2.436
 2717SOL    HW1 9050   0.690   1.046   2.471
 2717SOL    HW2 9051   0.766   1.180   2.416
 2718SOL     OW 9052   6.972   0.782   5.804
 2718SOL    HW1 9053   6.983   0.840   5.722
 2718SOL    HW2 9054   7.014   0.828   5.882
 2719SOL     OW 9055   1.943   4.280   2.299
 2719SOL    HW1 9056   1.925   4.353   2.365
 2719SOL    HW2 9057   1.857   4.253   2.254
 2720SOL     OW 9058   2.373   6.447   6.670
 2720SOL    HW1 9059   2.424   6.384   6.612
 2720SOL    HW2 9060   2.330   6.396   6.745
 2721SOL     OW 9061   3.177   6.148   1.794
 2721SOL    HW1 9062   3.127   6.197   1.866
 2721SOL    HW2 9063   3.275   6.151   1.813
 2722SOL     OW 9064   4.377   6.382   0.008
 2722SOL    HW1 9065   4.404   6.287   7.019
 2722SOL    HW2 9066   4.297   6.403   6.976
 2723SOL     OW 9067   3.378   6.624   6.163
 2723SOL    HW1 9068   3.353   6.694   6.231
 2723SOL    HW2 9069   3.372   6.534   6.206
 2724SOL     OW 9070   0.847   6.507   1.360
 2724SOL    HW1 9071   0.789   6.587   1.374
 2724SOL    HW2 9072   0.919   6.505   1.430
 2725SOL     OW 9073   6.358   3.855   4.851
 2725SOL    HW1 9074   6.451   3.846   4.885
 2725SOL    HW2 9075   6.297   3.795   4.903
 2726SOL     OW 9076   6.735   2.054   2.171
 2726SOL    HW1 9077   6.674   2.132   2.184
 2726SOL    HW2 9078   6.707   1.978   2.229
 2727SOL     OW 9079   1.546   4.949   3.951
 2727SOL    HW1 9080   1.476   5.016   3.925
 2727SOL    HW2 9081   1.634   4.976   3.911
 2728SOL     OW 9082   5.210   5.119   5.714
 2728SOL    HW1 9083   5.285   5.170   5.672
 2728SOL    HW2 9084   5.205   5.139   5.811
 2729SOL     OW 9085   5.764   6.900   6.285
 2729SOL    HW1 9086   5.720   6.988   6.302
 2729SOL    HW2 9087   5.810   6.869   6.369
 2730SOL     OW 9088   1.040   6.109   2.096
 2730SOL    HW1 9089   0.947   6.094   2.130
 2730SOL    HW2 9090   1.105   6.056   2.151
 2731SOL     OW 9091   3.607   3.705   3.703
 2731SOL    HW1 9092   3.511   3.678   3.693
 2731SOL    HW2 9093   3.613   3.779   3.770
 2732SOL     OW 9094   5.279   0.978   2.064
 2732SOL    HW1 9095   5.271   0.896   2.121
 2732SOL    HW2 9096   5.315   0.952   1.974
 2733SOL     OW 9097   1.235   6.559   7.020
 2733SOL    HW1 9098   1.303   6.486   0.003
 2733SOL    HW2 9099   1.147   6.525   0.026
 2734SOL     OW 9100   3.338   6.466   1.917
 2734SOL    HW1 9101   3.382   6.408   1.848
 2734SOL    HW2 9102   3.346   6.423   2.007
 2735SOL     OW 9103   0.651   1.607   1.934
 2735SOL    HW1 9104   0.641   1.533   1.867
 2735SOL    HW2 9105   0.568   1.663   1.935
 2736SOL     OW 9106   5.731   4.428   2.923
 2736SOL    HW1 9107   5.632   4.445   2.926
 2736SOL    HW2 9108   5.750   4.340   2.968
 2737SOL     OW 9109   2.770   1.185   5.557
 2737SOL    HW1 9110   2.680   1.209   5.519
 2737SOL    HW2 9111   2.796   1.094   5.525
 2738SOL     OW 9112   5.306   6.515   1.641
 2738SOL    HW1 9113   5.275   6.608   1.658
 2738SOL    HW2 9114   5.236   6.466   1.589
 2739SOL     OW 9115   6.172   5.658   1.655
 2739SOL    HW1 9116   6.213   5.713   1.582
 2739SOL    HW2 9117   6.137   5.719   1.727
 2740SOL     OW 9118   6.514   5.547   3.844
 2740SOL    HW1 9119   6.441   5.598   3.890
 2740SOL    HW2 9120   6.601   5.595   3.854
 2741SOL     OW 9121   1.376   1.519   5.640
 2741SOL    HW1 9122   1.292   1.471   5.612
 2741SOL    HW2 9123   1.434   1.533   5.559
 2742SOL     OW 9124   2.871   6.139   1.802
 2742SOL    HW1 9125   2.965   6.138   1.767
 2742SOL    HW2 9126   2.864   6.204   1.877
 2743SOL     OW 9127   5.510   3.281   2.859
 2743SOL    HW1 9128   5.451   3.361   2.866
 2743SOL    HW2 9129   5.508   3.245   2.766
 2744SOL     OW 9130   2.905   3.506   2.854
 2744SOL    HW1 9131   2.927   3.594   2.896
 2744SOL    HW2 9132   2.914   3.513   2.755
 2745SOL     OW 9133   0.683   6.380   0.276
 2745SOL    HW1 9134   0.746   6.384   0.353
 2745SOL    HW2 9135   0.679   6.469   0.232
 2746SOL     OW 9136   1.424   1.215   3.403
 2746SOL    HW1 9137   1.445   1.195   3.308
 2746SOL    HW2 9138   1.329   1.247   3.411
 2747SOL     OW 9139   3.852   5.287   0.575
 2747SOL    HW1 9140   3.929   5.300   0.637
 2747SOL    HW2 9141   3.766   5.286   0.628
 2748SOL     OW 9142   4.453   6.540   1.040
 2748SOL    HW1 9143   4.439   6.561   0.943
 2748SOL    HW2 9144   4.369   6.558   1.090
 2749SOL     OW 9145   3.290   3.136   6.951
 2749SOL    HW1 9146   3.197   3.140   6.915
 2749SOL    HW2 9147   3.302   3.051   7.003
 2750SOL     OW 9148   2.341   6.075   1.927
 2750SOL    HW1 9149   2.441   6.075   1.928
 2750SOL    HW2 9150   2.306   6.091   2.019
 2751SOL     OW 9151   6.146   3.665   0.897
 2751SOL    HW1 9152   6.141   3.690   0.994
 2751SOL    HW2 9153   6.075   3.599   0.875
 2752SOL     OW 9154   4.230   4.889   0.076
 2752SOL    HW1 9155   4.284   4.968   0.105
 2752SOL    HW2 9156   4.286   4.806   0.081
 2753SOL     OW 9157   6.113   6.024   5.461
 2753SOL    HW1 9158   6.075   6.056   5.548
 2753SOL    HW2 9159   6.151   6.101   5.410
 2754SOL     OW 9160   1.286   6.920   6.128
 2754SOL    HW1 9161   1.300   6.997   6.190
 2754SOL    HW2 9162   1.364   6.912   6.067
 2755SOL     OW 9163   2.606   0.217   2.602
 2755SOL    HW1 9164   2.671   0.192   2.674
 2755SOL    HW2 9165   2.647   0.285   2.542
 2756SOL     OW 9166   4.739   6.163   0.663
 2756SOL    HW1 9167   4.822   6.128   0.620
 2756SOL    HW2 9168   4.666   6.171   0.594
 2757SOL     OW 9169   0.446   5.410   1.207
 2757SOL    HW1 9170   0.407   5.463   1.131
 2757SOL    HW2 9171   0.427   5.456   1.293
 2758SOL     OW 9172   4.869   0.560   5.797
 2758SOL    HW1 9173   4.804   0.576   5.871
 2758SOL    HW2 9174   4.962   0.577   5.830
 2759SOL     OW 9175   5.553   5.803   4.944
 2759SOL    HW1 9176   5.637   5.792   4.889
 2759SOL    HW2 9177   5.486   5.855   4.891
 2760SOL     OW 9178   2.842   5.556   3.338
 2760SOL    HW1 9179   2.838   5.576   3.436
 2760SOL    HW2 9180   2.749   5.546   3.303
 2761SOL     OW 9181   2.324   5.833   3.108
 2761SOL    HW1 9182   2.364   5.786   3.187
 2761SOL    HW2 9183   2.299   5.767   3.038
 2762SOL     OW 9184   0.797   6.492   4.815
 2762SOL    HW1 9185   0.883   6.440   4.820
 2762SOL    HW2 9186   0.818   6.589   4.809
 2763SOL     OW 9187   5.857   1.976   2.082
 2763SOL    HW1 9188   5.896   1.958   1.992
 2763SOL    HW2 9189   5.787   2.047   2.075
 2764SOL     OW 9190   6.324   1.374   2.304
 2764SOL    HW1 9191   6.262   1.451   2.286
 2764SOL    HW2 9192   6.301   1.333   2.393
 2765SOL     OW 9193   5.913   1.540   1.750
 2765SOL    HW1 9194   5.998   1.592   1.753
 2765SOL    HW2 9195   5.871   1.551   1.660
 2766SOL     OW 9196   5.922   0.843   2.373
 2766SOL    HW1 9197   6.006   0.835   2.426
 2766SOL    HW2 9198   5.852   0.889   2.427
 2767SOL     OW 9199   5.574   4.174   6.302
 2767SOL    HW1 9200   5.498   4.200   6.243
 2767SOL    HW2 9201   5.583   4.240   6.376
 2768SOL     OW 9202   5.667   1.296   6.643
 2768SOL    HW1 9203   5.656   1.392   6.669
 2768SOL    HW2 9204   5.735   1.252   6.702
 2769SOL     OW 9205   0.765   3.941   1.443
 2769SOL    HW1 9206   0.828   3.873   1.482
 2769SOL    HW2 9207   0.722   3.904   1.361
 2770SOL     OW 9208   6.921   5.755   1.408
 2770SOL    HW1 9209   7.011   5.761   1.364
 2770SOL    HW2 9210   6.886   5.847   1.425
 2771SOL     OW 9211   4.670   1.290   1.789
 2771SOL    HW1 9212   4.582   1.245   1.804
 2771SOL    HW2 9213   4.741   1.242   1.841
 2772SOL     OW 9214   3.249   2.646   5.992
 2772SOL    HW1 9215   3.280   2.719   5.931
 2772SOL    HW2 9216   3.149   2.640   5.990
 2773SOL     OW 9217   3.690   3.741   6.310
 2773SOL    HW1 9218   3.595   3.773   6.316
 2773SOL    HW2 9219   3.694   3.660   6.252
 2774SOL     OW 9220   5.908   3.623   2.706
 2774SOL    HW1 9221   5.985   3.674   2.668
 2774SOL    HW2 9222   5.898   3.536   2.657
 2775SOL     OW 9223   6.759   6.053   1.443
 2775SOL    HW1 9224   6.841   6.049   1.501
 2775SOL    HW2 9225   6.782   6.099   1.357
 2776SOL     OW 9226   2.722   5.870   6.257
 2776SOL    HW1 9227   2.816   5.903   6.260
 2776SOL    HW2 9228   2.721   5.770   6.257
 2777SOL     OW 9229   3.277   1.035   2.640
 2777SOL    HW1 9230   3.197   0.995   2.594
 2777SOL    HW2 9231   3.245   1.099   2.710
 2778SOL     OW 9232   2.181   2.082   5.716
 2778SOL    HW1 9233   2.219   2.129   5.796
 2778SOL    HW2 9234   2.196   2.137   5.634
 2779SOL     OW 9235   5.851   1.123   6.781
 2779SOL    HW1 9236   5.807   1.064   6.849
 2779SOL    HW2 9237   5.950   1.124   6.798
 2780SOL     OW 9238   4.920   5.196   6.957
 2780SOL    HW1 9239   4.832   5.229   6.922
 2780SOL    HW2 9240   4.981   5.273   6.974
 2781SOL     OW 9241   5.248   4.559   0.630
 2781SOL    HW1 9242   5.245   4.657   0.612
 2781SOL    HW2 9243   5.172   4.514   0.583
 2782SOL     OW 9244   2.507   2.366   5.754
 2782SOL    HW1 9245   2.566   2.286   5.738
 2782SOL    HW2 9246   2.545   2.420   5.829
 2783SOL     OW 9247   0.371   4.949   5.386
 2783SOL    HW1 9248   0.394   4.854   5.407
 2783SOL    HW2 9249   0.272   4.961   5.387
 2784SOL     OW 9250   2.020   1.572   2.026
 2784SOL    HW1 9251   2.062   1.660   2.007
 2784SOL    HW2 9252   1.939   1.560   1.967
 2785SOL     OW 9253   6.433   0.831   0.849
 2785SOL    HW1 9254   6.502   0.896   0.880
 2785SOL    HW2 9255   6.408   0.852   0.754
 2786SOL     OW 9256   4.235   6.604   1.190
 2786SOL    HW1 9257   4.268   6.693   1.222
 2786SOL    HW2 9258   4.141   6.590   1.220
 2787SOL     OW 9259   2.420   2.823   5.617
 2787SOL    HW1 9260   2.437   2.725   5.602
 2787SOL    HW2 9261   2.334   2.834   5.668
 2788SOL     OW 9262   1.072   3.585   0.704
 2788SOL    HW1 9263   1.031   3.500   0.737
 2788SOL    HW2 9264   1.029   3.612   0.619
 2789SOL     OW 9265   0.689   2.364   3.990
 2789SOL    HW1 9266   0.776   2.413   3.984
 2789SOL    HW2 9267   0.675   2.333   4.084
 2790SOL     OW 9268   3.988   5.700   2.967
 2790SOL    HW1 9269   4.025   5.786   3.004
 2790SOL    HW2 9270   3.889   5.702   2.971
 2791SOL     OW 9271   1.633   3.052   4.300
 2791SOL    HW1 9272   1.543   3.041   4.256
 2791SOL    HW2 9273   1.698   2.989   4.258
 2792SOL     OW 9274   1.126   2.174   5.367
 2792SOL    HW1 9275   1.203   2.210   5.420
 2792SOL    HW2 9276   1.086   2.247   5.312
 2793SOL     OW 9277   4.642   1.373   3.532
 2793SOL    HW1 9278   4.621   1.429   3.452
 2793SOL    HW2 9279   4.653   1.432   3.612
 2794SOL     OW 9280   0.913   0.567   0.822
 2794SOL    HW1 9281   0.823   0.523   0.822
 2794SOL    HW2 9282   0.953   0.563   0.730
 2795SOL     OW 9283   2.623   4.145   1.458
 2795SOL    HW1 9284   2.718   4.176   1.471
 2795SOL    HW2 9285   2.621   4.074   1.388
 2796SOL     OW 9286   5.365   3.847   2.534
 2796SOL    HW1 9287   5.282   3.862   2.481
 2796SOL    HW2 9288   5.368   3.910   2.611
 2797SOL     OW 9289   4.701   4.715   4.806
 2797SOL    HW1 9290   4.728   4.663   4.725
 2797SOL    HW2 9291   4.604   4.697   4.826
 2798SOL     OW 9292   1.149   3.980   4.371
 2798SOL    HW1 9293   1.061   4.018   4.344
 2798SOL    HW2 9294   1.201   3.955   4.290
 2799SOL     OW 9295   6.549   4.818   5.863
 2799SOL    HW1 9296   6.553   4.832   5.962
 2799SOL    HW2 9297   6.512   4.900   5.819
 2800SOL     OW 9298   2.991   4.309   6.725
 2800SOL    HW1 9299   2.962   4.390   6.674
 2800SOL    HW2 9300   2.929   4.233   6.705
 2801SOL     OW 9301   5.344   5.825   2.181
 2801SOL    HW1 9302   5.262   5.882   2.186
 2801SOL    HW2 9303   5.317   5.729   2.170
 2802SOL     OW 9304   4.590   1.423   6.151
 2802SOL    HW1 9305   4.574   1.522   6.154
 2802SOL    HW2 9306   4.504   1.375   6.171
 2803SOL     OW 9307   3.083   6.435   6.542
 2803SOL    HW1 9308   3.112   6.427   6.447
 2803SOL    HW2 9309   3.010   6.369   6.560
 2804SOL     OW 9310   6.894   4.488   3.290
 2804SOL    HW1 9311   6.808   4.440   3.274
 2804SOL    HW2 9312   6.924   4.531   3.205
 2805SOL     OW 9313   5.682   3.419   0.257
 2805SOL    HW1 9314   5.626   3.486   0.208
 2805SOL    HW2 9315   5.659   3.422   0.354
 2806SOL     OW 9316   6.341   5.336   3.314
 2806SOL    HW1 9317   6.318   5.324   3.411
 2806SOL    HW2 9318   6.267   5.385   3.268
 2807SOL     OW 9319   4.559   5.192   3.350
 2807SOL    HW1 9320   4.609   5.107   3.336
 2807SOL    HW2 9321   4.537   5.233   3.261
 2808SOL     OW 9322   5.391   0.453   4.293
 2808SOL    HW1 9323   5.386   0.550   4.270
 2808SOL    HW2 9324   5.298   0.416   4.301
 2809SOL     OW 9325   5.071   2.699   0.765
 2809SOL    HW1 9326   5.073   2.599   0.756
 2809SOL    HW2 9327   5.009   2.725   0.838
 2810SOL     OW 9328   2.044   6.895   5.474
 2810SOL    HW1 9329   2.046   6.920   5.570
 2810SOL    HW2 9330   2.075   6.972   5.418
 2811SOL     OW 9331   6.775   1.781   3.479
 2811SOL    HW1 9332   6.773   1.810   3.575
 2811SOL    HW2 9333   6.832   1.699   3.470
 2812SOL     OW 9334   4.939   3.562   2.365
 2812SOL    HW1 9335   5.024   3.591   2.322
 2812SOL    HW2 9336   4.899   3.640   2.414
 2813SOL     OW 9337   5.753   0.676   6.616
 2813SOL    HW1 9338   5.793   0.628   6.694
 2813SOL    HW2 9339   5.718   0.765   6.646
 2814SOL     OW 9340   4.678   3.977   5.202
 2814SOL    HW1 9341   4.583   3.987   5.231
 2814SOL    HW2 9342   4.723   4.066   5.202
 2815SOL     OW 9343   0.447   0.818   5.419
 2815SOL    HW1 9344   0.403   0.907   5.407
 2815SOL    HW2 9345   0.536   0.818   5.374
 2816SOL     OW 9346   5.761   6.663   3.415
 2816SOL    HW1 9347   5.772   6.744   3.357
 2816SOL    HW2 9348   5.734   6.691   3.507
 2817SOL     OW 9349   0.887   1.669   1.692
 2817SOL    HW1 9350   0.838   1.756   1.693
 2817SOL    HW2 9351   0.949   1.665   1.770
 2818SOL     OW 9352   0.012   4.534   5.031
 2818SOL    HW1 9353   0.009   4.437   5.008
 2818SOL    HW2 9354   0.013   4.544   5.131
 2819SOL     OW 9355   7.015   2.884   1.293
 2819SOL    HW1 9356   0.071   2.913   1.344
 2819SOL    HW2 9357   6.996   2.950   1.221
 2820SOL     OW 9358   6.648   3.193   3.932
 2820SOL    HW1 9359   6.744   3.186   3.957
 2820SOL    HW2 9360   6.595   3.128   3.987
 2821SOL     OW 9361   1.486   4.310   4.523
 2821SOL    HW1 9362   1.478   4.298   4.424
 2821SOL    HW2 9363   1.428   4.243   4.570
 2822SOL     OW 9364   4.924   1.966   6.977
 2822SOL    HW1 9365   4.865   1.888   6.998
 2822SOL    HW2 9366   5.019   1.943   7.000
 2823SOL     OW 9367   1.910   6.646   3.181
 2823SOL    HW1 9368   1.979   6.637   3.109
 2823SOL    HW2 9369   1.951   6.620   3.269
 2824SOL     OW 9370   3.147   1.640   5.230
 2824SOL    HW1 9371   3.152   1.549   5.270
 2824SOL    HW2 9372   3.185   1.707   5.294
 2825SOL     OW 9373   6.223   5.897   1.272
 2825SOL    HW1 9374   6.294   5.849   1.323
 2825SOL    HW2 9375   6.258   5.923   1.183
 2826SOL     OW 9376   4.792   1.751   4.384
 2826SOL    HW1 9377   4.779   1.818   4.311
 2826SOL    HW2 9378   4.803   1.799   4.471
 2827SOL     OW 9379   5.681   0.869   5.354
 2827SOL    HW1 9380   5.662   0.828   5.265
 2827SOL    HW2 9381   5.634   0.957   5.361
 2828SOL     OW 9382   3.694   1.465   5.548
 2828SOL    HW1 9383   3.750   1.385   5.524
 2828SOL    HW2 9384   3.630   1.440   5.621
 2829SOL     OW 9385   2.301   6.695   6.508
 2829SOL    HW1 9386   2.308   6.605   6.550
 2829SOL    HW2 9387   2.393   6.732   6.493
 2830SOL     OW 9388   3.896   3.455   7.020
 2830SOL    HW1 9389   3.918   3.440   0.091
 2830SOL    HW2 9390   3.977   3.436   6.963
 2831SOL     OW 9391   5.854   6.202   4.531
 2831SOL    HW1 9392   5.931   6.139   4.530
 2831SOL    HW2 9393   5.839   6.234   4.625
 2832SOL     OW 9394   0.227   0.943   2.373
 2832SOL    HW1 9395   0.254   0.945   2.470
 2832SOL    HW2 9396   0.285   1.006   2.321
 2833SOL     OW 9397   6.279   3.080   2.018
 2833SOL    HW1 9398   6.221   3.161   2.013
 2833SOL    HW2 9399   6.235   3.005   1.967
 2834SOL     OW 9400   3.885   1.266   5.462
 2834SOL    HW1 9401   3.901   1.320   5.380
 2834SOL    HW2 9402   3.948   1.188   5.464
 2835SOL     OW 9403   0.113   6.626   2.656
 2835SOL    HW1 9404   0.058   6.706   2.632
 2835SOL    HW2 9405   0.127   6.569   2.574
 2836SOL     OW 9406   6.993   0.697   1.365
 2836SOL    HW1 9407   0.011   0.684   1.275
 2836SOL    HW2 9408   6.979   0.608   1.409
 2837SOL     OW 9409   5.248   3.849   3.836
 2837SOL    HW1 9410   5.340   3.821   3.809
 2837SOL    HW2 9411   5.247   3.948   3.854
 2838SOL     OW 9412   3.229   5.041   2.800
 2838SOL    HW1 9413   3.224   4.954   2.750
 2838SOL    HW2 9414   3.186   5.030   2.890
 2839SOL     OW 9415   5.216   1.949   1.387
 2839SOL    HW1 9416   5.257   1.990   1.468
 2839SOL    HW2 9417   5.287   1.907   1.330
 2840SOL     OW 9418   6.780   1.380   5.075
 2840SOL    HW1 9419   6.848   1.414   5.141
 2840SOL    HW2 9420   6.703   1.445   5.071
 2841SOL     OW 9421   0.710   6.265   1.411
 2841SOL    HW1 9422   0.676   6.278   1.504
 2841SOL    HW2 9423   0.756   6.348   1.380
 2842SOL     OW 9424   0.382   3.791   2.954
 2842SOL    HW1 9425   0.427   3.846   3.024
 2842SOL    HW2 9426   0.340   3.710   2.996
 2843SOL     OW 9427   4.108   0.961   4.451
 2843SOL    HW1 9428   4.159   1.013   4.382
 2843SOL    HW2 9429   4.027   0.921   4.408
 2844SOL     OW 9430   0.422   4.036   6.626
 2844SOL    HW1 9431   0.455   3.966   6.690
 2844SOL    HW2 9432   0.380   4.111   6.677
 2845SOL     OW 9433   0.413   4.602   5.883
 2845SOL    HW1 9434   0.366   4.600   5.795
 2845SOL    HW2 9435   0.501   4.649   5.872
 2846SOL     OW 9436   4.965   1.969   6.194
 2846SOL    HW1 9437   4.956   2.032   6.117
 2846SOL    HW2 9438   5.016   2.013   6.268
 2847SOL     OW 9439   5.653   4.502   4.386
 2847SOL    HW1 9440   5.753   4.504   4.381
 2847SOL    HW2 9441   5.624   4.533   4.477
 2848SOL     OW 9442   0.994   5.704   4.645
 2848SOL    HW1 9443   0.995   5.604   4.634
 2848SOL    HW2 9444   1.075   5.742   4.599
 2849SOL     OW 9445   2.877   2.356   1.082
 2849SOL    HW1 9446   2.957   2.300   1.066
 2849SOL    HW2 9447   2.794   2.300   1.076
 2850SOL     OW 9448   3.423   0.398   0.246
 2850SOL    HW1 9449   3.468   0.461   0.310
 2850SOL    HW2 9450   3.335   0.435   0.219
 2851SOL     OW 9451   1.365   4.162   5.643
 2851SOL    HW1 9452   1.458   4.134   5.616
 2851SOL    HW2 9453   1.298   4.112   5.589
 2852SOL     OW 9454   0.121   3.566   6.761
 2852SOL    HW1 9455   0.215   3.599   6.765
 2852SOL    HW2 9456   0.121   3.469   6.739
 2853SOL     OW 9457   3.583   3.412   1.005
 2853SOL    HW1 9458   3.666   3.380   0.961
 2853SOL    HW2 9459   3.515   3.436   0.936
 2854SOL     OW 9460   2.536   1.161   3.815
 2854SOL    HW1 9461   2.546   1.257   3.789
 2854SOL    HW2 9462   2.609   1.107   3.773
 2855SOL     OW 9463   2.348   0.824   5.216
 2855SOL    HW1 9464   2.291   0.873   5.150
 2855SOL    HW2 9465   2.441   0.863   5.215
 2856SOL     OW 9466   2.515   2.840   5.357
 2856SOL    HW1 9467   2.463   2.835   5.443
 2856SOL    HW2 9468   2.493   2.925   5.309
 2857SOL     OW 9469   3.151   3.462   1.985
 2857SOL    HW1 9470   3.067   3.496   2.028
 2857SOL    HW2 9471   3.220   3.535   1.983
 2858SOL     OW 9472   0.090   3.882   2.597
 2858SOL    HW1 9473   0.114   3.917   2.687
 2858SOL    HW2 9474   7.024   3.841   2.599
 2859SOL     OW 9475   5.368   0.368   1.025
 2859SOL    HW1 9476   5.463   0.351   1.050
 2859SOL    HW2 9477   5.364   0.428   0.946
 2860SOL     OW 9478   3.875   1.773   2.287
 2860SOL    HW1 9479   3.847   1.863   2.252
 2860SOL    HW2 9480   3.801   1.708   2.272
 2861SOL     OW 9481   3.944   5.547   5.932
 2861SOL    HW1 9482   3.898   5.495   5.860
 2861SOL    HW2 9483   3.903   5.638   5.938
 2862SOL     OW 9484   5.949   1.329   4.023
 2862SOL    HW1 9485   5.947   1.429   4.018
 2862SOL    HW2 9486   5.977   1.301   4.115
 2863SOL     OW 9487   6.615   2.032   6.764
 2863SOL    HW1 9488   6.629   2.081   6.678
 2863SOL    HW2 9489   6.517   2.025   6.783
 2864SOL     OW 9490   3.314   1.378   0.500
 2864SOL    HW1 9491   3.281   1.402   0.591
 2864SOL    HW2 9492   3.346   1.461   0.454
 2865SOL     OW 9493   4.780   4.233   5.140
 2865SOL    HW1 9494   4.872   4.270   5.129
 2865SOL    HW2 9495   4.713   4.303   5.113
 2866SOL     OW 9496   0.539   6.412   6.675
 2866SOL    HW1 9497   0.573   6.321   6.697
 2866SOL    HW2 9498   0.445   6.406   6.641
 2867SOL     OW 9499   6.450   4.262   3.861
 2867SOL    HW1 9500   6.530   4.211   3.832
 2867SOL    HW2 9501   6.400   4.295   3.781
 2868SOL     OW 9502   1.636   3.788   5.428
 2868SOL    HW1 9503   1.674   3.762   5.339
 2868SOL    HW2 9504   1.674   3.728   5.499
 2869SOL     OW 9505   5.838   1.264   2.270
 2869SOL    HW1 9506   5.912   1.259   2.204
 2869SOL    HW2 9507   5.807   1.358   2.279
 2870SOL     OW 9508   5.741   2.341   2.622
 2870SOL    HW1 9509   5.746   2.242   2.633
 2870SOL    HW2 9510   5.825   2.374   2.577
 2871SOL     OW 9511   1.793   2.021   6.172
 2871SOL    HW1 9512   1.862   1.951   6.154
 2871SOL    HW2 9513   1.721   2.016   6.102
 2872SOL     OW 9514   2.562   0.134   3.685
 2872SOL    HW1 9515   2.649   0.088   3.664
 2872SOL    HW2 9516   2.504   0.133   3.604
 2873SOL     OW 9517   0.663   5.535   1.737
 2873SOL    HW1 9518   0.737   5.502   1.680
 2873SOL    HW2 9519   0.580   5.482   1.720
 2874SOL     OW 9520   6.230   2.645   2.651
 2874SOL    HW1 9521   6.230   2.683   2.559
 2874SOL    HW2 9522   6.172   2.702   2.710
 2875SOL     OW 9523   3.646   5.029   6.671
 2875SOL    HW1 9524   3.740   5.007   6.644
 2875SOL    HW2 9525   3.592   5.049   6.589
 2876SOL     OW 9526   0.200   0.851   1.458
 2876SOL    HW1 9527   0.121   0.828   1.402
 2876SOL    HW2 9528   0.283   0.849   1.402
 2877SOL     OW 9529   3.079   2.765   5.406
 2877SOL    HW1 9530   3.086   2.818   5.322
 2877SOL    HW2 9531   3.169   2.762   5.450
 2878SOL     OW 9532   2.675   4.397   5.577
 2878SOL    HW1 9533   2.655   4.439   5.488
 2878SOL    HW2 9534   2.742   4.452   5.625
 2879SOL     OW 9535   5.022   4.300   0.646
 2879SOL    HW1 9536   4.943   4.238   0.645
 2879SOL    HW2 9537   5.101   4.252   0.684
 2880SOL     OW 9538   1.264   6.214   1.684
 2880SOL    HW1 9539   1.214   6.133   1.715
 2880SOL    HW2 9540   1.269   6.215   1.584
 2881SOL     OW 9541   6.971   6.399   0.760
 2881SOL    HW1 9542   6.889   6.417   0.705
 2881SOL    HW2 9543   6.956   6.318   0.817
 2882SOL     OW 9544   0.051   3.034   3.274
 2882SOL    HW1 9545   0.016   3.076   3.190
 2882SOL    HW2 9546   0.046   3.101   3.349
 2883SOL     OW 9547   3.732   0.271   2.066
 2883SOL    HW1 9548   3.655   0.285   2.128
 2883SOL    HW2 9549   3.729   0.339   1.993
 2884SOL     OW 9550   0.814   5.855   3.411
 2884SOL    HW1 9551   0.837   5.826   3.317
 2884SOL    HW2 9552   0.744   5.794   3.448
 2885SOL     OW 9553   0.857   2.812   3.185
 2885SOL    HW1 9554   0.769   2.767   3.164
 2885SOL    HW2 9555   0.881   2.795   3.280
 2886SOL     OW 9556   2.654   2.258   6.065
 2886SOL    HW1 9557   2.563   2.298   6.057
 2886SOL    HW2 9558   2.695   2.251   5.974
 2887SOL     OW 9559   1.490   0.707   4.906
 2887SOL    HW1 9560   1.434   0.770   4.961
 2887SOL    HW2 9561   1.505   0.623   4.958
 2888SOL     OW 9562   6.030   4.791   6.914
 2888SOL    HW1 9563   6.082   4.719   6.869
 2888SOL    HW2 9564   6.058   4.880   6.879
 2889SOL     OW 9565   0.289   0.086   1.669
 2889SOL    HW1 9566   0.365   0.101   1.732
 2889SOL    HW2 9567   0.219   0.156   1.683
 2890SOL     OW 9568   3.938   0.537   2.081
 2890SOL    HW1 9569   3.961   0.568   1.989
 2890SOL    HW2 9570   3.841   0.557   2.100
 2891SOL     OW 9571   2.465   4.941   3.986
 2891SOL    HW1 9572   2.514   5.019   3.948
 2891SOL    HW2 9573   2.381   4.926   3.933
 2892SOL     OW 9574   4.469   3.926   6.265
 2892SOL    HW1 9575   4.471   4.011   6.213
 2892SOL    HW2 9576   4.442   3.850   6.205
 2893SOL     OW 9577   2.354   0.300   5.204
 2893SOL    HW1 9578   2.316   0.369   5.266
 2893SOL    HW2 9579   2.344   0.210   5.245
 2894SOL     OW 9580   3.803   2.777   6.985
 2894SOL    HW1 9581   3.839   2.703   6.929
 2894SOL    HW2 9582   3.863   2.793   0.038
 2895SOL     OW 9583   3.675   3.496   6.131
 2895SOL    HW1 9584   3.754   3.515   6.073
 2895SOL    HW2 9585   3.659   3.398   6.135
 2896SOL     OW 9586   2.439   4.923   0.694
 2896SOL    HW1 9587   2.396   4.954   0.609
 2896SOL    HW2 9588   2.452   4.824   0.690
 2897SOL     OW 9589   2.161   5.928   3.821
 2897SOL    HW1 9590   2.189   5.837   3.851
 2897SOL    HW2 9591   2.226   5.961   3.752
 2898SOL     OW 9592   3.668   5.635   2.025
 2898SOL    HW1 9593   3.729   5.601   2.097
 2898SOL    HW2 9594   3.578   5.654   2.064
 2899SOL     OW 9595   6.754   0.032   0.322
 2899SOL    HW1 9596   6.670   0.058   0.273
 2899SOL    HW2 9597   6.737   0.032   0.420
 2900SOL     OW 9598   1.459   5.139   5.774
 2900SOL    HW1 9599   1.543   5.147   5.721
 2900SOL    HW2 9600   1.466   5.064   5.839
 2901SOL     OW 9601   2.808   0.492   1.641
 2901SOL    HW1 9602   2.769   0.487   1.733
 2901SOL    HW2 9603   2.867   0.413   1.625
 2902SOL     OW 9604   5.493   5.886   0.835
 2902SOL    HW1 9605   5.540   5.951   0.776
 2902SOL    HW2 9606   5.514   5.906   0.931
 2903SOL     OW 9607   2.068   1.215   1.880
 2903SOL    HW1 9608   2.158   1.256   1.867
 2903SOL    HW2 9609   2.074   1.117   1.863
 2904SOL     OW 9610   2.334   2.733   5.118
 2904SOL    HW1 9611   2.407   2.796   5.147
 2904SOL    HW2 9612   2.299   2.762   5.029
 2905SOL     OW 9613   1.836   2.166   2.012
 2905SOL    HW1 9614   1.791   2.086   2.053
 2905SOL    HW2 9615   1.902   2.204   2.077
 2906SOL     OW 9616   5.282   5.598   2.049
 2906SOL    HW1 9617   5.247   5.505   2.057
 2906SOL    HW2 9618   5.328   5.610   1.961
 2907SOL     OW 9619   6.592   1.443   4.277
 2907SOL    HW1 9620   6.532   1.497   4.336
 2907SOL    HW2 9621   6.630   1.366   4.329
 2908SOL     OW 9622   3.522   6.140   4.516
 2908SOL    HW1 9623   3.491   6.193   4.595
 2908SOL    HW2 9624   3.457   6.066   4.498
 2909SOL     OW 9625   1.212   5.785   4.523
 2909SOL    HW1 9626   1.300   5.776   4.570
 2909SOL    HW2 9627   1.198   5.880   4.496
 2910SOL     OW 9628   4.554   6.081   6.363
 2910SOL    HW1 9629   4.493   6.156   6.389
 2910SOL    HW2 9630   4.595   6.042   6.445
 2911SOL     OW 9631   2.049   4.641   3.066
 2911SOL    HW1 9632   2.053   4.587   2.983
 2911SOL    HW2 9633   1.957   4.679   3.078
 2912SOL     OW 9634   2.671   6.339   0.289
 2912SOL    HW1 9635   2.698   6.417   0.344
 2912SOL    HW2 9636   2.685   6.360   0.192
 2913SOL     OW 9637   1.819   3.782   2.660
 2913SOL    HW1 9638   1.816   3.698   2.715
 2913SOL    HW2 9639   1.904   3.785   2.608
 2914SOL     OW 9640   5.339   5.785   5.850
 2914SOL    HW1 9641   5.337   5.704   5.793
 2914SOL    HW2 9642   5.251   5.833   5.844
 2915SOL     OW 9643   4.632   1.627   3.661
 2915SOL    HW1 9644   4.677   1.636   3.573
 2915SOL    HW2 9645   4.687   1.671   3.732
 2916SOL     OW 9646   5.383   5.557   5.080
 2916SOL    HW1 9647   5.334   5.608   5.151
 2916SOL    HW2 9648   5.420   5.621   5.013
 2917SOL     OW 9649   4.659   0.465   2.122
 2917SOL    HW1 9650   4.593   0.449   2.049
 2917SOL    HW2 9651   4.725   0.534   2.093
 2918SOL     OW 9652   0.523   3.792   3.803
 2918SOL    HW1 9653   0.520   3.700   3.763
 2918SOL    HW2 9654   0.515   3.860   3.730
 2919SOL     OW 9655   5.976   5.873   0.608
 2919SOL    HW1 9656   5.964   5.972   0.601
 2919SOL    HW2 9657   6.059   5.853   0.661
 2920SOL     OW 9658   3.955   2.035   2.885
 2920SOL    HW1 9659   4.033   2.092   2.860
 2920SOL    HW2 9660   3.904   2.009   2.802
 2921SOL     OW 9661   6.899   0.378   2.345
 2921SOL    HW1 9662   6.879   0.378   2.247
 2921SOL    HW2 9663   6.913   0.472   2.377
 2922SOL     OW 9664   4.321   6.883   5.518
 2922SOL    HW1 9665   4.383   6.829   5.575
 2922SOL    HW2 9666   4.364   6.900   5.429
 2923SOL     OW 9667   6.229   4.782   1.899
 2923SOL    HW1 9668   6.160   4.809   1.966
 2923SOL    HW2 9669   6.257   4.863   1.847
 2924SOL     OW 9670   0.363   1.504   5.280
 2924SOL    HW1 9671   0.424   1.579   5.307
 2924SOL    HW2 9672   0.408   1.417   5.299
 2925SOL     OW 9673   5.460   3.278   1.526
 2925SOL    HW1 9674   5.502   3.211   1.587
 2925SOL    HW2 9675   5.449   3.365   1.576
 2926SOL     OW 9676   0.135   1.767   4.752
 2926SOL    HW1 9677   0.064   1.769   4.822
 2926SOL    HW2 9678   0.103   1.715   4.673
 2927SOL     OW 9679   0.940   2.711   2.575
 2927SOL    HW1 9680   0.868   2.651   2.611
 2927SOL    HW2 9681   0.906   2.805   2.574
 2928SOL     OW 9682   5.684   0.029   0.789
 2928SOL    HW1 9683   5.681   0.127   0.772
 2928SOL    HW2 9684   5.632   0.008   0.872
 2929SOL     OW 9685   0.429   6.756   6.178
 2929SOL    HW1 9686   0.348   6.704   6.204
 2929SOL    HW2 9687   0.510   6.698   6.188
 2930SOL     OW 9688   3.773   6.643   4.753
 2930SOL    HW1 9689   3.696   6.600   4.800
 2930SOL    HW2 9690   3.746   6.669   4.661
 2931SOL     OW 9691   4.396   6.818   6.299
 2931SOL    HW1 9692   4.349   6.871   6.229
 2931SOL    HW2 9693   4.329   6.773   6.359
 2932SOL     OW 9694   1.061   4.309   1.471
 2932SOL    HW1 9695   0.972   4.262   1.478
 2932SOL    HW2 9696   1.046   4.407   1.460
 2933SOL     OW 9697   5.218   2.086   3.376
 2933SOL    HW1 9698   5.294   2.056   3.319
 2933SOL    HW2 9699   5.172   2.006   3.416
 2934SOL     OW 9700   2.548   0.936   6.976
 2934SOL    HW1 9701   2.516   0.914   0.043
 2934SOL    HW2 9702   2.636   0.890   6.959
 2935SOL     OW 9703   5.816   2.522   1.200
 2935SOL    HW1 9704   5.895   2.532   1.140
 2935SOL    HW2 9705   5.785   2.613   1.229
 2936SOL     OW 9706   4.853   5.870   0.195
 2936SOL    HW1 9707   4.907   5.843   0.116
 2936SOL    HW2 9708   4.888   5.825   0.277
 2937SOL     OW 9709   3.384   5.154   6.790
 2937SOL    HW1 9710   3.424   5.221   6.853
 2937SOL    HW2 9711   3.424   5.165   6.699
 2938SOL     OW 9712   4.556   5.294   5.193
 2938SOL    HW1 9713   4.469   5.251   5.216
 2938SOL    HW2 9714   4.539   5.371   5.131
 2939SOL     OW 9715   6.922   6.497   5.461
 2939SOL    HW1 9716   6.857   6.531   5.529
 2939SOL    HW2 9717   6.882   6.419   5.413
 2940SOL     OW 9718   5.131   6.918   5.093
 2940SOL    HW1 9719   5.169   6.827   5.076
 2940SOL    HW2 9720   5.206   6.983   5.108
 2941SOL     OW 9721   1.733   1.895   5.542
 2941SOL    HW1 9722   1.760   1.963   5.611
 2941SOL    HW2 9723   1.640   1.914   5.512
 2942SOL     OW 9724   3.063   6.547   3.072
 2942SOL    HW1 9725   3.101   6.534   3.163
 2942SOL    HW2 9726   3.121   6.611   3.021
 2943SOL     OW 9727   6.057   3.967   3.505
 2943SOL    HW1 9728   6.057   3.931   3.411
 2943SOL    HW2 9729   6.141   3.939   3.551
 2944SOL     OW 9730   4.070   5.968   5.829
 2944SOL    HW1 9731   4.139   6.009   5.889
 2944SOL    HW2 9732   4.097   5.874   5.807
 2945SOL     OW 9733   3.195   2.980   3.170
 2945SOL    HW1 9734   3.149   3.062   3.202
 2945SOL    HW2 9735   3.140   2.936   3.100
 2946SOL     OW 9736   6.880   5.878   6.662
 2946SOL    HW1 9737   6.886   5.970   6.622
 2946SOL    HW2 9738   6.881   5.885   6.762
 2947SOL     OW 9739   6.350   4.508   0.633
 2947SOL    HW1 9740   6.258   4.541   0.612
 2947SOL    HW2 9741   6.404   4.506   0.549
 2948SOL     OW 9742   5.905   4.249   4.783
 2948SOL    HW1 9743   5.854   4.333   4.802
 2948SOL    HW2 9744   5.982   4.268   4.723
 2949SOL     OW 9745   1.433   6.528   0.532
 2949SOL    HW1 9746   1.504   6.498   0.596
 2949SOL    HW2 9747   1.458   6.618   0.495
 2950SOL     OW 9748   5.288   3.399   4.446
 2950SOL    HW1 9749   5.379   3.433   4.466
 2950SOL    HW2 9750   5.251   3.447   4.366
 2951SOL     OW 9751   0.646   1.448   1.410
 2951SOL    HW1 9752   0.700   1.450   1.494
 2951SOL    HW2 9753   0.603   1.359   1.399
 2952SOL     OW 9754   1.803   4.105   2.520
 2952SOL    HW1 9755   1.851   4.183   2.479
 2952SOL    HW2 9756   1.840   4.020   2.482
 2953SOL     OW 9757   4.735   2.532   2.025
 2953SOL    HW1 9758   4.789   2.568   2.101
 2953SOL    HW2 9759   4.638   2.541   2.046
 2954SOL     OW 9760   6.493   6.600   2.848
 2954SOL    HW1 9761   6.542   6.515   2.831
 2954SOL    HW2 9762   6.456   6.599   2.941
 2955SOL     OW 9763   0.649   3.235   0.511
 2955SOL    HW1 9764   0.716   3.246   0.437
 2955SOL    HW2 9765   0.568   3.188   0.475
 2956SOL     OW 9766   6.925   5.274   2.693
 2956SOL    HW1 9767   6.986   5.353   2.704
 2956SOL    HW2 9768   6.907   5.233   2.782
 2957SOL     OW 9769   1.000   3.750   2.125
 2957SOL    HW1 9770   0.934   3.678   2.147
 2957SOL    HW2 9771   0.993   3.823   2.192
 2958SOL     OW 9772   2.012   4.518   6.055
 2958SOL    HW1 9773   2.047   4.581   6.124
 2958SOL    HW2 9774   1.964   4.443   6.100
 2959SOL     OW 9775   4.704   5.327   6.661
 2959SOL    HW1 9776   4.681   5.337   6.565
 2959SOL    HW2 9777   4.624   5.296   6.712
 2960SOL     OW 9778   1.568   1.644   0.368
 2960SOL    HW1 9779   1.504   1.721   0.379
 2960SOL    HW2 9780   1.517   1.558   0.372
 2961SOL     OW 9781   5.836   3.820   4.012
 2961SOL    HW1 9782   5.853   3.873   3.929
 2961SOL    HW2 9783   5.871   3.727   4.000
 2962SOL     OW 9784   4.464   0.426   3.551
 2962SOL    HW1 9785   4.385   0.466   3.598
 2962SOL    HW2 9786   4.541   0.417   3.614
 2963SOL     OW 9787   2.099   1.638   5.194
 2963SOL    HW1 9788   2.140   1.566   5.250
 2963SOL    HW2 9789   2.084   1.720   5.250
 2964SOL     OW 9790   3.188   6.125   0.525
 2964SOL    HW1 9791   3.093   6.153   0.537
 2964SOL    HW2 9792   3.193   6.053   0.456
 2965SOL     OW 9793   0.192   1.798   6.325
 2965SOL    HW1 9794   0.204   1.724   6.258
 2965SOL    HW2 9795   0.120   1.773   6.390
 2966SOL     OW 9796   4.904   4.598   4.150
 2966SOL    HW1 9797   4.975   4.535   4.182
 2966SOL    HW2 9798   4.928   4.691   4.175
 2967SOL     OW 9799   6.038   2.920   3.874
 2967SOL    HW1 9800   6.054   2.874   3.961
 2967SOL    HW2 9801   5.949   2.892   3.838
 2968SOL     OW 9802   0.571   4.238   3.387
 2968SOL    HW1 9803   0.628   4.172   3.436
 2968SOL    HW2 9804   0.476   4.224   3.412
 2969SOL     OW 9805   5.149   2.154   4.688
 2969SOL    HW1 9806   5.193   2.067   4.668
 2969SOL    HW2 9807   5.215   2.228   4.675
 2970SOL     OW 9808   1.051   4.263   6.349
 2970SOL    HW1 9809   1.002   4.265   6.436
 2970SOL    HW2 9810   1.149   4.270   6.366
 2971SOL     OW 9811   5.237   2.067   2.662
 2971SOL    HW1 9812   5.174   2.038   2.734
 2971SOL    HW2 9813   5.249   1.994   2.596
 2972SOL     OW 9814   6.929   3.553   5.322
 2972SOL    HW1 9815   6.866   3.612   5.270
 2972SOL    HW2 9816   6.895   3.459   5.320
 2973SOL     OW 9817   5.321   6.566   3.838
 2973SOL    HW1 9818   5.275   6.494   3.890
 2973SOL    HW2 9819   5.354   6.528   3.751
 2974SOL     OW 9820   6.818   4.206   2.564
 2974SOL    HW1 9821   6.819   4.233   2.660
 2974SOL    HW2 9822   6.724   4.188   2.536
 2975SOL     OW 9823   0.346   0.550   5.479
 2975SOL    HW1 9824   0.395   0.632   5.449
 2975SOL    HW2 9825   0.287   0.573   5.557
 2976SOL     OW 9826   3.671   0.762   2.403
 2976SOL    HW1 9827   3.760   0.808   2.413
 2976SOL    HW2 9828   3.656   0.740   2.307
 2977SOL     OW 9829   3.125   6.610   3.870
 2977SOL    HW1 9830   3.044   6.631   3.924
 2977SOL    HW2 9831   3.156   6.517   3.890
 2978SOL     OW 9832   5.607   4.946   7.003
 2978SOL    HW1 9833   5.528   4.960   0.038
 2978SOL    HW2 9834   5.576   4.936   6.908
 2979SOL     OW 9835   4.074   0.492   3.296
 2979SOL    HW1 9836   4.101   0.487   3.392
 2979SOL    HW2 9837   4.147   0.534   3.243
 2980SOL     OW 9838   0.242   5.966   4.385
 2980SOL    HW1 9839   0.225   5.877   4.343
 2980SOL    HW2 9840   0.340   5.979   4.399
 2981SOL     OW 9841   2.120   1.161   5.848
 2981SOL    HW1 9842   2.083   1.082   5.898
 2981SOL    HW2 9843   2.069   1.172   5.762
 2982SOL     OW 9844   4.672   6.283   2.355
 2982SOL    HW1 9845   4.650   6.294   2.258
 2982SOL    HW2 9846   4.769   6.260   2.364
 2983SOL     OW 9847   6.634   0.837   3.710
 2983SOL    HW1 9848   6.621   0.744   3.676
 2983SOL    HW2 9849   6.621   0.839   3.809
 2984SOL     OW 9850   5.440   5.548   1.828
 2984SOL    HW1 9851   5.426   5.607   1.748
 2984SOL    HW2 9852   5.537   5.544   1.850
 2985SOL     OW 9853   6.420   2.425   2.968
 2985SOL    HW1 9854   6.432   2.358   2.894
 2985SOL    HW2 9855   6.326   2.421   3.001
 2986SOL     OW 9856   1.823   3.589   5.203
 2986SOL    HW1 9857   1.907   3.536   5.217
 2986SOL    HW2 9858   1.764   3.541   5.137
 2987SOL     OW 9859   4.178   2.084   4.514
 2987SOL    HW1 9860   4.170   2.136   4.429
 2987SOL    HW2 9861   4.087   2.071   4.554
 2988SOL     OW 9862   1.113   0.298   1.582
 2988SOL    HW1 9863   1.046   0.371   1.588
 2988SOL    HW2 9864   1.186   0.324   1.519
 2989SOL     OW 9865   7.003   5.078   1.236
 2989SOL    HW1 9866   7.023   5.174   1.257
 2989SOL    HW2 9867   6.904   5.065   1.230
 2990SOL     OW 9868   3.788   1.000   1.498
 2990SOL    HW1 9869   3.855   1.046   1.439
 2990SOL    HW2 9870   3.817   1.007   1.593
 2991SOL     OW 9871   6.970   3.976   0.489
 2991SOL    HW1 9872   0.004   3.917   0.544
 2991SOL    HW2 9873   6.880   3.935   0.479
 2992SOL     OW 9874   3.327   5.259   6.164
 2992SOL    HW1 9875   3.277   5.245   6.078
 2992SOL    HW2 9876   3.393   5.184   6.177
 2993SOL     OW 9877   1.573   5.421   1.277
 2993SOL    HW1 9878   1.658   5.378   1.309
 2993SOL    HW2 9879   1.497   5.357   1.287
 2994SOL     OW 9880   4.871   6.760   6.711
 2994SOL    HW1 9881   4.785   6.757   6.659
 2994SOL    HW2 9882   4.882   6.852   6.750
 2995SOL     OW 9883   1.714   1.508   6.513
 2995SOL    HW1 9884   1.726   1.425   6.459
 2995SOL    HW2 9885   1.771   1.581   6.473
 2996SOL     OW 9886   4.259   4.986   6.241
 2996SOL    HW1 9887   4.214   5.065   6.198
 2996SOL    HW2 9888   4.317   4.941   6.173
 2997SOL     OW 9889   5.492   6.687   0.863
 2997SOL    HW1 9890   5.524   6.763   0.921
 2997SOL    HW2 9891   5.434   6.723   0.790
 2998SOL     OW 9892   6.139   5.667   4.458
 2998SOL    HW1 9893   6.074   5.723   4.510
 2998SOL    HW2 9894   6.091   5.590   4.417
 2999SOL     OW 9895   3.423   0.089   3.187
 2999SOL    HW1 9896   3.376   0.169   3.148
 2999SOL    HW2 9897   3.522   0.102   3.178
 3000SOL     OW 9898   1.173   2.884   5.780
 3000SOL    HW1 9899   1.163   2.867   5.682
 3000SOL    HW2 9900   1.083   2.888   5.823
 3001SOL     OW 9901   4.937   6.817   5.503
 3001SOL    HW1 9902   5.001   6.813   5.580
 3001SOL    HW2 9903   4.862   6.879   5.525
 3002SOL     OW 9904   3.739   0.161   6.120
 3002SOL    HW1 9905   3.837   0.157   6.136
 3002SOL    HW2 9906   3.694   0.201   6.200
 3003SOL     OW 9907   2.857   6.649   5.890
 3003SOL    HW1 9908   2.815   6.567   5.851
 3003SOL    HW2 9909   2.830   6.728   5.836
 3004SOL     OW 9910   5.890   2.870   4.391
 3004SOL    HW1 9911   5.902   2.777   4.426
 3004SOL    HW2 9912   5.816   2.914   4.442
 3005SOL     OW 9913   4.150   2.644   1.258
 3005SOL    HW1 9914   4.062   2.598   1.268
 3005SOL    HW2 9915   4.136   2.734   1.216
 3006SOL     OW 9916   5.364   0.714   1.424
 3006SOL    HW1 9917   5.339   0.811   1.417
 3006SOL    HW2 9918   5.463   0.705   1.434
 3007SOL     OW 9919   6.162   4.911   2.913
 3007SOL    HW1 9920   6.214   4.963   2.846
 3007SOL    HW2 9921   6.067   4.942   2.913
 3008SOL     OW 9922   3.360   6.436   5.761
 3008SOL    HW1 9923   3.285   6.370   5.753
 3008SOL    HW2 9924   3.326   6.521   5.800
 3009SOL     OW 9925   1.336   6.735   3.372
 3009SOL    HW1 9926   1.411   6.695   3.425
 3009SOL    HW2 9927   1.315   6.826   3.407
 3010SOL     OW 9928   3.535   6.110   2.904
 3010SOL    HW1 9929   3.615   6.068   2.861
 3010SOL    HW2 9930   3.515   6.197   2.860
 3011SOL     OW 9931   5.300   0.335   0.225
 3011SOL    HW1 9932   5.387   0.383   0.237
 3011SOL    HW2 9933   5.317   0.243   0.189
 3012SOL     OW 9934   0.509   3.913   3.162
 3012SOL    HW1 9935   0.465   3.863   3.236
 3012SOL    HW2 9936   0.521   4.009   3.188
 3013SOL     OW 9937   5.711   4.990   2.199
 3013SOL    HW1 9938   5.784   4.938   2.244
 3013SOL    HW2 9939   5.690   5.071   2.253
 3014SOL     OW 9940   4.743   0.836   4.189
 3014SOL    HW1 9941   4.749   0.752   4.136
 3014SOL    HW2 9942   4.794   0.825   4.274
 3015SOL     OW 9943   3.284   2.444   0.632
 3015SOL    HW1 9944   3.300   2.394   0.547
 3015SOL    HW2 9945   3.299   2.382   0.710
 3016SOL     OW 9946   3.891   6.795   3.256
 3016SOL    HW1 9947   3.809   6.786   3.313
 3016SOL    HW2 9948   3.972   6.789   3.314
 3017SOL     OW 9949   0.346   5.922   1.284
 3017SOL    HW1 9950   0.369   6.016   1.310
 3017SOL    HW2 9951   0.386   5.901   1.194
 3018SOL     OW 9952   4.114   6.213   0.002
 3018SOL    HW1 9953   4.143   6.125   6.989
 3018SOL    HW2 9954   4.014   6.215   0.009
 3019SOL     OW 9955   4.193   6.902   1.257
 3019SOL    HW1 9956   4.273   6.884   1.314
 3019SOL    HW2 9957   4.110   6.887   1.310
 3020SOL     OW 9958   2.568   3.226   1.026
 3020SOL    HW1 9959   2.581   3.138   1.072
 3020SOL    HW2 9960   2.488   3.273   1.065
 3021SOL     OW 9961   2.074   2.367   6.930
 3021SOL    HW1 9962   2.086   2.278   6.974
 3021SOL    HW2 9963   2.147   2.428   6.958
 3022SOL     OW 9964   5.124   6.891   2.806
 3022SOL    HW1 9965   5.109   6.927   2.897
 3022SOL    HW2 9966   5.208   6.929   2.768
 3023SOL     OW 9967   4.830   5.756   2.370
 3023SOL    HW1 9968   4.821   5.854   2.391
 3023SOL    HW2 9969   4.881   5.746   2.284
 3024SOL     OW 9970   3.222   0.162   0.074
 3024SOL    HW1 9971   3.226   0.259   0.049
 3024SOL    HW2 9972   3.274   0.108   0.008
 3025SOL     OW 9973   2.303   2.900   1.274
 3025SOL    HW1 9974   2.332   2.814   1.316
 3025SOL    HW2 9975   2.364   2.974   1.304
 3026SOL     OW 9976   2.357   3.929   0.859
 3026SOL    HW1 9977   2.341   3.947   0.956
 3026SOL    HW2 9978   2.287   3.974   0.804
 3027SOL     OW 9979   1.977   2.147   3.304
 3027SOL    HW1 9980   2.021   2.061   3.329
 3027SOL    HW2 9981   1.923   2.135   3.221
 3028SOL     OW 9982   1.403   6.361   5.640
 3028SOL    HW1 9983   1.363   6.446   5.676
 3028SOL    HW2 9984   1.366   6.343   5.548
 3029SOL     OW 9985   5.667   5.772   5.196
 3029SOL    HW1 9986   5.614   5.776   5.111
 3029SOL    HW2 9987   5.703   5.679   5.208
 3030SOL     OW 9988   1.470   1.911   5.485
 3030SOL    HW1 9989   1.390   1.853   5.501
 3030SOL    HW2 9990   1.482   1.926   5.387
 3031SOL     OW 9991   0.327   4.912   6.262
 3031SOL    HW1 9992   0.320   4.876   6.355
 3031SOL    HW2 9993   0.236   4.915   6.220
 3032SOL     OW 9994   5.249   0.466   5.751
 3032SOL    HW1 9995   5.340   0.477   5.790
 3032SOL    HW2 9996   5.181   0.462   5.825
 3033SOL     OW 9997   0.017   3.923   6.640
 3033SOL    HW1 9998   0.037   3.947   6.545
 3033SOL    HW2 9999   0.096   3.878   6.681
 3034SOL     OW10000   2.665   6.315   4.603
 3034SOL    HW110001   2.681   6.412   4.586
 3034SOL    HW210002   2.696   6.291   4.695
 3035SOL     OW10003   5.559   1.180   6.943
 3035SOL    HW110004   5.482   1.241   6.927
 3035SOL    HW210005   5.613   1.214   7.020
 3036SOL     OW10006   1.172   4.447   0.298
 3036SOL    HW110007   1.154   4.484   0.207
 3036SOL    HW210008   1.195   4.350   0.291
 3037SOL     OW10009   6.426   6.459   5.389
 3037SOL    HW110010   6.400   6.532   5.326
 3037SOL    HW210011   6.526   6.453   5.394
 3038SOL     OW10012   5.724   6.708   6.095
 3038SOL    HW110013   5.789   6.635   6.118
 3038SOL    HW210014   5.709   6.765   6.175
 3039SOL     OW10015   0.651   4.683   1.565
 3039SOL    HW110016   0.693   4.593   1.573
 3039SOL    HW210017   0.624   4.699   1.470
 3040SOL     OW10018   2.917   3.363   0.095
 3040SOL    HW110019   2.964   3.286   0.051
 3040SOL    HW210020   2.925   3.355   0.194
 3041SOL     OW10021   1.984   2.325   6.054
 3041SOL    HW110022   1.962   2.278   6.139
 3041SOL    HW210023   2.072   2.293   6.019
 3042SOL     OW10024   4.380   0.483   2.023
 3042SOL    HW110025   4.341   0.501   2.113
 3042SOL    HW210026   4.337   0.401   1.984
 3043SOL     OW10027   0.886   5.783   0.849
 3043SOL    HW110028   0.822   5.735   0.908
 3043SOL    HW210029   0.863   5.766   0.753
 3044SOL     OW10030   3.229   4.617   6.125
 3044SOL    HW110031   3.289   4.630   6.203
 3044SOL    HW210032   3.239   4.525   6.089
 3045SOL     OW10033   5.672   2.322   2.951
 3045SOL    HW110034   5.705   2.354   2.862
 3045SOL    HW210035   5.616   2.393   2.993
 3046SOL     OW10036   1.499   2.682   5.783
 3046SOL    HW110037   1.458   2.747   5.846
 3046SOL    HW210038   1.559   2.730   5.718
 3047SOL     OW10039   6.173   4.912   2.466
 3047SOL    HW110040   6.260   4.912   2.516
 3047SOL    HW210041   6.117   4.989   2.496
 3048SOL     OW10042   2.948   2.927   1.617
 3048SOL    HW110043   3.016   2.855   1.604
 3048SOL    HW210044   2.987   2.999   1.675
 3049SOL     OW10045   0.839   0.330   2.504
 3049SOL    HW110046   0.891   0.381   2.573
 3049SOL    HW210047   0.881   0.239   2.492
 3050SOL     OW10048   4.588   5.778   3.995
 3050SOL    HW110049   4.613   5.764   4.091
 3050SOL    HW210050   4.626   5.704   3.940
 3051SOL     OW10051   2.777   4.666   0.049
 3051SOL    HW110052   2.821   4.578   0.065
 3051SOL    HW210053   2.736   4.667   6.982
 3052SOL     OW10054   4.061   6.588   3.096
 3052SOL    HW110055   4.140   6.566   3.154
 3052SOL    HW210056   3.977   6.573   3.147
 3053SOL     OW10057   5.870   6.591   0.186
 3053SOL    HW110058   5.809   6.530   0.236
 3053SOL    HW210059   5.944   6.622   0.246
 3054SOL     OW10060   1.034   3.016   0.205
 3054SOL    HW110061   0.991   3.105   0.192
 3054SOL    HW210062   1.123   3.015   0.159
 3055SOL     OW10063   5.747   6.284   3.454
 3055SOL    HW110064   5.663   6.239   3.423
 3055SOL    HW210065   5.743   6.381   3.431
 3056SOL     OW10066   6.813   0.536   0.954
 3056SOL    HW110067   6.846   0.593   1.029
 3056SOL    HW210068   6.871   0.549   0.874
 3057SOL     OW10069   6.017   5.223   2.747
 3057SOL    HW110070   5.956   5.146   2.734
 3057SOL    HW210071   6.107   5.190   2.777
 3058SOL     OW10072   6.522   5.235   1.587
 3058SOL    HW110073   6.606   5.183   1.572
 3058SOL    HW210074   6.479   5.204   1.672
 3059SOL     OW10075   1.785   2.077   4.651
 3059SOL    HW110076   1.852   2.071   4.726
 3059SOL    HW210077   1.825   2.127   4.575
 3060SOL     OW10078   6.306   6.396   1.360
 3060SOL    HW110079   6.306   6.312   1.305
 3060SOL    HW210080   6.211   6.425   1.377
 3061SOL     OW10081   0.520   0.303   6.126
 3061SOL    HW110082   0.421   0.315   6.129
 3061SOL    HW210083   0.543   0.215   6.169
 3062SOL     OW10084   3.132   6.514   0.777
 3062SOL    HW110085   3.143   6.552   0.686
 3062SOL    HW210086   3.043   6.541   0.814
 3063SOL     OW10087   2.013   5.123   1.138
 3063SOL    HW110088   1.950   5.143   1.063
 3063SOL    HW210089   2.067   5.204   1.159
 3064SOL     OW10090   6.114   4.096   3.178
 3064SOL    HW110091   6.100   4.001   3.206
 3064SOL    HW210092   6.137   4.151   3.259
 3065SOL     OW10093   1.748   1.111   0.392
 3065SOL    HW110094   1.756   1.197   0.443
 3065SOL    HW210095   1.778   1.124   0.298
 3066SOL     OW10096   6.143   4.800   1.495
 3066SOL    HW110097   6.081   4.768   1.567
 3066SOL    HW210098   6.166   4.895   1.511
 3067SOL     OW10099   4.901   6.852   4.206
 3067SOL    HW110100   4.986   6.849   4.258
 3067SOL    HW210101   4.860   6.942   4.214
 3068SOL     OW10102   5.696   4.964   0.915
 3068SOL    HW110103   5.791   4.933   0.924
 3068SOL    HW210104   5.688   5.058   0.947
 3069SOL     OW10105   0.471   5.963   2.097
 3069SOL    HW110106   0.488   5.872   2.058
 3069SOL    HW210107   0.437   5.953   2.191
 3070SOL     OW10108   3.524   1.230   3.879
 3070SOL    HW110109   3.549   1.306   3.939
 3070SOL    HW210110   3.434   1.248   3.838
 3071SOL     OW10111   5.416   0.106   3.512
 3071SOL    HW110112   5.362   0.065   3.585
 3071SOL    HW210113   5.476   0.177   3.551
 3072SOL     OW10114   0.476   6.763   2.240
 3072SOL    HW110115   0.489   6.793   2.334
 3072SOL    HW210116   0.381   6.777   2.213
 3073SOL     OW10117   1.249   3.646   5.530
 3073SOL    HW110118   1.285   3.661   5.622
 3073SOL    HW210119   1.154   3.616   5.536
 3074SOL     OW10120   4.772   3.082   6.215
 3074SOL    HW110121   4.758   3.001   6.158
 3074SOL    HW210122   4.805   3.054   6.305
 3075SOL     OW10123   1.406   5.564   1.094
 3075SOL    HW110124   1.486   5.529   1.142
 3075SOL    HW210125   1.425   5.568   0.996
 3076SOL     OW10126   6.292   0.698   5.161
 3076SOL    HW110127   6.353   0.764   5.118
 3076SOL    HW210128   6.346   0.624   5.201
 3077SOL     OW10129   5.406   4.679   4.206
 3077SOL    HW110130   5.392   4.605   4.272
 3077SOL    HW210131   5.474   4.743   4.243
 3078SOL     OW10132   1.578   3.832   1.892
 3078SOL    HW110133   1.654   3.785   1.937
 3078SOL    HW210134   1.613   3.885   1.815
 3079SOL     OW10135   6.867   2.137   5.157
 3079SOL    HW110136   6.791   2.152   5.093
 3079SOL    HW210137   6.945   2.099   5.108
 3080SOL     OW10138   6.332   5.137   0.535
 3080SOL    HW110139   6.326   5.047   0.493
 3080SOL    HW210140   6.391   5.133   0.616
 3081SOL     OW10141   0.387   4.723   5.056
 3081SOL    HW110142   0.310   4.757   5.108
 3081SOL    HW210143   0.471   4.766   5.088
 3082SOL     OW10144   3.249   0.011   2.591
 3082SOL    HW110145   3.315   0.048   2.526
 3082SOL    HW210146   3.262   6.937   2.599
 3083SOL     OW10147   3.019   0.469   2.112
 3083SOL    HW110148   3.002   0.384   2.062
 3083SOL    HW210149   3.113   0.468   2.147
 3084SOL     OW10150   5.367   5.965   4.825
 3084SOL    HW110151   5.368   5.942   4.727
 3084SOL    HW210152   5.423   6.046   4.840
 3085SOL     OW10153   0.582   5.776   2.702
 3085SOL    HW110154   0.488   5.749   2.683
 3085SOL    HW210155   0.618   5.827   2.624
 3086SOL     OW10156   4.765   1.147   3.762
 3086SOL    HW110157   4.680   1.199   3.766
 3086SOL    HW210158   4.776   1.094   3.847
 3087SOL     OW10159   6.466   3.820   2.881
 3087SOL    HW110160   6.431   3.857   2.795
 3087SOL    HW210161   6.394   3.766   2.925
 3088SOL     OW10162   2.682   4.864   5.645
 3088SOL    HW110163   2.640   4.816   5.568
 3088SOL    HW210164   2.729   4.946   5.612
 3089SOL     OW10165   1.408   2.821   0.332
 3089SOL    HW110166   1.377   2.914   0.353
 3089SOL    HW210167   1.499   2.824   0.292
 3090SOL     OW10168   1.036   1.807   1.486
 3090SOL    HW110169   0.968   1.830   1.417
 3090SOL    HW210170   0.997   1.741   1.550
 3091SOL     OW10171   2.974   0.073   0.519
 3091SOL    HW110172   3.033   0.002   0.558
 3091SOL    HW210173   2.967   0.150   0.583
 3092SOL     OW10174   5.508   0.132   1.307
 3092SOL    HW110175   5.518   0.198   1.233
 3092SOL    HW210176   5.416   0.092   1.305
 3093SOL     OW10177   5.729   5.465   5.152
 3093SOL    HW110178   5.710   5.399   5.080
 3093SOL    HW210179   5.688   5.434   5.238
 3094SOL     OW10180   2.942   5.929   5.710
 3094SOL    HW110181   2.988   5.873   5.779
 3094SOL    HW210182   2.994   5.927   5.625
 3095SOL     OW10183   2.819   4.786   4.799
 3095SOL    HW110184   2.775   4.759   4.885
 3095SOL    HW210185   2.756   4.769   4.723
 3096SOL     OW10186   0.608   0.803   5.677
 3096SOL    HW110187   0.585   0.760   5.590
 3096SOL    HW210188   0.589   0.739   5.752
 3097SOL     OW10189   1.008   3.320   0.154
 3097SOL    HW110190   0.994   3.419   0.152
 3097SOL    HW210191   1.065   3.294   0.076
 3098SOL     OW10192   2.614   2.872   0.916
 3098SOL    HW110193   2.705   2.911   0.902
 3098SOL    HW210194   2.575   2.907   1.001
 3099SOL     OW10195   0.827   5.496   5.497
 3099SOL    HW110196   0.729   5.474   5.500
 3099SOL    HW210197   0.839   5.594   5.506
 3100SOL     OW10198   6.807   6.827   6.700
 3100SOL    HW110199   6.828   6.924   6.703
 3100SOL    HW210200   6.822   6.792   6.608
 3101SOL     OW10201   4.739   0.257   6.722
 3101SOL    HW110202   4.668   0.218   6.780
 3101SOL    HW210203   4.828   0.220   6.749
 3102SOL     OW10204   2.016   4.417   0.900
 3102SOL    HW110205   2.082   4.492   0.909
 3102SOL    HW210206   1.949   4.441   0.829
 3103SOL     OW10207   4.081   2.738   1.711
 3103SOL    HW110208   4.032   2.666   1.662
 3103SOL    HW210209   4.162   2.699   1.754
 3104SOL     OW10210   5.958   5.960   4.267
 3104SOL    HW110211   5.972   5.889   4.198
 3104SOL    HW210212   5.902   6.033   4.228
 3105SOL     OW10213   5.706   6.448   4.399
 3105SOL    HW110214   5.721   6.516   4.471
 3105SOL    HW210215   5.734   6.358   4.432
 3106SOL     OW10216   6.829   2.602   3.457
 3106SOL    HW110217   6.792   2.631   3.546
 3106SOL    HW210218   6.822   2.678   3.392
 3107SOL     OW10219   2.795   0.474   4.162
 3107SOL    HW110220   2.718   0.409   4.163
 3107SOL    HW210221   2.841   0.469   4.074
 3108SOL     OW10222   2.755   1.296   3.559
 3108SOL    HW110223   2.714   1.315   3.470
 3108SOL    HW210224   2.841   1.347   3.568
 3109SOL     OW10225   4.791   5.756   3.121
 3109SOL    HW110226   4.766   5.730   3.028
 3109SOL    HW210227   4.710   5.755   3.179
 3110SOL     OW10228   1.299   3.228   2.526
 3110SOL    HW110229   1.202   3.206   2.537
 3110SOL    HW210230   1.308   3.313   2.474
 3111SOL     OW10231   0.396   5.381   3.693
 3111SOL    HW110232   0.478   5.426   3.659
 3111SOL    HW210233   0.419   5.322   3.771
 3112SOL     OW10234   4.458   4.010   6.519
 3112SOL    HW110235   4.429   3.932   6.574
 3112SOL    HW210236   4.456   3.986   6.422
 3113SOL     OW10237   2.908   6.749   3.708
 3113SOL    HW110238   2.947   6.726   3.619
 3113SOL    HW210239   2.977   6.736   3.779
 3114SOL     OW10240   6.553   5.142   0.709
 3114SOL    HW110241   6.513   5.133   0.801
 3114SOL    HW210242   6.619   5.069   0.693
 3115SOL     OW10243   3.141   4.051   1.109
 3115SOL    HW110244   3.117   3.956   1.131
 3115SOL    HW210245   3.198   4.052   1.026
 3116SOL     OW10246   6.515   2.554   0.903
 3116SOL    HW110247   6.508   2.553   1.003
 3116SOL    HW210248   6.561   2.638   0.874
 3117SOL     OW10249   3.882   3.082   5.223
 3117SOL    HW110250   3.817   3.157   5.224
 3117SOL    HW210251   3.975   3.119   5.215
 3118SOL     OW10252   6.338   3.948   1.149
 3118SOL    HW110253   6.273   3.902   1.209
 3118SOL    HW210254   6.313   4.045   1.141
 3119SOL     OW10255   2.199   4.213   5.544
 3119SOL    HW110256   2.251   4.298   5.533
 3119SOL    HW210257   2.102   4.231   5.527
 3120SOL     OW10258   2.871   5.484   4.991
 3120SOL    HW110259   2.922   5.465   5.074
 3120SOL    HW210260   2.773   5.479   5.010
 3121SOL     OW10261   6.483   0.335   2.396
 3121SOL    HW110262   6.418   0.326   2.320
 3121SOL    HW210263   6.447   0.287   2.476
 3122SOL     OW10264   3.156   5.422   0.060
 3122SOL    HW110265   3.197   5.497   0.009
 3122SOL    HW210266   3.216   5.343   0.058
 3123SOL     OW10267   3.208   6.350   3.915
 3123SOL    HW110268   3.199   6.259   3.874
 3123SOL    HW210269   3.288   6.351   3.975
 3124SOL     OW10270   4.066   1.077   5.503
 3124SOL    HW110271   4.043   1.031   5.418
 3124SOL    HW210272   4.119   1.016   5.562
 3125SOL     OW10273   0.039   1.745   5.699
 3125SOL    HW110274   0.073   1.671   5.642
 3125SOL    HW210275   7.012   1.810   5.642
 3126SOL     OW10276   4.497   6.139   6.976
 3126SOL    HW110277   4.574   6.100   6.926
 3126SOL    HW210278   4.514   6.134   0.050
 3127SOL     OW10279   0.913   1.504   4.314
 3127SOL    HW110280   0.975   1.566   4.363
 3127SOL    HW210281   0.923   1.517   4.216
 3128SOL     OW10282   1.835   1.060   1.189
 3128SOL    HW110283   1.919   1.113   1.187
 3128SOL    HW210284   1.756   1.121   1.179
 3129SOL     OW10285   0.211   3.633   4.889
 3129SOL    HW110286   0.171   3.606   4.802
 3129SOL    HW210287   0.221   3.553   4.949
 3130SOL     OW10288   1.519   4.811   1.978
 3130SOL    HW110289   1.468   4.897   1.983
 3130SOL    HW210290   1.456   4.735   1.992
 3131SOL     OW10291   0.273   3.548   2.998
 3131SOL    HW110292   0.212   3.564   2.920
 3131SOL    HW210293   0.274   3.450   3.020
 3132SOL     OW10294   5.478   6.037   5.810
 3132SOL    HW110295   5.472   6.056   5.712
 3132SOL    HW210296   5.408   5.971   5.835
 3133SOL     OW10297   2.952   1.792   3.327
 3133SOL    HW110298   2.975   1.819   3.234
 3133SOL    HW210299   2.886   1.717   3.325
 3134SOL     OW10300   4.926   3.153   2.135
 3134SOL    HW110301   4.953   3.115   2.224
 3134SOL    HW210302   4.854   3.096   2.095
 3135SOL     OW10303   3.296   2.135   3.147
 3135SOL    HW110304   3.302   2.084   3.061
 3135SOL    HW210305   3.205   2.176   3.155
 3136SOL     OW10306   5.539   5.975   5.292
 3136SOL    HW110307   5.600   5.901   5.263
 3136SOL    HW210308   5.484   6.005   5.214
 3137SOL     OW10309   5.404   2.255   3.482
 3137SOL    HW110310   5.324   2.197   3.468
 3137SOL    HW210311   5.453   2.267   3.396
 3138SOL     OW10312   5.804   1.140   4.775
 3138SOL    HW110313   5.901   1.118   4.788
 3138SOL    HW210314   5.794   1.199   4.695
 3139SOL     OW10315   4.814   5.979   5.231
 3139SOL    HW110316   4.750   5.992   5.307
 3139SOL    HW210317   4.867   6.062   5.217
 3140SOL     OW10318   6.770   6.096   6.916
 3140SOL    HW110319   6.690   6.076   6.860
 3140SOL    HW210320   6.847   6.120   6.857
 3141SOL     OW10321   1.029   5.428   0.194
 3141SOL    HW110322   0.959   5.397   0.129
 3141SOL    HW210323   1.095   5.487   0.147
 3142SOL     OW10324   4.650   6.386   6.522
 3142SOL    HW110325   4.647   6.482   6.493
 3142SOL    HW210326   4.565   6.364   6.571
 3143SOL     OW10327   6.507   1.163   0.774
 3143SOL    HW110328   6.420   1.117   0.786
 3143SOL    HW210329   6.497   1.260   0.796
 3144SOL     OW10330   2.042   2.949   6.398
 3144SOL    HW110331   2.043   3.030   6.340
 3144SOL    HW210332   1.948   2.918   6.411
 3145SOL     OW10333   3.171   6.231   2.986
 3145SOL    HW110334   3.165   6.133   3.004
 3145SOL    HW210335   3.108   6.256   2.913
 3146SOL     OW10336   1.300   6.992   3.489
 3146SOL    HW110337   1.251   0.051   3.467
 3146SOL    HW210338   1.318   6.989   3.587
 3147SOL     OW10339   4.991   3.888   0.202
 3147SOL    HW110340   4.960   3.801   0.162
 3147SOL    HW210341   5.081   3.874   0.243
 3148SOL     OW10342   3.193   5.247   4.718
 3148SOL    HW110343   3.257   5.304   4.771
 3148SOL    HW210344   3.100   5.278   4.735
 3149SOL     OW10345   3.529   0.393   5.798
 3149SOL    HW110346   3.510   0.448   5.879
 3149SOL    HW210347   3.564   0.303   5.826
 3150SOL     OW10348   5.425   6.912   4.721
 3150SOL    HW110349   5.361   6.974   4.678
 3150SOL    HW210350   5.500   6.964   4.763
 3151SOL     OW10351   4.364   1.283   6.162
 3151SOL    HW110352   4.307   1.275   6.080
 3151SOL    HW210353   4.413   1.196   6.178
 3152SOL     OW10354   1.399   5.962   0.931
 3152SOL    HW110355   1.399   5.920   1.021
 3152SOL    HW210356   1.398   5.891   0.860
 3153SOL     OW10357   6.831   4.545   2.028
 3153SOL    HW110358   6.859   4.639   2.051
 3153SOL    HW210359   6.817   4.494   2.113
 3154SOL     OW10360   5.581   2.328   5.841
 3154SOL    HW110361   5.572   2.236   5.880
 3154SOL    HW210362   5.625   2.388   5.908
 3155SOL     OW10363   5.686   5.480   1.209
 3155SOL    HW110364   5.646   5.398   1.167
 3155SOL    HW210365   5.643   5.496   1.298
 3156SOL     OW10366   3.266   3.411   3.545
 3156SOL    HW110367   3.311   3.327   3.514
 3156SOL    HW210368   3.216   3.452   3.469
 3157SOL     OW10369   2.154   3.683   4.643
 3157SOL    HW110370   2.242   3.639   4.664
 3157SOL    HW210371   2.086   3.654   4.710
 3158SOL     OW10372   4.839   6.433   0.773
 3158SOL    HW110373   4.874   6.375   0.847
 3158SOL    HW210374   4.788   6.378   0.708
 3159SOL     OW10375   5.214   5.245   0.146
 3159SOL    HW110376   5.210   5.258   0.245
 3159SOL    HW210377   5.137   5.291   0.103
 3160SOL     OW10378   5.238   3.974   7.004
 3160SOL    HW110379   5.228   4.060   0.029
 3160SOL    HW210380   5.313   3.983   6.938
 3161SOL     OW10381   0.995   2.074   3.020
 3161SOL    HW110382   1.018   2.080   2.923
 3161SOL    HW210383   0.900   2.045   3.030
 3162SOL     OW10384   0.490   5.938   6.332
 3162SOL    HW110385   0.501   5.982   6.243
 3162SOL    HW210386   0.408   5.973   6.376
 3163SOL     OW10387   3.131   3.787   5.900
 3163SOL    HW110388   3.122   3.720   5.827
 3163SOL    HW210389   3.148   3.741   5.987
 3164SOL     OW10390   5.416   5.281   6.978
 3164SOL    HW110391   5.397   5.191   6.937
 3164SOL    HW210392   5.390   5.280   0.050
 3165SOL     OW10393   0.387   1.467   1.561
 3165SOL    HW110394   0.329   1.414   1.498
 3165SOL    HW210395   0.475   1.484   1.518
 3166SOL     OW10396   5.448   3.353   6.079
 3166SOL    HW110397   5.471   3.443   6.043
 3166SOL    HW210398   5.518   3.323   6.144
 3167SOL     OW10399   1.317   5.345   1.915
 3167SOL    HW110400   1.372   5.403   1.854
 3167SOL    HW210401   1.294   5.260   1.867
 3168SOL     OW10402   5.566   3.469   1.091
 3168SOL    HW110403   5.488   3.521   1.126
 3168SOL    HW210404   5.649   3.525   1.098
 3169SOL     OW10405   1.273   1.884   5.683
 3169SOL    HW110406   1.254   1.848   5.774
 3169SOL    HW210407   1.357   1.938   5.685
 3170SOL     OW10408   4.358   1.003   0.049
 3170SOL    HW110409   4.427   1.020   0.120
 3170SOL    HW210410   4.332   0.907   0.050
 3171SOL     OW10411   5.947   6.554   3.257
 3171SOL    HW110412   6.025   6.610   3.229
 3171SOL    HW210413   5.903   6.595   3.337
 3172SOL     OW10414   6.078   0.129   5.129
 3172SOL    HW110415   6.077   0.032   5.152
 3172SOL    HW210416   5.997   0.174   5.167
 3173SOL     OW10417   2.150   0.626   1.536
 3173SOL    HW110418   2.121   0.562   1.465
 3173SOL    HW210419   2.238   0.667   1.511
 3174SOL     OW10420   2.264   2.889   6.219
 3174SOL    HW110421   2.167   2.908   6.234
 3174SOL    HW210422   2.318   2.929   6.293
 3175SOL     OW10423   0.851   6.788   0.389
 3175SOL    HW110424   0.772   6.751   0.341
 3175SOL    HW210425   0.839   6.776   0.488
 3176SOL     OW10426   0.576   4.790   6.633
 3176SOL    HW110427   0.488   4.836   6.631
 3176SOL    HW210428   0.590   4.742   6.546
 3177SOL     OW10429   6.213   6.648   6.165
 3177SOL    HW110430   6.244   6.688   6.251
 3177SOL    HW210431   6.197   6.720   6.098
 3178SOL     OW10432   1.202   3.040   1.616
 3178SOL    HW110433   1.207   2.999   1.525
 3178SOL    HW210434   1.207   3.139   1.609
 3179SOL     OW10435   2.208   1.546   2.865
 3179SOL    HW110436   2.300   1.575   2.893
 3179SOL    HW210437   2.142   1.581   2.931
 3180SOL     OW10438   5.827   0.885   6.412
 3180SOL    HW110439   5.741   0.931   6.432
 3180SOL    HW210440   5.819   0.788   6.437
 3181SOL     OW10441   0.393   1.278   3.030
 3181SOL    HW110442   0.481   1.282   2.983
 3181SOL    HW210443   0.326   1.334   2.981
 3182SOL     OW10444   1.856   4.779   5.242
 3182SOL    HW110445   1.800   4.732   5.310
 3182SOL    HW210446   1.936   4.723   5.220
 3183SOL     OW10447   3.465   3.571   1.786
 3183SOL    HW110448   3.551   3.588   1.738
 3183SOL    HW210449   3.483   3.561   1.884
 3184SOL     OW10450   2.107   1.764   2.426
 3184SOL    HW110451   2.167   1.796   2.499
 3184SOL    HW210452   2.087   1.667   2.438
 3185SOL     OW10453   6.831   6.913   5.594
 3185SOL    HW110454   6.747   6.966   5.591
 3185SOL    HW210455   6.811   6.816   5.581
 3186SOL     OW10456   2.773   0.657   1.944
 3186SOL    HW110457   2.770   0.600   2.027
 3186SOL    HW210458   2.831   0.737   1.961
 3187SOL     OW10459   2.925   4.397   7.020
 3187SOL    HW110460   2.921   4.447   6.934
 3187SOL    HW210461   3.018   4.398   0.031
 3188SOL     OW10462   4.220   6.369   3.617
 3188SOL    HW110463   4.163   6.311   3.675
 3188SOL    HW210464   4.315   6.336   3.620
 3189SOL     OW10465   1.035   6.787   2.271
 3189SOL    HW110466   1.035   6.834   2.182
 3189SOL    HW210467   0.955   6.815   2.323
 3190SOL     OW10468   0.519   6.258   2.041
 3190SOL    HW110469   0.505   6.170   2.088
 3190SOL    HW210470   0.475   6.330   2.095
 3191SOL     OW10471   3.881   0.830   0.974
 3191SOL    HW110472   3.786   0.801   0.991
 3191SOL    HW210473   3.882   0.895   0.898
 3192SOL     OW10474   0.076   3.118   2.638
 3192SOL    HW110475   0.130   3.113   2.722
 3192SOL    HW210476   7.004   3.116   2.660
 3193SOL     OW10477   4.787   3.594   6.659
 3193SOL    HW110478   4.834   3.640   6.734
 3193SOL    HW210479   4.736   3.662   6.605
 3194SOL     OW10480   0.791   3.134   6.292
 3194SOL    HW110481   0.722   3.061   6.296
 3194SOL    HW210482   0.779   3.195   6.370
 3195SOL     OW10483   0.656   3.715   3.417
 3195SOL    HW110484   0.570   3.766   3.424
 3195SOL    HW210485   0.642   3.622   3.452
 3196SOL     OW10486   0.004   6.926   5.801
 3196SOL    HW110487   6.966   6.945   5.725
 3196SOL    HW210488   0.064   6.850   5.777
 3197SOL     OW10489   1.120   4.501   4.051
 3197SOL    HW110490   1.119   4.598   4.074
 3197SOL    HW210491   1.026   4.470   4.037
 3198SOL     OW10492   6.791   1.669   6.779
 3198SOL    HW110493   6.801   1.760   6.819
 3198SOL    HW210494   6.787   1.601   6.852
 3199SOL     OW10495   3.842   1.907   2.536
 3199SOL    HW110496   3.840   1.844   2.614
 3199SOL    HW210497   3.860   1.857   2.452
 3200SOL     OW10498   6.679   2.384   1.228
 3200SOL    HW110499   6.752   2.434   1.275
 3200SOL    HW210500   6.720   2.316   1.167
 3201SOL     OW10501   4.998   4.385   2.898
 3201SOL    HW110502   4.941   4.466   2.908
 3201SOL    HW210503   5.057   4.376   2.978
 3202SOL     OW10504   2.172   5.742   1.285
 3202SOL    HW110505   2.096   5.769   1.225
 3202SOL    HW210506   2.165   5.790   1.372
 3203SOL     OW10507   6.318   0.068   1.383
 3203SOL    HW110508   6.313   0.067   1.483
 3203SOL    HW210509   6.400   0.017   1.354
 3204SOL     OW10510   6.454   5.548   2.087
 3204SOL    HW110511   6.448   5.648   2.091
 3204SOL    HW210512   6.374   5.512   2.040
 3205SOL     OW10513   0.756   3.944   3.331
 3205SOL    HW110514   0.855   3.935   3.319
 3205SOL    HW210515   0.716   3.853   3.343
 3206SOL     OW10516   1.210   0.056   6.957
 3206SOL    HW110517   1.280   0.051   6.885
 3206SOL    HW210518   1.128   0.100   6.920
 3207SOL     OW10519   0.505   0.934   3.967
 3207SOL    HW110520   0.453   0.849   3.973
 3207SOL    HW210521   0.451   1.009   4.004
 3208SOL     OW10522   5.833   6.795   4.820
 3208SOL    HW110523   5.843   6.700   4.847
 3208SOL    HW210524   5.900   6.851   4.870
 3209SOL     OW10525   2.242   0.586   3.314
 3209SOL    HW110526   2.340   0.610   3.310
 3209SOL    HW210527   2.218   0.561   3.408
 3210SOL     OW10528   0.132   4.572   3.040
 3210SOL    HW110529   0.068   4.629   2.988
 3210SOL    HW210530   0.226   4.603   3.023
 3211SOL     OW10531   1.355   4.362   1.996
 3211SOL    HW110532   1.336   4.459   1.979
 3211SOL    HW210533   1.322   4.337   2.087
 3212SOL     OW10534   4.766   2.430   5.931
 3212SOL    HW110535   4.718   2.501   5.879
 3212SOL    HW210536   4.719   2.342   5.918
 3213SOL     OW10537   6.222   6.453   1.869
 3213SOL    HW110538   6.189   6.463   1.963
 3213SOL    HW210539   6.144   6.446   1.807
 3214SOL     OW10540   3.981   5.128   6.505
 3214SOL    HW110541   4.022   5.193   6.570
 3214SOL    HW210542   3.897   5.166   6.468
 3215SOL     OW10543   6.482   0.898   6.753
 3215SOL    HW110544   6.431   0.966   6.700
 3215SOL    HW210545   6.579   0.918   6.748
 3216SOL     OW10546   5.493   0.042   4.337
 3216SOL    HW110547   5.412   0.074   4.386
 3216SOL    HW210548   5.482   0.061   4.239
 3217SOL     OW10549   6.955   3.671   1.310
 3217SOL    HW110550   7.001   3.594   1.355
 3217SOL    HW210551   6.998   3.757   1.338
 3218SOL     OW10552   2.611   0.629   2.414
 3218SOL    HW110553   2.705   0.637   2.383
 3218SOL    HW210554   2.549   0.671   2.347
 3219SOL     OW10555   6.858   0.087   4.093
 3219SOL    HW110556   6.804   0.038   4.162
 3219SOL    HW210557   6.947   0.111   4.132
 3220SOL     OW10558   6.286   3.192   5.382
 3220SOL    HW110559   6.198   3.182   5.335
 3220SOL    HW210560   6.296   3.286   5.415
 3221SOL     OW10561   4.018   0.338   3.023
 3221SOL    HW110562   4.023   0.238   3.026
 3221SOL    HW210563   4.031   0.374   3.115
 3222SOL     OW10564   5.818   2.945   3.036
 3222SOL    HW110565   5.730   2.897   3.031
 3222SOL    HW210566   5.816   3.024   2.975
 3223SOL     OW10567   2.222   5.125   5.032
 3223SOL    HW110568   2.246   5.100   5.125
 3223SOL    HW210569   2.132   5.089   5.010
 3224SOL     OW10570   4.339   5.498   0.216
 3224SOL    HW110571   4.330   5.439   0.296
 3224SOL    HW210572   4.428   5.483   0.173
 3225SOL     OW10573   2.596   3.026   1.196
 3225SOL    HW110574   2.582   2.947   1.255
 3225SOL    HW210575   2.609   3.108   1.253
 3226SOL     OW10576   0.653   0.548   3.941
 3226SOL    HW110577   0.752   0.555   3.932
 3226SOL    HW210578   0.624   0.586   4.029
 3227SOL     OW10579   2.697   1.407   5.749
 3227SOL    HW110580   2.680   1.354   5.833
 3227SOL    HW210581   2.771   1.365   5.697
 3228SOL     OW10582   4.921   3.058   4.926
 3228SOL    HW110583   4.994   3.121   4.901
 3228SOL    HW210584   4.882   3.086   5.014
 3229SOL     OW10585   3.981   2.239   5.249
 3229SOL    HW110586   3.995   2.151   5.296
 3229SOL    HW210587   4.012   2.231   5.154
 3230SOL     OW10588   0.853   0.540   3.242
 3230SOL    HW110589   0.875   0.460   3.298
 3230SOL    HW210590   0.871   0.623   3.295
 3231SOL     OW10591   6.321   5.388   0.967
 3231SOL    HW110592   6.305   5.439   1.051
 3231SOL    HW210593   6.376   5.443   0.904
 3232SOL     OW10594   2.208   4.802   3.486
 3232SOL    HW110595   2.179   4.884   3.438
 3232SOL    HW210596   2.282   4.757   3.435
 3233SOL     OW10597   0.791   4.377   1.304
 3233SOL    HW110598   0.867   4.439   1.321
 3233SOL    HW210599   0.739   4.409   1.225
 3234SOL     OW10600   6.832   1.583   4.742
 3234SOL    HW110601   6.801   1.489   4.757
 3234SOL    HW210602   6.796   1.615   4.654
 3235SOL     OW10603   5.553   0.330   2.996
 3235SOL    HW110604   5.641   0.282   3.000
 3235SOL    HW210605   5.503   0.302   2.914
 3236SOL     OW10606   0.921   2.873   2.182
 3236SOL    HW110607   0.967   2.944   2.129
 3236SOL    HW210608   0.889   2.801   2.122
 3237SOL     OW10609   3.157   6.609   4.355
 3237SOL    HW110610   3.231   6.665   4.318
 3237SOL    HW210611   3.196   6.535   4.409
 3238SOL     OW10612   6.568   6.659   6.638
 3238SOL    HW110613   6.636   6.723   6.675
 3238SOL    HW210614   6.544   6.592   6.709
 3239SOL     OW10615   0.450   6.471   5.757
 3239SOL    HW110616   0.375   6.532   5.782
 3239SOL    HW210617   0.504   6.450   5.838
 3240SOL     OW10618   0.708   1.005   4.441
 3240SOL    HW110619   0.758   0.986   4.526
 3240SOL    HW210620   0.765   1.059   4.380
 3241SOL     OW10621   4.873   1.086   4.637
 3241SOL    HW110622   4.849   1.012   4.574
 3241SOL    HW210623   4.859   1.174   4.593
 3242SOL     OW10624   3.229   6.379   0.291
 3242SOL    HW110625   3.254   6.454   0.353
 3242SOL    HW210626   3.131   6.359   0.301
 3243SOL     OW10627   3.265   5.984   0.761
 3243SOL    HW110628   3.184   5.956   0.813
 3243SOL    HW210629   3.235   6.024   0.674
 3244SOL     OW10630   2.678   6.238   6.014
 3244SOL    HW110631   2.631   6.158   6.051
 3244SOL    HW210632   2.642   6.321   6.058
 3245SOL     OW10633   3.431   2.470   6.065
 3245SOL    HW110634   3.442   2.483   6.164
 3245SOL    HW210635   3.363   2.534   6.030
 3246SOL     OW10636   5.347   6.484   3.585
 3246SOL    HW110637   5.407   6.536   3.524
 3246SOL    HW210638   5.251   6.507   3.564
 3247SOL     OW10639   0.092   1.616   4.501
 3247SOL    HW110640   0.186   1.585   4.491
 3247SOL    HW210641   0.031   1.537   4.504
 3248SOL     OW10642   5.861   4.229   2.218
 3248SOL    HW110643   5.961   4.236   2.227
 3248SOL    HW210644   5.839   4.161   2.148
 3249SOL     OW10645   3.015   4.253   5.295
 3249SOL    HW110646   3.009   4.345   5.254
 3249SOL    HW210647   2.924   4.211   5.293
 3250SOL     OW10648   4.114   6.422   1.651
 3250SOL    HW110649   4.175   6.382   1.582
 3250SOL    HW210650   4.152   6.404   1.742
 3251SOL     OW10651   3.040   1.384   3.616
 3251SOL    HW110652   3.091   1.366   3.531
 3251SOL    HW210653   3.038   1.483   3.633
 3252SOL     OW10654   3.048   2.230   3.188
 3252SOL    HW110655   2.954   2.216   3.157
 3252SOL    HW210656   3.048   2.289   3.269
 3253SOL     OW10657   4.681   3.632   0.647
 3253SOL    HW110658   4.592   3.586   0.641
 3253SOL    HW210659   4.687   3.680   0.734
 3254SOL     OW10660   5.386   5.059   2.388
 3254SOL    HW110661   5.455   5.041   2.457
 3254SOL    HW210662   5.359   5.155   2.392
 3255SOL     OW10663   4.137   4.855   0.698
 3255SOL    HW110664   4.184   4.811   0.622
 3255SOL    HW210665   4.038   4.858   0.678
 3256SOL     OW10666   6.341   6.186   5.402
 3256SOL    HW110667   6.370   6.282   5.401
 3256SOL    HW210668   6.357   6.145   5.312
 3257SOL     OW10669   2.324   1.699   1.282
 3257SOL    HW110670   2.229   1.707   1.310
 3257SOL    HW210671   2.343   1.604   1.255
 3258SOL     OW10672   5.666   6.777   1.682
 3258SOL    HW110673   5.728   6.849   1.711
 3258SOL    HW210674   5.614   6.806   1.602
 3259SOL     OW10675   6.048   6.164   2.991
 3259SOL    HW110676   5.981   6.197   2.926
 3259SOL    HW210677   6.004   6.150   3.080
 3260SOL     OW10678   1.271   3.186   7.020
 3260SOL    HW110679   1.260   3.087   0.003
 3260SOL    HW210680   1.266   3.213   6.924
 3261SOL     OW10681   4.365   0.166   3.483
 3261SOL    HW110682   4.410   0.246   3.524
 3261SOL    HW210683   4.271   0.189   3.461
 3262SOL     OW10684   3.432   1.431   3.637
 3262SOL    HW110685   3.345   1.387   3.617
 3262SOL    HW210686   3.506   1.378   3.596
 3263SOL     OW10687   3.393   5.416   2.279
 3263SOL    HW110688   3.367   5.430   2.374
 3263SOL    HW210689   3.323   5.456   2.219
 3264SOL     OW10690   5.297   4.690   6.338
 3264SOL    HW110691   5.210   4.685   6.289
 3264SOL    HW210692   5.370   4.715   6.275
 3265SOL     OW10693   4.381   0.692   6.565
 3265SOL    HW110694   4.315   0.728   6.499
 3265SOL    HW210695   4.382   0.592   6.560
 3266SOL     OW10696   0.484   1.761   6.104
 3266SOL    HW110697   0.579   1.765   6.072
 3266SOL    HW210698   0.483   1.767   6.204
 3267SOL     OW10699   4.457   2.241   1.166
 3267SOL    HW110700   4.379   2.205   1.217
 3267SOL    HW210701   4.540   2.230   1.220
 3268SOL     OW10702   1.312   4.302   6.424
 3268SOL    HW110703   1.314   4.372   6.496
 3268SOL    HW210704   1.406   4.276   6.401
 3269SOL     OW10705   4.925   3.092   0.338
 3269SOL    HW110706   5.002   3.149   0.364
 3269SOL    HW210707   4.901   3.031   0.413
 3270SOL     OW10708   0.764   5.716   4.786
 3270SOL    HW110709   0.757   5.815   4.793
 3270SOL    HW210710   0.842   5.692   4.729
 3271SOL     OW10711   5.954   1.991   0.847
 3271SOL    HW110712   5.922   2.012   0.939
 3271SOL    HW210713   6.051   2.015   0.840
 3272SOL     OW10714   5.023   6.800   0.267
 3272SOL    HW110715   4.964   6.777   0.189
 3272SOL    HW210716   4.971   6.854   0.333
 3273SOL     OW10717   6.976   6.844   2.591
 3273SOL    HW110718   6.972   6.882   2.683
 3273SOL    HW210719   6.911   6.893   2.532
 3274SOL     OW10720   3.514   1.687   6.643
 3274SOL    HW110721   3.450   1.728   6.709
 3274SOL    HW210722   3.497   1.726   6.552
 3275SOL     OW10723   3.782   0.640   6.832
 3275SOL    HW110724   3.866   0.591   6.856
 3275SOL    HW210725   3.718   0.635   6.908
 3276SOL     OW10726   2.972   6.473   0.375
 3276SOL    HW110727   2.966   6.513   0.284
 3276SOL    HW210728   2.926   6.532   0.441
 3277SOL     OW10729   0.097   6.164   5.702
 3277SOL    HW110730   0.175   6.190   5.646
 3277SOL    HW210731   0.047   6.245   5.731
 3278SOL     OW10732   1.590   1.117   0.664
 3278SOL    HW110733   1.638   1.063   0.594
 3278SOL    HW210734   1.621   1.212   0.659
 3279SOL     OW10735   1.985   0.060   1.450
 3279SOL    HW110736   1.929   0.066   1.368
 3279SOL    HW210737   1.986   0.149   1.496
 3280SOL     OW10738   1.719   5.358   5.408
 3280SOL    HW110739   1.718   5.456   5.426
 3280SOL    HW210740   1.790   5.336   5.342
 3281SOL     OW10741   2.869   5.933   0.194
 3281SOL    HW110742   2.852   5.884   0.279
 3281SOL    HW210743   2.809   5.897   0.122
 3282SOL     OW10744   1.856   5.218   2.493
 3282SOL    HW110745   1.871   5.182   2.401
 3282SOL    HW210746   1.893   5.311   2.499
 3283SOL     OW10747   1.950   6.908   3.596
 3283SOL    HW110748   2.025   6.935   3.655
 3283SOL    HW210749   1.971   6.931   3.501
 3284SOL     OW10750   0.168   4.137   6.012
 3284SOL    HW110751   0.148   4.148   6.110
 3284SOL    HW210752   0.215   4.218   5.979
 3285SOL     OW10753   6.806   2.210   4.771
 3285SOL    HW110754   6.885   2.154   4.796
 3285SOL    HW210755   6.765   2.174   4.688
 3286SOL     OW10756   3.503   4.730   5.621
 3286SOL    HW110757   3.482   4.825   5.598
 3286SOL    HW210758   3.480   4.671   5.543
 3287SOL     OW10759   0.466   5.388   1.691
 3287SOL    HW110760   0.434   5.323   1.760
 3287SOL    HW210761   0.461   5.347   1.600
 3288SOL     OW10762   1.566   6.577   0.084
 3288SOL    HW110763   1.477   6.589   0.127
 3288SOL    HW210764   1.600   6.485   0.102
 3289SOL     OW10765   1.233   5.566   4.364
 3289SOL    HW110766   1.230   5.644   4.426
 3289SOL    HW210767   1.264   5.485   4.413
 3290SOL     OW10768   6.745   5.663   2.074
 3290SOL    HW110769   6.674   5.612   2.025
 3290SOL    HW210770   6.710   5.693   2.162
 3291SOL     OW10771   1.936   0.063   1.772
 3291SOL    HW110772   1.852   0.115   1.788
 3291SOL    HW210773   1.965   0.075   1.677
 3292SOL     OW10774   0.602   5.728   5.527
 3292SOL    HW110775   0.699   5.745   5.508
 3292SOL    HW210776   0.592   5.697   5.621
 3293SOL     OW10777   6.521   0.479   3.207
 3293SOL    HW110778   6.508   0.396   3.153
 3293SOL    HW210779   6.613   0.479   3.246
 3294SOL     OW10780   0.657   0.270   6.861
 3294SOL    HW110781   0.720   0.339   6.824
 3294SOL    HW210782   0.680   0.181   6.822
 3295SOL     OW10783   1.327   2.310   6.196
 3295SOL    HW110784   1.239   2.282   6.234
 3295SOL    HW210785   1.392   2.326   6.270
 3296SOL     OW10786   0.738   6.464   2.008
 3296SOL    HW110787   0.823   6.420   1.979
 3296SOL    HW210788   0.662   6.399   1.999
 3297SOL     OW10789   2.999   2.458   5.869
 3297SOL    HW110790   3.073   2.449   5.803
 3297SOL    HW210791   2.988   2.373   5.920
 3298SOL     OW10792   6.048   3.531   3.181
 3298SOL    HW110793   5.990   3.569   3.109
 3298SOL    HW210794   6.085   3.443   3.151
 3299SOL     OW10795   1.116   0.680   4.995
 3299SOL    HW110796   1.033   0.625   4.997
 3299SOL    HW210797   1.156   0.685   5.086
 3300SOL     OW10798   6.632   0.115   4.523
 3300SOL    HW110799   6.602   0.043   4.460
 3300SOL    HW210800   6.578   0.197   4.507
 3301SOL     OW10801   0.874   4.379   2.988
 3301SOL    HW110802   0.847   4.341   3.076
 3301SOL    HW210803   0.964   4.421   2.995
 3302SOL     OW10804   1.011   5.012   4.054
 3302SOL    HW110805   1.042   4.917   4.051
 3302SOL    HW210806   0.938   5.022   4.122
 3303SOL     OW10807   3.381   3.686   3.385
 3303SOL    HW110808   3.300   3.628   3.385
 3303SOL    HW210809   3.368   3.762   3.449
 3304SOL     OW10810   0.898   6.714   3.805
 3304SOL    HW110811   0.837   6.640   3.833
 3304SOL    HW210812   0.973   6.721   3.870
 3305SOL     OW10813   1.354   0.853   1.652
 3305SOL    HW110814   1.300   0.851   1.567
 3305SOL    HW210815   1.355   0.946   1.688
 3306SOL     OW10816   1.196   3.611   2.484
 3306SOL    HW110817   1.269   3.560   2.440
 3306SOL    HW210818   1.129   3.640   2.416
 3307SOL     OW10819   0.852   6.186   0.649
 3307SOL    HW110820   0.761   6.199   0.689
 3307SOL    HW210821   0.907   6.130   0.710
 3308SOL     OW10822   5.043   6.095   0.845
 3308SOL    HW110823   5.091   6.012   0.875
 3308SOL    HW210824   5.006   6.142   0.925
 3309SOL     OW10825   1.608   5.762   2.742
 3309SOL    HW110826   1.513   5.792   2.730
 3309SOL    HW210827   1.615   5.665   2.722
 3310SOL     OW10828   1.027   6.800   1.702
 3310SOL    HW110829   1.075   6.883   1.673
 3310SOL    HW210830   1.093   6.726   1.716
 3311SOL     OW10831   3.683   6.401   0.843
 3311SOL    HW110832   3.592   6.364   0.863
 3311SOL    HW210833   3.749   6.327   0.840
 3312SOL     OW10834   2.266   3.233   6.931
 3312SOL    HW110835   2.282   3.300   7.003
 3312SOL    HW210836   2.285   3.275   6.842
 3313SOL     OW10837   6.700   5.726   4.988
 3313SOL    HW110838   6.618   5.668   4.987
 3313SOL    HW210839   6.779   5.671   5.015
 3314SOL     OW10840   0.754   3.324   6.502
 3314SOL    HW110841   0.673   3.350   6.555
 3314SOL    HW210842   0.829   3.387   6.523
 3315SOL     OW10843   0.042   3.561   2.825
 3315SOL    HW110844   0.046   3.463   2.847
 3315SOL    HW210845   7.003   3.606   2.888
 3316SOL     OW10846   4.505   0.678   0.664
 3316SOL    HW110847   4.471   0.703   0.755
 3316SOL    HW210848   4.591   0.628   0.673
 3317SOL     OW10849   4.704   2.387   1.789
 3317SOL    HW110850   4.749   2.415   1.874
 3317SOL    HW210851   4.729   2.292   1.768
 3318SOL     OW10852   2.174   5.383   5.177
 3318SOL    HW110853   2.205   5.320   5.105
 3318SOL    HW210854   2.223   5.363   5.262
 3319SOL     OW10855   0.091   5.965   6.259
 3319SOL    HW110856   0.003   5.920   6.241
 3319SOL    HW210857   0.124   6.008   6.175
 3320SOL     OW10858   0.172   2.257   5.594
 3320SOL    HW110859   0.140   2.270   5.688
 3320SOL    HW210860   0.151   2.164   5.564
 3321SOL     OW10861   3.338   4.091   3.889
 3321SOL    HW110862   3.263   4.122   3.830
 3321SOL    HW210863   3.304   4.079   3.982
 3322SOL     OW10864   4.787   2.082   0.923
 3322SOL    HW110865   4.688   2.069   0.921
 3322SOL    HW210866   4.822   2.091   0.830
 3323SOL     OW10867   2.779   4.934   0.133
 3323SOL    HW110868   2.816   4.920   0.225
 3323SOL    HW210869   2.787   4.850   0.081
 3324SOL     OW10870   0.458   2.804   0.514
 3324SOL    HW110871   0.410   2.733   0.463
 3324SOL    HW210872   0.498   2.764   0.596
 3325SOL     OW10873   1.752   3.340   0.323
 3325SOL    HW110874   1.708   3.252   0.305
 3325SOL    HW210875   1.821   3.329   0.393
 3326SOL     OW10876   6.463   0.658   1.905
 3326SOL    HW110877   6.412   0.632   1.823
 3326SOL    HW210878   6.408   0.637   1.986
 3327SOL     OW10879   3.117   6.942   1.937
 3327SOL    HW110880   3.190   6.972   1.876
 3327SOL    HW210881   3.145   6.858   1.984
 3328SOL     OW10882   4.344   0.718   2.789
 3328SOL    HW110883   4.245   0.708   2.801
 3328SOL    HW210884   4.363   0.802   2.739
 3329SOL     OW10885   5.410   1.058   5.717
 3329SOL    HW110886   5.465   1.011   5.648
 3329SOL    HW210887   5.426   1.157   5.710
 3330SOL     OW10888   6.589   5.361   3.199
 3330SOL    HW110889   6.493   5.368   3.227
 3330SOL    HW210890   6.599   5.395   3.106
 3331SOL     OW10891   2.154   3.422   2.981
 3331SOL    HW110892   2.164   3.451   2.886
 3331SOL    HW210893   2.151   3.502   3.041
 3332SOL     OW10894   3.298   5.007   0.927
 3332SOL    HW110895   3.361   5.082   0.945
 3332SOL    HW210896   3.276   5.005   0.829
 3333SOL     OW10897   2.536   3.142   1.612
 3333SOL    HW110898   2.513   3.165   1.518
 3333SOL    HW210899   2.545   3.043   1.621
 3334SOL     OW10900   1.911   2.073   1.698
 3334SOL    HW110901   1.906   2.140   1.772
 3334SOL    HW210902   1.986   2.096   1.637
 3335SOL     OW10903   3.652   4.038   5.268
 3335SOL    HW110904   3.593   4.014   5.191
 3335SOL    HW210905   3.672   3.956   5.321
 3336SOL     OW10906   5.072   5.462   4.365
 3336SOL    HW110907   5.171   5.476   4.361
 3336SOL    HW210908   5.049   5.401   4.440
 3337SOL     OW10909   3.208   2.929   2.439
 3337SOL    HW110910   3.271   2.959   2.511
 3337SOL    HW210911   3.217   2.831   2.425
 3338SOL     OW10912   2.777   2.436   1.665
 3338SOL    HW110913   2.792   2.355   1.608
 3338SOL    HW210914   2.834   2.430   1.747
 3339SOL     OW10915   1.977   0.124   6.451
 3339SOL    HW110916   2.071   0.111   6.420
 3339SOL    HW210917   1.973   0.120   6.551
 3340SOL     OW10918   3.780   0.773   4.314
 3340SOL    HW110919   3.701   0.812   4.266
 3340SOL    HW210920   3.859   0.772   4.252
 3341SOL     OW10921   1.255   4.308   2.271
 3341SOL    HW110922   1.243   4.210   2.253
 3341SOL    HW210923   1.343   4.323   2.316
 3342SOL     OW10924   6.392   0.809   2.728
 3342SOL    HW110925   6.476   0.858   2.752
 3342SOL    HW210926   6.410   0.710   2.727
 3343SOL     OW10927   4.639   5.271   0.238
 3343SOL    HW110928   4.559   5.275   0.298
 3343SOL    HW210929   4.641   5.183   0.191
 3344SOL     OW10930   0.640   3.291   2.171
 3344SOL    HW110931   0.631   3.376   2.224
 3344SOL    HW210932   0.688   3.222   2.226
 3345SOL     OW10933   5.646   5.395   6.705
 3345SOL    HW110934   5.674   5.362   6.796
 3345SOL    HW210935   5.614   5.489   6.712
 3346SOL     OW10936   1.811   1.381   0.201
 3346SOL    HW110937   1.722   1.347   0.169
 3346SOL    HW210938   1.812   1.481   0.195
 3347SOL     OW10939   0.328   3.808   5.845
 3347SOL    HW110940   0.264   3.759   5.786
 3347SOL    HW210941   0.351   3.896   5.804
 3348SOL     OW10942   3.120   4.248   5.992
 3348SOL    HW110943   3.086   4.294   5.911
 3348SOL    HW210944   3.214   4.277   6.011
 3349SOL     OW10945   2.049   5.721   3.252
 3349SOL    HW110946   2.077   5.736   3.157
 3349SOL    HW210947   2.015   5.627   3.262
 3350SOL     OW10948   1.943   4.957   4.359
 3350SOL    HW110949   1.911   4.880   4.414
 3350SOL    HW210950   2.017   5.005   4.407
 3351SOL     OW10951   5.412   1.277   1.402
 3351SOL    HW110952   5.503   1.319   1.407
 3351SOL    HW210953   5.357   1.307   1.480
 3352SOL     OW10954   5.800   1.209   0.058
 3352SOL    HW110955   5.792   1.261   6.998
 3352SOL    HW210956   5.792   1.111   0.038
 3353SOL     OW10957   4.065   0.433   0.492
 3353SOL    HW110958   4.145   0.433   0.553
 3353SOL    HW210959   4.090   0.389   0.406
 3354SOL     OW10960   3.103   3.999   6.086
 3354SOL    HW110961   3.115   4.089   6.045
 3354SOL    HW210962   3.131   3.928   6.021
 3355SOL     OW10963   1.729   0.127   5.129
 3355SOL    HW110964   1.666   0.106   5.055
 3355SOL    HW210965   1.728   0.052   5.196
 3356SOL     OW10966   1.911   0.737   6.084
 3356SOL    HW110967   1.911   0.717   6.182
 3356SOL    HW210968   1.850   0.673   6.037
 3357SOL     OW10969   3.569   2.848   2.264
 3357SOL    HW110970   3.476   2.878   2.243
 3357SOL    HW210971   3.619   2.832   2.178
 3358SOL     OW10972   0.012   1.227   1.718
 3358SOL    HW110973   0.102   1.196   1.748
 3358SOL    HW210974   0.006   1.222   1.619
 3359SOL     OW10975   0.565   6.787   4.880
 3359SOL    HW110976   0.498   6.719   4.911
 3359SOL    HW210977   0.644   6.740   4.840
 3360SOL     OW10978   2.202   4.237   4.274
 3360SOL    HW110979   2.232   4.168   4.340
 3360SOL    HW210980   2.196   4.196   4.183
 3361SOL     OW10981   6.469   7.023   5.200
 3361SOL    HW110982   6.412   6.943   5.220
 3361SOL    HW210983   6.449   0.071   5.266
 3362SOL     OW10984   3.431   0.348   4.269
 3362SOL    HW110985   3.365   0.309   4.205
 3362SOL    HW210986   3.479   0.424   4.225
 3363SOL     OW10987   6.043   3.977   0.219
 3363SOL    HW110988   5.985   3.978   0.300
 3363SOL    HW210989   5.997   3.926   0.146
 3364SOL     OW10990   1.733   3.655   3.498
 3364SOL    HW110991   1.829   3.683   3.487
 3364SOL    HW210992   1.677   3.736   3.514
 3365SOL     OW10993   1.420   3.756   3.401
 3365SOL    HW110994   1.483   3.820   3.445
 3365SOL    HW210995   1.362   3.806   3.337
 3366SOL     OW10996   5.730   3.380   4.994
 3366SOL    HW110997   5.678   3.406   4.913
 3366SOL    HW210998   5.754   3.463   5.045
 3367SOL     OW10999   3.136   4.079   3.688
 3367SOL    HW111000   3.108   4.003   3.748
 3367SOL    HW211001   3.092   4.068   3.599
 3368SOL     OW11002   2.218   0.438   2.602
 3368SOL    HW111003   2.174   0.524   2.579
 3368SOL    HW211004   2.149   0.373   2.634
 3369SOL     OW11005   5.245   2.136   1.104
 3369SOL    HW111006   5.213   2.166   1.014
 3369SOL    HW211007   5.203   2.048   1.127
 3370SOL     OW11008   0.423   5.833   2.912
 3370SOL    HW111009   0.491   5.827   2.839
 3370SOL    HW211010   0.468   5.820   3.000
 3371SOL     OW11011   2.493   2.622   2.014
 3371SOL    HW111012   2.530   2.531   1.995
 3371SOL    HW211013   2.511   2.682   1.937
 3372SOL     OW11014   6.615   4.036   2.931
 3372SOL    HW111015   6.551   3.960   2.937
 3372SOL    HW211016   6.568   4.117   2.895
 3373SOL     OW11017   0.433   3.619   2.084
 3373SOL    HW111018   0.412   3.680   2.007
 3373SOL    HW211019   0.418   3.668   2.170
 3374SOL     OW11020   0.508   6.763   4.313
 3374SOL    HW111021   0.546   6.855   4.327
 3374SOL    HW211022   0.525   6.733   4.219
 3375SOL     OW11023   0.169   5.686   5.747
 3375SOL    HW111024   0.205   5.596   5.772
 3375SOL    HW211025   0.148   5.737   5.831
 3376SOL     OW11026   3.348   2.961   4.285
 3376SOL    HW111027   3.309   2.967   4.377
 3376SOL    HW211028   3.279   2.986   4.217
 3377SOL     OW11029   6.654   5.110   3.802
 3377SOL    HW111030   6.633   5.139   3.895
 3377SOL    HW211031   6.676   5.191   3.746
 3378SOL     OW11032   1.534   6.779   0.517
 3378SOL    HW111033   1.558   6.831   0.436
 3378SOL    HW211034   1.510   6.842   0.591
 3379SOL     OW11035   6.703   4.166   3.526
 3379SOL    HW111036   6.787   4.133   3.484
 3379SOL    HW211037   6.696   4.265   3.517
 3380SOL     OW11038   2.677   4.383   0.399
 3380SOL    HW111039   2.602   4.422   0.452
 3380SOL    HW211040   2.701   4.293   0.434
 3381SOL     OW11041   2.483   3.447   5.792
 3381SOL    HW111042   2.391   3.419   5.766
 3381SOL    HW211043   2.504   3.535   5.749
 3382SOL     OW11044   6.844   3.734   0.245
 3382SOL    HW111045   6.787   3.765   0.320
 3382SOL    HW211046   6.803   3.761   0.158
 3383SOL     OW11047   4.086   4.915   0.379
 3383SOL    HW111048   4.003   4.970   0.380
 3383SOL    HW211049   4.146   4.946   0.305
 3384SOL     OW11050   2.906   3.422   6.830
 3384SOL    HW111051   2.816   3.404   6.790
 3384SOL    HW211052   2.915   3.369   6.914
 3385SOL     OW11053   6.742   2.229   3.992
 3385SOL    HW111054   6.802   2.275   3.927
 3385SOL    HW211055   6.791   2.153   4.035
 3386SOL     OW11056   0.241   5.568   4.737
 3386SOL    HW111057   0.198   5.558   4.648
 3386SOL    HW211058   0.314   5.500   4.747
 3387SOL     OW11059   5.857   1.199   3.080
 3387SOL    HW111060   5.771   1.233   3.041
 3387SOL    HW211061   5.934   1.245   3.035
 3388SOL     OW11062   6.763   3.824   0.989
 3388SOL    HW111063   6.826   3.749   0.966
 3388SOL    HW211064   6.812   3.911   0.982
 3389SOL     OW11065   5.612   5.688   6.505
 3389SOL    HW111066   5.657   5.769   6.469
 3389SOL    HW211067   5.610   5.693   6.605
 3390SOL     OW11068   2.981   5.444   6.518
 3390SOL    HW111069   3.049   5.477   6.453
 3390SOL    HW211070   3.007   5.353   6.551
 3391SOL     OW11071   5.698   4.072   4.105
 3391SOL    HW111072   5.713   3.974   4.094
 3391SOL    HW211073   5.739   4.121   4.027
 3392SOL     OW11074   4.793   6.744   5.832
 3392SOL    HW111075   4.765   6.819   5.893
 3392SOL    HW211076   4.892   6.745   5.822
 3393SOL     OW11077   3.904   6.241   0.879
 3393SOL    HW111078   3.853   6.160   0.908
 3393SOL    HW211079   3.978   6.214   0.818
 3394SOL     OW11080   2.656   5.386   1.564
 3394SOL    HW111081   2.667   5.311   1.499
 3394SOL    HW211082   2.649   5.473   1.514
 3395SOL     OW11083   2.286   6.889   3.452
 3395SOL    HW111084   2.320   6.800   3.484
 3395SOL    HW211085   2.359   6.935   3.400
 3396SOL     OW11086   4.455   0.464   4.273
 3396SOL    HW111087   4.530   0.438   4.333
 3396SOL    HW211088   4.457   0.407   4.191
 3397SOL     OW11089   2.346   5.593   6.552
 3397SOL    HW111090   2.373   5.624   6.461
 3397SOL    HW211091   2.287   5.513   6.544
 3398SOL     OW11092   6.412   2.126   5.001
 3398SOL    HW111093   6.353   2.103   4.923
 3398SOL    HW211094   6.384   2.215   5.039
 3399SOL     OW11095   6.471   6.575   1.880
 3399SOL    HW111096   6.388   6.519   1.878
 3399SOL    HW211097   6.534   6.539   1.949
 3400SOL     OW11098   4.171   3.077   5.652
 3400SOL    HW111099   4.117   3.152   5.614
 3400SOL    HW211100   4.200   3.016   5.578
 3401SOL     OW11101   6.762   4.004   5.269
 3401SOL    HW111102   6.706   4.052   5.201
 3401SOL    HW211103   6.768   3.908   5.245
 3402SOL     OW11104   7.008   3.557   0.774
 3402SOL    HW111105   0.039   3.495   0.828
 3402SOL    HW211106   6.976   3.632   0.832
 3403SOL     OW11107   5.396   6.944   6.802
 3403SOL    HW111108   5.356   6.884   6.733
 3403SOL    HW211109   5.332   6.955   6.878
 3404SOL     OW11110   5.151   4.164   4.557
 3404SOL    HW111111   5.176   4.091   4.619
 3404SOL    HW211112   5.203   4.247   4.579
 3405SOL     OW11113   4.619   6.006   0.181
 3405SOL    HW111114   4.542   5.946   0.158
 3405SOL    HW211115   4.696   5.950   0.212
 3406SOL     OW11116   2.870   5.558   1.782
 3406SOL    HW111117   2.854   5.614   1.701
 3406SOL    HW211118   2.827   5.602   1.861
 3407SOL     OW11119   0.945   4.454   6.777
 3407SOL    HW111120   0.939   4.553   6.762
 3407SOL    HW211121   0.955   4.437   6.875
 3408SOL     OW11122   4.960   0.260   3.627
 3408SOL    HW111123   5.030   0.230   3.691
 3408SOL    HW211124   4.985   0.233   3.534
 3409SOL     OW11125   4.205   0.699   0.686
 3409SOL    HW111126   4.230   0.772   0.623
 3409SOL    HW211127   4.209   0.732   0.780
 3410SOL     OW11128   6.353   0.554   3.399
 3410SOL    HW111129   6.414   0.525   3.325
 3410SOL    HW211130   6.260   0.565   3.363
 3411SOL     OW11131   6.684   3.233   5.670
 3411SOL    HW111132   6.649   3.299   5.735
 3411SOL    HW211133   6.713   3.150   5.718
 3412SOL     OW11134   5.748   3.380   2.233
 3412SOL    HW111135   5.665   3.399   2.285
 3412SOL    HW211136   5.785   3.291   2.259
 3413SOL     OW11137   6.937   1.278   0.468
 3413SOL    HW111138   6.981   1.301   0.554
 3413SOL    HW211139   6.979   1.330   0.394
 3414SOL     OW11140   3.490   3.233   1.377
 3414SOL    HW111141   3.439   3.273   1.301
 3414SOL    HW211142   3.484   3.133   1.372
 3415SOL     OW11143   2.393   1.470   5.776
 3415SOL    HW111144   2.329   1.481   5.700
 3415SOL    HW211145   2.457   1.395   5.755
 3416SOL     OW11146   6.890   0.064   6.618
 3416SOL    HW111147   6.844   0.136   6.670
 3416SOL    HW211148   6.929   0.104   6.535
 3417SOL     OW11149   6.185   6.683   3.379
 3417SOL    HW111150   6.244   6.749   3.332
 3417SOL    HW211151   6.189   6.699   3.478
 3418SOL     OW11152   4.028   5.093   0.869
 3418SOL    HW111153   4.073   5.014   0.827
 3418SOL    HW211154   3.945   5.064   0.916
 3419SOL     OW11155   2.604   5.421   5.366
 3419SOL    HW111156   2.598   5.351   5.438
 3419SOL    HW211157   2.677   5.486   5.389
 3420SOL     OW11158   4.500   1.703   1.998
 3420SOL    HW111159   4.546   1.790   1.981
 3420SOL    HW211160   4.417   1.697   1.943
 3421SOL     OW11161   0.417   2.149   5.020
 3421SOL    HW111162   0.496   2.200   4.985
 3421SOL    HW211163   0.333   2.190   4.987
 3422SOL     OW11164   2.436   6.232   0.905
 3422SOL    HW111165   2.530   6.222   0.872
 3422SOL    HW211166   2.384   6.150   0.883
 3423SOL     OW11167   2.009   4.801   5.667
 3423SOL    HW111168   1.968   4.719   5.707
 3423SOL    HW211169   2.106   4.784   5.650
 3424SOL     OW11170   5.355   1.369   1.878
 3424SOL    HW111171   5.338   1.383   1.780
 3424SOL    HW211172   5.379   1.456   1.920
 3425SOL     OW11173   6.776   3.375   6.256
 3425SOL    HW111174   6.793   3.473   6.266
 3425SOL    HW211175   6.690   3.352   6.301
 3426SOL     OW11176   6.621   3.500   6.846
 3426SOL    HW111177   6.617   3.572   6.777
 3426SOL    HW211178   6.715   3.470   6.858
 3427SOL     OW11179   1.120   2.232   0.258
 3427SOL    HW111180   1.027   2.267   0.249
 3427SOL    HW211181   1.177   2.267   0.183
 3428SOL     OW11182   4.309   6.500   4.762
 3428SOL    HW111183   4.278   6.405   4.770
 3428SOL    HW211184   4.351   6.529   4.848
 3429SOL     OW11185   4.516   6.617   0.765
 3429SOL    HW111186   4.603   6.624   0.814
 3429SOL    HW211187   4.528   6.561   0.683
 3430SOL     OW11188   2.813   3.922   6.056
 3430SOL    HW111189   2.772   3.999   6.008
 3430SOL    HW211190   2.910   3.940   6.072
 3431SOL     OW11191   0.353   4.930   2.436
 3431SOL    HW111192   0.445   4.898   2.415
 3431SOL    HW211193   0.315   4.876   2.511
 3432SOL     OW11194   0.346   4.819   0.121
 3432SOL    HW111195   0.434   4.863   0.140
 3432SOL    HW211196   0.362   4.736   0.068
 3433SOL     OW11197   2.349   1.301   6.752
 3433SOL    HW111198   2.433   1.297   6.700
 3433SOL    HW211199   2.279   1.349   6.700
 3434SOL     OW11200   3.654   2.605   1.803
 3434SOL    HW111201   3.568   2.619   1.852
 3434SOL    HW211202   3.677   2.508   1.800
 3435SOL     OW11203   1.665   1.661   1.311
 3435SOL    HW111204   1.692   1.566   1.328
 3435SOL    HW211205   1.639   1.705   1.397
 3436SOL     OW11206   3.455   6.875   6.083
 3436SOL    HW111207   3.432   6.779   6.102
 3436SOL    HW211208   3.409   6.934   6.149
 3437SOL     OW11209   1.400   0.186   6.679
 3437SOL    HW111210   1.480   0.188   6.618
 3437SOL    HW211211   1.430   0.167   6.773
 3438SOL     OW11212   2.441   3.685   0.918
 3438SOL    HW111213   2.409   3.775   0.889
 3438SOL    HW211214   2.477   3.635   0.840
 3439SOL     OW11215   2.684   5.658   1.420
 3439SOL    HW111216   2.602   5.715   1.413
 3439SOL    HW211217   2.744   5.695   1.491
 3440SOL     OW11218   3.651   3.747   5.353
 3440SOL    HW111219   3.595   3.669   5.325
 3440SOL    HW211220   3.592   3.818   5.393
 3441SOL     OW11221   5.802   5.077   5.832
 3441SOL    HW111222   5.772   5.048   5.923
 3441SOL    HW211223   5.768   5.013   5.764
 3442SOL     OW11224   2.093   3.290   1.106
 3442SOL    HW111225   2.028   3.310   1.179
 3442SOL    HW211226   2.080   3.197   1.073
 3443SOL     OW11227   0.138   6.017   2.125
 3443SOL    HW111228   0.202   5.951   2.086
 3443SOL    HW211229   0.088   5.974   2.200
 3444SOL     OW11230   6.696   4.017   5.550
 3444SOL    HW111231   6.722   3.925   5.578
 3444SOL    HW211232   6.733   4.035   5.458
 3445SOL     OW11233   6.179   5.030   4.358
 3445SOL    HW111234   6.115   5.100   4.389
 3445SOL    HW211235   6.272   5.065   4.363
 3446SOL     OW11236   4.181   0.920   1.801
 3446SOL    HW111237   4.208   0.891   1.709
 3446SOL    HW211238   4.243   0.880   1.868
 3447SOL     OW11239   5.700   0.486   6.436
 3447SOL    HW111240   5.743   0.565   6.480
 3447SOL    HW211241   5.603   0.505   6.420
 3448SOL     OW11242   1.683   4.358   5.385
 3448SOL    HW111243   1.699   4.345   5.287
 3448SOL    HW211244   1.672   4.456   5.404
 3449SOL     OW11245   0.960   4.446   5.481
 3449SOL    HW111246   0.906   4.512   5.533
 3449SOL    HW211247   1.026   4.495   5.425
 3450SOL     OW11248   2.420   0.170   1.379
 3450SOL    HW111249   2.364   0.122   1.447
 3450SOL    HW211250   2.487   0.107   1.340
 3451SOL     OW11251   1.666   2.069   1.405
 3451SOL    HW111252   1.732   2.145   1.411
 3451SOL    HW211253   1.577   2.100   1.438
 3452SOL     OW11254   4.907   1.015   5.107
 3452SOL    HW111255   4.872   0.924   5.084
 3452SOL    HW211256   4.942   1.059   5.024
 3453SOL     OW11257   4.174   6.435   6.857
 3453SOL    HW111258   4.112   6.357   6.872
 3453SOL    HW211259   4.120   6.519   6.852
 3454SOL     OW11260   0.241   3.224   1.486
 3454SOL    HW111261   0.333   3.249   1.457
 3454SOL    HW211262   0.223   3.265   1.576
 3455SOL     OW11263   0.595   3.442   6.253
 3455SOL    HW111264   0.502   3.478   6.260
 3455SOL    HW211265   0.630   3.423   6.345
 3456SOL     OW11266   4.876   5.455   3.671
 3456SOL    HW111267   4.842   5.370   3.631
 3456SOL    HW211268   4.976   5.455   3.671
 3457SOL     OW11269   3.574   4.261   6.324
 3457SOL    HW111270   3.599   4.276   6.419
 3457SOL    HW211271   3.493   4.202   6.319
 3458SOL     OW11272   4.347   1.322   2.546
 3458SOL    HW111273   4.258   1.355   2.514
 3458SOL    HW211274   4.395   1.396   2.594
 3459SOL     OW11275   5.529   5.851   2.358
 3459SOL    HW111276   5.449   5.853   2.297
 3459SOL    HW211277   5.505   5.896   2.444
 3460SOL     OW11278   3.738   1.742   4.808
 3460SOL    HW111279   3.668   1.678   4.837
 3460SOL    HW211280   3.822   1.693   4.785
 3461SOL     OW11281   5.627   5.099   4.877
 3461SOL    HW111282   5.698   5.150   4.925
 3461SOL    HW211283   5.552   5.161   4.854
 3462SOL     OW11284   1.126   3.852   6.796
 3462SOL    HW111285   1.040   3.820   6.758
 3462SOL    HW211286   1.197   3.783   6.781
 3463SOL     OW11287   5.489   4.151   0.167
 3463SOL    HW111288   5.454   4.111   0.252
 3463SOL    HW211289   5.414   4.182   0.110
 3464SOL     OW11290   0.188   4.495   4.382
 3464SOL    HW111291   0.158   4.428   4.313
 3464SOL    HW211292   0.210   4.581   4.336
 3465SOL     OW11293   0.742   1.811   2.697
 3465SOL    HW111294   0.688   1.760   2.764
 3465SOL    HW211295   0.758   1.904   2.730
 3466SOL     OW11296   0.205   3.332   4.635
 3466SOL    HW111297   0.256   3.269   4.576
 3466SOL    HW211298   0.132   3.282   4.681
 3467SOL     OW11299   1.810   2.274   5.835
 3467SOL    HW111300   1.862   2.309   5.914
 3467SOL    HW211301   1.788   2.351   5.774
 3468SOL     OW11302   4.126   6.032   2.564
 3468SOL    HW111303   4.104   6.107   2.626
 3468SOL    HW211304   4.059   6.029   2.490
 3469SOL     OW11305   5.361   3.629   1.225
 3469SOL    HW111306   5.278   3.685   1.215
 3469SOL    HW211307   5.370   3.599   1.320
 3470SOL     OW11308   0.656   5.620   0.755
 3470SOL    HW111309   0.637   5.596   0.850
 3470SOL    HW211310   0.617   5.550   0.695
 3471SOL     OW11311   4.677   0.382   4.885
 3471SOL    HW111312   4.736   0.423   4.816
 3471SOL    HW211313   4.609   0.324   4.841
 3472SOL     OW11314   4.306   0.848   5.088
 3472SOL    HW111315   4.399   0.812   5.093
 3472SOL    HW211316   4.278   0.853   4.992
 3473SOL     OW11317   4.430   6.534   4.181
 3473SOL    HW111318   4.450   6.607   4.246
 3473SOL    HW211319   4.385   6.458   4.228
 3474SOL     OW11320   5.159   4.376   1.182
 3474SOL    HW111321   5.089   4.351   1.115
 3474SOL    HW211322   5.233   4.426   1.137
 3475SOL     OW11323   1.807   6.418   4.917
 3475SOL    HW111324   1.811   6.455   5.010
 3475SOL    HW211325   1.888   6.362   4.900
 3476SOL     OW11326   4.935   1.545   4.698
 3476SOL    HW111327   5.015   1.547   4.758
 3476SOL    HW211328   4.855   1.580   4.748
 3477SOL     OW11329   4.263   5.503   1.780
 3477SOL    HW111330   4.349   5.465   1.814
 3477SOL    HW211331   4.280   5.555   1.697
 3478SOL     OW11332   4.186   4.981   6.727
 3478SOL    HW111333   4.274   4.934   6.738
 3478SOL    HW211334   4.122   4.921   6.680
 3479SOL     OW11335   1.358   0.303   1.724
 3479SOL    HW111336   1.393   0.270   1.812
 3479SOL    HW211337   1.258   0.302   1.725
 3480SOL     OW11338   1.325   0.307   4.259
 3480SOL    HW111339   1.315   0.219   4.305
 3480SOL    HW211340   1.413   0.348   4.284
 3481SOL     OW11341   2.430   6.689   6.799
 3481SOL    HW111342   2.502   6.737   6.751
 3481SOL    HW211343   2.403   6.608   6.746
 3482SOL     OW11344   0.725   1.880   1.695
 3482SOL    HW111345   0.648   1.860   1.634
 3482SOL    HW211346   0.769   1.965   1.666
 3483SOL     OW11347   4.450   1.524   0.957
 3483SOL    HW111348   4.481   1.464   0.883
 3483SOL    HW211349   4.457   1.619   0.927
 3484SOL     OW11350   3.215   2.934   4.029
 3484SOL    HW111351   3.133   2.896   3.987
 3484SOL    HW211352   3.284   2.950   3.958
 3485SOL     OW11353   6.744   1.657   4.484
 3485SOL    HW111354   6.758   1.738   4.427
 3485SOL    HW211355   6.812   1.587   4.461
 3486SOL     OW11356   5.079   1.166   3.314
 3486SOL    HW111357   5.042   1.132   3.227
 3486SOL    HW211358   5.009   1.157   3.386
 3487SOL     OW11359   0.527   0.807   0.318
 3487SOL    HW111360   0.613   0.852   0.292
 3487SOL    HW211361   0.537   0.708   0.308
 3488SOL     OW11362   6.157   3.610   3.991
 3488SOL    HW111363   6.193   3.554   3.917
 3488SOL    HW211364   6.065   3.578   4.016
 3489SOL     OW11365   2.150   6.406   0.478
 3489SOL    HW111366   2.150   6.367   0.386
 3489SOL    HW211367   2.057   6.431   0.504
 3490SOL     OW11368   4.778   2.505   0.992
 3490SOL    HW111369   4.832   2.511   1.076
 3490SOL    HW211370   4.686   2.474   1.013
 3491SOL     OW11371   0.549   2.866   5.114
 3491SOL    HW111372   0.517   2.781   5.156
 3491SOL    HW211373   0.634   2.848   5.065
 3492SOL     OW11374   5.245   5.124   6.637
 3492SOL    HW111375   5.209   5.217   6.650
 3492SOL    HW211376   5.264   5.109   6.541
 3493SOL     OW11377   0.494   4.978   1.111
 3493SOL    HW111378   0.443   4.909   1.059
 3493SOL    HW211379   0.563   5.020   1.052
 3494SOL     OW11380   2.992   6.181   1.146
 3494SOL    HW111381   3.039   6.214   1.063
 3494SOL    HW211382   2.910   6.132   1.119
 3495SOL     OW11383   5.468   4.445   0.475
 3495SOL    HW111384   5.396   4.499   0.517
 3495SOL    HW211385   5.441   4.421   0.382
 3496SOL     OW11386   0.448   4.972   0.587
 3496SOL    HW111387   0.357   4.932   0.599
 3496SOL    HW211388   0.460   4.997   0.491
 3497SOL     OW11389   4.519   6.332   4.012
 3497SOL    HW111390   4.493   6.405   4.074
 3497SOL    HW211391   4.440   6.275   3.991
 3498SOL     OW11392   1.402   1.786   1.317
 3498SOL    HW111393   1.394   1.883   1.340
 3498SOL    HW211394   1.346   1.732   1.380
 3499SOL     OW11395   6.755   3.520   3.980
 3499SOL    HW111396   6.700   3.436   3.982
 3499SOL    HW211397   6.712   3.589   4.037
 3500SOL     OW11398   6.761   3.044   0.676
 3500SOL    HW111399   6.671   3.080   0.699
 3500SOL    HW211400   6.752   2.953   0.637
 3501SOL     OW11401   0.915   4.284   3.714
 3501SOL    HW111402   1.009   4.251   3.707
 3501SOL    HW211403   0.885   4.280   3.809
 3502SOL     OW11404   1.324   4.264   1.394
 3502SOL    HW111405   1.241   4.319   1.390
 3502SOL    HW211406   1.357   4.259   1.488
 3503SOL     OW11407   3.629   6.588   3.842
 3503SOL    HW111408   3.564   6.647   3.891
 3503SOL    HW211409   3.635   6.618   3.747
 3504SOL     OW11410   2.068   3.035   2.516
 3504SOL    HW111411   2.112   2.945   2.524
 3504SOL    HW211412   1.978   3.024   2.475
 3505SOL     OW11413   4.224   6.169   5.239
 3505SOL    HW111414   4.312   6.166   5.192
 3505SOL    HW211415   4.181   6.079   5.236
 3506SOL     OW11416   5.548   4.722   2.267
 3506SOL    HW111417   5.483   4.710   2.343
 3506SOL    HW211418   5.580   4.817   2.266
 3507SOL     OW11419   0.410   0.511   6.551
 3507SOL    HW111420   0.423   0.485   6.647
 3507SOL    HW211421   0.313   0.508   6.529
 3508SOL     OW11422   5.913   3.716   0.194
 3508SOL    HW111423   5.862   3.711   0.280
 3508SOL    HW211424   5.852   3.697   0.117
 3509SOL     OW11425   6.481   0.370   0.567
 3509SOL    HW111426   6.477   0.349   0.665
 3509SOL    HW211427   6.428   0.302   0.516
 3510SOL     OW11428   2.333   2.558   2.519
 3510SOL    HW111429   2.379   2.519   2.599
 3510SOL    HW211430   2.393   2.551   2.439
 3511SOL     OW11431   0.767   0.520   5.428
 3511SOL    HW111432   0.842   0.522   5.494
 3511SOL    HW211433   0.739   0.614   5.407
 3512SOL     OW11434   3.070   2.856   0.951
 3512SOL    HW111435   3.073   2.760   0.921
 3512SOL    HW211436   3.159   2.899   0.933
 3513SOL     OW11437   5.495   4.435   1.066
 3513SOL    HW111438   5.569   4.496   1.038
 3513SOL    HW211439   5.477   4.446   1.164
 3514SOL     OW11440   1.478   6.760   1.554
 3514SOL    HW111441   1.390   6.746   1.508
 3514SOL    HW211442   1.536   6.680   1.542
 3515SOL     OW11443   3.745   6.048   3.267
 3515SOL    HW111444   3.816   6.035   3.198
 3515SOL    HW211445   3.780   6.103   3.343
 3516SOL     OW11446   2.518   1.130   0.606
 3516SOL    HW111447   2.581   1.137   0.684
 3516SOL    HW211448   2.428   1.164   0.634
 3517SOL     OW11449   0.973   0.454   6.260
 3517SOL    HW111450   0.940   0.364   6.231
 3517SOL    HW211451   1.059   0.443   6.310
 3518SOL     OW11452   4.845   3.378   5.679
 3518SOL    HW111453   4.757   3.337   5.656
 3518SOL    HW211454   4.899   3.312   5.732
 3519SOL     OW11455   2.924   6.214   0.510
 3519SOL    HW111456   2.893   6.237   0.603
 3519SOL    HW211457   2.908   6.292   0.450
 3520SOL     OW11458   3.680   5.286   1.156
 3520SOL    HW111459   3.681   5.384   1.176
 3520SOL    HW211460   3.747   5.239   1.213
 3521SOL     OW11461   5.802   1.772   6.176
 3521SOL    HW111462   5.747   1.716   6.237
 3521SOL    HW211463   5.831   1.855   6.224
 3522SOL     OW11464   2.930   6.312   1.514
 3522SOL    HW111465   2.844   6.264   1.532
 3522SOL    HW211466   2.926   6.403   1.554
 3523SOL     OW11467   1.988   5.000   5.328
 3523SOL    HW111468   2.077   5.003   5.283
 3523SOL    HW211469   1.937   4.920   5.297
 3524SOL     OW11470   2.317   0.382   1.843
 3524SOL    HW111471   2.224   0.401   1.813
 3524SOL    HW211472   2.382   0.408   1.772
 3525SOL     OW11473   2.161   3.882   2.958
 3525SOL    HW111474   2.070   3.899   2.922
 3525SOL    HW211475   2.230   3.907   2.889
 3526SOL     OW11476   3.470   0.536   3.375
 3526SOL    HW111477   3.449   0.621   3.327
 3526SOL    HW211478   3.569   0.529   3.389
 3527SOL     OW11479   5.606   3.118   5.621
 3527SOL    HW111480   5.694   3.095   5.579
 3527SOL    HW211481   5.621   3.148   5.716
 3528SOL     OW11482   1.099   6.935   4.277
 3528SOL    HW111483   1.191   6.907   4.306
 3528SOL    HW211484   1.068   7.010   4.334
 3529SOL     OW11485   3.520   6.050   6.880
 3529SOL    HW111486   3.518   6.124   6.947
 3529SOL    HW211487   3.496   6.085   6.790
 3530SOL     OW11488   1.383   5.907   3.035
 3530SOL    HW111489   1.412   5.922   2.940
 3530SOL    HW211490   1.445   5.840   3.078
 3531SOL     OW11491   4.881   4.452   6.529
 3531SOL    HW111492   4.889   4.378   6.597
 3531SOL    HW211493   4.874   4.540   6.577
 3532SOL     OW11494   1.940   6.554   0.299
 3532SOL    HW111495   1.878   6.626   0.330
 3532SOL    HW211496   1.994   6.587   0.222
 3533SOL     OW11497   1.142   1.298   4.080
 3533SOL    HW111498   1.133   1.390   4.117
 3533SOL    HW211499   1.204   1.245   4.138
 3534SOL     OW11500   4.916   0.388   5.498
 3534SOL    HW111501   4.892   0.413   5.404
 3534SOL    HW211502   4.839   0.341   5.541
 3535SOL     OW11503   4.431   6.338   6.689
 3535SOL    HW111504   4.430   6.238   6.686
 3535SOL    HW211505   4.342   6.372   6.720
 3536SOL     OW11506   1.080   4.200   2.782
 3536SOL    HW111507   1.165   4.169   2.738
 3536SOL    HW211508   1.057   4.291   2.750
 3537SOL     OW11509   2.772   4.399   0.937
 3537SOL    HW111510   2.708   4.413   1.012
 3537SOL    HW211511   2.865   4.418   0.968
 3538SOL     OW11512   3.269   1.223   3.769
 3538SOL    HW111513   3.192   1.190   3.823
 3538SOL    HW211514   3.240   1.238   3.675
 3539SOL     OW11515   5.213   6.264   6.610
 3539SOL    HW111516   5.187   6.338   6.547
 3539SOL    HW211517   5.152   6.187   6.598
 3540SOL     OW11518   2.496   4.094   6.178
 3540SOL    HW111519   2.405   4.127   6.152
 3540SOL    HW211520   2.548   4.074   6.095
 3541SOL     OW11521   1.926   2.903   1.494
 3541SOL    HW111522   1.971   2.937   1.411
 3541SOL    HW211523   1.996   2.874   1.560
 3542SOL     OW11524   5.986   1.414   6.859
 3542SOL    HW111525   6.040   1.475   6.916
 3542SOL    HW211526   6.032   1.325   6.852
 3543SOL     OW11527   0.538   2.435   3.796
 3543SOL    HW111528   0.504   2.529   3.802
 3543SOL    HW211529   0.614   2.423   3.859
 3544SOL     OW11530   3.219   3.901   6.567
 3544SOL    HW111531   3.294   3.873   6.626
 3544SOL    HW211532   3.211   4.000   6.567
 3545SOL     OW11533   4.069   6.868   0.799
 3545SOL    HW111534   3.979   6.898   0.768
 3545SOL    HW211535   4.135   6.941   0.784
 3546SOL     OW11536   6.150   4.201   2.236
 3546SOL    HW111537   6.213   4.196   2.158
 3546SOL    HW211538   6.155   4.292   2.277
 3547SOL     OW11539   1.379   4.151   4.886
 3547SOL    HW111540   1.401   4.088   4.961
 3547SOL    HW211541   1.413   4.242   4.907
 3548SOL     OW11542   5.487   0.528   6.080
 3548SOL    HW111543   5.581   0.502   6.056
 3548SOL    HW211544   5.438   0.447   6.113
 3549SOL     OW11545   2.786   6.545   6.767
 3549SOL    HW111546   2.877   6.565   6.802
 3549SOL    HW211547   2.740   6.631   6.743
 3550SOL     OW11548   4.983   0.878   5.503
 3550SOL    HW111549   5.023   0.969   5.514
 3550SOL    HW211550   5.046   0.820   5.451
 3551SOL     OW11551   5.235   2.310   4.478
 3551SOL    HW111552   5.232   2.210   4.470
 3551SOL    HW211553   5.154   2.350   4.436
 3552SOL     OW11554   6.228   6.759   3.642
 3552SOL    HW111555   6.151   6.718   3.689
 3552SOL    HW211556   6.221   6.858   3.646
 3553SOL     OW11557   5.907   5.895   6.935
 3553SOL    HW111558   5.885   5.960   7.007
 3553SOL    HW211559   5.855   5.811   6.948
 3554SOL     OW11560   5.379   4.410   6.894
 3554SOL    HW111561   5.435   4.478   6.847
 3554SOL    HW211562   5.339   4.451   6.976
 3555SOL     OW11563   3.204   2.030   5.133
 3555SOL    HW111564   3.117   2.008   5.089
 3555SOL    HW211565   3.228   2.125   5.113
 3556SOL     OW11566   5.800   1.030   0.672
 3556SOL    HW111567   5.845   0.948   0.638
 3556SOL    HW211568   5.798   1.099   0.599
 3557SOL     OW11569   5.663   0.183   1.510
 3557SOL    HW111570   5.710   0.271   1.506
 3557SOL    HW211571   5.615   0.167   1.424
 3558SOL     OW11572   3.918   5.086   2.472
 3558SOL    HW111573   3.875   4.996   2.462
 3558SOL    HW211574   3.847   5.157   2.469
 3559SOL     OW11575   4.652   6.848   6.362
 3559SOL    HW111576   4.655   6.943   6.392
 3559SOL    HW211577   4.557   6.821   6.344
 3560SOL     OW11578   1.149   5.309   4.053
 3560SOL    HW111579   1.201   5.395   4.059
 3560SOL    HW211580   1.103   5.291   4.140
 3561SOL     OW11581   4.408   3.646   5.301
 3561SOL    HW111582   4.427   3.700   5.383
 3561SOL    HW211583   4.492   3.634   5.248
 3562SOL     OW11584   2.668   1.985   0.171
 3562SOL    HW111585   2.709   1.894   0.176
 3562SOL    HW211586   2.694   2.028   0.084
 3563SOL     OW11587   6.209   2.494   5.776
 3563SOL    HW111588   6.149   2.434   5.830
 3563SOL    HW211589   6.193   2.479   5.679
 3564SOL     OW11590   5.971   3.465   2.096
 3564SOL    HW111591   5.948   3.524   2.019
 3564SOL    HW211592   5.890   3.451   2.153
 3565SOL     OW11593   4.465   5.741   5.731
 3565SOL    HW111594   4.374   5.742   5.772
 3565SOL    HW211595   4.518   5.666   5.770
 3566SOL     OW11596   1.138   0.302   4.931
 3566SOL    HW111597   1.176   0.357   4.857
 3566SOL    HW211598   1.053   0.258   4.900
 3567SOL     OW11599   0.350   3.352   6.452
 3567SOL    HW111600   0.254   3.332   6.473
 3567SOL    HW211601   0.370   3.324   6.358
 3568SOL     OW11602   5.743   3.633   6.046
 3568SOL    HW111603   5.795   3.645   5.962
 3568SOL    HW211604   5.651   3.671   6.035
 3569SOL     OW11605   1.037   0.225   3.925
 3569SOL    HW111606   1.133   0.198   3.920
 3569SOL    HW211607   0.980   0.144   3.943
 3570SOL     OW11608   5.323   1.546   3.784
 3570SOL    HW111609   5.285   1.569   3.873
 3570SOL    HW211610   5.295   1.614   3.717
 3571SOL     OW11611   6.719   0.149   5.224
 3571SOL    HW111612   6.656   0.072   5.222
 3571SOL    HW211613   6.795   0.128   5.286
 3572SOL     OW11614   6.167   6.238   4.985
 3572SOL    HW111615   6.133   6.225   4.892
 3572SOL    HW211616   6.190   6.335   4.998
 3573SOL     OW11617   0.914   2.256   2.252
 3573SOL    HW111618   0.857   2.308   2.189
 3573SOL    HW211619   0.899   2.158   2.236
 3574SOL     OW11620   6.088   3.870   6.986
 3574SOL    HW111621   6.178   3.909   7.006
 3574SOL    HW211622   6.081   3.780   0.003
 3575SOL     OW11623   6.061   6.233   1.645
 3575SOL    HW111624   5.964   6.214   1.630
 3575SOL    HW211625   6.115   6.183   1.578
 3576SOL     OW11626   0.660   1.724   6.369
 3576SOL    HW111627   0.749   1.762   6.342
 3576SOL    HW211628   0.665   1.688   6.462
 3577SOL     OW11629   1.926   3.151   0.146
 3577SOL    HW111630   1.905   3.108   0.234
 3577SOL    HW211631   1.989   3.228   0.160
 3578SOL     OW11632   3.390   4.740   1.670
 3578SOL    HW111633   3.472   4.716   1.722
 3578SOL    HW211634   3.396   4.703   1.578
 3579SOL     OW11635   1.036   4.251   5.293
 3579SOL    HW111636   1.115   4.207   5.338
 3579SOL    HW211637   0.986   4.306   5.360
 3580SOL     OW11638   6.790   2.356   1.543
 3580SOL    HW111639   6.851   2.321   1.614
 3580SOL    HW211640   6.838   2.423   1.487
 3581SOL     OW11641   6.001   1.053   3.425
 3581SOL    HW111642   5.949   1.024   3.505
 3581SOL    HW211643   5.990   1.152   3.412
 3582SOL     OW11644   6.860   0.700   5.475
 3582SOL    HW111645   6.881   0.647   5.557
 3582SOL    HW211646   6.773   0.747   5.486
 3583SOL     OW11647   2.522   5.326   0.451
 3583SOL    HW111648   2.487   5.248   0.399
 3583SOL    HW211649   2.480   5.327   0.542
 3584SOL     OW11650   5.679   6.877   5.876
 3584SOL    HW111651   5.702   6.825   5.958
 3584SOL    HW211652   5.640   6.965   5.903
 3585SOL     OW11653   2.940   5.129   4.094
 3585SOL    HW111654   2.942   5.034   4.064
 3585SOL    HW211655   2.861   5.144   4.153
 3586SOL     OW11656   0.223   2.069   5.961
 3586SOL    HW111657   0.315   2.075   5.999
 3586SOL    HW211658   0.161   2.030   6.029
 3587SOL     OW11659   3.933   0.365   6.868
 3587SOL    HW111660   3.848   0.358   6.817
 3587SOL    HW211661   4.001   0.416   6.814
 3588SOL     OW11662   2.191   1.219   5.183
 3588SOL    HW111663   2.275   1.230   5.129
 3588SOL    HW211664   2.208   1.249   5.277
 3589SOL     OW11665   2.951   0.371   5.207
 3589SOL    HW111666   2.896   0.409   5.133
 3589SOL    HW211667   3.047   0.372   5.182
 3590SOL     OW11668   1.371   5.122   6.988
 3590SOL    HW111669   1.287   5.142   0.014
 3590SOL    HW211670   1.358   5.038   6.936
 3591SOL     OW11671   4.733   2.164   5.763
 3591SOL    HW111672   4.801   2.111   5.813
 3591SOL    HW211673   4.779   2.232   5.706
 3592SOL     OW11674   5.258   2.633   2.003
 3592SOL    HW111675   5.177   2.691   2.005
 3592SOL    HW211676   5.332   2.681   1.956
 3593SOL     OW11677   0.689   4.877   3.774
 3593SOL    HW111678   0.731   4.786   3.769
 3593SOL    HW211679   0.593   4.868   3.799
 3594SOL     OW11680   3.513   0.853   4.112
 3594SOL    HW111681   3.445   0.905   4.164
 3594SOL    HW211682   3.575   0.917   4.065
 3595SOL     OW11683   2.326   6.312   5.650
 3595SOL    HW111684   2.354   6.394   5.600
 3595SOL    HW211685   2.294   6.243   5.586
 3596SOL     OW11686   0.006   3.300   3.412
 3596SOL    HW111687   0.098   3.311   3.450
 3596SOL    HW211688   6.964   3.339   3.475
 3597SOL     OW11689   3.658   6.302   3.161
 3597SOL    HW111690   3.673   6.223   3.221
 3597SOL    HW211691   3.563   6.302   3.130
 3598SOL     OW11692   1.374   0.170   0.422
 3598SOL    HW111693   1.367   0.124   0.333
 3598SOL    HW211694   1.398   0.266   0.407
 3599SOL     OW11695   0.081   1.687   3.991
 3599SOL    HW111696   0.093   1.744   4.072
 3599SOL    HW211697   7.009   1.666   3.978
 3600SOL     OW11698   6.232   0.699   1.264
 3600SOL    HW111699   6.248   0.677   1.168
 3600SOL    HW211700   6.135   0.719   1.278
 3601SOL     OW11701   6.425   3.560   5.462
 3601SOL    HW111702   6.367   3.593   5.537
 3601SOL    HW211703   6.459   3.638   5.409
 3602SOL     OW11704   2.085   2.040   0.471
 3602SOL    HW111705   2.013   1.970   0.464
 3602SOL    HW211706   2.064   2.101   0.547
 3603SOL     OW11707   4.281   4.747   4.617
 3603SOL    HW111708   4.269   4.808   4.695
 3603SOL    HW211709   4.251   4.793   4.533
 3604SOL     OW11710   0.338   3.314   3.318
 3604SOL    HW111711   0.431   3.276   3.316
 3604SOL    HW211712   0.289   3.287   3.234
 3605SOL     OW11713   6.463   2.920   6.431
 3605SOL    HW111714   6.366   2.906   6.447
 3605SOL    HW211715   6.509   2.831   6.423
 3606SOL     OW11716   1.479   4.414   4.922
 3606SOL    HW111717   1.556   4.456   4.970
 3606SOL    HW211718   1.403   4.479   4.916
 3607SOL     OW11719   4.656   6.714   6.915
 3607SOL    HW111720   4.685   6.755   7.000
 3607SOL    HW211721   4.557   6.725   6.904
 3608SOL     OW11722   0.849   2.560   2.317
 3608SOL    HW111723   0.892   2.552   2.227
 3608SOL    HW211724   0.917   2.590   2.384
 3609SOL     OW11725   6.389   6.652   5.179
 3609SOL    HW111726   6.317   6.716   5.204
 3609SOL    HW211727   6.353   6.584   5.115
 3610SOL     OW11728   1.821   6.046   4.842
 3610SOL    HW111729   1.744   6.067   4.903
 3610SOL    HW211730   1.817   6.106   4.762
 3611SOL     OW11731   4.135   5.233   5.038
 3611SOL    HW111732   4.088   5.198   5.119
 3611SOL    HW211733   4.069   5.262   4.970
 3612SOL     OW11734   1.192   0.023   1.579
 3612SOL    HW111735   1.291   0.034   1.572
 3612SOL    HW211736   1.153   0.102   1.626
 3613SOL     OW11737   5.320   5.692   6.887
 3613SOL    HW111738   5.331   5.782   6.929
 3613SOL    HW211739   5.225   5.680   6.857
 3614SOL     OW11740   3.953   3.139   3.720
 3614SOL    HW111741   3.935   3.065   3.784
 3614SOL    HW211742   3.891   3.131   3.642
 3615SOL     OW11743   6.565   6.427   6.166
 3615SOL    HW111744   6.511   6.354   6.125
 3615SOL    HW211745   6.535   6.442   6.261
 3616SOL     OW11746   6.679   0.832   4.480
 3616SOL    HW111747   6.721   0.884   4.406
 3616SOL    HW211748   6.669   0.891   4.560
 3617SOL     OW11749   6.441   0.632   6.814
 3617SOL    HW111750   6.467   0.724   6.783
 3617SOL    HW211751   6.481   0.565   6.752
 3618SOL     OW11752   2.624   0.905   6.109
 3618SOL    HW111753   2.679   0.899   6.192
 3618SOL    HW211754   2.539   0.853   6.121
 3619SOL     OW11755   5.229   2.759   4.121
 3619SOL    HW111756   5.253   2.854   4.099
 3619SOL    HW211757   5.297   2.721   4.184
 3620SOL     OW11758   6.154   1.112   4.902
 3620SOL    HW111759   6.158   1.064   4.815
 3620SOL    HW211760   6.145   1.210   4.885
 3621SOL     OW11761   1.925   3.294   5.797
 3621SOL    HW111762   2.008   3.268   5.846
 3621SOL    HW211763   1.948   3.362   5.727
 3622SOL     OW11764   0.402   2.516   1.289
 3622SOL    HW111765   0.393   2.541   1.385
 3622SOL    HW211766   0.493   2.541   1.256
 3623SOL     OW11767   6.862   5.440   4.376
 3623SOL    HW111768   6.930   5.367   4.380
 3623SOL    HW211769   6.791   5.423   4.444
 3624SOL     OW11770   2.170   0.694   1.812
 3624SOL    HW111771   2.165   0.598   1.840
 3624SOL    HW211772   2.177   0.700   1.713
 3625SOL     OW11773   0.487   3.261   4.471
 3625SOL    HW111774   0.564   3.208   4.505
 3625SOL    HW211775   0.502   3.358   4.490
 3626SOL     OW11776   2.590   3.792   5.363
 3626SOL    HW111777   2.537   3.845   5.297
 3626SOL    HW211778   2.538   3.712   5.392
 3627SOL     OW11779   3.106   3.820   3.800
 3627SOL    HW111780   3.082   3.798   3.895
 3627SOL    HW211781   3.198   3.786   3.780
 3628SOL     OW11782   3.501   5.283   2.585
 3628SOL    HW111783   3.529   5.335   2.666
 3628SOL    HW211784   3.406   5.305   2.563
 3629SOL     OW11785   6.462   2.415   5.074
 3629SOL    HW111786   6.378   2.455   5.111
 3629SOL    HW211787   6.528   2.401   5.147
 3630SOL     OW11788   5.820   1.836   4.433
 3630SOL    HW111789   5.831   1.900   4.510
 3630SOL    HW211790   5.765   1.758   4.463
 3631SOL     OW11791   2.000   1.057   4.423
 3631SOL    HW111792   2.093   1.091   4.433
 3631SOL    HW211793   1.975   1.002   4.502
 3632SOL     OW11794   4.348   0.399   6.564
 3632SOL    HW111795   4.327   0.374   6.659
 3632SOL    HW211796   4.415   0.336   6.527
 3633SOL     OW11797   2.323   3.040   5.951
 3633SOL    HW111798   2.417   3.073   5.964
 3633SOL    HW211799   2.305   2.967   6.017
 3634SOL     OW11800   2.114   5.856   5.181
 3634SOL    HW111801   2.070   5.769   5.159
 3634SOL    HW211802   2.131   5.860   5.279
 3635SOL     OW11803   2.566   1.455   5.329
 3635SOL    HW111804   2.579   1.361   5.362
 3635SOL    HW211805   2.608   1.519   5.393
 3636SOL     OW11806   1.258   5.783   6.200
 3636SOL    HW111807   1.252   5.790   6.100
 3636SOL    HW211808   1.328   5.845   6.233
 3637SOL     OW11809   5.537   1.261   2.064
 3637SOL    HW111810   5.469   1.286   1.995
 3637SOL    HW211811   5.494   1.206   2.135
 3638SOL     OW11812   6.490   5.122   4.419
 3638SOL    HW111813   6.487   5.204   4.361
 3638SOL    HW211814   6.531   5.145   4.507
 3639SOL     OW11815   2.032   5.063   7.011
 3639SOL    HW111816   2.070   5.035   0.074
 3639SOL    HW211817   2.084   5.141   6.976
 3640SOL     OW11818   3.614   5.952   1.158
 3640SOL    HW111819   3.596   5.858   1.130
 3640SOL    HW211820   3.683   5.993   1.098
 3641SOL     OW11821   2.628   0.693   5.400
 3641SOL    HW111822   2.585   0.617   5.352
 3641SOL    HW211823   2.614   0.682   5.498
 3642SOL     OW11824   5.828   0.112   3.564
 3642SOL    HW111825   5.814   0.050   3.641
 3642SOL    HW211826   5.907   0.081   3.511
 3643SOL     OW11827   2.514   4.572   5.066
 3643SOL    HW111828   2.600   4.617   5.041
 3643SOL    HW211829   2.512   4.557   5.165
 3644SOL     OW11830   0.182   0.870   0.738
 3644SOL    HW111831   0.276   0.866   0.706
 3644SOL    HW211832   0.121   0.892   0.661
 3645SOL     OW11833   3.336   0.807   3.265
 3645SOL    HW111834   3.237   0.808   3.279
 3645SOL    HW211835   3.381   0.859   3.338
 3646SOL     OW11836   0.049   4.690   4.798
 3646SOL    HW111837   0.092   4.640   4.723
 3646SOL    HW211838   0.054   4.635   4.882
 3647SOL     OW11839   2.995   3.011   1.175
 3647SOL    HW111840   3.019   2.947   1.102
 3647SOL    HW211841   2.921   2.973   1.230
 3648SOL     OW11842   2.907   6.389   2.730
 3648SOL    HW111843   3.007   6.383   2.735
 3648SOL    HW211844   2.874   6.338   2.651
 3649SOL     OW11845   3.206   3.529   1.249
 3649SOL    HW111846   3.202   3.438   1.291
 3649SOL    HW211847   3.193   3.520   1.150
 3650SOL     OW11848   0.203   6.886   1.519
 3650SOL    HW111849   0.234   6.949   1.590
 3650SOL    HW211850   0.225   6.923   1.429
 3651SOL     OW11851   2.004   5.450   2.432
 3651SOL    HW111852   2.098   5.469   2.458
 3651SOL    HW211853   1.977   5.511   2.357
 3652SOL     OW11854   4.526   5.754   3.351
 3652SOL    HW111855   4.566   5.676   3.398
 3652SOL    HW211856   4.449   5.723   3.295
 3653SOL     OW11857   0.249   2.539   3.585
 3653SOL    HW111858   0.153   2.513   3.572
 3653SOL    HW211859   0.267   2.555   3.682
 3654SOL     OW11860   1.792   6.911   1.547
 3654SOL    HW111861   1.889   6.916   1.521
 3654SOL    HW211862   1.738   6.969   1.486
 3655SOL     OW11863   1.728   0.334   4.547
 3655SOL    HW111864   1.807   0.363   4.493
 3655SOL    HW211865   1.723   0.390   4.630
 3656SOL     OW11866   2.251   2.444   1.875
 3656SOL    HW111867   2.330   2.386   1.856
 3656SOL    HW211868   2.258   2.480   1.968
 3657SOL     OW11869   3.948   6.025   1.419
 3657SOL    HW111870   4.003   5.996   1.497
 3657SOL    HW211871   3.858   6.054   1.450
 3658SOL     OW11872   1.608   5.689   6.240
 3658SOL    HW111873   1.572   5.721   6.328
 3658SOL    HW211874   1.597   5.761   6.171
 3659SOL     OW11875   2.330   4.279   6.827
 3659SOL    HW111876   2.285   4.272   6.916
 3659SOL    HW211877   2.300   4.363   6.781
 3660SOL     OW11878   4.499   5.443   1.853
 3660SOL    HW111879   4.539   5.362   1.897
 3660SOL    HW211880   4.568   5.487   1.795
 3661SOL     OW11881   4.411   0.928   0.499
 3661SOL    HW111882   4.366   0.905   0.413
 3661SOL    HW211883   4.425   0.844   0.552
 3662SOL     OW11884   3.120   6.949   5.618
 3662SOL    HW111885   3.113   0.022   5.601
 3662SOL    HW211886   3.208   6.916   5.584
 3663SOL     OW11887   1.191   2.739   6.735
 3663SOL    HW111888   1.124   2.710   6.804
 3663SOL    HW211889   1.155   2.818   6.685
 3664SOL     OW11890   4.541   1.439   0.719
 3664SOL    HW111891   4.532   1.487   0.631
 3664SOL    HW211892   4.521   1.342   0.705
 3665SOL     OW11893   1.068   6.810   5.954
 3665SOL    HW111894   1.092   6.809   5.857
 3665SOL    HW211895   1.149   6.829   6.009
 3666SOL     OW11896   1.096   5.267   3.772
 3666SOL    HW111897   1.108   5.274   3.872
 3666SOL    HW211898   1.144   5.186   3.739
 3667SOL     OW11899   6.593   1.570   6.587
 3667SOL    HW111900   6.673   1.592   6.643
 3667SOL    HW211901   6.621   1.553   6.493
 3668SOL     OW11902   1.121   6.428   2.387
 3668SOL    HW111903   1.067   6.512   2.397
 3668SOL    HW211904   1.189   6.440   2.315
 3669SOL     OW11905   6.621   3.237   2.935
 3669SOL    HW111906   6.591   3.326   2.901
 3669SOL    HW211907   6.616   3.170   2.861
 3670SOL     OW11908   1.777   5.720   5.861
 3670SOL    HW111909   1.708   5.770   5.915
 3670SOL    HW211910   1.737   5.634   5.828
 3671SOL     OW11911   0.889   0.578   2.732
 3671SOL    HW111912   0.855   0.528   2.812
 3671SOL    HW211913   0.976   0.539   2.704
 3672SOL     OW11914   6.975   0.630   0.772
 3672SOL    HW111915   0.013   0.707   0.782
 3672SOL    HW211916   7.015   0.562   0.710
 3673SOL     OW11917   5.222   0.360   6.842
 3673SOL    HW111918   5.288   0.361   6.767
 3673SOL    HW211919   5.261   0.405   6.922
 3674SOL     OW11920   1.296   6.255   1.399
 3674SOL    HW111921   1.223   6.245   1.331
 3674SOL    HW211922   1.319   6.352   1.410
 3675SOL     OW11923   1.784   2.190   5.065
 3675SOL    HW111924   1.789   2.112   5.002
 3675SOL    HW211925   1.866   2.246   5.057
 3676SOL     OW11926   2.439   5.586   3.489
 3676SOL    HW111927   2.419   5.494   3.454
 3676SOL    HW211928   2.477   5.642   3.416
 3677SOL     OW11929   6.518   6.946   4.723
 3677SOL    HW111930   6.515   0.011   4.679
 3677SOL    HW211931   6.454   6.885   4.677
 3678SOL     OW11932   0.775   1.652   3.641
 3678SOL    HW111933   0.845   1.719   3.618
 3678SOL    HW211934   0.688   1.677   3.599
 3679SOL     OW11935   0.107   0.996   2.086
 3679SOL    HW111936   0.164   0.956   2.157
 3679SOL    HW211937   0.114   1.095   2.089
 3680SOL     OW11938   6.766   3.249   4.251
 3680SOL    HW111939   6.672   3.282   4.251
 3680SOL    HW211940   6.826   3.319   4.292
 3681SOL     OW11941   6.794   6.062   5.711
 3681SOL    HW111942   6.832   6.132   5.652
 3681SOL    HW211943   6.695   6.057   5.699
 3682SOL     OW11944   0.063   2.025   6.215
 3682SOL    HW111945   6.993   2.002   6.237
 3682SOL    HW211946   0.124   1.967   6.269
 3683SOL     OW11947   5.290   6.393   4.649
 3683SOL    HW111948   5.205   6.436   4.682
 3683SOL    HW211949   5.269   6.302   4.613
 3684SOL     OW11950   1.343   3.485   0.818
 3684SOL    HW111951   1.352   3.390   0.789
 3684SOL    HW211952   1.267   3.528   0.768
 3685SOL     OW11953   6.856   6.341   6.162
 3685SOL    HW111954   6.781   6.408   6.166
 3685SOL    HW211955   6.894   6.339   6.070
 3686SOL     OW11956   6.132   4.416   1.606
 3686SOL    HW111957   6.047   4.454   1.569
 3686SOL    HW211958   6.158   4.335   1.554
 3687SOL     OW11959   3.357   0.717   0.253
 3687SOL    HW111960   3.327   0.812   0.260
 3687SOL    HW211961   3.279   0.658   0.230
 3688SOL     OW11962   1.372   3.879   0.448
 3688SOL    HW111963   1.460   3.836   0.468
 3688SOL    HW211964   1.337   3.923   0.531
 3689SOL     OW11965   2.238   0.476   3.580
 3689SOL    HW111966   2.215   0.546   3.647
 3689SOL    HW211967   2.175   0.399   3.590
 3690SOL     OW11968   6.240   0.039   5.584
 3690SOL    HW111969   6.310   0.072   5.520
 3690SOL    HW211970   6.158   0.096   5.576
 3691SOL     OW11971   3.537   2.776   6.870
 3691SOL    HW111972   3.523   2.689   6.823
 3691SOL    HW211973   3.632   2.784   6.899
 3692SOL     OW11974   1.699   6.969   5.795
 3692SOL    HW111975   1.705   6.881   5.748
 3692SOL    HW211976   1.727   0.017   5.733
 3693SOL     OW11977   2.837   2.045   3.101
 3693SOL    HW111978   2.845   2.103   3.020
 3693SOL    HW211979   2.762   2.077   3.158
 3694SOL     OW11980   1.857   5.934   3.231
 3694SOL    HW111981   1.847   5.924   3.132
 3694SOL    HW211982   1.906   5.855   3.267
 3695SOL     OW11983   1.704   2.429   2.292
 3695SOL    HW111984   1.633   2.499   2.300
 3695SOL    HW211985   1.671   2.354   2.235
 3696SOL     OW11986   3.642   6.612   6.034
 3696SOL    HW111987   3.600   6.533   5.990
 3696SOL    HW211988   3.597   6.631   6.121
 3697SOL     OW11989   6.415   0.369   4.300
 3697SOL    HW111990   6.496   0.314   4.278
 3697SOL    HW211991   6.410   0.447   4.238
 3698SOL     OW11992   3.238   0.324   5.866
 3698SOL    HW111993   3.155   0.377   5.886
 3698SOL    HW211994   3.268   0.344   5.773
 3699SOL     OW11995   0.459   4.062   2.700
 3699SOL    HW111996   0.439   4.160   2.687
 3699SOL    HW211997   0.558   4.050   2.706
 3700SOL     OW11998   0.246   0.113   4.291
 3700SOL    HW111999   0.222   0.016   4.290
 3700SOL    HW212000   0.280   0.138   4.381
 3701SOL     OW12001   6.194   0.618   4.319
 3701SOL    HW112002   6.265   0.682   4.292
 3701SOL    HW212003   6.222   0.569   4.401
 3702SOL     OW12004   3.256   0.999   0.186
 3702SOL    HW112005   3.273   1.096   0.201
 3702SOL    HW212006   3.172   0.972   0.232
 3703SOL     OW12007   4.318   4.392   6.501
 3703SOL    HW112008   4.349   4.427   6.413
 3703SOL    HW212009   4.220   4.407   6.511
 3704SOL     OW12010   1.994   0.256   2.582
 3704SOL    HW112011   1.895   0.243   2.584
 3704SOL    HW212012   2.038   0.190   2.643
 3705SOL     OW12013   5.535   0.962   3.787
 3705SOL    HW112014   5.526   1.053   3.826
 3705SOL    HW212015   5.449   0.937   3.741
 3706SOL     OW12016   2.081   2.399   3.804
 3706SOL    HW112017   2.170   2.444   3.801
 3706SOL    HW212018   2.068   2.347   3.720
 3707SOL     OW12019   4.384   2.696   5.225
 3707SOL    HW112020   4.440   2.656   5.152
 3707SOL    HW212021   4.290   2.664   5.215
 3708SOL     OW12022   5.854   0.321   6.273
 3708SOL    HW112023   5.868   0.356   6.180
 3708SOL    HW212024   5.793   0.383   6.323
 3709SOL     OW12025   4.182   0.779   6.367
 3709SOL    HW112026   4.202   0.764   6.270
 3709SOL    HW212027   4.100   0.728   6.392
 3710SOL     OW12028   0.394   4.745   0.745
 3710SOL    HW112029   0.312   4.757   0.689
 3710SOL    HW212030   0.470   4.796   0.704
 3711SOL     OW12031   6.372   4.537   2.851
 3711SOL    HW112032   6.425   4.502   2.773
 3711SOL    HW212033   6.434   4.584   2.915
 3712SOL     OW12034   2.179   6.958   0.610
 3712SOL    HW112035   2.141   0.018   0.646
 3712SOL    HW212036   2.251   6.979   0.543
 3713SOL     OW12037   3.631   5.671   5.432
 3713SOL    HW112038   3.572   5.746   5.462
 3713SOL    HW212039   3.581   5.585   5.442
 3714SOL     OW12040   3.403   0.388   4.911
 3714SOL    HW112041   3.376   0.360   4.819
 3714SOL    HW212042   3.368   0.323   4.978
 3715SOL     OW12043   5.706   3.680   4.586
 3715SOL    HW112044   5.776   3.695   4.656
 3715SOL    HW212045   5.715   3.748   4.514
 3716SOL     OW12046   0.285   0.543   4.158
 3716SOL    HW112047   0.199   0.565   4.205
 3716SOL    HW212048   0.299   0.444   4.157
 3717SOL     OW12049   5.603   6.925   0.535
 3717SOL    HW112050   5.508   6.896   0.524
 3717SOL    HW212051   5.611   6.979   0.619
 3718SOL     OW12052   0.813   5.405   0.010
 3718SOL    HW112053   0.868   5.473   6.987
 3718SOL    HW212054   0.720   5.406   6.998
 3719SOL     OW12055   3.222   5.208   5.806
 3719SOL    HW112056   3.251   5.121   5.846
 3719SOL    HW212057   3.207   5.196   5.708
 3720SOL     OW12058   6.437   1.805   6.111
 3720SOL    HW112059   6.449   1.713   6.075
 3720SOL    HW212060   6.339   1.827   6.115
 3721SOL     OW12061   4.842   3.698   0.455
 3721SOL    HW112062   4.776   3.685   0.529
 3721SOL    HW212063   4.883   3.789   0.462
 3722SOL     OW12064   6.473   6.162   2.099
 3722SOL    HW112065   6.497   6.251   2.136
 3722SOL    HW212066   6.551   6.123   2.050
 3723SOL     OW12067   4.654   0.947   0.904
 3723SOL    HW112068   4.655   1.047   0.909
 3723SOL    HW212069   4.564   0.913   0.929
 3724SOL     OW12070   1.505   5.825   6.025
 3724SOL    HW112071   1.437   5.896   6.044
 3724SOL    HW212072   1.479   5.777   5.941
 3725SOL     OW12073   0.204   6.038   0.375
 3725SOL    HW112074   0.251   6.049   0.288
 3725SOL    HW212075   0.112   6.077   0.368
 3726SOL     OW12076   5.428   3.605   1.483
 3726SOL    HW112077   5.527   3.609   1.497
 3726SOL    HW212078   5.384   3.676   1.538
 3727SOL     OW12079   2.061   3.503   5.608
 3727SOL    HW112080   2.146   3.452   5.594
 3727SOL    HW212081   2.061   3.585   5.552
 3728SOL     OW12082   1.546   3.209   6.487
 3728SOL    HW112083   1.572   3.185   6.394
 3728SOL    HW212084   1.614   3.271   6.527
 3729SOL     OW12085   0.493   2.131   3.136
 3729SOL    HW112086   0.542   2.088   3.212
 3729SOL    HW212087   0.511   2.080   3.052
 3730SOL     OW12088   3.020   0.864   0.290
 3730SOL    HW112089   3.000   0.853   0.192
 3730SOL    HW212090   2.959   0.934   0.327
 3731SOL     OW12091   4.123   6.691   0.103
 3731SOL    HW112092   4.165   6.677   0.193
 3731SOL    HW212093   4.056   6.619   0.086
 3732SOL     OW12094   2.269   3.771   5.230
 3732SOL    HW112095   2.217   3.757   5.146
 3732SOL    HW212096   2.337   3.842   5.216
 3733SOL     OW12097   2.804   3.697   1.297
 3733SOL    HW112098   2.824   3.600   1.310
 3733SOL    HW212099   2.771   3.712   1.204
 3734SOL     OW12100   5.167   0.886   2.483
 3734SOL    HW112101   5.200   0.974   2.518
 3734SOL    HW212102   5.079   0.899   2.438
 3735SOL     OW12103   3.231   1.387   2.486
 3735SOL    HW112104   3.223   1.422   2.393
 3735SOL    HW212105   3.231   1.464   2.550
 3736SOL     OW12106   5.799   2.231   0.007
 3736SOL    HW112107   5.827   2.138   7.009
 3736SOL    HW212108   5.743   2.268   6.957
 3737SOL     OW12109   4.589   6.674   3.433
 3737SOL    HW112110   4.665   6.719   3.384
 3737SOL    HW212111   4.567   6.726   3.515
 3738SOL     OW12112   6.888   6.929   3.403
 3738SOL    HW112113   6.907   7.006   3.464
 3738SOL    HW212114   6.882   6.962   3.309
 3739SOL     OW12115   0.588   4.480   2.463
 3739SOL    HW112116   0.569   4.385   2.437
 3739SOL    HW212117   0.556   4.495   2.557
 3740SOL     OW12118   5.522   1.150   0.448
 3740SOL    HW112119   5.618   1.171   0.434
 3740SOL    HW212120   5.467   1.188   0.373
 3741SOL     OW12121   4.246   2.469   6.364
 3741SOL    HW112122   4.180   2.396   6.345
 3741SOL    HW212123   4.210   2.556   6.328
 3742SOL     OW12124   3.438   3.250   5.383
 3742SOL    HW112125   3.443   3.168   5.326
 3742SOL    HW212126   3.343   3.263   5.414
 3743SOL     OW12127   0.309   5.338   6.571
 3743SOL    HW112128   0.257   5.354   6.655
 3743SOL    HW212129   0.245   5.318   6.496
 3744SOL     OW12130   6.770   5.835   3.212
 3744SOL    HW112131   6.833   5.759   3.198
 3744SOL    HW212132   6.822   5.918   3.232
 3745SOL     OW12133   4.442   6.152   2.592
 3745SOL    HW112134   4.354   6.151   2.546
 3745SOL    HW212135   4.515   6.153   2.524
 3746SOL     OW12136   4.284   1.769   2.463
 3746SOL    HW112137   4.372   1.754   2.419
 3746SOL    HW212138   4.260   1.866   2.457
 3747SOL     OW12139   2.941   0.096   0.147
 3747SOL    HW112140   3.037   0.110   0.171
 3747SOL    HW212141   2.912   0.006   0.178
 3748SOL     OW12142   5.773   1.040   2.508
 3748SOL    HW112143   5.735   1.125   2.473
 3748SOL    HW212144   5.802   1.053   2.603
 3749SOL     OW12145   1.416   0.241   5.000
 3749SOL    HW112146   1.324   0.242   4.960
 3749SOL    HW212147   1.478   0.189   4.941
 3750SOL     OW12148   0.079   4.548   0.050
 3750SOL    HW112149   0.087   4.459   0.095
 3750SOL    HW212150   7.007   4.569   0.036
 3751SOL     OW12151   1.228   3.932   2.539
 3751SOL    HW112152   1.285   3.963   2.616
 3751SOL    HW212153   1.135   3.915   2.572
 3752SOL     OW12154   5.769   0.291   6.833
 3752SOL    HW112155   5.835   0.243   6.891
 3752SOL    HW212156   5.726   0.227   6.769
 3753SOL     OW12157   6.451   0.065   3.916
 3753SOL    HW112158   6.493   7.009   3.875
 3753SOL    HW212159   6.352   0.055   3.916
 3754SOL     OW12160   2.380   1.694   0.935
 3754SOL    HW112161   2.472   1.656   0.947
 3754SOL    HW212162   2.375   1.783   0.980
 3755SOL     OW12163   2.931   4.874   3.933
 3755SOL    HW112164   2.897   4.818   4.008
 3755SOL    HW212165   2.857   4.929   3.896
 3756SOL     OW12166   2.739   6.279   6.687
 3756SOL    HW112167   2.659   6.256   6.743
 3756SOL    HW212168   2.759   6.377   6.696
 3757SOL     OW12169   6.948   4.618   1.394
 3757SOL    HW112170   7.023   4.556   1.373
 3757SOL    HW212171   6.910   4.595   1.483
 3758SOL     OW12172   2.231   6.934   4.017
 3758SOL    HW112173   2.281   6.972   3.939
 3758SOL    HW212174   2.138   6.911   3.989
 3759SOL     OW12175   5.044   0.095   4.484
 3759SOL    HW112176   4.968   0.086   4.549
 3759SOL    HW212177   5.131   0.082   4.532
 3760SOL     OW12178   0.191   1.082   3.119
 3760SOL    HW112179   0.100   1.078   3.079
 3760SOL    HW212180   0.242   1.159   3.081
 3761SOL     OW12181   5.557   1.007   4.257
 3761SOL    HW112182   5.538   1.047   4.168
 3761SOL    HW212183   5.640   0.951   4.251
 3762SOL     OW12184   6.630   2.427   3.318
 3762SOL    HW112185   6.668   2.335   3.319
 3762SOL    HW212186   6.630   2.464   3.411
 3763SOL     OW12187   0.836   4.775   0.751
 3763SOL    HW112188   0.925   4.818   0.738
 3763SOL    HW212189   0.845   4.676   0.746
 3764SOL     OW12190   2.375   0.520   3.029
 3764SOL    HW112191   2.373   0.607   2.979
 3764SOL    HW212192   2.409   0.448   2.968
 3765SOL     OW12193   5.396   2.916   2.714
 3765SOL    HW112194   5.305   2.875   2.723
 3765SOL    HW212195   5.445   2.908   2.800
 3766SOL     OW12196   1.107   3.629   3.321
 3766SOL    HW112197   1.020   3.636   3.371
 3766SOL    HW212198   1.123   3.713   3.270
 3767SOL     OW12199   1.195   5.071   5.994
 3767SOL    HW112200   1.096   5.056   5.995
 3767SOL    HW212201   1.224   5.111   6.082
 3768SOL     OW12202   0.849   6.429   3.210
 3768SOL    HW112203   0.818   6.469   3.123
 3768SOL    HW212204   0.887   6.502   3.267
 3769SOL     OW12205   5.841   4.862   5.088
 3769SOL    HW112206   5.938   4.840   5.078
 3769SOL    HW212207   5.825   4.956   5.059
 3770SOL     OW12208   1.791   0.784   1.062
 3770SOL    HW112209   1.872   0.778   1.004
 3770SOL    HW212210   1.801   0.859   1.127
 3771SOL     OW12211   6.446   5.212   6.265
 3771SOL    HW112212   6.427   5.310   6.273
 3771SOL    HW212213   6.507   5.184   6.339
 3772SOL     OW12214   1.403   6.256   0.901
 3772SOL    HW112215   1.371   6.163   0.921
 3772SOL    HW212216   1.421   6.265   0.803
 3773SOL     OW12217   5.641   4.731   6.534
 3773SOL    HW112218   5.718   4.766   6.480
 3773SOL    HW212219   5.613   4.642   6.497
 3774SOL     OW12220   6.765   5.033   1.862
 3774SOL    HW112221   6.795   5.114   1.812
 3774SOL    HW212222   6.755   5.056   1.959
 3775SOL     OW12223   4.939   4.915   4.828
 3775SOL    HW112224   4.854   4.882   4.787
 3775SOL    HW212225   4.935   5.015   4.836
 3776SOL     OW12226   3.610   2.867   5.956
 3776SOL    HW112227   3.510   2.875   5.950
 3776SOL    HW212228   3.650   2.883   5.866
 3777SOL     OW12229   2.573   5.910   4.143
 3777SOL    HW112230   2.536   5.899   4.235
 3777SOL    HW212231   2.637   5.987   4.142
 3778SOL     OW12232   3.578   5.613   5.847
 3778SOL    HW112233   3.545   5.570   5.763
 3778SOL    HW212234   3.611   5.542   5.909
 3779SOL     OW12235   6.720   4.990   6.886
 3779SOL    HW112236   6.792   4.968   6.952
 3779SOL    HW212237   6.741   4.946   6.798
 3780SOL     OW12238   5.511   4.111   1.518
 3780SOL    HW112239   5.546   4.047   1.451
 3780SOL    HW212240   5.422   4.146   1.488
 3781SOL     OW12241   2.886   6.393   4.817
 3781SOL    HW112242   2.816   6.362   4.881
 3781SOL    HW212243   2.849   6.466   4.760
 3782SOL     OW12244   4.666   5.807   1.357
 3782SOL    HW112245   4.632   5.718   1.387
 3782SOL    HW212246   4.596   5.852   1.302
 3783SOL     OW12247   5.278   5.715   4.243
 3783SOL    HW112248   5.200   5.765   4.280
 3783SOL    HW212249   5.246   5.644   4.180
 3784SOL     OW12250   6.091   2.098   4.361
 3784SOL    HW112251   6.073   2.074   4.456
 3784SOL    HW212252   6.123   2.018   4.311
 3785SOL     OW12253   1.651   3.504   4.090
 3785SOL    HW112254   1.733   3.545   4.051
 3785SOL    HW212255   1.586   3.483   4.017
 3786SOL     OW12256   2.485   2.556   4.781
 3786SOL    HW112257   2.549   2.547   4.857
 3786SOL    HW212258   2.456   2.651   4.773
 3787SOL     OW12259   4.246   6.981   3.865
 3787SOL    HW112260   4.278   6.886   3.864
 3787SOL    HW212261   4.180   6.993   3.938
 3788SOL     OW12262   6.017   3.082   5.238
 3788SOL    HW112263   6.062   3.062   5.151
 3788SOL    HW212264   5.928   3.125   5.221
 3789SOL     OW12265   1.804   3.162   2.664
 3789SOL    HW112266   1.829   3.108   2.583
 3789SOL    HW212267   1.708   3.146   2.686
 3790SOL     OW12268   0.437   6.885   1.267
 3790SOL    HW112269   0.430   6.961   1.332
 3790SOL    HW212270   0.481   6.807   1.312
 3791SOL     OW12271   5.116   1.323   5.537
 3791SOL    HW112272   5.036   1.305   5.594
 3791SOL    HW212273   5.087   1.336   5.442
 3792SOL     OW12274   6.803   0.629   4.605
 3792SOL    HW112275   6.828   0.637   4.701
 3792SOL    HW212276   6.750   0.710   4.577
 3793SOL     OW12277   4.720   4.932   0.754
 3793SOL    HW112278   4.805   4.884   0.732
 3793SOL    HW212279   4.741   5.013   0.809
 3794SOL     OW12280   0.639   4.228   6.603
 3794SOL    HW112281   0.633   4.323   6.572
 3794SOL    HW212282   0.548   4.188   6.606
 3795SOL     OW12283   2.399   6.165   1.152
 3795SOL    HW112284   2.446   6.078   1.137
 3795SOL    HW212285   2.411   6.224   1.072
 3796SOL     OW12286   5.331   1.323   6.998
 3796SOL    HW112287   5.316   1.421   6.982
 3796SOL    HW212288   5.264   1.270   6.947
 3797SOL     OW12289   1.223   4.585   2.273
 3797SOL    HW112290   1.148   4.522   2.255
 3797SOL    HW212291   1.268   4.560   2.358
 3798SOL     OW12292   1.404   5.848   3.450
 3798SOL    HW112293   1.484   5.900   3.479
 3798SOL    HW212294   1.372   5.790   3.525
 3799SOL     OW12295   6.854   0.978   3.176
 3799SOL    HW112296   6.898   0.981   3.266
 3799SOL    HW212297   6.761   0.942   3.186
 3800SOL     OW12298   5.035   2.638   2.887
 3800SOL    HW112299   4.960   2.589   2.844
 3800SOL    HW212300   5.042   2.730   2.848
 3801SOL     OW12301   5.663   1.347   1.439
 3801SOL    HW112302   5.665   1.333   1.538
 3801SOL    HW212303   5.752   1.323   1.401
 3802SOL     OW12304   6.477   2.881   1.990
 3802SOL    HW112305   6.499   2.860   1.895
 3802SOL    HW212306   6.384   2.916   1.996
 3803SOL     OW12307   3.313   3.267   4.281
 3803SOL    HW112308   3.367   3.234   4.204
 3803SOL    HW212309   3.330   3.364   4.295
 3804SOL     OW12310   4.386   5.934   3.468
 3804SOL    HW112311   4.387   6.029   3.437
 3804SOL    HW212312   4.459   5.883   3.423
 3805SOL     OW12313   2.578   2.580   0.217
 3805SOL    HW112314   2.573   2.580   0.117
 3805SOL    HW212315   2.674   2.576   0.246
 3806SOL     OW12316   2.987   4.543   1.457
 3806SOL    HW112317   2.906   4.601   1.452
 3806SOL    HW212318   3.048   4.577   1.530
 3807SOL     OW12319   1.846   4.531   4.625
 3807SOL    HW112320   1.771   4.485   4.671
 3807SOL    HW212321   1.931   4.480   4.639
 3808SOL     OW12322   3.244   6.806   6.321
 3808SOL    HW112323   3.196   6.778   6.404
 3808SOL    HW212324   3.180   6.850   6.259
 3809SOL     OW12325   5.111   2.278   1.564
 3809SOL    HW112326   5.036   2.213   1.549
 3809SOL    HW212327   5.073   2.370   1.575
 3810SOL     OW12328   6.075   2.462   1.949
 3810SOL    HW112329   6.116   2.424   1.866
 3810SOL    HW212330   6.148   2.496   2.010
 3811SOL     OW12331   0.300   5.344   5.327
 3811SOL    HW112332   0.282   5.434   5.366
 3811SOL    HW212333   0.280   5.273   5.394
 3812SOL     OW12334   4.684   5.848   1.045
 3812SOL    HW112335   4.665   5.945   1.055
 3812SOL    HW212336   4.764   5.824   1.102
 3813SOL     OW12337   5.968   4.299   0.019
 3813SOL    HW112338   5.927   4.326   0.106
 3813SOL    HW212339   6.067   4.315   0.022
 3814SOL     OW12340   6.514   0.506   4.964
 3814SOL    HW112341   6.570   0.539   4.888
 3814SOL    HW212342   6.565   0.438   5.016
 3815SOL     OW12343   6.581   3.819   5.863
 3815SOL    HW112344   6.633   3.902   5.846
 3815SOL    HW212345   6.633   3.739   5.833
 3816SOL     OW12346   0.439   6.097   0.522
 3816SOL    HW112347   0.386   6.079   0.440
 3816SOL    HW212348   0.498   6.018   0.542
 3817SOL     OW12349   5.078   3.860   2.136
 3817SOL    HW112350   5.115   3.777   2.095
 3817SOL    HW212351   5.016   3.904   2.072
 3818SOL     OW12352   5.951   6.494   2.804
 3818SOL    HW112353   6.044   6.502   2.841
 3818SOL    HW212354   5.889   6.463   2.876
 3819SOL     OW12355   6.593   4.724   3.743
 3819SOL    HW112356   6.639   4.671   3.814
 3819SOL    HW212357   6.657   4.744   3.669
 3820SOL     OW12358   3.908   0.127   4.663
 3820SOL    HW112359   3.988   0.180   4.691
 3820SOL    HW212360   3.830   0.189   4.647
 3821SOL     OW12361   1.917   0.185   0.086
 3821SOL    HW112362   1.905   0.096   0.129
 3821SOL    HW212363   1.829   0.215   0.047
 3822SOL     OW12364   4.522   0.585   1.779
 3822SOL    HW112365   4.584   0.636   1.839
 3822SOL    HW212366   4.448   0.545   1.832
 3823SOL     OW12367   5.044   5.792   0.013
 3823SOL    HW112368   5.042   5.756   6.945
 3823SOL    HW212369   5.108   5.737   0.069
 3824SOL     OW12370   2.734   2.966   0.437
 3824SOL    HW112371   2.683   3.041   0.480
 3824SOL    HW212372   2.697   2.878   0.467
 3825SOL     OW12373   1.063   3.792   5.767
 3825SOL    HW112374   1.020   3.777   5.856
 3825SOL    HW212375   1.038   3.882   5.732
 3826SOL     OW12376   5.839   4.130   3.865
 3826SOL    HW112377   5.858   4.172   3.776
 3826SOL    HW212378   5.909   4.158   3.931
 3827SOL     OW12379   1.138   1.078   1.503
 3827SOL    HW112380   1.039   1.072   1.514
 3827SOL    HW212381   1.160   1.131   1.421
 3828SOL     OW12382   3.586   4.166   3.881
 3828SOL    HW112383   3.490   4.141   3.873
 3828SOL    HW212384   3.611   4.176   3.977
 3829SOL     OW12385   0.762   4.100   2.528
 3829SOL    HW112386   0.819   4.057   2.598
 3829SOL    HW212387   0.740   4.194   2.556
 3830SOL     OW12388   6.511   1.151   4.285
 3830SOL    HW112389   6.536   1.085   4.214
 3830SOL    HW212390   6.587   1.161   4.349
 3831SOL     OW12391   4.670   1.993   3.553
 3831SOL    HW112392   4.680   2.092   3.542
 3831SOL    HW212393   4.574   1.968   3.547
 3832SOL     OW12394   5.955   0.590   3.890
 3832SOL    HW112395   5.870   0.642   3.882
 3832SOL    HW212396   6.005   0.593   3.804
 3833SOL     OW12397   1.115   1.907   5.439
 3833SOL    HW112398   1.155   1.902   5.531
 3833SOL    HW212399   1.112   2.002   5.409
 3834SOL     OW12400   4.786   4.165   0.652
 3834SOL    HW112401   4.741   4.140   0.737
 3834SOL    HW212402   4.752   4.106   0.578
 3835SOL     OW12403   3.905   5.202   4.681
 3835SOL    HW112404   3.932   5.268   4.752
 3835SOL    HW212405   3.830   5.146   4.715
 3836SOL     OW12406   0.238   6.648   5.802
 3836SOL    HW112407   0.274   6.730   5.845
 3836SOL    HW212408   0.209   6.669   5.709
 3837SOL     OW12409   4.422   4.962   5.434
 3837SOL    HW112410   4.456   4.869   5.419
 3837SOL    HW212411   4.419   5.010   5.347
 3838SOL     OW12412   0.638   1.307   3.945
 3838SOL    HW112413   0.699   1.341   3.874
 3838SOL    HW212414   0.543   1.312   3.913
 3839SOL     OW12415   3.547   0.510   3.816
 3839SOL    HW112416   3.527   0.593   3.763
 3839SOL    HW212417   3.646   0.492   3.813
 3840SOL     OW12418   2.440   1.517   6.904
 3840SOL    HW112419   2.409   1.605   6.867
 3840SOL    HW212420   2.392   1.443   6.856
 3841SOL     OW12421   5.853   4.741   4.196
 3841SOL    HW112422   5.880   4.710   4.287
 3841SOL    HW212423   5.761   4.780   4.201
 3842SOL     OW12424   1.789   3.228   5.133
 3842SOL    HW112425   1.733   3.151   5.162
 3842SOL    HW212426   1.741   3.279   5.062
 3843SOL     OW12427   5.379   3.004   6.719
 3843SOL    HW112428   5.399   3.018   6.621
 3843SOL    HW212429   5.282   3.020   6.736
 3844SOL     OW12430   1.087   6.424   0.890
 3844SOL    HW112431   1.026   6.348   0.913
 3844SOL    HW212432   1.147   6.397   0.816
 3845SOL     OW12433   2.101   5.781   0.867
 3845SOL    HW112434   2.070   5.864   0.913
 3845SOL    HW212435   2.164   5.805   0.794
 3846SOL     OW12436   1.165   2.657   3.210
 3846SOL    HW112437   1.150   2.564   3.245
 3846SOL    HW212438   1.095   2.718   3.247
 3847SOL     OW12439   7.012   1.689   6.471
 3847SOL    HW112440   6.942   1.750   6.506
 3847SOL    HW212441   0.056   1.673   6.542
 3848SOL     OW12442   5.630   3.576   2.437
 3848SOL    HW112443   5.698   3.633   2.391
 3848SOL    HW212444   5.597   3.623   2.519
 3849SOL     OW12445   6.567   5.397   6.902
 3849SOL    HW112446   6.584   5.328   6.972
 3849SOL    HW212447   6.611   5.483   6.929
 3850SOL     OW12448   2.470   2.180   1.573
 3850SOL    HW112449   2.536   2.212   1.505
 3850SOL    HW212450   2.405   2.118   1.529
 3851SOL     OW12451   0.303   6.261   3.042
 3851SOL    HW112452   0.296   6.359   3.028
 3851SOL    HW212453   0.254   6.213   2.969
 3852SOL     OW12454   2.899   6.177   5.855
 3852SOL    HW112455   2.874   6.106   5.789
 3852SOL    HW212456   2.817   6.210   5.901
 3853SOL     OW12457   2.488   0.559   3.707
 3853SOL    HW112458   2.439   0.476   3.732
 3853SOL    HW212459   2.460   0.589   3.616
 3854SOL     OW12460   1.931   2.374   2.473
 3854SOL    HW112461   1.859   2.371   2.403
 3854SOL    HW212462   1.985   2.458   2.461
 3855SOL     OW12463   4.314   0.370   0.282
 3855SOL    HW112464   4.303   0.285   0.335
 3855SOL    HW212465   4.374   0.432   0.332
 3856SOL     OW12466   0.375   1.904   6.752
 3856SOL    HW112467   0.474   1.895   6.760
 3856SOL    HW212468   0.338   1.945   6.835
 3857SOL     OW12469   2.279   0.874   5.477
 3857SOL    HW112470   2.305   0.836   5.388
 3857SOL    HW212471   2.279   0.973   5.472
 3858SOL     OW12472   4.364   0.576   4.897
 3858SOL    HW112473   4.362   0.481   4.925
 3858SOL    HW212474   4.432   0.626   4.951
 3859SOL     OW12475   5.567   0.292   1.763
 3859SOL    HW112476   5.642   0.354   1.786
 3859SOL    HW212477   5.571   0.269   1.666
 3860SOL     OW12478   1.294   0.113   4.446
 3860SOL    HW112479   1.350   0.036   4.414
 3860SOL    HW212480   1.201   0.081   4.464
 3861SOL     OW12481   4.149   6.003   1.939
 3861SOL    HW112482   4.200   5.933   1.990
 3861SOL    HW212483   4.052   5.980   1.942
 3862SOL     OW12484   1.348   0.344   3.699
 3862SOL    HW112485   1.346   0.250   3.732
 3862SOL    HW212486   1.345   0.407   3.776
 3863SOL     OW12487   4.256   0.488   1.022
 3863SOL    HW112488   4.183   0.544   0.983
 3863SOL    HW212489   4.269   0.512   1.118
 3864SOL     OW12490   2.383   6.963   4.446
 3864SOL    HW112491   2.410   0.030   4.417
 3864SOL    HW212492   2.443   6.895   4.402
 3865SOL     OW12493   3.708   0.763   0.170
 3865SOL    HW112494   3.699   0.723   0.262
 3865SOL    HW212495   3.674   0.698   0.102
 3866SOL     OW12496   2.837   2.622   6.673
 3866SOL    HW112497   2.790   2.545   6.717
 3866SOL    HW212498   2.779   2.661   6.601
 3867SOL     OW12499   0.660   3.852   2.221
 3867SOL    HW112500   0.687   3.828   2.314
 3867SOL    HW212501   0.668   3.771   2.162
 3868SOL     OW12502   4.214   1.338   6.826
 3868SOL    HW112503   4.169   1.276   6.762
 3868SOL    HW212504   4.307   1.358   6.794
 3869SOL     OW12505   6.351   3.140   3.466
 3869SOL    HW112506   6.261   3.131   3.425
 3869SOL    HW212507   6.398   3.051   3.465
 3870SOL     OW12508   6.771   0.146   3.501
 3870SOL    HW112509   6.745   0.181   3.411
 3870SOL    HW212510   6.850   0.196   3.535
 3871SOL     OW12511   3.736   5.633   4.444
 3871SOL    HW112512   3.780   5.548   4.416
 3871SOL    HW212513   3.677   5.665   4.370
 3872SOL     OW12514   3.499   3.633   4.661
 3872SOL    HW112515   3.410   3.675   4.642
 3872SOL    HW212516   3.571   3.690   4.621
 3873SOL     OW12517   4.515   2.084   0.927
 3873SOL    HW112518   4.508   2.140   1.010
 3873SOL    HW212519   4.492   2.139   0.847
 3874SOL     OW12520   3.217   0.516   0.114
 3874SOL    HW112521   3.224   0.511   0.014
 3874SOL    HW212522   3.124   0.491   0.142
 3875SOL     OW12523   1.387   2.163   5.441
 3875SOL    HW112524   1.464   2.226   5.443
 3875SOL    HW212525   1.415   2.076   5.481
 3876SOL     OW12526   4.114   5.709   1.413
 3876SOL    HW112527   4.084   5.802   1.393
 3876SOL    HW212528   4.130   5.660   1.327
 3877SOL     OW12529   6.804   2.358   0.490
 3877SOL    HW112530   6.828   2.262   0.493
 3877SOL    HW212531   6.742   2.380   0.566
 3878SOL     OW12532   3.895   6.402   4.203
 3878SOL    HW112533   3.799   6.415   4.229
 3878SOL    HW212534   3.902   6.323   4.142
 3879SOL     OW12535   4.947   4.978   0.078
 3879SOL    HW112536   5.024   4.922   0.047
 3879SOL    HW212537   4.947   5.064   0.027
 3880SOL     OW12538   4.669   4.246   4.041
 3880SOL    HW112539   4.714   4.195   3.968
 3880SOL    HW212540   4.692   4.205   4.129
 3881SOL     OW12541   0.991   4.001   0.232
 3881SOL    HW112542   1.069   3.939   0.220
 3881SOL    HW212543   0.971   4.012   0.329
 3882SOL     OW12544   0.741   1.612   0.982
 3882SOL    HW112545   0.813   1.581   1.044
 3882SOL    HW212546   0.710   1.703   1.010
 3883SOL     OW12547   4.730   5.906   3.546
 3883SOL    HW112548   4.789   5.962   3.604
 3883SOL    HW212549   4.652   5.873   3.599
 3884SOL     OW12550   1.116   5.775   3.048
 3884SOL    HW112551   1.210   5.795   3.019
 3884SOL    HW212552   1.116   5.745   3.143
 3885SOL     OW12553   5.554   6.581   2.797
 3885SOL    HW112554   5.518   6.621   2.713
 3885SOL    HW212555   5.629   6.637   2.832
 3886SOL     OW12556   3.896   6.686   5.980
 3886SOL    HW112557   3.799   6.667   5.994
 3886SOL    HW212558   3.922   6.767   6.033
 3887SOL     OW12559   0.109   6.624   1.511
 3887SOL    HW112560   0.154   6.712   1.526
 3887SOL    HW212561   0.065   6.623   1.421
 3888SOL     OW12562   5.791   6.289   4.805
 3888SOL    HW112563   5.830   6.381   4.805
 3888SOL    HW212564   5.791   6.253   4.898
 3889SOL     OW12565   5.966   3.755   6.546
 3889SOL    HW112566   6.056   3.776   6.584
 3889SOL    HW212567   5.895   3.793   6.606
 3890SOL     OW12568   5.576   3.503   4.804
 3890SOL    HW112569   5.581   3.494   4.705
 3890SOL    HW212570   5.513   3.577   4.828
 3891SOL     OW12571   5.758   4.857   3.481
 3891SOL    HW112572   5.676   4.908   3.454
 3891SOL    HW212573   5.783   4.880   3.575
 3892SOL     OW12574   6.931   2.507   1.344
 3892SOL    HW112575   6.900   2.592   1.387
 3892SOL    HW212576   0.003   2.493   1.364
 3893SOL     OW12577   4.492   3.268   1.210
 3893SOL    HW112578   4.576   3.274   1.157
 3893SOL    HW212579   4.424   3.216   1.159
 3894SOL     OW12580   4.996   0.436   6.670
 3894SOL    HW112581   4.928   0.415   6.741
 3894SOL    HW212582   5.086   0.442   6.712
 3895SOL     OW12583   1.590   6.846   4.612
 3895SOL    HW112584   1.528   6.768   4.616
 3895SOL    HW212585   1.582   6.890   4.523
 3896SOL     OW12586   1.210   1.256   6.946
 3896SOL    HW112587   1.215   1.348   6.906
 3896SOL    HW212588   1.121   1.243   6.989
 3897SOL     OW12589   4.682   5.639   2.019
 3897SOL    HW112590   4.605   5.578   2.041
 3897SOL    HW212591   4.657   5.733   2.042
 3898SOL     OW12592   3.902   2.589   6.273
 3898SOL    HW112593   3.970   2.655   6.305
 3898SOL    HW212594   3.821   2.637   6.240
 3899SOL     OW12595   4.716   6.950   6.048
 3899SOL    HW112596   4.701   6.855   6.075
 3899SOL    HW212597   4.664   7.010   6.109
 3900SOL     OW12598   5.566   3.467   3.380
 3900SOL    HW112599   5.489   3.524   3.410
 3900SOL    HW212600   5.650   3.521   3.381
 3901SOL     OW12601   3.172   0.618   6.611
 3901SOL    HW112602   3.148   0.711   6.639
 3901SOL    HW212603   3.179   0.613   6.511
 3902SOL     OW12604   6.159   3.340   2.542
 3902SOL    HW112605   6.064   3.372   2.532
 3902SOL    HW212606   6.221   3.416   2.526
 3903SOL     OW12607   3.528   5.535   6.691
 3903SOL    HW112608   3.472   5.611   6.725
 3903SOL    HW212609   3.581   5.497   6.767
 3904SOL     OW12610   1.125   0.285   6.780
 3904SOL    HW112611   1.066   0.301   6.700
 3904SOL    HW212612   1.213   0.249   6.750
 3905SOL     OW12613   0.154   6.131   6.043
 3905SOL    HW112614   0.238   6.129   6.096
 3905SOL    HW212615   0.129   6.226   6.023
 3906SOL     OW12616   5.510   6.090   5.539
 3906SOL    HW112617   5.521   6.047   5.449
 3906SOL    HW212618   5.592   6.143   5.560
 3907SOL     OW12619   5.941   1.873   3.868
 3907SOL    HW112620   6.026   1.913   3.834
 3907SOL    HW212621   5.917   1.794   3.812
 3908SOL     OW12622   0.411   2.407   6.591
 3908SOL    HW112623   0.503   2.415   6.551
 3908SOL    HW212624   0.357   2.343   6.537
 3909SOL     OW12625   5.352   5.440   4.452
 3909SOL    HW112626   5.382   5.511   4.388
 3909SOL    HW212627   5.376   5.468   4.546
 3910SOL     OW12628   3.304   3.717   2.720
 3910SOL    HW112629   3.263   3.680   2.803
 3910SOL    HW212630   3.341   3.808   2.738
 3911SOL     OW12631   5.580   1.321   4.988
 3911SOL    HW112632   5.670   1.298   4.951
 3911SOL    HW212633   5.512   1.254   4.957
 3912SOL     OW12634   5.442   1.784   5.514
 3912SOL    HW112635   5.535   1.783   5.551
 3912SOL    HW212636   5.445   1.766   5.416
 3913SOL     OW12637   1.308   6.804   6.949
 3913SOL    HW112638   1.288   6.707   6.965
 3913SOL    HW212639   1.225   6.850   6.916
 3914SOL     OW12640   3.643   0.157   6.517
 3914SOL    HW112641   3.543   0.148   6.520
 3914SOL    HW212642   3.682   0.072   6.482
 3915SOL     OW12643   4.993   5.323   1.555
 3915SOL    HW112644   4.960   5.344   1.647
 3915SOL    HW212645   5.091   5.305   1.558
 3916SOL     OW12646   0.947   0.112   2.825
 3916SOL    HW112647   0.947   0.035   2.761
 3916SOL    HW212648   1.033   0.114   2.876
 3917SOL     OW12649   1.753   0.094   6.784
 3917SOL    HW112650   1.829   0.029   6.790
 3917SOL    HW212651   1.778   0.168   6.721
 3918SOL     OW12652   5.468   4.272   1.776
 3918SOL    HW112653   5.370   4.288   1.777
 3918SOL    HW212654   5.498   4.250   1.683
 3919SOL     OW12655   3.869   0.014   0.479
 3919SOL    HW112656   3.904   0.069   0.403
 3919SOL    HW212657   3.867   6.943   0.453
 3920SOL     OW12658   2.060   3.061   6.946
 3920SOL    HW112659   2.147   3.108   6.932
 3920SOL    HW212660   2.028   3.076   0.015
 3921SOL     OW12661   0.796   4.207   1.510
 3921SOL    HW112662   0.803   4.254   1.422
 3921SOL    HW212663   0.785   4.109   1.494
 3922SOL     OW12664   0.329   3.797   1.913
 3922SOL    HW112665   0.235   3.830   1.906
 3922SOL    HW212666   0.386   3.868   1.956
 3923SOL     OW12667   0.930   0.595   0.545
 3923SOL    HW112668   0.948   0.498   0.564
 3923SOL    HW212669   0.946   0.613   0.448
 3924SOL     OW12670   6.393   5.234   4.911
 3924SOL    HW112671   6.340   5.174   4.851
 3924SOL    HW212672   6.424   5.182   4.991
 3925SOL     OW12673   1.654   5.125   1.904
 3925SOL    HW112674   1.690   5.036   1.934
 3925SOL    HW212675   1.725   5.174   1.853
 3926SOL     OW12676   4.486   4.456   2.544
 3926SOL    HW112677   4.505   4.443   2.446
 3926SOL    HW212678   4.549   4.399   2.597
 3927SOL     OW12679   0.612   2.938   6.242
 3927SOL    HW112680   0.633   2.841   6.256
 3927SOL    HW212681   0.519   2.957   6.272
 3928SOL     OW12682   4.695   6.008   6.839
 3928SOL    HW112683   4.696   5.913   6.807
 3928SOL    HW212684   4.788   6.035   6.863
 3929SOL     OW12685   0.890   0.875   5.182
 3929SOL    HW112686   0.916   0.908   5.091
 3929SOL    HW212687   0.968   0.831   5.225
 3930SOL     OW12688   2.448   2.101   3.543
 3930SOL    HW112689   2.424   2.099   3.640
 3930SOL    HW212690   2.544   2.077   3.532
 3931SOL     OW12691   6.666   1.714   1.980
 3931SOL    HW112692   6.679   1.676   2.072
 3931SOL    HW212693   6.704   1.806   1.977
 3932SOL     OW12694   0.279   2.669   3.837
 3932SOL    HW112695   0.372   2.679   3.871
 3932SOL    HW212696   0.214   2.686   3.911
 3933SOL     OW12697   1.468   0.229   6.296
 3933SOL    HW112698   1.561   0.196   6.315
 3933SOL    HW212699   1.412   0.220   6.377
 3934SOL     OW12700   6.327   7.004   5.833
 3934SOL    HW112701   6.290   7.012   5.740
 3934SOL    HW212702   6.271   6.940   5.885
 3935SOL     OW12703   3.801   0.441   0.779
 3935SOL    HW112704   3.798   0.512   0.708
 3935SOL    HW212705   3.794   0.351   0.736
 3936SOL     OW12706   6.375   5.747   4.344
 3936SOL    HW112707   6.428   5.777   4.424
 3936SOL    HW212708   6.284   5.720   4.374
 3937SOL     OW12709   6.991   1.614   2.631
 3937SOL    HW112710   0.045   1.622   2.692
 3937SOL    HW212711   6.961   1.519   2.627
 3938SOL     OW12712   7.003   1.008   2.967
 3938SOL    HW112713   6.949   0.994   3.050
 3938SOL    HW212714   6.946   1.054   2.898
 3939SOL     OW12715   2.977   1.840   2.021
 3939SOL    HW112716   2.891   1.856   1.972
 3939SOL    HW212717   3.020   1.756   1.987
 3940SOL     OW12718   3.854   3.203   1.253
 3940SOL    HW112719   3.789   3.257   1.199
 3940SOL    HW212720   3.820   3.109   1.261
 3941SOL     OW12721   4.622   4.430   6.034
 3941SOL    HW112722   4.706   4.402   6.082
 3941SOL    HW212723   4.609   4.372   5.954
 3942SOL     OW12724   6.626   6.829   0.000
 3942SOL    HW112725   6.673   6.845   6.939
 3942SOL    HW212726   6.693   6.815   0.073
 3943SOL     OW12727   0.605   3.157   4.166
 3943SOL    HW112728   0.638   3.248   4.194
 3943SOL    HW212729   0.519   3.137   4.214
 3944SOL     OW12730   4.642   2.228   4.651
 3944SOL    HW112731   4.583   2.309   4.659
 3944SOL    HW212732   4.589   2.153   4.611
 3945SOL     OW12733   6.955   1.587   1.307
 3945SOL    HW112734   6.907   1.630   1.383
 3945SOL    HW212735   0.028   1.580   1.329
 3946SOL     OW12736   4.753   4.649   3.225
 3946SOL    HW112737   4.677   4.646   3.160
 3946SOL    HW212738   4.721   4.620   3.315
 3947SOL     OW12739   4.593   6.174   0.403
 3947SOL    HW112740   4.519   6.125   0.450
 3947SOL    HW212741   4.601   6.141   0.309
 3948SOL     OW12742   6.420   4.878   1.453
 3948SOL    HW112743   6.321   4.864   1.443
 3948SOL    HW212744   6.468   4.794   1.427
 3949SOL     OW12745   4.550   5.836   2.915
 3949SOL    HW112746   4.488   5.915   2.921
 3949SOL    HW212747   4.496   5.752   2.915
 3950SOL     OW12748   1.703   5.649   1.317
 3950SOL    HW112749   1.632   5.582   1.297
 3950SOL    HW212750   1.723   5.647   1.415
 3951SOL     OW12751   4.646   0.840   1.499
 3951SOL    HW112752   4.654   0.894   1.415
 3951SOL    HW212753   4.553   0.804   1.506
 3952SOL     OW12754   0.168   2.821   0.933
 3952SOL    HW112755   0.168   2.722   0.942
 3952SOL    HW212756   0.078   2.857   0.958
 3953SOL     OW12757   4.113   3.388   2.003
 3953SOL    HW112758   4.150   3.457   1.941
 3953SOL    HW212759   4.014   3.396   2.008
 3954SOL     OW12760   4.000   5.054   5.578
 3954SOL    HW112761   3.978   5.076   5.673
 3954SOL    HW212762   4.080   4.994   5.576
 3955SOL     OW12763   3.364   1.545   5.864
 3955SOL    HW112764   3.405   1.454   5.854
 3955SOL    HW212765   3.308   1.566   5.784
 3956SOL     OW12766   1.360   1.190   2.575
 3956SOL    HW112767   1.374   1.092   2.586
 3956SOL    HW212768   1.326   1.209   2.483
 3957SOL     OW12769   3.706   6.706   4.473
 3957SOL    HW112770   3.624   6.760   4.492
 3957SOL    HW212771   3.731   6.716   4.377
 3958SOL     OW12772   5.981   2.333   4.008
 3958SOL    HW112773   5.894   2.311   4.053
 3958SOL    HW212774   6.052   2.270   4.039
 3959SOL     OW12775   4.967   5.008   0.347
 3959SOL    HW112776   4.982   5.002   0.248
 3959SOL    HW212777   4.874   4.980   0.369
 3960SOL     OW12778   5.134   2.103   5.148
 3960SOL    HW112779   5.044   2.146   5.153
 3960SOL    HW212780   5.172   2.094   5.239
 3961SOL     OW12781   5.385   0.373   3.192
 3961SOL    HW112782   5.437   0.402   3.273
 3961SOL    HW212783   5.445   0.374   3.112
 3962SOL     OW12784   0.534   5.606   6.078
 3962SOL    HW112785   0.500   5.621   5.985
 3962SOL    HW212786   0.576   5.690   6.112
 3963SOL     OW12787   5.021   6.259   2.168
 3963SOL    HW112788   4.988   6.322   2.098
 3963SOL    HW212789   5.030   6.308   2.255
 3964SOL     OW12790   4.897   3.703   3.056
 3964SOL    HW112791   4.936   3.740   3.141
 3964SOL    HW212792   4.876   3.606   3.070
 3965SOL     OW12793   5.614   3.211   4.435
 3965SOL    HW112794   5.634   3.135   4.497
 3965SOL    HW212795   5.593   3.175   4.344
 3966SOL     OW12796   3.502   5.505   6.432
 3966SOL    HW112797   3.406   5.494   6.406
 3966SOL    HW212798   3.508   5.518   6.531
 3967SOL     OW12799   1.873   4.386   1.824
 3967SOL    HW112800   1.837   4.433   1.905
 3967SOL    HW212801   1.967   4.355   1.842
 3968SOL     OW12802   4.303   0.437   0.651
 3968SOL    HW112803   4.395   0.467   0.627
 3968SOL    HW212804   4.244   0.517   0.664
 3969SOL     OW12805   1.754   5.411   2.086
 3969SOL    HW112806   1.803   5.461   2.158
 3969SOL    HW212807   1.658   5.403   2.113
 3970SOL     OW12808   5.785   5.973   1.979
 3970SOL    HW112809   5.810   5.882   2.014
 3970SOL    HW212810   5.868   6.025   1.960
 3971SOL     OW12811   2.845   5.795   3.893
 3971SOL    HW112812   2.884   5.855   3.963
 3971SOL    HW212813   2.752   5.824   3.872
 3972SOL     OW12814   1.109   4.140   6.781
 3972SOL    HW112815   1.111   4.041   6.792
 3972SOL    HW212816   1.060   4.163   6.697
 3973SOL     OW12817   1.002   5.994   1.293
 3973SOL    HW112818   0.966   6.000   1.387
 3973SOL    HW212819   1.034   6.084   1.265
 3974SOL     OW12820   2.031   0.931   5.927
 3974SOL    HW112821   1.986   0.867   5.990
 3974SOL    HW212822   2.117   0.892   5.896
 3975SOL     OW12823   4.947   2.102   5.970
 3975SOL    HW112824   5.046   2.096   5.962
 3975SOL    HW212825   4.922   2.182   6.025
 3976SOL     OW12826   1.805   6.245   2.661
 3976SOL    HW112827   1.877   6.225   2.594
 3976SOL    HW212828   1.748   6.320   2.627
 3977SOL     OW12829   1.227   4.295   7.008
 3977SOL    HW112830   1.197   4.239   6.930
 3977SOL    HW212831   1.200   4.390   6.993
 3978SOL     OW12832   6.932   5.307   3.624
 3978SOL    HW112833   6.836   5.327   3.602
 3978SOL    HW212834   6.991   5.369   3.573
 3979SOL     OW12835   3.336   1.136   6.425
 3979SOL    HW112836   3.285   1.221   6.436
 3979SOL    HW212837   3.424   1.143   6.473
 3980SOL     OW12838   6.370   6.211   6.358
 3980SOL    HW112839   6.344   6.175   6.268
 3980SOL    HW212840   6.288   6.232   6.411
 3981SOL     OW12841   5.393   6.264   0.470
 3981SOL    HW112842   5.348   6.233   0.553
 3981SOL    HW212843   5.404   6.364   0.473
 3982SOL     OW12844   1.929   0.077   2.101
 3982SOL    HW112845   1.966   0.034   2.183
 3982SOL    HW212846   1.909   0.007   2.033
 3983SOL     OW12847   4.264   5.166   4.000
 3983SOL    HW112848   4.249   5.234   4.072
 3983SOL    HW212849   4.285   5.078   4.041
 3984SOL     OW12850   5.950   1.794   2.278
 3984SOL    HW112851   5.943   1.815   2.375
 3984SOL    HW212852   5.898   1.861   2.226
 3985SOL     OW12853   3.458   5.150   6.513
 3985SOL    HW112854   3.409   5.225   6.468
 3985SOL    HW212855   3.415   5.063   6.489
 3986SOL     OW12856   5.175   1.887   2.451
 3986SOL    HW112857   5.097   1.911   2.509
 3986SOL    HW212858   5.163   1.927   2.360
 3987SOL     OW12859   3.044   4.885   4.917
 3987SOL    HW112860   2.964   4.836   4.884
 3987SOL    HW212861   3.116   4.881   4.849
 3988SOL     OW12862   4.339   5.481   0.601
 3988SOL    HW112863   4.426   5.514   0.637
 3988SOL    HW212864   4.278   5.458   0.676
 3989SOL     OW12865   6.114   2.193   0.206
 3989SOL    HW112866   6.182   2.258   0.239
 3989SOL    HW212867   6.114   2.112   0.264
 3990SOL     OW12868   5.007   2.687   1.685
 3990SOL    HW112869   4.925   2.697   1.741
 3990SOL    HW212870   5.082   2.738   1.728
 3991SOL     OW12871   0.540   1.150   2.681
 3991SOL    HW112872   0.577   1.175   2.770
 3991SOL    HW212873   0.615   1.129   2.618
 3992SOL     OW12874   3.324   1.985   0.813
 3992SOL    HW112875   3.229   1.971   0.786
 3992SOL    HW212876   3.357   2.070   0.772
 3993SOL     OW12877   1.288   3.247   2.147
 3993SOL    HW112878   1.285   3.274   2.051
 3993SOL    HW212879   1.380   3.215   2.169
 3994SOL     OW12880   2.795   6.875   5.164
 3994SOL    HW112881   2.766   6.964   5.130
 3994SOL    HW212882   2.847   6.887   5.249
 3995SOL     OW12883   1.601   2.865   5.562
 3995SOL    HW112884   1.567   2.957   5.583
 3995SOL    HW212885   1.696   2.857   5.594
 3996SOL     OW12886   0.294   6.372   5.075
 3996SOL    HW112887   0.230   6.346   5.002
 3996SOL    HW212888   0.335   6.289   5.113
 3997SOL     OW12889   5.557   1.142   3.998
 3997SOL    HW112890   5.656   1.131   3.988
 3997SOL    HW212891   5.533   1.239   3.989
 3998SOL     OW12892   3.669   2.079   3.759
 3998SOL    HW112893   3.696   2.113   3.849
 3998SOL    HW212894   3.630   1.988   3.767
 3999SOL     OW12895   6.335   2.283   4.614
 3999SOL    HW112896   6.380   2.360   4.569
 3999SOL    HW212897   6.236   2.295   4.609
 4000SOL     OW12898   3.710   6.970   3.738
 4000SOL    HW112899   3.666   7.011   3.818
 4000SOL    HW212900   3.639   6.937   3.675
 4001SOL     OW12901   1.805   1.874   3.487
 4001SOL    HW112902   1.791   1.883   3.586
 4001SOL    HW212903   1.875   1.940   3.458
 4002SOL     OW12904   2.077   3.695   2.047
 4002SOL    HW112905   2.082   3.746   1.962
 4002SOL    HW212906   2.146   3.623   2.047
 4003SOL     OW12907   3.216   0.124   4.428
 4003SOL    HW112908   3.157   0.204   4.439
 4003SOL    HW212909   3.305   0.142   4.469
 4004SOL     OW12910   6.301   2.005   4.683
 4004SOL    HW112911   6.216   1.999   4.735
 4004SOL    HW212912   6.314   2.099   4.651
 4005SOL     OW12913   5.368   5.486   6.084
 4005SOL    HW112914   5.362   5.573   6.135
 4005SOL    HW212915   5.432   5.425   6.131
 4006SOL     OW12916   4.006   5.419   2.485
 4006SOL    HW112917   4.042   5.464   2.566
 4006SOL    HW212918   3.909   5.400   2.497
 4007SOL     OW12919   6.774   2.230   6.896
 4007SOL    HW112920   6.728   2.225   6.807
 4007SOL    HW212921   6.744   2.312   6.944
 4008SOL     OW12922   2.550   2.426   4.566
 4008SOL    HW112923   2.531   2.477   4.650
 4008SOL    HW212924   2.525   2.482   4.486
 4009SOL     OW12925   3.826   3.846   2.409
 4009SOL    HW112926   3.885   3.791   2.468
 4009SOL    HW212927   3.864   3.849   2.317
 4010SOL     OW12928   2.238   3.415   0.440
 4010SOL    HW112929   2.290   3.435   0.522
 4010SOL    HW212930   2.219   3.317   0.435
 4011SOL     OW12931   1.530   2.398   1.987
 4011SOL    HW112932   1.552   2.346   1.904
 4011SOL    HW212933   1.558   2.346   2.068
 4012SOL     OW12934   6.837   4.071   3.285
 4012SOL    HW112935   6.847   4.095   3.189
 4012SOL    HW212936   6.774   3.994   3.294
 4013SOL     OW12937   4.457   2.479   3.538
 4013SOL    HW112938   4.508   2.543   3.596
 4013SOL    HW212939   4.482   2.493   3.443
 4014SOL     OW12940   5.607   5.875   3.096
 4014SOL    HW112941   5.701   5.895   3.123
 4014SOL    HW212942   5.570   5.952   3.044
 4015SOL     OW12943   5.050   4.100   5.949
 4015SOL    HW112944   5.105   4.054   5.879
 4015SOL    HW212945   5.063   4.199   5.940
 4016SOL     OW12946   3.341   6.317   6.155
 4016SOL    HW112947   3.362   6.252   6.228
 4016SOL    HW212948   3.245   6.307   6.128
 4017SOL     OW12949   6.430   5.696   0.151
 4017SOL    HW112950   6.457   5.714   0.056
 4017SOL    HW212951   6.429   5.597   0.167
 4018SOL     OW12952   3.821   5.651   1.327
 4018SOL    HW112953   3.761   5.676   1.251
 4018SOL    HW212954   3.917   5.659   1.297
 4019SOL     OW12955   5.080   5.023   3.316
 4019SOL    HW112956   5.126   4.937   3.341
 4019SOL    HW212957   5.098   5.043   3.220
 4020SOL     OW12958   5.281   2.070   5.402
 4020SOL    HW112959   5.374   2.094   5.372
 4020SOL    HW212960   5.257   2.125   5.482
 4021SOL     OW12961   3.326   4.489   5.715
 4021SOL    HW112962   3.404   4.536   5.756
 4021SOL    HW212963   3.347   4.392   5.705
 4022SOL     OW12964   4.850   0.448   0.750
 4022SOL    HW112965   4.926   0.389   0.722
 4022SOL    HW212966   4.882   0.542   0.758
 4023SOL     OW12967   5.940   0.637   5.987
 4023SOL    HW112968   5.889   0.709   6.032
 4023SOL    HW212969   5.995   0.676   5.913
 4024SOL     OW12970   3.989   5.136   3.900
 4024SOL    HW112971   3.943   5.220   3.930
 4024SOL    HW212972   4.087   5.153   3.894
 4025SOL     OW12973   0.859   4.631   3.562
 4025SOL    HW112974   0.796   4.572   3.512
 4025SOL    HW212975   0.952   4.594   3.555
 4026SOL     OW12976   5.302   6.194   4.176
 4026SOL    HW112977   5.260   6.190   4.266
 4026SOL    HW212978   5.348   6.108   4.157
 4027SOL     OW12979   4.150   5.071   1.967
 4027SOL    HW112980   4.124   5.066   2.063
 4027SOL    HW212981   4.249   5.059   1.958
 4028SOL     OW12982   2.595   0.370   3.897
 4028SOL    HW112983   2.592   0.442   3.827
 4028SOL    HW212984   2.600   0.281   3.853
 4029SOL     OW12985   1.783   4.630   4.982
 4029SOL    HW112986   1.820   4.680   4.903
 4029SOL    HW212987   1.819   4.537   4.983
 4030SOL     OW12988   0.126   2.338   5.277
 4030SOL    HW112989   0.109   2.385   5.364
 4030SOL    HW212990   0.108   2.240   5.287
 4031SOL     OW12991   3.784   5.501   4.079
 4031SOL    HW112992   3.866   5.550   4.050
 4031SOL    HW212993   3.703   5.552   4.051
 4032SOL     OW12994   4.661   0.016   4.964
 4032SOL    HW112995   4.653   6.945   4.992
 4032SOL    HW212996   4.585   0.040   4.904
 4033SOL     OW12997   2.819   3.862   5.221
 4033SOL    HW112998   2.879   3.782   5.219
 4033SOL    HW212999   2.737   3.841   5.275
 4034SOL     OW13000   6.794   2.720   3.748
 4034SOL    HW113001   6.789   2.786   3.823
 4034SOL    HW213002   6.856   2.646   3.774
 4035SOL     OW13003   0.085   5.064   0.215
 4035SOL    HW113004   0.173   5.084   0.172
 4035SOL    HW213005   0.090   5.086   0.312
 4036SOL     OW13006   6.671   6.834   3.161
 4036SOL    HW113007   6.623   6.759   3.207
 4036SOL    HW213008   6.620   6.919   3.176
 4037SOL     OW13009   6.571   4.133   6.817
 4037SOL    HW113010   6.520   4.084   6.746
 4037SOL    HW213011   6.669   4.118   6.802
 4038SOL     OW13012   5.422   4.775   3.808
 4038SOL    HW113013   5.460   4.725   3.730
 4038SOL    HW213014   5.452   4.731   3.893
 4039SOL     OW13015   4.648   6.117   0.936
 4039SOL    HW113016   4.620   6.207   0.968
 4039SOL    HW213017   4.680   6.124   0.841
 4040SOL     OW13018   3.876   6.028   1.832
 4040SOL    HW113019   3.808   6.081   1.781
 4040SOL    HW213020   3.839   5.937   1.852
 4041SOL     OW13021   1.506   6.894   4.120
 4041SOL    HW113022   1.595   6.850   4.129
 4041SOL    HW213023   1.520   6.991   4.101
 4042SOL     OW13024   5.983   5.177   1.877
 4042SOL    HW113025   5.920   5.255   1.867
 4042SOL    HW213026   5.936   5.093   1.852
 4043SOL     OW13027   6.646   2.904   1.379
 4043SOL    HW113028   6.664   2.891   1.282
 4043SOL    HW213029   6.559   2.951   1.392
 4044SOL     OW13030   6.460   5.619   3.467
 4044SOL    HW113031   6.559   5.631   3.476
 4044SOL    HW213032   6.413   5.687   3.523
 4045SOL     OW13033   2.537   5.994   6.062
 4045SOL    HW113034   2.444   5.968   6.039
 4045SOL    HW213035   2.588   5.914   6.094
 4046SOL     OW13036   1.556   3.140   0.965
 4046SOL    HW113037   1.527   3.231   0.993
 4046SOL    HW213038   1.650   3.123   0.996
 4047SOL     OW13039   3.112   3.570   1.571
 4047SOL    HW113040   3.096   3.556   1.668
 4047SOL    HW213041   3.123   3.482   1.525
 4048SOL     OW13042   5.695   1.625   1.069
 4048SOL    HW113043   5.649   1.537   1.057
 4048SOL    HW213044   5.647   1.695   1.016
 4049SOL     OW13045   6.498   1.024   5.683
 4049SOL    HW113046   6.413   0.978   5.710
 4049SOL    HW213047   6.562   1.025   5.760
 4050SOL     OW13048   2.806   0.748   1.050
 4050SOL    HW113049   2.802   0.715   0.955
 4050SOL    HW213050   2.723   0.719   1.098
 4051SOL     OW13051   3.048   3.427   0.715
 4051SOL    HW113052   3.055   3.527   0.708
 4051SOL    HW213053   3.100   3.385   0.640
 4052SOL     OW13054   1.744   6.198   1.353
 4052SOL    HW113055   1.684   6.195   1.273
 4052SOL    HW213056   1.780   6.106   1.371
 4053SOL     OW13057   3.313   4.886   3.639
 4053SOL    HW113058   3.277   4.936   3.718
 4053SOL    HW213059   3.412   4.872   3.650
 4054SOL     OW13060   5.327   2.104   6.928
 4054SOL    HW113061   5.345   2.137   6.835
 4054SOL    HW213062   5.251   2.156   6.967
 4055SOL     OW13063   3.591   2.001   0.060
 4055SOL    HW113064   3.574   1.971   6.991
 4055SOL    HW213065   3.680   2.048   0.064
 4056SOL     OW13066   4.187   3.651   0.502
 4056SOL    HW113067   4.097   3.639   0.460
 4056SOL    HW213068   4.176   3.656   0.601
 4057SOL     OW13069   5.692   2.488   6.033
 4057SOL    HW113070   5.790   2.487   6.056
 4057SOL    HW213071   5.661   2.583   6.025
 4058SOL     OW13072   0.863   0.540   5.013
 4058SOL    HW113073   0.812   0.504   5.091
 4058SOL    HW213074   0.873   0.469   4.943
 4059SOL     OW13075   6.930   1.745   4.956
 4059SOL    HW113076   6.902   1.691   4.877
 4059SOL    HW213077   6.987   1.689   5.016
 4060SOL     OW13078   4.142   5.394   4.191
 4060SOL    HW113079   4.229   5.433   4.221
 4060SOL    HW213080   4.102   5.453   4.121
 4061SOL     OW13081   2.659   2.841   1.648
 4061SOL    HW113082   2.748   2.876   1.677
 4061SOL    HW213083   2.671   2.780   1.570
 4062SOL     OW13084   2.901   6.964   3.047
 4062SOL    HW113085   2.817   6.923   3.012
 4062SOL    HW213086   2.957   6.997   2.971
 4063SOL     OW13087   2.599   5.247   5.603
 4063SOL    HW113088   2.680   5.190   5.590
 4063SOL    HW213089   2.613   5.308   5.681
 4064SOL     OW13090   6.224   0.233   3.815
 4064SOL    HW113091   6.324   0.238   3.826
 4064SOL    HW213092   6.181   0.295   3.881
 4065SOL     OW13093   6.127   4.857   6.558
 4065SOL    HW113094   6.165   4.922   6.492
 4065SOL    HW213095   6.119   4.902   6.647
 4066SOL     OW13096   5.885   4.939   1.809
 4066SOL    HW113097   5.901   4.858   1.753
 4066SOL    HW213098   5.917   4.923   1.902
 4067SOL     OW13099   6.162   1.027   1.897
 4067SOL    HW113100   6.118   1.115   1.879
 4067SOL    HW213101   6.125   0.988   1.981
 4068SOL     OW13102   5.424   0.690   3.996
 4068SOL    HW113103   5.450   0.691   3.899
 4068SOL    HW213104   5.492   0.639   4.048
 4069SOL     OW13105   6.840   5.495   1.500
 4069SOL    HW113106   6.860   5.575   1.443
 4069SOL    HW213107   6.742   5.495   1.523
 4070SOL     OW13108   1.082   3.729   2.830
 4070SOL    HW113109   1.132   3.664   2.887
 4070SOL    HW213110   1.070   3.692   2.738
 4071SOL     OW13111   2.319   0.372   4.004
 4071SOL    HW113112   2.263   0.389   4.085
 4071SOL    HW213113   2.390   0.443   3.997
 4072SOL     OW13114   0.866   0.216   4.254
 4072SOL    HW113115   0.870   0.143   4.186
 4072SOL    HW213116   0.772   0.250   4.261
 4073SOL     OW13117   2.727   4.839   0.572
 4073SOL    HW113118   2.645   4.800   0.614
 4073SOL    HW213119   2.790   4.869   0.644
 4074SOL     OW13120   1.604   3.014   0.549
 4074SOL    HW113121   1.524   3.065   0.518
 4074SOL    HW213122   1.575   2.923   0.579
 4075SOL     OW13123   5.186   0.558   3.975
 4075SOL    HW113124   5.273   0.608   3.980
 4075SOL    HW213125   5.204   0.460   3.974
 4076SOL     OW13126   1.532   3.056   3.409
 4076SOL    HW113127   1.555   2.960   3.424
 4076SOL    HW213128   1.513   3.071   3.312
 4077SOL     OW13129   2.740   1.764   0.952
 4077SOL    HW113130   2.825   1.765   1.004
 4077SOL    HW213131   2.747   1.828   0.875
 4078SOL     OW13132   5.496   3.674   2.210
 4078SOL    HW113133   5.596   3.682   2.208
 4078SOL    HW213134   5.467   3.640   2.300
 4079SOL     OW13135   6.808   0.957   3.546
 4079SOL    HW113136   6.904   0.936   3.568
 4079SOL    HW213137   6.749   0.920   3.618
 4080SOL     OW13138   4.015   3.061   2.717
 4080SOL    HW113139   4.037   3.093   2.625
 4080SOL    HW213140   4.087   3.092   2.781
 4081SOL     OW13141   2.393   2.381   6.141
 4081SOL    HW113142   2.347   2.329   6.213
 4081SOL    HW213143   2.414   2.473   6.175
 4082SOL     OW13144   1.422   2.502   5.254
 4082SOL    HW113145   1.334   2.453   5.255
 4082SOL    HW213146   1.409   2.594   5.289
 4083SOL     OW13147   5.850   5.026   2.747
 4083SOL    HW113148   5.848   4.935   2.707
 4083SOL    HW213149   5.757   5.061   2.755
 4084SOL     OW13150   4.577   0.664   3.190
 4084SOL    HW113151   4.560   0.762   3.178
 4084SOL    HW213152   4.636   0.632   3.115
 4085SOL     OW13153   3.914   5.122   1.794
 4085SOL    HW113154   3.824   5.079   1.795
 4085SOL    HW213155   3.966   5.095   1.875
 4086SOL     OW13156   6.116   5.255   5.252
 4086SOL    HW113157   6.095   5.345   5.213
 4086SOL    HW213158   6.033   5.214   5.290
 4087SOL     OW13159   1.734   0.218   2.515
 4087SOL    HW113160   1.724   0.198   2.418
 4087SOL    HW213161   1.691   0.306   2.535
 4088SOL     OW13162   0.285   1.914   5.135
 4088SOL    HW113163   0.353   1.840   5.141
 4088SOL    HW213164   0.329   1.996   5.099
 4089SOL     OW13165   1.519   0.718   2.556
 4089SOL    HW113166   1.489   0.793   2.497
 4089SOL    HW213167   1.561   0.756   2.639
 4090SOL     OW13168   2.612   1.945   5.795
 4090SOL    HW113169   2.542   1.878   5.820
 4090SOL    HW213170   2.670   1.963   5.875
 4091SOL     OW13171   3.462   5.922   1.528
 4091SOL    HW113172   3.366   5.948   1.544
 4091SOL    HW213173   3.471   5.823   1.536
 4092SOL     OW13174   5.449   2.456   4.643
 4092SOL    HW113175   5.358   2.497   4.629
 4092SOL    HW213176   5.509   2.523   4.687
 4093SOL     OW13177   5.650   4.289   3.596
 4093SOL    HW113178   5.609   4.305   3.686
 4093SOL    HW213179   5.732   4.232   3.607
 4094SOL     OW13180   6.716   5.992   0.320
 4094SOL    HW113181   6.769   5.949   0.393
 4094SOL    HW213182   6.618   5.985   0.340
 4095SOL     OW13183   1.414   5.152   0.353
 4095SOL    HW113184   1.458   5.221   0.411
 4095SOL    HW213185   1.358   5.092   0.410
 4096SOL     OW13186   0.429   0.428   6.834
 4096SOL    HW113187   0.514   0.376   6.825
 4096SOL    HW213188   0.351   0.365   6.832
 4097SOL     OW13189   6.516   4.230   4.791
 4097SOL    HW113190   6.439   4.219   4.728
 4097SOL    HW213191   6.574   4.149   4.788
 4098SOL     OW13192   1.567   4.614   2.291
 4098SOL    HW113193   1.603   4.591   2.200
 4098SOL    HW213194   1.631   4.676   2.337
 4099SOL     OW13195   5.548   3.968   6.063
 4099SOL    HW113196   5.558   3.906   6.141
 4099SOL    HW213197   5.451   3.988   6.049
 4100SOL     OW13198   1.860   1.231   3.826
 4100SOL    HW113199   1.822   1.310   3.874
 4100SOL    HW213200   1.954   1.217   3.855
 4101SOL     OW13201   6.444   5.419   0.168
 4101SOL    HW113202   6.477   5.331   0.135
 4101SOL    HW213203   6.444   5.419   0.268
 4102SOL     OW13204   1.838   6.353   0.470
 4102SOL    HW113205   1.879   6.419   0.407
 4102SOL    HW213206   1.860   6.261   0.440
 4103SOL     OW13207   1.756   6.780   4.182
 4103SOL    HW113208   1.770   6.699   4.126
 4103SOL    HW213209   1.769   6.758   4.279
 4104SOL     OW13210   1.911   5.575   4.883
 4104SOL    HW113211   1.868   5.649   4.833
 4104SOL    HW213212   1.841   5.519   4.928
 4105SOL     OW13213   4.441   0.009   1.915
 4105SOL    HW113214   4.407   0.103   1.909
 4105SOL    HW213215   4.511   7.019   1.846
 4106SOL     OW13216   1.219   0.966   2.849
 4106SOL    HW113217   1.299   0.913   2.821
 4106SOL    HW213218   1.136   0.912   2.832
 4107SOL     OW13219   1.229   0.333   0.584
 4107SOL    HW113220   1.283   0.393   0.642
 4107SOL    HW213221   1.289   0.265   0.542
 4108SOL     OW13222   6.485   6.026   5.661
 4108SOL    HW113223   6.476   6.049   5.564
 4108SOL    HW213224   6.451   6.101   5.717
 4109SOL     OW13225   5.453   5.763   3.320
 4109SOL    HW113226   5.516   5.776   3.243
 4109SOL    HW213227   5.468   5.836   3.387
 4110SOL     OW13228   5.219   3.204   0.088
 4110SOL    HW113229   5.129   3.175   0.056
 4110SOL    HW213230   5.224   3.304   0.088
 4111SOL     OW13231   6.461   3.617   3.917
 4111SOL    HW113232   6.453   3.529   3.962
 4111SOL    HW213233   6.385   3.630   3.854
 4112SOL     OW13234   4.468   5.910   4.791
 4112SOL    HW113235   4.457   5.951   4.700
 4112SOL    HW213236   4.480   5.982   4.859
 4113SOL     OW13237   4.129   5.117   4.469
 4113SOL    HW113238   4.070   5.133   4.389
 4113SOL    HW213239   4.074   5.123   4.552
 4114SOL     OW13240   0.293   1.122   1.528
 4114SOL    HW113241   0.265   1.027   1.517
 4114SOL    HW213242   0.288   1.147   1.625
 4115SOL     OW13243   4.341   5.781   3.863
 4115SOL    HW113244   4.436   5.766   3.891
 4115SOL    HW213245   4.318   5.878   3.874
 4116SOL     OW13246   4.879   3.770   2.509
 4116SOL    HW113247   4.910   3.742   2.599
 4116SOL    HW213248   4.784   3.801   2.514
 4117SOL     OW13249   1.102   1.433   3.715
 4117SOL    HW113250   1.145   1.375   3.784
 4117SOL    HW213251   1.033   1.380   3.665
 4118SOL     OW13252   0.643   6.645   0.189
 4118SOL    HW113253   0.629   6.731   0.236
 4118SOL    HW213254   0.580   6.638   0.111
 4119SOL     OW13255   0.372   0.499   4.433
 4119SOL    HW113256   0.422   0.449   4.503
 4119SOL    HW213257   0.415   0.588   4.419
 4120SOL     OW13258   2.285   0.778   6.640
 4120SOL    HW113259   2.251   0.759   6.731
 4120SOL    HW213260   2.221   0.742   6.572
 4121SOL     OW13261   0.121   6.903   1.957
 4121SOL    HW113262   0.070   6.949   1.884
 4121SOL    HW213263   0.217   6.929   1.950
 4122SOL     OW13264   0.692   4.806   3.030
 4122SOL    HW113265   0.601   4.846   3.043
 4122SOL    HW213266   0.732   4.784   3.119
 4123SOL     OW13267   5.087   4.962   1.588
 4123SOL    HW113268   5.111   5.022   1.664
 4123SOL    HW213269   4.988   4.946   1.588
 4124SOL     OW13270   6.250   5.629   0.361
 4124SOL    HW113271   6.187   5.557   0.332
 4124SOL    HW213272   6.298   5.666   0.282
 4125SOL     OW13273   6.264   2.064   0.516
 4125SOL    HW113274   6.211   2.148   0.515
 4125SOL    HW213275   6.209   1.989   0.479
 4126SOL     OW13276   1.058   3.359   2.710
 4126SOL    HW113277   1.156   3.354   2.730
 4126SOL    HW213278   1.007   3.346   2.795
 4127SOL     OW13279   4.466   1.764   4.724
 4127SOL    HW113280   4.384   1.736   4.675
 4127SOL    HW213281   4.440   1.816   4.805
 4128SOL     OW13282   0.631   2.927   6.765
 4128SOL    HW113283   0.710   2.968   6.809
 4128SOL    HW213284   0.597   2.988   6.693
 4129SOL     OW13285   3.051   1.963   0.720
 4129SOL    HW113286   2.999   2.019   0.656
 4129SOL    HW213287   3.061   1.870   0.682
 4130SOL     OW13288   6.018   3.229   0.774
 4130SOL    HW113289   6.067   3.223   0.687
 4130SOL    HW213290   6.082   3.254   0.847
 4131SOL     OW13291   5.072   0.001   3.032
 4131SOL    HW113292   5.080   0.100   3.047
 4131SOL    HW213293   5.064   6.979   3.119
 4132SOL     OW13294   0.054   5.548   3.464
 4132SOL    HW113295   6.988   5.553   3.422
 4132SOL    HW213296   0.117   5.610   3.417
 4133SOL     OW13297   5.520   0.352   2.549
 4133SOL    HW113298   5.594   0.417   2.534
 4133SOL    HW213299   5.432   0.399   2.536
 4134SOL     OW13300   1.239   3.790   1.512
 4134SOL    HW113301   1.176   3.755   1.442
 4134SOL    HW213302   1.225   3.739   1.597
 4135SOL     OW13303   6.237   0.612   2.105
 4135SOL    HW113304   6.223   0.701   2.147
 4135SOL    HW213305   6.156   0.587   2.052
 4136SOL     OW13306   1.033   4.984   0.744
 4136SOL    HW113307   0.956   5.041   0.717
 4136SOL    HW213308   1.013   4.939   0.831
 4137SOL     OW13309   0.803   3.030   6.944
 4137SOL    HW113310   0.899   3.039   6.919
 4137SOL    HW213311   0.789   2.944   6.993
 4138SOL     OW13312   4.852   0.448   7.010
 4138SOL    HW113313   4.897   0.537   7.009
 4138SOL    HW213314   4.753   0.461   7.013
 4139SOL     OW13315   2.072   4.201   3.142
 4139SOL    HW113316   2.119   4.238   3.062
 4139SOL    HW213317   1.979   4.174   3.117
 4140SOL     OW13318   1.847   0.093   6.075
 4140SOL    HW113319   1.787   0.119   6.150
 4140SOL    HW213320   1.808   0.127   5.989
 4141SOL     OW13321   5.089   0.457   6.235
 4141SOL    HW113322   5.012   0.520   6.231
 4141SOL    HW213323   5.079   0.397   6.315
 4142SOL     OW13324   0.312   5.506   2.334
 4142SOL    HW113325   0.315   5.504   2.234
 4142SOL    HW213326   0.395   5.465   2.371
 4143SOL     OW13327   6.162   2.979   6.116
 4143SOL    HW113328   6.261   2.981   6.128
 4143SOL    HW213329   6.140   2.968   6.019
 4144SOL     OW13330   6.227   1.121   0.805
 4144SOL    HW113331   6.264   1.058   0.737
 4144SOL    HW213332   6.131   1.099   0.823
 4145SOL     OW13333   6.809   0.584   1.645
 4145SOL    HW113334   6.898   0.543   1.622
 4145SOL    HW213335   6.819   0.684   1.648
 4146SOL     OW13336   5.103   5.978   2.122
 4146SOL    HW113337   5.109   5.999   2.024
 4146SOL    HW213338   5.101   6.063   2.174
 4147SOL     OW13339   4.459   4.914   6.739
 4147SOL    HW113340   4.455   4.943   6.644
 4147SOL    HW213341   4.555   4.912   6.769
 4148SOL     OW13342   2.818   0.923   5.484
 4148SOL    HW113343   2.743   0.858   5.489
 4148SOL    HW213344   2.892   0.885   5.429
 4149SOL     OW13345   1.614   4.018   6.725
 4149SOL    HW113346   1.601   4.114   6.698
 4149SOL    HW213347   1.577   3.958   6.654
 4150SOL     OW13348   5.442   2.230   6.700
 4150SOL    HW113349   5.343   2.246   6.694
 4150SOL    HW213350   5.473   2.248   6.793
 4151SOL     OW13351   2.957   6.002   4.631
 4151SOL    HW113352   3.034   6.050   4.673
 4151SOL    HW213353   2.901   6.067   4.580
 4152SOL     OW13354   2.874   4.281   1.430
 4152SOL    HW113355   2.947   4.229   1.385
 4152SOL    HW213356   2.910   4.368   1.463
 4153SOL     OW13357   6.487   5.931   1.673
 4153SOL    HW113358   6.527   5.847   1.708
 4153SOL    HW213359   6.543   6.009   1.701
 4154SOL     OW13360   1.400   6.162   3.822
 4154SOL    HW113361   1.353   6.087   3.869
 4154SOL    HW213362   1.497   6.160   3.846
 4155SOL     OW13363   0.250   0.719   1.660
 4155SOL    HW113364   0.221   0.771   1.580
 4155SOL    HW213365   0.331   0.762   1.700
 4156SOL     OW13366   0.736   5.181   6.153
 4156SOL    HW113367   0.687   5.094   6.166
 4156SOL    HW213368   0.743   5.201   6.055
 4157SOL     OW13369   5.774   6.219   1.617
 4157SOL    HW113370   5.735   6.132   1.588
 4157SOL    HW213371   5.703   6.275   1.658
 4158SOL     OW13372   0.936   2.755   1.409
 4158SOL    HW113373   0.881   2.745   1.326
 4158SOL    HW213374   0.876   2.755   1.489
 4159SOL     OW13375   2.955   0.095   3.976
 4159SOL    HW113376   3.027   0.041   3.934
 4159SOL    HW213377   2.916   0.158   3.908
 4160SOL     OW13378   0.190   0.260   6.775
 4160SOL    HW113379   0.254   0.196   6.733
 4160SOL    HW213380   0.150   0.219   6.857
 4161SOL     OW13381   3.664   3.445   2.345
 4161SOL    HW113382   3.743   3.504   2.331
 4161SOL    HW213383   3.635   3.408   2.256
 4162SOL     OW13384   5.125   5.826   1.727
 4162SOL    HW113385   5.084   5.747   1.773
 4162SOL    HW213386   5.120   5.905   1.788
 4163SOL     OW13387   3.394   5.695   2.054
 4163SOL    HW113388   3.340   5.744   2.122
 4163SOL    HW213389   3.388   5.743   1.966
 4164SOL     OW13390   6.871   1.191   6.291
 4164SOL    HW113391   6.895   1.265   6.228
 4164SOL    HW213392   6.932   1.193   6.371
 4165SOL     OW13393   4.719   0.789   4.661
 4165SOL    HW113394   4.804   0.755   4.620
 4165SOL    HW213395   4.648   0.718   4.655
 4166SOL     OW13396   5.940   1.555   1.001
 4166SOL    HW113397   5.855   1.566   1.052
 4166SOL    HW213398   5.949   1.628   0.934
 4167SOL     OW13399   3.377   5.907   4.481
 4167SOL    HW113400   3.402   5.923   4.577
 4167SOL    HW213401   3.300   5.843   4.477
 4168SOL     OW13402   5.055   3.451   6.908
 4168SOL    HW113403   5.022   3.365   6.869
 4168SOL    HW213404   5.122   3.431   6.980
 4169SOL     OW13405   5.375   2.645   5.863
 4169SOL    HW113406   5.357   2.721   5.801
 4169SOL    HW213407   5.325   2.564   5.831
 4170SOL     OW13408   0.467   2.331   4.466
 4170SOL    HW113409   0.422   2.281   4.540
 4170SOL    HW213410   0.427   2.422   4.458
 4171SOL     OW13411   0.924   1.692   0.115
 4171SOL    HW113412   0.930   1.783   0.156
 4171SOL    HW213413   0.859   1.636   0.167
 4172SOL     OW13414   2.663   3.241   0.567
 4172SOL    HW113415   2.694   3.334   0.546
 4172SOL    HW213416   2.635   3.237   0.663
 4173SOL     OW13417   5.041   2.736   6.727
 4173SOL    HW113418   5.131   2.694   6.722
 4173SOL    HW213419   5.006   2.752   6.635
 4174SOL     OW13420   3.712   0.387   4.921
 4174SOL    HW113421   3.737   0.358   5.013
 4174SOL    HW213422   3.750   0.478   4.903
 4175SOL     OW13423   0.572   4.482   6.547
 4175SOL    HW113424   0.516   4.521   6.620
 4175SOL    HW213425   0.560   4.535   6.463
 4176SOL     OW13426   5.621   0.083   5.978
 4176SOL    HW113427   5.596   0.114   6.070
 4176SOL    HW213428   5.691   0.143   5.941
 4177SOL     OW13429   4.120   4.801   2.711
 4177SOL    HW113430   4.172   4.730   2.663
 4177SOL    HW213431   4.028   4.807   2.672
 4178SOL     OW13432   3.718   5.787   1.816
 4178SOL    HW113433   3.705   5.733   1.899
 4178SOL    HW213434   3.747   5.727   1.742
 4179SOL     OW13435   5.193   3.280   5.480
 4179SOL    HW113436   5.211   3.204   5.417
 4179SOL    HW213437   5.097   3.306   5.473
 4180SOL     OW13438   4.471   3.882   0.912
 4180SOL    HW113439   4.419   3.881   0.998
 4180SOL    HW213440   4.410   3.900   0.836
 4181SOL     OW13441   4.529   6.776   4.891
 4181SOL    HW113442   4.462   6.797   4.819
 4181SOL    HW213443   4.480   6.752   4.976
 4182SOL     OW13444   0.064   6.297   4.903
 4182SOL    HW113445   0.013   6.225   4.855
 4182SOL    HW213446   0.095   6.365   4.837
 4183SOL     OW13447   4.276   1.677   0.651
 4183SOL    HW113448   4.344   1.701   0.721
 4183SOL    HW213449   4.212   1.752   0.640
 4184SOL     OW13450   3.393   5.654   4.194
 4184SOL    HW113451   3.298   5.678   4.211
 4184SOL    HW213452   3.425   5.590   4.264
 4185SOL     OW13453   5.252   2.823   3.290
 4185SOL    HW113454   5.229   2.750   3.226
 4185SOL    HW213455   5.195   2.904   3.271
 4186SOL     OW13456   1.946   6.059   0.399
 4186SOL    HW113457   2.039   6.092   0.416
 4186SOL    HW213458   1.913   6.009   0.478
 4187SOL     OW13459   1.763   3.315   6.643
 4187SOL    HW113460   1.841   3.325   6.581
 4187SOL    HW213461   1.796   3.288   6.734
 4188SOL     OW13462   4.626   0.207   0.135
 4188SOL    HW113463   4.633   0.304   0.109
 4188SOL    HW213464   4.681   0.191   0.216
 4189SOL     OW13465   4.802   5.058   3.714
 4189SOL    HW113466   4.803   4.970   3.667
 4189SOL    HW213467   4.809   5.044   3.812
 4190SOL     OW13468   6.378   5.763   1.478
 4190SOL    HW113469   6.437   5.682   1.485
 4190SOL    HW213470   6.412   5.833   1.540
 4191SOL     OW13471   4.501   4.417   6.690
 4191SOL    HW113472   4.436   4.397   6.618
 4191SOL    HW213473   4.578   4.469   6.653
 4192SOL     OW13474   1.778   3.561   0.964
 4192SOL    HW113475   1.702   3.523   1.017
 4192SOL    HW213476   1.777   3.661   0.970
 4193SOL     OW13477   0.551   0.509   0.564
 4193SOL    HW113478   0.522   0.536   0.472
 4193SOL    HW213479   0.643   0.544   0.582
 4194SOL     OW13480   4.532   1.481   5.468
 4194SOL    HW113481   4.435   1.456   5.463
 4194SOL    HW213482   4.564   1.511   5.379
 4195SOL     OW13483   3.787   6.427   0.473
 4195SOL    HW113484   3.862   6.361   0.471
 4195SOL    HW213485   3.787   6.475   0.561
 4196SOL     OW13486   6.443   3.335   1.928
 4196SOL    HW113487   6.524   3.369   1.976
 4196SOL    HW213488   6.416   3.247   1.967
 4197SOL     OW13489   3.623   1.533   6.843
 4197SOL    HW113490   3.618   1.613   6.784
 4197SOL    HW213491   3.551   1.469   6.818
 4198SOL     OW13492   6.982   2.053   2.575
 4198SOL    HW113493   6.911   1.984   2.576
 4198SOL    HW213494   6.941   2.144   2.564
 4199SOL     OW13495   0.685   3.946   6.243
 4199SOL    HW113496   0.648   3.898   6.163
 4199SOL    HW213497   0.614   4.002   6.285
 4200SOL     OW13498   4.719   0.691   3.857
 4200SOL    HW113499   4.696   0.703   3.760
 4200SOL    HW213500   4.663   0.617   3.895
 4201SOL     OW13501   5.495   6.820   3.831
 4201SOL    HW113502   5.576   6.838   3.775
 4201SOL    HW213503   5.478   6.721   3.833
 4202SOL     OW13504   5.284   4.219   1.457
 4202SOL    HW113505   5.253   4.248   1.548
 4202SOL    HW213506   5.265   4.291   1.391
 4203SOL     OW13507   6.108   5.312   5.716
 4203SOL    HW113508   6.009   5.306   5.728
 4203SOL    HW213509   6.154   5.274   5.796
 4204SOL     OW13510   1.976   3.376   6.491
 4204SOL    HW113511   2.013   3.444   6.554
 4204SOL    HW213512   1.976   3.413   6.398
 4205SOL     OW13513   3.568   6.088   5.861
 4205SOL    HW113514   3.657   6.077   5.817
 4205SOL    HW213515   3.540   6.184   5.858
 4206SOL     OW13516   2.068   2.148   4.720
 4206SOL    HW113517   2.040   2.097   4.802
 4206SOL    HW213518   2.026   2.238   4.721
 4207SOL     OW13519   1.146   2.324   2.157
 4207SOL    HW113520   1.183   2.262   2.088
 4207SOL    HW213521   1.060   2.287   2.193
 4208SOL     OW13522   1.838   3.211   4.413
 4208SOL    HW113523   1.747   3.174   4.394
 4208SOL    HW213524   1.904   3.136   4.420
 4209SOL     OW13525   6.680   6.434   2.031
 4209SOL    HW113526   6.742   6.512   2.037
 4209SOL    HW213527   6.728   6.356   1.993
 4210SOL     OW13528   3.828   4.024   4.591
 4210SOL    HW113529   3.869   4.036   4.501
 4210SOL    HW213530   3.785   4.109   4.620
 4211SOL     OW13531   4.351   2.562   5.465
 4211SOL    HW113532   4.393   2.620   5.395
 4211SOL    HW213533   4.416   2.491   5.492
 4212SOL     OW13534   6.390   2.234   3.271
 4212SOL    HW113535   6.485   2.210   3.291
 4212SOL    HW213536   6.387   2.294   3.191
 4213SOL     OW13537   2.988   0.776   3.889
 4213SOL    HW113538   3.015   0.686   3.920
 4213SOL    HW213539   3.025   0.846   3.950
 4214SOL     OW13540   6.676   5.958   3.442
 4214SOL    HW113541   6.761   5.995   3.478
 4214SOL    HW213542   6.694   5.904   3.360
 4215SOL     OW13543   4.655   6.462   5.457
 4215SOL    HW113544   4.754   6.459   5.470
 4215SOL    HW213545   4.630   6.546   5.409
 4216SOL     OW13546   2.370   5.752   2.125
 4216SOL    HW113547   2.398   5.660   2.099
 4216SOL    HW213548   2.445   5.797   2.174
 4217SOL     OW13549   1.175   0.820   2.447
 4217SOL    HW113550   1.225   0.805   2.533
 4217SOL    HW213551   1.182   0.739   2.390
 4218SOL     OW13552   2.867   1.312   0.969
 4218SOL    HW113553   2.885   1.399   0.923
 4218SOL    HW213554   2.953   1.260   0.974
 4219SOL     OW13555   4.290   5.680   3.163
 4219SOL    HW113556   4.204   5.728   3.181
 4219SOL    HW213557   4.304   5.672   3.065
 4220SOL     OW13558   5.525   2.133   1.432
 4220SOL    HW113559   5.445   2.133   1.492
 4220SOL    HW213560   5.552   2.038   1.413
 4221SOL     OW13561   0.600   6.173   0.139
 4221SOL    HW113562   0.512   6.201   0.100
 4221SOL    HW213563   0.639   6.249   0.192
 4222SOL     OW13564   4.884   2.912   4.252
 4222SOL    HW113565   4.920   2.893   4.161
 4222SOL    HW213566   4.908   3.006   4.279
 4223SOL     OW13567   4.139   3.886   1.961
 4223SOL    HW113568   4.217   3.945   1.985
 4223SOL    HW213569   4.164   3.791   1.976
 4224SOL     OW13570   5.020   3.787   4.465
 4224SOL    HW113571   4.952   3.714   4.478
 4224SOL    HW213572   5.090   3.781   4.537
 4225SOL     OW13573   0.378   2.408   5.273
 4225SOL    HW113574   0.281   2.409   5.250
 4225SOL    HW213575   0.407   2.315   5.295
 4226SOL     OW13576   1.070   5.791   4.883
 4226SOL    HW113577   1.135   5.723   4.916
 4226SOL    HW213578   1.027   5.758   4.799
 4227SOL     OW13579   5.030   5.121   2.196
 4227SOL    HW113580   4.998   5.134   2.290
 4227SOL    HW213581   4.969   5.059   2.148
 4228SOL     OW13582   1.613   5.414   3.668
 4228SOL    HW113583   1.645   5.366   3.749
 4228SOL    HW213584   1.532   5.468   3.691
 4229SOL     OW13585   6.943   4.607   5.302
 4229SOL    HW113586   6.946   4.692   5.354
 4229SOL    HW213587   6.848   4.578   5.290
 4230SOL     OW13588   0.227   0.670   2.303
 4230SOL    HW113589   0.222   0.600   2.375
 4230SOL    HW213590   0.219   0.761   2.344
 4231SOL     OW13591   6.355   1.432   5.557
 4231SOL    HW113592   6.385   1.526   5.575
 4231SOL    HW213593   6.255   1.428   5.558
 4232SOL     OW13594   1.377   5.667   3.658
 4232SOL    HW113595   1.358   5.571   3.677
 4232SOL    HW213596   1.440   5.702   3.727
 4233SOL     OW13597   4.318   5.090   3.126
 4233SOL    HW113598   4.251   5.142   3.074
 4233SOL    HW213599   4.409   5.103   3.086
 4234SOL     OW13600   3.073   5.231   6.087
 4234SOL    HW113601   3.090   5.210   5.991
 4234SOL    HW213602   3.069   5.331   6.098
 4235SOL     OW13603   0.085   5.901   5.598
 4235SOL    HW113604   0.094   5.989   5.645
 4235SOL    HW213605   0.116   5.827   5.658
 4236SOL     OW13606   0.313   5.503   2.801
 4236SOL    HW113607   0.292   5.507   2.899
 4236SOL    HW213608   0.386   5.436   2.786
 4237SOL     OW13609   0.132   5.112   3.942
 4237SOL    HW113610   0.070   5.079   3.871
 4237SOL    HW213611   0.163   5.034   3.997
 4238SOL     OW13612   2.707   6.832   2.929
 4238SOL    HW113613   2.624   6.780   2.949
 4238SOL    HW213614   2.766   6.779   2.868
 4239SOL     OW13615   4.390   0.828   3.742
 4239SOL    HW113616   4.364   0.879   3.660
 4239SOL    HW213617   4.415   0.892   3.814
 4240SOL     OW13618   6.729   0.032   1.570
 4240SOL    HW113619   6.785   6.975   1.577
 4240SOL    HW213620   6.659   0.031   1.642
 4241SOL     OW13621   6.464   3.763   0.394
 4241SOL    HW113622   6.483   3.665   0.390
 4241SOL    HW213623   6.405   3.783   0.472
 4242SOL     OW13624   2.387   1.849   3.399
 4242SOL    HW113625   2.406   1.937   3.442
 4242SOL    HW213626   2.450   1.780   3.433
 4243SOL     OW13627   4.591   0.096   2.920
 4243SOL    HW113628   4.647   0.017   2.945
 4243SOL    HW213629   4.553   0.082   2.828
 4244SOL     OW13630   3.840   3.273   2.716
 4244SOL    HW113631   3.901   3.193   2.716
 4244SOL    HW213632   3.780   3.269   2.636
 4245SOL     OW13633   6.408   2.095   6.321
 4245SOL    HW113634   6.366   2.004   6.328
 4245SOL    HW213635   6.339   2.164   6.339
 4246SOL     OW13636   1.250   3.463   1.328
 4246SOL    HW113637   1.202   3.547   1.305
 4246SOL    HW213638   1.188   3.400   1.374
 4247SOL     OW13639   0.148   5.831   5.080
 4247SOL    HW113640   0.118   5.872   5.166
 4247SOL    HW213641   0.069   5.822   5.019
 4248SOL     OW13642   1.425   2.820   4.981
 4248SOL    HW113643   1.427   2.874   5.065
 4248SOL    HW213644   1.501   2.848   4.922
 4249SOL     OW13645   5.692   3.890   5.843
 4249SOL    HW113646   5.641   3.852   5.766
 4249SOL    HW213647   5.628   3.929   5.909
 4250SOL     OW13648   0.279   4.786   2.904
 4250SOL    HW113649   0.229   4.869   2.879
 4250SOL    HW213650   0.347   4.808   2.974
 4251SOL     OW13651   6.012   4.217   0.784
 4251SOL    HW113652   6.027   4.234   0.686
 4251SOL    HW213653   5.924   4.172   0.797
 4252SOL     OW13654   0.540   5.572   5.746
 4252SOL    HW113655   0.590   5.485   5.742
 4252SOL    HW213656   0.448   5.556   5.782
 4253SOL     OW13657   4.444   6.450   2.310
 4253SOL    HW113658   4.528   6.407   2.344
 4253SOL    HW213659   4.466   6.512   2.235
 4254SOL     OW13660   2.605   4.460   1.150
 4254SOL    HW113661   2.539   4.397   1.108
 4254SOL    HW213662   2.600   4.453   1.250
 4255SOL     OW13663   0.341   1.924   4.344
 4255SOL    HW113664   0.302   1.956   4.430
 4255SOL    HW213665   0.375   2.002   4.292
 4256SOL     OW13666   2.058   0.427   1.781
 4256SOL    HW113667   1.980   0.471   1.738
 4256SOL    HW213668   2.028   0.381   1.865
 4257SOL     OW13669   3.952   2.050   4.680
 4257SOL    HW113670   3.879   2.059   4.748
 4257SOL    HW213671   3.940   1.964   4.629
 4258SOL     OW13672   5.124   6.573   2.582
 4258SOL    HW113673   5.166   6.663   2.595
 4258SOL    HW213674   5.195   6.503   2.583
 4259SOL     OW13675   2.263   2.883   0.622
 4259SOL    HW113676   2.311   2.887   0.535
 4259SOL    HW213677   2.166   2.867   0.606
 4260SOL     OW13678   5.041   5.403   3.972
 4260SOL    HW113679   4.967   5.374   4.033
 4260SOL    HW213680   5.065   5.329   3.911
 4261SOL     OW13681   1.661   0.147   1.806
 4261SOL    HW113682   1.613   0.085   1.745
 4261SOL    HW213683   1.605   0.162   1.888
 4262SOL     OW13684   0.506   5.509   6.658
 4262SOL    HW113685   0.426   5.453   6.639
 4262SOL    HW213686   0.506   5.589   6.598
 4263SOL     OW13687   3.199   5.096   5.541
 4263SOL    HW113688   3.141   5.037   5.485
 4263SOL    HW213689   3.289   5.054   5.552
 4264SOL     OW13690   0.105   0.482   0.397
 4264SOL    HW113691   0.143   0.564   0.354
 4264SOL    HW213692   0.130   0.402   0.343
 4265SOL     OW13693   6.590   1.993   1.161
 4265SOL    HW113694   6.579   2.030   1.253
 4265SOL    HW213695   6.662   1.923   1.161
 4266SOL     OW13696   2.539   4.868   0.368
 4266SOL    HW113697   2.540   4.802   0.293
 4266SOL    HW213698   2.622   4.858   0.423
 4267SOL     OW13699   1.880   3.965   5.325
 4267SOL    HW113700   1.967   3.983   5.280
 4267SOL    HW213701   1.824   3.907   5.266
 4268SOL     OW13702   1.656   0.604   1.251
 4268SOL    HW113703   1.715   0.580   1.329
 4268SOL    HW213704   1.712   0.644   1.178
 4269SOL     OW13705   3.510   3.100   0.174
 4269SOL    HW113706   3.539   3.165   0.104
 4269SOL    HW213707   3.465   3.022   0.131
 4270SOL     OW13708   3.150   2.949   5.184
 4270SOL    HW113709   3.203   2.944   5.100
 4270SOL    HW213710   3.149   3.043   5.218
 4271SOL     OW13711   1.015   6.854   6.827
 4271SOL    HW113712   0.924   6.815   6.812
 4271SOL    HW213713   1.031   6.865   6.925
 4272SOL     OW13714   6.866   4.983   4.493
 4272SOL    HW113715   6.781   5.033   4.509
 4272SOL    HW213716   6.916   4.974   4.579
 4273SOL     OW13717   5.815   6.646   5.374
 4273SOL    HW113718   5.896   6.687   5.416
 4273SOL    HW213719   5.799   6.689   5.285
 4274SOL     OW13720   1.825   0.212   3.933
 4274SOL    HW113721   1.877   0.297   3.922
 4274SOL    HW213722   1.863   0.160   4.009
 4275SOL     OW13723   0.925   0.216   6.163
 4275SOL    HW113724   0.873   0.223   6.078
 4275SOL    HW213725   0.896   0.134   6.213
 4276SOL     OW13726   2.077   3.787   2.535
 4276SOL    HW113727   2.089   3.880   2.569
 4276SOL    HW213728   2.089   3.787   2.435
 4277SOL     OW13729   6.766   5.678   3.528
 4277SOL    HW113730   6.754   5.773   3.496
 4277SOL    HW213731   6.827   5.677   3.607
 4278SOL     OW13732   0.015   0.327   5.561
 4278SOL    HW113733   0.112   0.308   5.578
 4278SOL    HW213734   7.013   0.410   5.609
 4279SOL     OW13735   3.420   5.951   4.759
 4279SOL    HW113736   3.515   5.929   4.783
 4279SOL    HW213737   3.360   5.924   4.833
 4280SOL     OW13738   4.927   2.705   3.828
 4280SOL    HW113739   4.874   2.641   3.883
 4280SOL    HW213740   4.865   2.762   3.775
 4281SOL     OW13741   2.278   4.375   5.018
 4281SOL    HW113742   2.322   4.449   5.070
 4281SOL    HW213743   2.316   4.287   5.047
 4282SOL     OW13744   1.487   2.434   1.429
 4282SOL    HW113745   1.557   2.433   1.358
 4282SOL    HW213746   1.465   2.340   1.455
 4283SOL     OW13747   1.587   0.410   4.322
 4283SOL    HW113748   1.563   0.506   4.336
 4283SOL    HW213749   1.624   0.372   4.407
 4284SOL     OW13750   6.021   2.204   2.406
 4284SOL    HW113751   6.119   2.187   2.406
 4284SOL    HW213752   6.003   2.298   2.433
 4285SOL     OW13753   1.418   6.505   6.020
 4285SOL    HW113754   1.417   6.412   5.983
 4285SOL    HW213755   1.364   6.508   6.104
 4286SOL     OW13756   5.098   5.622   0.455
 4286SOL    HW113757   5.115   5.537   0.504
 4286SOL    HW213758   5.083   5.696   0.520
 4287SOL     OW13759   5.003   6.114   4.882
 4287SOL    HW113760   5.000   6.168   4.798
 4287SOL    HW213761   5.016   6.017   4.859
 4288SOL     OW13762   1.408   6.408   2.931
 4288SOL    HW113763   1.408   6.497   2.885
 4288SOL    HW213764   1.363   6.341   2.872
 4289SOL     OW13765   5.622   3.261   1.275
 4289SOL    HW113766   5.596   3.299   1.364
 4289SOL    HW213767   5.604   3.328   1.203
 4290SOL     OW13768   2.396   0.901   2.015
 4290SOL    HW113769   2.397   0.844   1.933
 4290SOL    HW213770   2.303   0.933   2.033
 4291SOL     OW13771   6.566   4.030   1.010
 4291SOL    HW113772   6.630   3.955   0.993
 4291SOL    HW213773   6.492   3.997   1.069
 4292SOL     OW13774   6.170   5.243   6.624
 4292SOL    HW113775   6.090   5.273   6.675
 4292SOL    HW213776   6.251   5.247   6.683
 4293SOL     OW13777   0.226   2.701   6.889
 4293SOL    HW113778   0.154   2.769   6.875
 4293SOL    HW213779   0.231   2.641   6.809
 4294SOL     OW13780   4.705   1.477   5.717
 4294SOL    HW113781   4.654   1.517   5.641
 4294SOL    HW213782   4.684   1.526   5.802
 4295SOL     OW13783   3.488   0.201   4.489
 4295SOL    HW113784   3.523   0.267   4.556
 4295SOL    HW213785   3.467   0.247   4.403
 4296SOL     OW13786   2.380   1.432   1.225
 4296SOL    HW113787   2.390   1.444   1.324
 4296SOL    HW213788   2.353   1.337   1.206
 4297SOL     OW13789   5.831   0.754   5.756
 4297SOL    HW113790   5.880   0.835   5.724
 4297SOL    HW213791   5.734   0.775   5.766
 4298SOL     OW13792   2.987   5.611   0.999
 4298SOL    HW113793   3.015   5.567   1.084
 4298SOL    HW213794   3.045   5.690   0.981
 4299SOL     OW13795   0.912   3.734   6.644
 4299SOL    HW113796   0.931   3.638   6.624
 4299SOL    HW213797   0.836   3.766   6.588
 4300SOL     OW13798   5.146   0.917   6.740
 4300SOL    HW113799   5.215   0.897   6.671
 4300SOL    HW213800   5.165   0.864   6.823
 4301SOL     OW13801   2.852   1.562   0.807
 4301SOL    HW113802   2.802   1.499   0.747
 4301SOL    HW213803   2.787   1.622   0.853
 4302SOL     OW13804   1.147   6.148   6.805
 4302SOL    HW113805   1.232   6.103   6.833
 4302SOL    HW213806   1.069   6.100   6.844
 4303SOL     OW13807   0.255   3.569   2.279
 4303SOL    HW113808   0.304   3.575   2.192
 4303SOL    HW213809   0.211   3.480   2.286
 4304SOL     OW13810   3.130   3.783   4.080
 4304SOL    HW113811   3.102   3.735   4.163
 4304SOL    HW213812   3.184   3.863   4.103
 4305SOL     OW13813   6.126   1.726   3.616
 4305SOL    HW113814   6.134   1.826   3.615
 4305SOL    HW213815   6.150   1.689   3.526
 4306SOL     OW13816   6.503   5.108   5.660
 4306SOL    HW113817   6.440   5.073   5.729
 4306SOL    HW213818   6.491   5.207   5.650
 4307SOL     OW13819   5.496   3.745   6.432
 4307SOL    HW113820   5.564   3.818   6.435
 4307SOL    HW213821   5.532   3.663   6.477
 4308SOL     OW13822   5.204   6.180   4.413
 4308SOL    HW113823   5.189   6.274   4.384
 4308SOL    HW213824   5.138   6.156   4.484
 4309SOL     OW13825   1.569   1.399   0.939
 4309SOL    HW113826   1.647   1.341   0.917
 4309SOL    HW213827   1.561   1.472   0.870
 4310SOL     OW13828   1.650   1.670   2.857
 4310SOL    HW113829   1.703   1.729   2.918
 4310SOL    HW213830   1.695   1.664   2.768
 4311SOL     OW13831   1.926   6.288   3.569
 4311SOL    HW113832   2.017   6.248   3.578
 4311SOL    HW213833   1.901   6.292   3.472
 4312SOL     OW13834   2.517   5.086   2.050
 4312SOL    HW113835   2.591   5.140   2.092
 4312SOL    HW213836   2.543   4.989   2.050
 4313SOL     OW13837   4.835   0.567   2.570
 4313SOL    HW113838   4.739   0.587   2.554
 4313SOL    HW213839   4.875   0.525   2.488
 4314SOL     OW13840   4.831   2.927   2.505
 4314SOL    HW113841   4.843   3.024   2.488
 4314SOL    HW213842   4.774   2.914   2.587
 4315SOL     OW13843   2.333   1.289   2.132
 4315SOL    HW113844   2.394   1.347   2.077
 4315SOL    HW213845   2.384   1.254   2.211
 4316SOL     OW13846   5.988   0.363   2.303
 4316SOL    HW113847   5.955   0.286   2.358
 4316SOL    HW213848   6.075   0.396   2.341
 4317SOL     OW13849   4.105   0.915   3.785
 4317SOL    HW113850   4.158   1.000   3.776
 4317SOL    HW213851   4.167   0.839   3.801
 4318SOL     OW13852   0.244   2.265   3.771
 4318SOL    HW113853   0.331   2.302   3.802
 4318SOL    HW213854   0.173   2.335   3.782
 4319SOL     OW13855   2.495   3.401   6.477
 4319SOL    HW113856   2.450   3.326   6.430
 4319SOL    HW213857   2.508   3.478   6.414
 4320SOL     OW13858   6.985   6.139   2.489
 4320SOL    HW113859   6.942   6.127   2.399
 4320SOL    HW213860   6.957   6.228   2.527
 4321SOL     OW13861   0.237   0.360   5.265
 4321SOL    HW113862   0.244   0.262   5.283
 4321SOL    HW213863   0.278   0.411   5.341
 4322SOL     OW13864   5.919   0.917   0.322
 4322SOL    HW113865   5.980   0.929   0.400
 4322SOL    HW213866   5.973   0.889   0.242
 4323SOL     OW13867   6.972   3.302   2.944
 4323SOL    HW113868   6.904   3.264   2.881
 4323SOL    HW213869   6.937   3.300   3.037
 4324SOL     OW13870   5.871   4.092   5.864
 4324SOL    HW113871   5.803   4.022   5.843
 4324SOL    HW213872   5.906   4.078   5.957
 4325SOL     OW13873   2.082   1.622   0.097
 4325SOL    HW113874   2.124   1.600   0.185
 4325SOL    HW213875   1.983   1.630   0.109
 4326SOL     OW13876   5.813   2.251   5.034
 4326SOL    HW113877   5.788   2.155   5.024
 4326SOL    HW213878   5.828   2.291   4.943
 4327SOL     OW13879   6.026   6.717   2.634
 4327SOL    HW113880   6.059   6.635   2.680
 4327SOL    HW213881   6.102   6.763   2.588
 4328SOL     OW13882   5.526   5.116   0.343
 4328SOL    HW113883   5.589   5.106   0.419
 4328SOL    HW213884   5.497   5.211   0.336
 4329SOL     OW13885   3.861   1.676   5.551
 4329SOL    HW113886   3.789   1.606   5.550
 4329SOL    HW213887   3.851   1.732   5.634
 4330SOL     OW13888   1.298   0.387   6.128
 4330SOL    HW113889   1.321   0.482   6.153
 4330SOL    HW213890   1.334   0.325   6.197
 4331SOL     OW13891   5.872   3.094   6.734
 4331SOL    HW113892   5.926   3.145   6.667
 4331SOL    HW213893   5.900   2.999   6.735
 4332SOL     OW13894   5.146   2.793   1.359
 4332SOL    HW113895   5.113   2.709   1.402
 4332SOL    HW213896   5.243   2.806   1.382
 4333SOL     OW13897   5.358   0.565   4.953
 4333SOL    HW113898   5.274   0.619   4.966
 4333SOL    HW213899   5.375   0.552   4.855
 4334SOL     OW13900   4.424   1.479   2.263
 4334SOL    HW113901   4.462   1.559   2.217
 4334SOL    HW213902   4.498   1.429   2.310
 4335SOL     OW13903   3.530   3.916   5.036
 4335SOL    HW113904   3.463   3.852   5.073
 4335SOL    HW213905   3.514   3.929   4.939
 4336SOL     OW13906   1.223   6.303   4.502
 4336SOL    HW113907   1.278   6.354   4.568
 4336SOL    HW213908   1.260   6.318   4.410
 4337SOL     OW13909   6.986   5.712   0.777
 4337SOL    HW113910   6.976   5.629   0.722
 4337SOL    HW213911   0.055   5.746   0.769
 4338SOL     OW13912   6.511   6.315   4.139
 4338SOL    HW113913   6.472   6.395   4.185
 4338SOL    HW213914   6.436   6.257   4.105
 4339SOL     OW13915   6.100   1.200   6.023
 4339SOL    HW113916   6.192   1.217   6.059
 4339SOL    HW213917   6.034   1.207   6.097
 4340SOL     OW13918   5.115   3.585   1.733
 4340SOL    HW113919   5.188   3.645   1.701
 4340SOL    HW213920   5.031   3.604   1.682
 4341SOL     OW13921   1.386   4.423   0.806
 4341SOL    HW113922   1.359   4.519   0.805
 4341SOL    HW213923   1.475   4.414   0.850
 4342SOL     OW13924   0.970   3.323   2.992
 4342SOL    HW113925   1.030   3.246   2.973
 4342SOL    HW213926   0.914   3.303   3.073
 4343SOL     OW13927   2.353   1.130   1.438
 4343SOL    HW113928   2.281   1.085   1.490
 4343SOL    HW213929   2.353   1.095   1.344
 4344SOL     OW13930   1.820   5.215   3.122
 4344SOL    HW113931   1.762   5.135   3.108
 4344SOL    HW213932   1.847   5.252   3.033
 4345SOL     OW13933   1.449   1.976   6.128
 4345SOL    HW113934   1.466   1.889   6.080
 4345SOL    HW213935   1.494   2.050   6.078
 4346SOL     OW13936   1.956   3.387   1.993
 4346SOL    HW113937   2.050   3.420   2.005
 4346SOL    HW213938   1.894   3.448   2.042
 4347SOL     OW13939   5.828   6.456   3.032
 4347SOL    HW113940   5.865   6.506   3.110
 4347SOL    HW213941   5.764   6.387   3.063
 4348SOL     OW13942   1.740   4.024   6.458
 4348SOL    HW113943   1.721   3.936   6.414
 4348SOL    HW213944   1.775   4.009   6.550
 4349SOL     OW13945   6.932   0.636   3.721
 4349SOL    HW113946   7.008   0.692   3.755
 4349SOL    HW213947   6.913   0.661   3.626
 4350SOL     OW13948   5.030   2.048   3.816
 4350SOL    HW113949   5.117   2.014   3.851
 4350SOL    HW213950   5.005   1.997   3.734
 4351SOL     OW13951   2.651   5.966   1.869
 4351SOL    HW113952   2.588   5.946   1.794
 4351SOL    HW213953   2.694   6.055   1.854
 4352SOL     OW13954   6.099   1.251   2.086
 4352SOL    HW113955   6.052   1.174   2.128
 4352SOL    HW213956   6.196   1.247   2.110
 4353SOL     OW13957   3.756   5.652   6.244
 4353SOL    HW113958   3.662   5.619   6.256
 4353SOL    HW213959   3.806   5.639   6.330
 4354SOL     OW13960   2.215   0.580   0.840
 4354SOL    HW113961   2.199   0.617   0.749
 4354SOL    HW213962   2.252   0.488   0.833
 4355SOL     OW13963   5.038   0.866   0.531
 4355SOL    HW113964   5.121   0.918   0.511
 4355SOL    HW213965   4.960   0.912   0.489
 4356SOL     OW13966   4.037   4.455   0.757
 4356SOL    HW113967   4.064   4.545   0.792
 4356SOL    HW213968   4.032   4.390   0.833
 4357SOL     OW13969   6.145   0.293   0.086
 4357SOL    HW113970   6.212   0.368   0.090
 4357SOL    HW213971   6.069   0.313   0.147
 4358SOL     OW13972   0.771   6.941   1.835
 4358SOL    HW113973   0.748   6.925   1.931
 4358SOL    HW213974   0.866   6.973   1.829
 4359SOL     OW13975   6.476   2.654   3.816
 4359SOL    HW113976   6.395   2.712   3.813
 4359SOL    HW213977   6.558   2.710   3.821
 4360SOL     OW13978   1.511   3.400   1.359
 4360SOL    HW113979   1.524   3.303   1.336
 4360SOL    HW213980   1.414   3.416   1.377
 4361SOL     OW13981   4.961   2.138   1.868
 4361SOL    HW113982   4.957   2.039   1.883
 4361SOL    HW213983   5.056   2.167   1.862
 4362SOL     OW13984   6.157   4.318   4.340
 4362SOL    HW113985   6.164   4.220   4.320
 4362SOL    HW213986   6.169   4.370   4.255
 4363SOL     OW13987   5.229   2.279   6.113
 4363SOL    HW113988   5.317   2.305   6.154
 4363SOL    HW213989   5.243   2.198   6.055
 4364SOL     OW13990   3.253   3.786   4.677
 4364SOL    HW113991   3.225   3.873   4.718
 4364SOL    HW213992   3.176   3.745   4.628
 4365SOL     OW13993   3.387   1.387   2.104
 4365SOL    HW113994   3.320   1.440   2.157
 4365SOL    HW213995   3.401   1.429   2.015
 4366SOL     OW13996   5.762   5.523   0.921
 4366SOL    HW113997   5.725   5.445   0.870
 4366SOL    HW213998   5.755   5.505   1.019
 4367SOL     OW13999   1.564   6.246   6.335
 4367SOL    HW114000   1.617   6.222   6.254
 4367SOL    HW214001   1.621   6.236   6.416
 4368SOL     OW14002   5.615   3.869   1.937
 4368SOL    HW114003   5.635   3.967   1.942
 4368SOL    HW214004   5.516   3.855   1.950
 4369SOL     OW14005   4.288   5.807   2.094
 4369SOL    HW114006   4.198   5.765   2.104
 4369SOL    HW214007   4.344   5.751   2.033
 4370SOL     OW14008   5.854   4.575   3.416
 4370SOL    HW114009   5.836   4.671   3.395
 4370SOL    HW214010   5.913   4.535   3.346
 4371SOL     OW14011   6.383   2.131   1.814
 4371SOL    HW114012   6.322   2.097   1.886
 4371SOL    HW214013   6.349   2.101   1.724
 4372SOL     OW14014   4.432   1.232   3.241
 4372SOL    HW114015   4.425   1.140   3.280
 4372SOL    HW214016   4.449   1.224   3.142
 4373SOL     OW14017   6.834   1.971   6.285
 4373SOL    HW114018   6.825   1.945   6.381
 4373SOL    HW214019   6.761   2.035   6.262
 4374SOL     OW14020   2.225   2.415   1.596
 4374SOL    HW114021   2.184   2.446   1.681
 4374SOL    HW214022   2.322   2.440   1.593
 4375SOL     OW14023   2.750   6.575   4.569
 4375SOL    HW114024   2.770   6.584   4.471
 4375SOL    HW214025   2.655   6.600   4.586
 4376SOL     OW14026   5.693   1.414   3.340
 4376SOL    HW114027   5.718   1.377   3.250
 4376SOL    HW214028   5.768   1.469   3.375
 4377SOL     OW14029   5.549   4.437   6.435
 4377SOL    HW114030   5.450   4.447   6.424
 4377SOL    HW214031   5.568   4.409   6.529
 4378SOL     OW14032   1.936   0.467   3.919
 4378SOL    HW114033   1.871   0.502   3.986
 4378SOL    HW214034   1.991   0.542   3.883
 4379SOL     OW14035   2.558   2.294   5.187
 4379SOL    HW114036   2.641   2.260   5.144
 4379SOL    HW214037   2.548   2.392   5.169
 4380SOL     OW14038   0.272   1.227   1.809
 4380SOL    HW114039   0.257   1.272   1.897
 4380SOL    HW214040   0.371   1.217   1.794
 4381SOL     OW14041   2.216   6.196   6.166
 4381SOL    HW114042   2.239   6.213   6.070
 4381SOL    HW214043   2.296   6.161   6.215
 4382SOL     OW14044   0.174   3.154   5.163
 4382SOL    HW114045   0.248   3.133   5.228
 4382SOL    HW214046   0.089   3.114   5.195
 4383SOL     OW14047   6.147   2.847   0.015
 4383SOL    HW114048   6.152   2.802   0.104
 4383SOL    HW214049   6.230   2.900   7.025
 4384SOL     OW14050   5.888   6.710   4.090
 4384SOL    HW114051   5.845   6.621   4.108
 4384SOL    HW214052   5.983   6.696   4.063
 4385SOL     OW14053   5.375   1.102   4.975
 4385SOL    HW114054   5.371   1.013   4.930
 4385SOL    HW214055   5.293   1.155   4.953
 4386SOL     OW14056   1.162   3.389   5.333
 4386SOL    HW114057   1.109   3.469   5.362
 4386SOL    HW214058   1.260   3.412   5.332
 4387SOL     OW14059   6.513   2.020   0.411
 4387SOL    HW114060   6.446   2.052   0.478
 4387SOL    HW214061   6.488   1.928   0.380
 4388SOL     OW14062   5.718   2.519   6.646
 4388SOL    HW114063   5.651   2.538   6.573
 4388SOL    HW214064   5.740   2.603   6.694
 4389SOL     OW14065   0.898   3.681   1.547
 4389SOL    HW114066   0.839   3.629   1.609
 4389SOL    HW214067   0.993   3.676   1.579
 4390SOL     OW14068   6.424   0.992   1.769
 4390SOL    HW114069   6.475   0.907   1.771
 4390SOL    HW214070   6.327   0.973   1.785
 4391SOL     OW14071   2.135   6.297   0.224
 4391SOL    HW114072   2.160   6.370   0.160
 4391SOL    HW214073   2.112   6.214   0.172
 4392SOL     OW14074   1.809   2.389   4.835
 4392SOL    HW114075   1.876   2.366   4.905
 4392SOL    HW214076   1.742   2.453   4.873
 4393SOL     OW14077   4.869   1.152   1.933
 4393SOL    HW114078   4.963   1.159   1.964
 4393SOL    HW214079   4.836   1.058   1.947
 4394SOL     OW14080   0.939   0.506   1.808
 4394SOL    HW114081   0.880   0.433   1.842
 4394SOL    HW214082   0.925   0.518   1.710
 4395SOL     OW14083   2.662   5.434   0.905
 4395SOL    HW114084   2.709   5.454   0.992
 4395SOL    HW214085   2.597   5.360   0.919
 4396SOL     OW14086   2.779   0.166   3.180
 4396SOL    HW114087   2.758   0.123   3.267
 4396SOL    HW214088   2.852   0.115   3.134
 4397SOL     OW14089   3.122   1.917   4.440
 4397SOL    HW114090   3.214   1.878   4.444
 4397SOL    HW214091   3.084   1.903   4.348
 4398SOL     OW14092   2.019   2.872   5.089
 4398SOL    HW114093   2.067   2.823   5.016
 4398SOL    HW214094   2.084   2.902   5.158
 4399SOL     OW14095   2.896   0.009   2.495
 4399SOL    HW114096   2.900   7.012   2.397
 4399SOL    HW214097   2.851   0.097   2.508
 4400SOL     OW14098   1.740   5.517   4.588
 4400SOL    HW114099   1.827   5.490   4.547
 4400SOL    HW214100   1.756   5.581   4.663
 4401SOL     OW14101   4.027   0.347   6.378
 4401SOL    HW114102   3.963   0.285   6.424
 4401SOL    HW214103   4.004   0.442   6.402
 4402SOL     OW14104   1.183   0.401   3.412
 4402SOL    HW114105   1.112   0.351   3.461
 4402SOL    HW214106   1.223   0.469   3.473
 4403SOL     OW14107   1.710   4.993   1.227
 4403SOL    HW114108   1.752   5.081   1.249
 4403SOL    HW214109   1.685   4.945   1.311
 4404SOL     OW14110   0.679   6.638   6.197
 4404SOL    HW114111   0.625   6.560   6.165
 4404SOL    HW214112   0.772   6.631   6.162
 4405SOL     OW14113   1.783   5.450   3.247
 4405SOL    HW114114   1.694   5.486   3.220
 4405SOL    HW214115   1.803   5.367   3.195
 4406SOL     OW14116   6.648   3.879   1.918
 4406SOL    HW114117   6.548   3.891   1.915
 4406SOL    HW214118   6.692   3.959   1.879
 4407SOL     OW14119   5.784   6.334   1.967
 4407SOL    HW114120   5.825   6.292   1.887
 4407SOL    HW214121   5.758   6.429   1.946
 4408SOL     OW14122   4.202   0.950   0.313
 4408SOL    HW114123   4.182   0.984   0.221
 4408SOL    HW214124   4.181   0.852   0.317
 4409SOL     OW14125   2.896   0.431   3.139
 4409SOL    HW114126   2.849   0.519   3.150
 4409SOL    HW214127   2.834   0.366   3.093
 4410SOL     OW14128   1.542   6.609   1.238
 4410SOL    HW114129   1.512   6.559   1.319
 4410SOL    HW214130   1.465   6.618   1.174
 4411SOL     OW14131   3.429   4.552   5.364
 4411SOL    HW114132   3.464   4.465   5.331
 4411SOL    HW214133   3.329   4.551   5.360
 4412SOL     OW14134   4.742   6.313   2.807
 4412SOL    HW114135   4.695   6.361   2.881
 4412SOL    HW214136   4.762   6.220   2.834
 4413SOL     OW14137   4.441   6.115   4.207
 4413SOL    HW114138   4.400   6.136   4.119
 4413SOL    HW214139   4.537   6.089   4.195
 4414SOL     OW14140   4.521   4.025   1.382
 4414SOL    HW114141   4.568   4.110   1.360
 4414SOL    HW214142   4.505   4.021   1.481
 4415SOL     OW14143   2.547   3.250   1.359
 4415SOL    HW114144   2.598   3.325   1.402
 4415SOL    HW214145   2.493   3.286   1.283
 4416SOL     OW14146   4.049   2.135   3.270
 4416SOL    HW114147   4.095   2.207   3.322
 4416SOL    HW214148   3.950   2.144   3.280
 4417SOL     OW14149   0.320   4.195   3.443
 4417SOL    HW114150   0.253   4.122   3.451
 4417SOL    HW214151   0.283   4.268   3.385
 4418SOL     OW14152   6.482   6.778   6.193
 4418SOL    HW114153   6.445   6.692   6.227
 4418SOL    HW214154   6.578   6.786   6.222
 4419SOL     OW14155   6.218   5.590   6.587
 4419SOL    HW114156   6.284   5.640   6.643
 4419SOL    HW214157   6.149   5.549   6.646
 4420SOL     OW14158   3.663   2.018   0.841
 4420SOL    HW114159   3.599   2.093   0.859
 4420SOL    HW214160   3.747   2.032   0.894
 4421SOL     OW14161   1.386   2.290   5.862
 4421SOL    HW114162   1.291   2.284   5.831
 4421SOL    HW214163   1.388   2.333   5.953
 4422SOL     OW14164   6.759   4.143   6.514
 4422SOL    HW114165   6.835   4.156   6.450
 4422SOL    HW214166   6.703   4.066   6.484
 4423SOL     OW14167   5.228   3.928   4.731
 4423SOL    HW114168   5.214   3.830   4.747
 4423SOL    HW214169   5.222   3.977   4.818
 4424SOL     OW14170   5.096   5.930   3.440
 4424SOL    HW114171   5.059   5.844   3.476
 4424SOL    HW214172   5.191   5.941   3.470
 4425SOL     OW14173   1.803   5.239   1.334
 4425SOL    HW114174   1.869   5.223   1.261
 4425SOL    HW214175   1.841   5.207   1.421
 4426SOL     OW14176   0.564   0.523   4.791
 4426SOL    HW114177   0.524   0.443   4.834
 4426SOL    HW214178   0.589   0.590   4.861
 4427SOL     OW14179   2.605   6.329   2.815
 4427SOL    HW114180   2.546   6.391   2.764
 4427SOL    HW214181   2.677   6.381   2.860
 4428SOL     OW14182   5.504   0.013   3.025
 4428SOL    HW114183   5.527   0.075   3.100
 4428SOL    HW214184   5.413   7.001   3.039
 4429SOL     OW14185   2.508   5.788   3.314
 4429SOL    HW114186   2.496   5.847   3.394
 4429SOL    HW214187   2.587   5.820   3.261
 4430SOL     OW14188   4.836   4.173   5.452
 4430SOL    HW114189   4.843   4.241   5.378
 4430SOL    HW214190   4.868   4.084   5.419
 4431SOL     OW14191   3.383   6.584   3.570
 4431SOL    HW114192   3.371   6.486   3.582
 4431SOL    HW214193   3.411   6.603   3.476
 4432SOL     OW14194   0.914   3.724   5.978
 4432SOL    HW114195   0.888   3.636   5.939
 4432SOL    HW214196   0.961   3.709   6.065
 4433SOL     OW14197   0.209   0.605   5.719
 4433SOL    HW114198   0.174   0.576   5.808
 4433SOL    HW214199   0.201   0.704   5.710
 4434SOL     OW14200   0.124   0.262   2.521
 4434SOL    HW114201   0.040   0.288   2.475
 4434SOL    HW214202   0.104   0.199   2.596
 4435SOL     OW14203   2.289   3.675   0.346
 4435SOL    HW114204   2.249   3.585   0.365
 4435SOL    HW214205   2.388   3.665   0.330
 4436SOL     OW14206   4.060   1.717   1.892
 4436SOL    HW114207   4.064   1.617   1.885
 4436SOL    HW214208   3.970   1.744   1.925
 4437SOL     OW14209   6.971   4.210   0.662
 4437SOL    HW114210   6.910   4.132   0.651
 4437SOL    HW214211   0.038   4.178   0.687
 4438SOL     OW14212   3.843   0.777   5.679
 4438SOL    HW114213   3.881   0.784   5.587
 4438SOL    HW214214   3.770   0.710   5.681
 4439SOL     OW14215   2.552   6.654   2.672
 4439SOL    HW114216   2.453   6.668   2.672
 4439SOL    HW214217   2.599   6.742   2.674
 4440SOL     OW14218   1.706   5.116   0.335
 4440SOL    HW114219   1.739   5.080   0.248
 4440SOL    HW214220   1.608   5.098   0.344
 4441SOL     OW14221   0.143   1.278   0.681
 4441SOL    HW114222   0.181   1.240   0.765
 4441SOL    HW214223   0.216   1.321   0.628
 4442SOL     OW14224   1.890   4.632   6.601
 4442SOL    HW114225   1.882   4.538   6.632
 4442SOL    HW214226   1.799   4.669   6.584
 4443SOL     OW14227   0.940   5.508   5.936
 4443SOL    HW114228   1.033   5.476   5.918
 4443SOL    HW214229   0.903   5.552   5.855
 4444SOL     OW14230   5.378   4.715   0.209
 4444SOL    HW114231   5.394   4.732   0.306
 4444SOL    HW214232   5.353   4.801   0.164
 4445SOL     OW14233   6.985   5.565   0.104
 4445SOL    HW114234   6.955   5.525   0.018
 4445SOL    HW214235   6.908   5.609   0.150
 4446SOL     OW14236   5.081   1.000   0.939
 4446SOL    HW114237   5.060   0.921   0.997
 4446SOL    HW214238   5.114   1.075   0.996
 4447SOL     OW14239   4.722   5.448   5.572
 4447SOL    HW114240   4.704   5.462   5.475
 4447SOL    HW214241   4.683   5.361   5.601
 4448SOL     OW14242   3.680   6.312   2.207
 4448SOL    HW114243   3.738   6.267   2.139
 4448SOL    HW214244   3.736   6.367   2.269
 4449SOL     OW14245   3.468   0.991   5.504
 4449SOL    HW114246   3.482   0.928   5.580
 4449SOL    HW214247   3.400   0.953   5.441
 4450SOL     OW14248   3.701   6.811   0.213
 4450SOL    HW114249   3.749   6.795   0.299
 4450SOL    HW214250   3.636   6.886   0.225
 4451SOL     OW14251   5.370   4.400   2.863
 4451SOL    HW114252   5.350   4.496   2.884
 4451SOL    HW214253   5.337   4.379   2.771
 4452SOL     OW14254   4.455   6.140   4.620
 4452SOL    HW114255   4.364   6.167   4.586
 4452SOL    HW214256   4.497   6.217   4.667
 4453SOL     OW14257   6.766   4.003   0.694
 4453SOL    HW114258   6.699   3.942   0.737
 4453SOL    HW214259   6.727   4.041   0.610
 4454SOL     OW14260   1.286   2.302   6.756
 4454SOL    HW114261   1.188   2.302   6.778
 4454SOL    HW214262   1.314   2.209   6.730
 4455SOL     OW14263   0.845   6.790   5.628
 4455SOL    HW114264   0.824   6.705   5.579
 4455SOL    HW214265   0.776   6.806   5.698
 4456SOL     OW14266   2.096   0.425   5.065
 4456SOL    HW114267   2.195   0.431   5.053
 4456SOL    HW214268   2.061   0.515   5.090
 4457SOL     OW14269   1.516   2.046   4.756
 4457SOL    HW114270   1.609   2.051   4.719
 4457SOL    HW214271   1.451   2.075   4.686
 4458SOL     OW14272   1.929   3.898   6.679
 4458SOL    HW114273   2.002   3.902   6.748
 4458SOL    HW214274   1.850   3.850   6.717
 4459SOL     OW14275   1.145   3.121   2.887
 4459SOL    HW114276   1.210   3.195   2.867
 4459SOL    HW214277   1.193   3.033   2.885
 4460SOL     OW14278   7.015   2.885   4.271
 4460SOL    HW114279   7.012   2.894   4.371
 4460SOL    HW214280   0.078   2.919   4.237
 4461SOL     OW14281   2.713   0.922   1.280
 4461SOL    HW114282   2.692   1.002   1.224
 4461SOL    HW214283   2.644   0.851   1.265
 4462SOL     OW14284   6.413   4.712   3.401
 4462SOL    HW114285   6.316   4.732   3.388
 4462SOL    HW214286   6.425   4.651   3.480
 4463SOL     OW14287   6.183   1.627   0.338
 4463SOL    HW114288   6.097   1.576   0.336
 4463SOL    HW214289   6.240   1.595   0.413
 4464SOL     OW14290   0.348   5.468   0.738
 4464SOL    HW114291   0.281   5.510   0.678
 4464SOL    HW214292   0.411   5.412   0.684
 4465SOL     OW14293   3.142   5.754   1.285
 4465SOL    HW114294   3.148   5.682   1.355
 4465SOL    HW214295   3.048   5.788   1.281
 4466SOL     OW14296   1.620   2.463   3.388
 4466SOL    HW114297   1.552   2.431   3.322
 4466SOL    HW214298   1.712   2.445   3.352
 4467SOL     OW14299   4.393   6.167   3.289
 4467SOL    HW114300   4.450   6.114   3.228
 4467SOL    HW214301   4.433   6.258   3.303
 4468SOL     OW14302   1.692   2.915   1.379
 4468SOL    HW114303   1.622   2.963   1.432
 4468SOL    HW214304   1.771   2.896   1.437
 4469SOL     OW14305   3.146   6.177   1.353
 4469SOL    HW114306   3.103   6.248   1.409
 4469SOL    HW214307   3.101   6.173   1.264
 4470SOL     OW14308   2.079   6.576   2.943
 4470SOL    HW114309   2.117   6.489   2.911
 4470SOL    HW214310   1.990   6.591   2.900
 4471SOL     OW14311   1.143   1.154   6.323
 4471SOL    HW114312   1.119   1.064   6.359
 4471SOL    HW214313   1.102   1.165   6.232
 4472SOL     OW14314   1.560   2.749   1.211
 4472SOL    HW114315   1.625   2.674   1.220
 4472SOL    HW214316   1.590   2.825   1.269
 4473SOL     OW14317   0.570   2.863   4.177
 4473SOL    HW114318   0.592   2.958   4.153
 4473SOL    HW214319   0.637   2.829   4.243
 4474SOL     OW14320   3.040   5.862   0.836
 4474SOL    HW114321   2.942   5.856   0.856
 4474SOL    HW214322   3.060   5.814   0.751
 4475SOL     OW14323   1.143   4.030   1.359
 4475SOL    HW114324   1.136   3.968   1.437
 4475SOL    HW214325   1.161   4.123   1.391
 4476SOL     OW14326   4.998   1.612   4.076
 4476SOL    HW114327   4.982   1.538   4.010
 4476SOL    HW214328   5.013   1.573   4.167
 4477SOL     OW14329   1.786   0.748   5.182
 4477SOL    HW114330   1.740   0.745   5.093
 4477SOL    HW214331   1.740   0.686   5.245
 4478SOL     OW14332   1.862   0.430   0.570
 4478SOL    HW114333   1.875   0.340   0.528
 4478SOL    HW214334   1.948   0.480   0.569
 4479SOL     OW14335   0.888   2.811   0.450
 4479SOL    HW114336   0.953   2.886   0.462
 4479SOL    HW214337   0.862   2.775   0.540
 4480SOL     OW14338   0.884   6.167   4.155
 4480SOL    HW114339   0.882   6.256   4.108
 4480SOL    HW214340   0.831   6.101   4.103
 4481SOL     OW14341   2.185   3.645   6.180
 4481SOL    HW114342   2.189   3.594   6.095
 4481SOL    HW214343   2.267   3.701   6.190
 4482SOL     OW14344   2.691   6.123   6.980
 4482SOL    HW114345   2.645   6.136   0.043
 4482SOL    HW214346   2.623   6.126   6.906
 4483SOL     OW14347   1.436   3.253   0.706
 4483SOL    HW114348   1.442   3.294   0.615
 4483SOL    HW214349   1.528   3.242   0.744
 4484SOL     OW14350   2.510   2.169   0.323
 4484SOL    HW114351   2.548   2.097   0.264
 4484SOL    HW214352   2.529   2.258   0.282
 4485SOL     OW14353   5.855   2.235   5.324
 4485SOL    HW114354   5.809   2.228   5.235
 4485SOL    HW214355   5.794   2.282   5.389
 4486SOL     OW14356   4.365   5.069   5.199
 4486SOL    HW114357   4.266   5.063   5.207
 4486SOL    HW214358   4.397   5.002   5.131
 4487SOL     OW14359   0.824   2.852   0.129
 4487SOL    HW114360   0.913   2.815   0.157
 4487SOL    HW214361   0.774   2.883   0.210
 4488SOL     OW14362   6.931   4.003   3.933
 4488SOL    HW114363   0.001   3.977   3.920
 4488SOL    HW214364   6.909   4.002   4.031
 4489SOL     OW14365   4.532   5.701   5.464
 4489SOL    HW114366   4.628   5.722   5.450
 4489SOL    HW214367   4.509   5.716   5.561
 4490SOL     OW14368   4.982   1.795   1.492
 4490SOL    HW114369   5.037   1.834   1.418
 4490SOL    HW214370   4.893   1.767   1.456
 4491SOL     OW14371   1.221   3.327   3.713
 4491SOL    HW114372   1.264   3.245   3.673
 4491SOL    HW214373   1.292   3.387   3.750
 4492SOL     OW14374   6.317   0.354   2.176
 4492SOL    HW114375   6.378   0.319   2.105
 4492SOL    HW214376   6.275   0.439   2.145
 4493SOL     OW14377   5.284   1.920   4.648
 4493SOL    HW114378   5.281   1.848   4.578
 4493SOL    HW214379   5.378   1.934   4.678
 4494SOL     OW14380   1.354   0.491   0.768
 4494SOL    HW114381   1.449   0.484   0.737
 4494SOL    HW214382   1.342   0.576   0.820
 4495SOL     OW14383   4.653   5.580   1.679
 4495SOL    HW114384   4.607   5.668   1.684
 4495SOL    HW214385   4.618   5.529   1.600
 4496SOL     OW14386   3.734   6.196   6.676
 4496SOL    HW114387   3.760   6.279   6.725
 4496SOL    HW214388   3.635   6.192   6.668
 4497SOL     OW14389   4.649   1.286   6.417
 4497SOL    HW114390   4.613   1.358   6.357
 4497SOL    HW214391   4.742   1.262   6.387
 4498SOL     OW14392   0.529   5.422   5.027
 4498SOL    HW114393   0.495   5.508   5.063
 4498SOL    HW214394   0.532   5.353   5.100
 4499SOL     OW14395   6.014   2.158   2.693
 4499SOL    HW114396   5.995   2.190   2.600
 4499SOL    HW214397   6.100   2.108   2.694
 4500SOL     OW14398   3.735   5.464   6.881
 4500SOL    HW114399   3.811   5.511   6.837
 4500SOL    HW214400   3.756   5.367   6.890
 4501SOL     OW14401   5.875   0.656   2.828
 4501SOL    HW114402   5.898   0.619   2.739
 4501SOL    HW214403   5.778   0.641   2.847
 4502SOL     OW14404   7.009   4.014   6.382
 4502SOL    HW114405   0.027   4.097   6.346
 4502SOL    HW214406   0.032   3.933   6.346
 4503SOL     OW14407   3.004   1.079   2.911
 4503SOL    HW114408   2.997   1.083   3.011
 4503SOL    HW214409   3.076   1.016   2.885
 4504SOL     OW14410   6.885   1.353   2.624
 4504SOL    HW114411   6.930   1.268   2.653
 4504SOL    HW214412   6.818   1.381   2.694
 4505SOL     OW14413   5.579   4.839   4.337
 4505SOL    HW114414   5.554   4.935   4.344
 4505SOL    HW214415   5.603   4.804   4.428
 4506SOL     OW14416   4.993   2.530   5.302
 4506SOL    HW114417   4.960   2.596   5.369
 4506SOL    HW214418   5.088   2.507   5.320
 4507SOL     OW14419   6.286   2.892   3.268
 4507SOL    HW114420   6.317   2.892   3.363
 4507SOL    HW214421   6.190   2.917   3.264
 4508SOL     OW14422   0.526   5.900   1.072
 4508SOL    HW114423   0.582   5.824   1.040
 4508SOL    HW214424   0.575   5.986   1.059
 4509SOL     OW14425   4.800   2.748   1.868
 4509SOL    HW114426   4.759   2.836   1.893
 4509SOL    HW214427   4.770   2.678   1.934
 4510SOL     OW14428   4.418   1.012   3.928
 4510SOL    HW114429   4.486   1.079   3.897
 4510SOL    HW214430   4.439   0.984   4.022
 4511SOL     OW14431   0.476   4.129   0.563
 4511SOL    HW114432   0.516   4.084   0.484
 4511SOL    HW214433   0.457   4.225   0.541
 4512SOL     OW14434   3.159   3.277   5.460
 4512SOL    HW114435   3.121   3.210   5.523
 4512SOL    HW214436   3.143   3.248   5.366
 4513SOL     OW14437   1.344   6.479   1.084
 4513SOL    HW114438   1.248   6.481   1.109
 4513SOL    HW214439   1.361   6.405   1.019
 4514SOL     OW14440   3.377   4.508   6.577
 4514SOL    HW114441   3.320   4.427   6.563
 4514SOL    HW214442   3.415   4.506   6.670
 4515SOL     OW14443   4.648   0.824   6.313
 4515SOL    HW114444   4.716   0.855   6.247
 4515SOL    HW214445   4.687   0.753   6.371
 4516SOL     OW14446   3.703   1.572   5.281
 4516SOL    HW114447   3.685   1.569   5.380
 4516SOL    HW214448   3.618   1.561   5.231
 4517SOL     OW14449   3.848   0.941   5.381
 4517SOL    HW114450   3.861   0.983   5.292
 4517SOL    HW214451   3.769   0.982   5.427
 4518SOL     OW14452   0.763   6.756   1.178
 4518SOL    HW114453   0.823   6.836   1.180
 4518SOL    HW214454   0.688   6.768   1.243
 4519SOL     OW14455   4.631   6.667   6.555
 4519SOL    HW114456   4.644   6.711   6.466
 4519SOL    HW214457   4.541   6.691   6.591
 4520SOL     OW14458   3.820   5.415   5.421
 4520SOL    HW114459   3.776   5.498   5.388
 4520SOL    HW214460   3.917   5.417   5.398
 4521SOL     OW14461   4.197   2.183   4.251
 4521SOL    HW114462   4.198   2.230   4.162
 4521SOL    HW214463   4.263   2.108   4.249
 4522SOL     OW14464   5.561   4.082   3.348
 4522SOL    HW114465   5.533   4.070   3.443
 4522SOL    HW214466   5.610   4.169   3.338
 4523SOL     OW14467   0.324   3.305   5.864
 4523SOL    HW114468   0.281   3.341   5.781
 4523SOL    HW214469   0.408   3.257   5.840
 4524SOL     OW14470   1.310   4.052   2.789
 4524SOL    HW114471   1.257   4.027   2.869
 4524SOL    HW214472   1.403   4.078   2.816
 4525SOL     OW14473   3.524   2.330   5.542
 4525SOL    HW114474   3.484   2.370   5.460
 4525SOL    HW214475   3.456   2.272   5.588
 4526SOL     OW14476   1.118   6.846   5.682
 4526SOL    HW114477   1.024   6.844   5.649
 4526SOL    HW214478   1.158   6.936   5.664
 4527SOL     OW14479   6.664   0.874   2.756
 4527SOL    HW114480   6.686   0.855   2.661
 4527SOL    HW214481   6.731   0.831   2.816
 4528SOL     OW14482   4.703   1.201   5.210
 4528SOL    HW114483   4.772   1.133   5.186
 4528SOL    HW214484   4.634   1.205   5.137
 4529SOL     OW14485   2.283   0.786   3.969
 4529SOL    HW114486   2.300   0.750   4.061
 4529SOL    HW214487   2.299   0.885   3.969
 4530SOL     OW14488   3.494   5.806   6.527
 4530SOL    HW114489   3.515   5.803   6.429
 4530SOL    HW214490   3.424   5.875   6.544
 4531SOL     OW14491   1.222   5.434   5.939
 4531SOL    HW114492   1.217   5.344   5.982
 4531SOL    HW214493   1.298   5.486   5.979
 4532SOL     OW14494   5.619   0.585   2.921
 4532SOL    HW114495   5.579   0.494   2.912
 4532SOL    HW214496   5.553   0.646   2.964
 4533SOL     OW14497   2.959   0.435   1.285
 4533SOL    HW114498   2.883   0.402   1.229
 4533SOL    HW214499   2.989   0.524   1.250
 4534SOL     OW14500   4.298   0.560   3.727
 4534SOL    HW114501   4.328   0.655   3.734
 4534SOL    HW214502   4.299   0.518   3.817
 4535SOL     OW14503   2.298   0.857   0.986
 4535SOL    HW114504   2.255   0.880   0.899
 4535SOL    HW214505   2.369   0.789   0.970
 4536SOL     OW14506   3.060   0.194   5.613
 4536SOL    HW114507   3.012   0.184   5.526
 4536SOL    HW214508   3.059   0.290   5.640
 4537SOL     OW14509   2.941   3.694   3.578
 4537SOL    HW114510   3.023   3.717   3.631
 4537SOL    HW214511   2.865   3.751   3.610
 4538SOL     OW14512   0.294   2.081   0.981
 4538SOL    HW114513   0.333   2.080   1.074
 4538SOL    HW214514   0.348   2.021   0.922
 4539SOL     OW14515   1.316   6.279   5.366
 4539SOL    HW114516   1.292   6.182   5.363
 4539SOL    HW214517   1.374   6.301   5.288
 4540SOL     OW14518   0.732   0.994   0.250
 4540SOL    HW114519   0.806   0.960   0.309
 4540SOL    HW214520   0.746   0.960   0.157
 4541SOL     OW14521   4.661   2.879   5.565
 4541SOL    HW114522   4.605   2.908   5.487
 4541SOL    HW214523   4.724   2.807   5.537
 4542SOL     OW14524   6.839   2.089   0.480
 4542SOL    HW114525   6.885   2.006   0.510
 4542SOL    HW214526   6.751   2.066   0.439
 4543SOL     OW14527   3.825   2.631   0.233
 4543SOL    HW114528   3.735   2.661   0.203
 4543SOL    HW214529   3.856   2.688   0.309
 4544SOL     OW14530   5.518   6.552   0.388
 4544SOL    HW114531   5.447   6.549   0.460
 4544SOL    HW214532   5.479   6.591   0.305
 4545SOL     OW14533   2.109   3.140   4.992
 4545SOL    HW114534   2.032   3.088   5.028
 4545SOL    HW214535   2.195   3.093   5.012
 4546SOL     OW14536   2.896   0.877   5.743
 4546SOL    HW114537   2.819   0.850   5.686
 4546SOL    HW214538   2.970   0.910   5.686
 4547SOL     OW14539   0.135   0.080   6.962
 4547SOL    HW114540   0.110   0.037   6.876
 4547SOL    HW214541   0.053   0.090   7.019
 4548SOL     OW14542   2.366   1.582   3.255
 4548SOL    HW114543   2.312   1.501   3.233
 4548SOL    HW214544   2.416   1.612   3.174
 4549SOL     OW14545   6.974   3.796   4.632
 4549SOL    HW114546   0.029   3.737   4.621
 4549SOL    HW214547   6.973   3.834   4.725
 4550SOL     OW14548   1.708   4.908   3.440
 4550SOL    HW114549   1.758   4.822   3.441
 4550SOL    HW214550   1.610   4.890   3.452
 4551SOL     OW14551   1.680   2.434   5.234
 4551SOL    HW114552   1.588   2.473   5.237
 4551SOL    HW214553   1.692   2.370   5.310
 4552SOL     OW14554   5.628   1.712   0.651
 4552SOL    HW114555   5.609   1.614   0.650
 4552SOL    HW214556   5.718   1.729   0.610
 4553SOL     OW14557   6.629   5.244   6.606
 4553SOL    HW114558   6.704   5.223   6.669
 4553SOL    HW214559   6.602   5.340   6.618
 4554SOL     OW14560   6.375   6.599   3.112
 4554SOL    HW114561   6.459   6.562   3.151
 4554SOL    HW214562   6.344   6.676   3.168
 4555SOL     OW14563   1.843   0.836   0.552
 4555SOL    HW114564   1.912   0.830   0.480
 4555SOL    HW214565   1.794   0.923   0.544
 4556SOL     OW14566   5.790   4.489   4.854
 4556SOL    HW114567   5.887   4.512   4.855
 4556SOL    HW214568   5.743   4.536   4.928
 4557SOL     OW14569   6.951   4.804   3.606
 4557SOL    HW114570   6.970   4.737   3.678
 4557SOL    HW214571   6.944   4.895   3.648
 4558SOL     OW14572   1.312   3.691   4.550
 4558SOL    HW114573   1.337   3.676   4.646
 4558SOL    HW214574   1.247   3.767   4.544
 4559SOL     OW14575   6.900   2.953   2.949
 4559SOL    HW114576   6.884   2.975   2.853
 4559SOL    HW214577   6.813   2.951   2.998
 4560SOL     OW14578   5.994   4.068   2.518
 4560SOL    HW114579   6.001   4.160   2.556
 4560SOL    HW214580   5.920   4.065   2.450
 4561SOL     OW14581   3.721   2.140   4.011
 4561SOL    HW114582   3.785   2.160   4.085
 4561SOL    HW214583   3.629   2.128   4.049
 4562SOL     OW14584   3.414   1.169   1.389
 4562SOL    HW114585   3.352   1.184   1.312
 4562SOL    HW214586   3.490   1.111   1.359
 4563SOL     OW14587   0.861   4.555   2.472
 4563SOL    HW114588   0.908   4.516   2.393
 4563SOL    HW214589   0.769   4.516   2.480
 4564SOL     OW14590   1.609   3.541   2.072
 4564SOL    HW114591   1.669   3.607   2.026
 4564SOL    HW214592   1.553   3.588   2.140
 4565SOL     OW14593   1.895   5.551   6.132
 4565SOL    HW114594   1.801   5.587   6.133
 4565SOL    HW214595   1.948   5.595   6.205
 4566SOL     OW14596   6.130   4.655   2.826
 4566SOL    HW114597   6.215   4.601   2.828
 4566SOL    HW214598   6.146   4.743   2.870
 4567SOL     OW14599   0.058   0.489   6.745
 4567SOL    HW114600   0.092   0.395   6.746
 4567SOL    HW214601   0.104   0.542   6.816
 4568SOL     OW14602   1.424   4.980   2.816
 4568SOL    HW114603   1.442   5.074   2.787
 4568SOL    HW214604   1.492   4.919   2.775
 4569SOL     OW14605   2.164   0.865   3.326
 4569SOL    HW114606   2.162   0.768   3.302
 4569SOL    HW214607   2.107   0.917   3.263
 4570SOL     OW14608   5.285   6.417   1.900
 4570SOL    HW114609   5.344   6.360   1.958
 4570SOL    HW214610   5.339   6.454   1.825
 4571SOL     OW14611   3.012   3.178   6.927
 4571SOL    HW114612   3.003   3.206   6.832
 4571SOL    HW214613   2.982   3.083   6.937
 4572SOL     OW14614   2.883   3.478   2.053
 4572SOL    HW114615   2.834   3.544   1.996
 4572SOL    HW214616   2.848   3.387   2.036
 4573SOL     OW14617   2.845   5.780   1.649
 4573SOL    HW114618   2.758   5.808   1.689
 4573SOL    HW214619   2.887   5.859   1.603
 4574SOL     OW14620   4.712   1.290   1.485
 4574SOL    HW114621   4.664   1.342   1.414
 4574SOL    HW214622   4.647   1.261   1.555
 4575SOL     OW14623   0.526   0.061   5.797
 4575SOL    HW114624   0.461   0.042   5.724
 4575SOL    HW214625   0.479   0.109   5.871
 4576SOL     OW14626   2.546   4.770   5.401
 4576SOL    HW114627   2.600   4.796   5.322
 4576SOL    HW214628   2.525   4.672   5.397
 4577SOL     OW14629   0.818   1.962   2.278
 4577SOL    HW114630   0.869   1.901   2.339
 4577SOL    HW214631   0.742   1.911   2.237
 4578SOL     OW14632   1.870   1.982   2.530
 4578SOL    HW114633   1.888   2.076   2.559
 4578SOL    HW214634   1.919   1.963   2.446
 4579SOL     OW14635   4.930   0.775   3.297
 4579SOL    HW114636   4.897   0.714   3.225
 4579SOL    HW214637   4.856   0.837   3.325
 4580SOL     OW14638   0.321   2.337   0.867
 4580SOL    HW114639   0.291   2.247   0.899
 4580SOL    HW214640   0.284   2.408   0.927
 4581SOL     OW14641   3.284   0.808   0.767
 4581SOL    HW114642   3.264   0.803   0.864
 4581SOL    HW214643   3.198   0.802   0.715
 4582SOL     OW14644   5.600   1.421   3.649
 4582SOL    HW114645   5.628   1.462   3.563
 4582SOL    HW214646   5.520   1.470   3.685
 4583SOL     OW14647   1.357   0.470   6.874
 4583SOL    HW114648   1.374   0.426   6.962
 4583SOL    HW214649   1.394   0.563   6.876
 4584SOL     OW14650   0.998   0.923   4.558
 4584SOL    HW114651   0.955   0.845   4.513
 4584SOL    HW214652   1.046   0.979   4.491
 4585SOL     OW14653   2.129   3.486   3.860
 4585SOL    HW114654   2.038   3.463   3.896
 4585SOL    HW214655   2.191   3.409   3.875
 4586SOL     OW14656   5.876   4.952   6.672
 4586SOL    HW114657   5.796   4.902   6.706
 4586SOL    HW214658   5.877   4.949   6.572
 4587SOL     OW14659   3.092   3.055   4.821
 4587SOL    HW114660   3.181   3.032   4.860
 4587SOL    HW214661   3.023   3.058   4.893
 4588SOL     OW14662   3.194   3.665   6.150
 4588SOL    HW114663   3.226   3.571   6.145
 4588SOL    HW214664   3.113   3.669   6.209
 4589SOL     OW14665   6.348   6.613   2.184
 4589SOL    HW114666   6.363   6.703   2.143
 4589SOL    HW214667   6.255   6.582   2.164
 4590SOL     OW14668   3.279   5.440   0.949
 4590SOL    HW114669   3.312   5.524   0.906
 4590SOL    HW214670   3.179   5.436   0.942
 4591SOL     OW14671   1.845   0.643   5.631
 4591SOL    HW114672   1.891   0.578   5.571
 4591SOL    HW214673   1.750   0.614   5.644
 4592SOL     OW14674   1.523   1.780   3.717
 4592SOL    HW114675   1.473   1.849   3.770
 4592SOL    HW214676   1.471   1.755   3.636
 4593SOL     OW14677   1.442   5.827   4.633
 4593SOL    HW114678   1.487   5.889   4.568
 4593SOL    HW214679   1.501   5.814   4.713
 4594SOL     OW14680   1.514   0.532   3.591
 4594SOL    HW114681   1.462   0.458   3.634
 4594SOL    HW214682   1.612   0.515   3.602
 4595SOL     OW14683   5.504   1.923   6.218
 4595SOL    HW114684   5.520   1.958   6.311
 4595SOL    HW214685   5.475   1.827   6.224
 4596SOL     OW14686   6.207   0.857   2.223
 4596SOL    HW114687   6.239   0.946   2.192
 4596SOL    HW214688   6.221   0.849   2.322
 4597SOL     OW14689   3.179   6.163   0.079
 4597SOL    HW114690   3.084   6.179   0.104
 4597SOL    HW214691   3.238   6.225   0.131
 4598SOL     OW14692   1.691   4.711   0.449
 4598SOL    HW114693   1.770   4.650   0.462
 4598SOL    HW214694   1.682   4.732   0.352
 4599SOL     OW14695   2.260   5.814   1.802
 4599SOL    HW114696   2.275   5.897   1.856
 4599SOL    HW214697   2.213   5.746   1.858
 4600SOL     OW14698   0.590   6.385   6.028
 4600SOL    HW114699   0.690   6.377   6.023
 4600SOL    HW214700   0.552   6.297   6.056
 4601SOL     OW14701   1.688   1.039   5.242
 4601SOL    HW114702   1.729   0.953   5.212
 4601SOL    HW214703   1.679   1.039   5.341
 4602SOL     OW14704   3.086   2.431   6.263
 4602SOL    HW114705   3.070   2.492   6.341
 4602SOL    HW214706   3.179   2.445   6.228
 4603SOL     OW14707   4.796   6.948   0.388
 4603SOL    HW114708   4.712   6.906   0.422
 4603SOL    HW214709   4.778   0.017   0.360
 4604SOL     OW14710   6.014   6.764   5.505
 4604SOL    HW114711   6.104   6.721   5.511
 4604SOL    HW214712   5.988   6.798   5.595
 4605SOL     OW14713   3.487   0.563   1.642
 4605SOL    HW114714   3.550   0.510   1.585
 4605SOL    HW214715   3.530   0.650   1.666
 4606SOL     OW14716   6.673   6.540   4.764
 4606SOL    HW114717   6.755   6.497   4.726
 4606SOL    HW214718   6.698   6.627   4.806
 4607SOL     OW14719   2.034   2.416   1.105
 4607SOL    HW114720   2.030   2.457   1.014
 4607SOL    HW214721   2.029   2.317   1.097
 4608SOL     OW14722   6.970   2.583   4.453
 4608SOL    HW114723   6.924   2.576   4.364
 4608SOL    HW214724   6.908   2.551   4.525
 4609SOL     OW14725   4.403   5.665   6.530
 4609SOL    HW114726   4.331   5.600   6.505
 4609SOL    HW214727   4.362   5.751   6.559
 4610SOL     OW14728   5.435   3.947   6.791
 4610SOL    HW114729   5.526   3.958   6.829
 4610SOL    HW214730   5.413   3.850   6.785
 4611SOL     OW14731   1.315   0.832   6.450
 4611SOL    HW114732   1.414   0.842   6.462
 4611SOL    HW214733   1.296   0.764   6.379
 4612SOL     OW14734   1.949   1.365   1.680
 4612SOL    HW114735   1.974   1.315   1.763
 4612SOL    HW214736   1.991   1.456   1.682
 4613SOL     OW14737   1.890   4.680   1.697
 4613SOL    HW114738   1.796   4.651   1.716
 4613SOL    HW214739   1.910   4.668   1.600
 4614SOL     OW14740   6.401   4.234   4.501
 4614SOL    HW114741   6.485   4.286   4.482
 4614SOL    HW214742   6.328   4.264   4.439
 4615SOL     OW14743   1.035   3.434   6.849
 4615SOL    HW114744   1.116   3.473   6.892
 4615SOL    HW214745   0.953   3.484   6.878
 4616SOL     OW14746   6.734   2.811   6.144
 4616SOL    HW114747   6.779   2.736   6.192
 4616SOL    HW214748   6.775   2.898   6.172
 4617SOL     OW14749   7.017   2.703   3.001
 4617SOL    HW114750   6.988   2.798   3.003
 4617SOL    HW214751   6.941   2.644   3.026
 4618SOL     OW14752   2.096   4.161   5.855
 4618SOL    HW114753   1.999   4.186   5.854
 4618SOL    HW214754   2.143   4.210   5.782
 4619SOL     OW14755   4.929   6.153   5.981
 4619SOL    HW114756   4.940   6.175   5.885
 4619SOL    HW214757   4.863   6.216   6.023
 4620SOL     OW14758   0.610   4.851   2.399
 4620SOL    HW114759   0.621   4.774   2.463
 4620SOL    HW214760   0.656   4.829   2.313
 4621SOL     OW14761   3.509   0.060   2.393
 4621SOL    HW114762   3.606   0.037   2.405
 4621SOL    HW214763   3.476   0.022   2.307
 4622SOL     OW14764   5.408   6.209   1.451
 4622SOL    HW114765   5.426   6.251   1.362
 4622SOL    HW214766   5.469   6.131   1.463
 4623SOL     OW14767   2.790   4.759   0.924
 4623SOL    HW114768   2.766   4.753   1.021
 4623SOL    HW214769   2.765   4.673   0.879
 4624SOL     OW14770   4.171   1.363   2.238
 4624SOL    HW114771   4.266   1.336   2.257
 4624SOL    HW214772   4.156   1.457   2.271
 4625SOL     OW14773   2.106   6.320   1.481
 4625SOL    HW114774   2.120   6.261   1.560
 4625SOL    HW214775   2.104   6.416   1.510
 4626SOL     OW14776   4.619   3.589   1.733
 4626SOL    HW114777   4.651   3.684   1.739
 4626SOL    HW214778   4.691   3.528   1.765
 4627SOL     OW14779   5.650   0.114   5.011
 4627SOL    HW114780   5.654   0.083   4.916
 4627SOL    HW214781   5.574   0.179   5.022
 4628SOL     OW14782   5.294   5.243   4.268
 4628SOL    HW114783   5.297   5.301   4.349
 4628SOL    HW214784   5.204   5.201   4.260
 4629SOL     OW14785   2.452   6.147   6.829
 4629SOL    HW114786   2.452   6.056   6.788
 4629SOL    HW214787   2.362   6.188   6.819
 4630SOL     OW14788   2.148   3.080   2.240
 4630SOL    HW114789   2.161   3.176   2.215
 4630SOL    HW214790   2.113   3.075   2.334
 4631SOL     OW14791   6.966   0.539   3.086
 4631SOL    HW114792   6.947   0.522   3.183
 4631SOL    HW214793   0.034   0.575   3.076
 4632SOL     OW14794   3.111   4.876   2.585
 4632SOL    HW114795   3.158   4.886   2.496
 4632SOL    HW214796   3.026   4.927   2.583
 4633SOL     OW14797   4.627   0.963   4.875
 4633SOL    HW114798   4.605   0.886   4.936
 4633SOL    HW214799   4.642   0.928   4.782
 4634SOL     OW14800   2.919   3.840   4.891
 4634SOL    HW114801   2.937   3.818   4.987
 4634SOL    HW214802   2.823   3.867   4.880
 4635SOL     OW14803   4.776   6.483   1.864
 4635SOL    HW114804   4.870   6.457   1.844
 4635SOL    HW214805   4.748   6.557   1.803
 4636SOL     OW14806   2.116   5.270   0.525
 4636SOL    HW114807   2.124   5.171   0.534
 4636SOL    HW214808   2.182   5.314   0.586
 4637SOL     OW14809   3.069   1.473   3.081
 4637SOL    HW114810   2.983   1.520   3.102
 4637SOL    HW214811   3.117   1.521   3.008
 4638SOL     OW14812   3.692   4.987   0.481
 4638SOL    HW114813   3.756   5.008   0.407
 4638SOL    HW214814   3.637   4.907   0.455
 4639SOL     OW14815   3.506   2.276   1.384
 4639SOL    HW114816   3.558   2.203   1.339
 4639SOL    HW214817   3.540   2.288   1.477
 4640SOL     OW14818   6.595   2.519   6.948
 4640SOL    HW114819   6.600   2.613   6.981
 4640SOL    HW214820   6.515   2.474   6.986
 4641SOL     OW14821   1.130   6.047   4.151
 4641SOL    HW114822   1.118   5.948   4.164
 4641SOL    HW214823   1.042   6.093   4.160
 4642SOL     OW14824   0.081   0.850   3.619
 4642SOL    HW114825   0.113   0.944   3.611
 4642SOL    HW214826   0.115   0.796   3.542
 4643SOL     OW14827   0.216   1.980   0.541
 4643SOL    HW114828   0.290   1.929   0.584
 4643SOL    HW214829   0.219   2.075   0.572
 4644SOL     OW14830   1.375   0.839   0.230
 4644SOL    HW114831   1.474   0.839   0.247
 4644SOL    HW214832   1.351   0.918   0.173
 4645SOL     OW14833   1.002   1.850   3.994
 4645SOL    HW114834   0.943   1.892   3.926
 4645SOL    HW214835   1.094   1.886   3.985
 4646SOL     OW14836   1.790   4.952   3.847
 4646SOL    HW114837   1.856   4.971   3.775
 4646SOL    HW214838   1.834   4.903   3.922
 4647SOL     OW14839   1.127   6.571   2.053
 4647SOL    HW114840   1.109   6.644   2.119
 4647SOL    HW214841   1.193   6.506   2.092
 4648SOL     OW14842   2.921   1.881   4.653
 4648SOL    HW114843   2.983   1.902   4.577
 4648SOL    HW214844   2.929   1.784   4.676
 4649SOL     OW14845   6.718   1.043   0.059
 4649SOL    HW114846   6.661   1.113   0.014
 4649SOL    HW214847   6.783   1.006   7.018
 4650SOL     OW14848   5.174   6.000   1.458
 4650SOL    HW114849   5.256   6.047   1.492
 4650SOL    HW214850   5.157   5.918   1.513
 4651SOL     OW14851   0.078   3.096   6.522
 4651SOL    HW114852   0.131   3.012   6.535
 4651SOL    HW214853   7.011   3.072   6.492
 4652SOL     OW14854   0.297   6.529   5.338
 4652SOL    HW114855   0.257   6.482   5.259
 4652SOL    HW214856   0.397   6.523   5.333
 4653SOL     OW14857   5.677   5.339   0.715
 4653SOL    HW114858   5.748   5.368   0.650
 4653SOL    HW214859   5.636   5.254   0.682
 4654SOL     OW14860   1.066   0.228   5.498
 4654SOL    HW114861   1.056   0.287   5.418
 4654SOL    HW214862   0.986   0.239   5.557
 4655SOL     OW14863   4.831   2.987   1.145
 4655SOL    HW114864   4.856   2.901   1.189
 4655SOL    HW214865   4.862   3.064   1.200
 4656SOL     OW14866   0.522   1.127   1.791
 4656SOL    HW114867   0.496   1.031   1.798
 4656SOL    HW214868   0.620   1.134   1.770
 4657SOL     OW14869   4.579   0.409   2.381
 4657SOL    HW114870   4.554   0.496   2.423
 4657SOL    HW214871   4.639   0.426   2.302
 4658SOL     OW14872   1.573   3.086   5.826
 4658SOL    HW114873   1.589   3.128   5.737
 4658SOL    HW214874   1.624   3.135   5.897
 4659SOL     OW14875   1.934   4.543   0.215
 4659SOL    HW114876   1.863   4.540   0.144
 4659SOL    HW214877   2.021   4.512   0.178
 4660SOL     OW14878   1.021   6.322   3.749
 4660SOL    HW114879   1.065   6.236   3.720
 4660SOL    HW214880   1.068   6.399   3.706
 4661SOL     OW14881   0.897   2.321   5.636
 4661SOL    HW114882   0.987   2.357   5.611
 4661SOL    HW214883   0.833   2.335   5.560
 4662SOL     OW14884   2.589   6.964   5.786
 4662SOL    HW114885   2.568   0.032   5.817
 4662SOL    HW214886   2.504   6.916   5.765
 4663SOL     OW14887   1.704   0.319   0.005
 4663SOL    HW114888   1.613   0.332   0.044
 4663SOL    HW214889   1.697   0.278   6.939
 4664SOL     OW14890   6.951   6.579   6.762
 4664SOL    HW114891   0.010   6.616   6.803
 4664SOL    HW214892   6.878   6.646   6.769
 4665SOL     OW14893   1.755   0.555   4.102
 4665SOL    HW114894   1.793   0.629   4.158
 4665SOL    HW214895   1.691   0.502   4.157
 4666SOL     OW14896   2.601   1.848   5.113
 4666SOL    HW114897   2.537   1.883   5.181
 4666SOL    HW214898   2.685   1.903   5.115
 4667SOL     OW14899   6.359   3.559   1.404
 4667SOL    HW114900   6.344   3.633   1.470
 4667SOL    HW214901   6.446   3.513   1.424
 4668SOL     OW14902   4.318   1.933   3.789
 4668SOL    HW114903   4.369   2.004   3.839
 4668SOL    HW214904   4.364   1.915   3.702
 4669SOL     OW14905   5.664   0.001   6.721
 4669SOL    HW114906   5.678   0.064   6.644
 4669SOL    HW214907   5.566   7.008   6.732
 4670SOL     OW14908   0.477   2.506   0.580
 4670SOL    HW114909   0.522   2.571   0.641
 4670SOL    HW214910   0.545   2.443   0.543
 4671SOL     OW14911   0.796   3.749   0.865
 4671SOL    HW114912   0.757   3.666   0.826
 4671SOL    HW214913   0.872   3.725   0.926
 4672SOL     OW14914   2.463   3.885   6.513
 4672SOL    HW114915   2.542   3.846   6.560
 4672SOL    HW214916   2.414   3.813   6.464
 4673SOL     OW14917   5.786   0.943   6.986
 4673SOL    HW114918   5.732   0.859   6.980
 4673SOL    HW214919   5.876   0.922   7.023
 4674SOL     OW14920   1.037   2.239   1.511
 4674SOL    HW114921   1.029   2.217   1.413
 4674SOL    HW214922   1.028   2.337   1.524
 4675SOL     OW14923   2.095   6.080   0.040
 4675SOL    HW114924   2.011   6.042   0.077
 4675SOL    HW214925   2.135   6.016   6.999
 4676SOL     OW14926   0.443   6.201   4.172
 4676SOL    HW114927   0.479   6.127   4.115
 4676SOL    HW214928   0.495   6.206   4.257
 4677SOL     OW14929   4.392   7.013   6.620
 4677SOL    HW114930   4.478   0.040   6.622
 4677SOL    HW214931   4.330   0.031   6.555
 4678SOL     OW14932   2.177   4.396   6.244
 4678SOL    HW114933   2.159   4.369   6.339
 4678SOL    HW214934   2.139   4.487   6.228
 4679SOL     OW14935   2.943   0.156   5.379
 4679SOL    HW114936   2.933   0.228   5.309
 4679SOL    HW214937   2.930   0.067   5.336
 4680SOL     OW14938   2.187   4.643   0.829
 4680SOL    HW114939   2.214   4.723   0.884
 4680SOL    HW214940   2.119   4.671   0.762
 4681SOL     OW14941   0.324   5.662   4.974
 4681SOL    HW114942   0.250   5.715   5.015
 4681SOL    HW214943   0.298   5.635   4.881
 4682SOL     OW14944   4.568   6.542   0.511
 4682SOL    HW114945   4.659   6.510   0.484
 4682SOL    HW214946   4.502   6.520   0.440
 4683SOL     OW14947   0.008   4.126   3.480
 4683SOL    HW114948   6.979   4.117   3.397
 4683SOL    HW214949   7.024   4.219   3.516
 4684SOL     OW14950   1.578   1.235   4.320
 4684SOL    HW114951   1.616   1.253   4.230
 4684SOL    HW214952   1.612   1.303   4.385
 4685SOL     OW14953   4.866   4.552   5.001
 4685SOL    HW114954   4.836   4.622   4.937
 4685SOL    HW214955   4.930   4.592   5.067
 4686SOL     OW14956   4.535   5.546   0.043
 4686SOL    HW114957   4.531   5.587   6.977
 4686SOL    HW214958   4.630   5.526   0.067
 4687SOL     OW14959   5.486   6.595   4.712
 4687SOL    HW114960   5.450   6.684   4.684
 4687SOL    HW214961   5.419   6.523   4.693
 4688SOL     OW14962   0.590   2.101   6.475
 4688SOL    HW114963   0.640   2.096   6.562
 4688SOL    HW214964   0.514   2.036   6.476
 4689SOL     OW14965   1.437   5.421   5.654
 4689SOL    HW114966   1.343   5.446   5.633
 4689SOL    HW214967   1.446   5.321   5.657
 4690SOL     OW14968   1.411   2.612   0.526
 4690SOL    HW114969   1.505   2.577   0.519
 4690SOL    HW214970   1.408   2.704   0.487
 4691SOL     OW14971   3.455   4.579   0.675
 4691SOL    HW114972   3.362   4.548   0.655
 4691SOL    HW214973   3.451   4.661   0.733
 4692SOL     OW14974   6.908   5.390   3.118
 4692SOL    HW114975   6.858   5.398   3.204
 4692SOL    HW214976   6.851   5.342   3.051
 4693SOL     OW14977   0.410   1.046   3.416
 4693SOL    HW114978   0.470   1.123   3.392
 4693SOL    HW214979   0.459   0.960   3.403
 4694SOL     OW14980   1.780   1.812   6.503
 4694SOL    HW114981   1.698   1.849   6.459
 4694SOL    HW214982   1.764   1.804   6.602
 4695SOL     OW14983   3.464   3.237   1.958
 4695SOL    HW114984   3.367   3.213   1.959
 4695SOL    HW214985   3.495   3.247   1.863
 4696SOL     OW14986   6.864   3.355   6.981
 4696SOL    HW114987   6.906   3.414   0.025
 4696SOL    HW214988   6.934   3.297   6.940
 4697SOL     OW14989   0.914   4.865   0.147
 4697SOL    HW114990   0.988   4.894   0.086
 4697SOL    HW214991   0.915   4.922   0.229
 4698SOL     OW14992   5.628   2.995   1.127
 4698SOL    HW114993   5.643   3.083   1.173
 4698SOL    HW214994   5.531   2.983   1.108
 4699SOL     OW14995   6.500   0.291   3.582
 4699SOL    HW114996   6.568   0.219   3.564
 4699SOL    HW214997   6.508   0.320   3.677
 4700SOL     OW14998   5.102   0.483   1.322
 4700SOL    HW114999   5.045   0.453   1.246
 4700SOL    HW215000   5.061   0.562   1.366
 4701SOL     OW15001   1.069   0.758   0.947
 4701SOL    HW115002   1.023   0.673   0.920
 4701SOL    HW215003   1.063   0.769   1.046
 4702SOL     OW15004   3.316   4.176   6.763
 4702SOL    HW115005   3.265   4.100   6.803
 4702SOL    HW215006   3.270   4.206   6.680
 4703SOL     OW15007   1.910   1.052   2.233
 4703SOL    HW115008   1.865   1.123   2.179
 4703SOL    HW215009   1.841   1.000   2.284
 4704SOL     OW15010   4.728   6.923   0.073
 4704SOL    HW115011   4.703   6.861   0.148
 4704SOL    HW215012   4.697   7.015   0.095
 4705SOL     OW15013   3.526   3.629   4.081
 4705SOL    HW115014   3.528   3.645   4.180
 4705SOL    HW215015   3.572   3.704   4.034
 4706SOL     OW15016   4.306   5.156   1.218
 4706SOL    HW115017   4.311   5.075   1.158
 4706SOL    HW215018   4.374   5.148   1.291
 4707SOL     OW15019   3.342   6.308   0.710
 4707SOL    HW115020   3.409   6.237   0.732
 4707SOL    HW215021   3.274   6.272   0.647
 4708SOL     OW15022   2.392   2.254   2.247
 4708SOL    HW115023   2.374   2.341   2.293
 4708SOL    HW215024   2.477   2.260   2.195
 4709SOL     OW15025   4.132   4.152   6.076
 4709SOL    HW115026   4.072   4.107   6.011
 4709SOL    HW215027   4.102   4.131   6.169
 4710SOL     OW15028   5.076   1.843   0.793
 4710SOL    HW115029   5.096   1.887   0.706
 4710SOL    HW215030   5.062   1.745   0.778
 4711SOL     OW15031   2.803   0.194   2.758
 4711SOL    HW115032   2.881   0.132   2.768
 4711SOL    HW215033   2.829   0.285   2.790
 4712SOL     OW15034   1.376   4.854   0.167
 4712SOL    HW115035   1.374   4.888   0.261
 4712SOL    HW215036   1.392   4.755   0.168
 4713SOL     OW15037   2.340   5.581   0.437
 4713SOL    HW115038   2.375   5.494   0.471
 4713SOL    HW215039   2.394   5.656   0.475
 4714SOL     OW15040   3.768   2.340   0.830
 4714SOL    HW115041   3.802   2.370   0.919
 4714SOL    HW215042   3.708   2.410   0.792
 4715SOL     OW15043   6.604   3.822   3.640
 4715SOL    HW115044   6.533   3.781   3.582
 4715SOL    HW215045   6.583   3.919   3.656
 4716SOL     OW15046   3.449   6.128   0.287
 4716SOL    HW115047   3.438   6.045   0.342
 4716SOL    HW215048   3.377   6.193   0.310
 4717SOL     OW15049   1.225   5.691   3.922
 4717SOL    HW115050   1.266   5.618   3.976
 4717SOL    HW215051   1.146   5.655   3.871
 4718SOL     OW15052   5.928   1.165   6.243
 4718SOL    HW115053   5.936   1.237   6.311
 4718SOL    HW215054   5.831   1.140   6.232
 4719SOL     OW15055   4.596   2.935   1.013
 4719SOL    HW115056   4.669   2.944   1.081
 4719SOL    HW215057   4.514   2.979   1.047
 4720SOL     OW15058   2.638   0.924   4.581
 4720SOL    HW115059   2.597   0.835   4.600
 4720SOL    HW215060   2.722   0.934   4.635
 4721SOL     OW15061   1.862   2.261   1.410
 4721SOL    HW115062   1.936   2.196   1.428
 4721SOL    HW215063   1.871   2.339   1.471
 4722SOL     OW15064   2.342   6.934   1.207
 4722SOL    HW115065   2.275   6.922   1.134
 4722SOL    HW215066   2.377   6.845   1.236
 4723SOL     OW15067   2.975   0.127   6.776
 4723SOL    HW115068   3.064   0.164   6.752
 4723SOL    HW215069   2.909   0.201   6.783
 4724SOL     OW15070   4.374   5.151   1.748
 4724SOL    HW115071   4.408   5.190   1.662
 4724SOL    HW215072   4.274   5.154   1.749
 4725SOL     OW15073   5.875   6.117   3.639
 4725SOL    HW115074   5.825   6.164   3.567
 4725SOL    HW215075   5.849   6.020   3.640
 4726SOL     OW15076   0.117   5.467   6.778
 4726SOL    HW115077   0.024   5.442   6.804
 4726SOL    HW215078   0.115   5.523   6.695
 4727SOL     OW15079   0.437   6.592   6.963
 4727SOL    HW115080   0.525   6.545   6.951
 4727SOL    HW215081   0.363   6.528   6.940
 4728SOL     OW15082   0.378   1.299   0.477
 4728SOL    HW115083   0.343   1.345   0.396
 4728SOL    HW215084   0.417   1.211   0.451
 4729SOL     OW15085   3.701   0.441   1.536
 4729SOL    HW115086   3.794   0.475   1.519
 4729SOL    HW215087   3.664   0.402   1.452
 4730SOL     OW15088   1.574   0.079   5.439
 4730SOL    HW115089   1.524   0.136   5.374
 4730SOL    HW215090   1.550   7.008   5.424
 4731SOL     OW15091   5.472   1.637   5.904
 4731SOL    HW115092   5.506   1.583   5.827
 4731SOL    HW215093   5.384   1.601   5.934
 4732SOL     OW15094   0.331   2.249   0.604
 4732SOL    HW115095   0.337   2.300   0.690
 4732SOL    HW215096   0.399   2.285   0.540
 4733SOL     OW15097   6.682   2.840   3.990
 4733SOL    HW115098   6.667   2.768   4.057
 4733SOL    HW215099   6.736   2.914   4.032
 4734SOL     OW15100   4.220   4.649   6.266
 4734SOL    HW115101   4.269   4.699   6.337
 4734SOL    HW215102   4.179   4.567   6.304
 4735SOL     OW15103   0.545   5.158   3.446
 4735SOL    HW115104   0.587   5.155   3.537
 4735SOL    HW215105   0.507   5.249   3.431
 4736SOL     OW15106   1.425   0.799   1.204
 4736SOL    HW115107   1.431   0.883   1.259
 4736SOL    HW215108   1.497   0.736   1.233
 4737SOL     OW15109   2.443   5.625   1.764
 4737SOL    HW115110   2.384   5.705   1.758
 4737SOL    HW215111   2.397   5.546   1.724
 4738SOL     OW15112   6.904   6.385   2.574
 4738SOL    HW115113   6.888   6.476   2.611
 4738SOL    HW215114   6.879   6.383   2.477
 4739SOL     OW15115   4.649   0.612   1.083
 4739SOL    HW115116   4.576   0.669   1.044
 4739SOL    HW215117   4.701   0.666   1.149
 4740SOL     OW15118   0.683   2.411   3.559
 4740SOL    HW115119   0.659   2.450   3.648
 4740SOL    HW215120   0.666   2.479   3.487
 4741SOL     OW15121   3.668   4.255   1.211
 4741SOL    HW115122   3.724   4.202   1.275
 4741SOL    HW215123   3.675   4.215   1.119
 4742SOL     OW15124   3.533   0.004   0.206
 4742SOL    HW115125   3.446   0.037   0.244
 4742SOL    HW215126   3.587   0.082   0.174
 4743SOL     OW15127   2.043   4.900   1.303
 4743SOL    HW115128   2.035   4.977   1.239
 4743SOL    HW215129   2.009   4.928   1.393
 4744SOL     OW15130   2.508   5.634   0.757
 4744SOL    HW115131   2.576   5.574   0.800
 4744SOL    HW215132   2.416   5.600   0.776
 4745SOL     OW15133   1.159   4.591   0.020
 4745SOL    HW115134   1.243   4.590   0.074
 4745SOL    HW215135   1.119   4.682   0.021
 4746SOL     OW15136   4.669   5.750   4.238
 4746SOL    HW115137   4.760   5.719   4.265
 4746SOL    HW215138   4.617   5.774   4.320
 4747SOL     OW15139   1.500   2.057   0.481
 4747SOL    HW115140   1.459   2.134   0.530
 4747SOL    HW215141   1.439   2.029   0.407
 4748SOL     OW15142   1.908   6.536   2.388
 4748SOL    HW115143   1.931   6.550   2.484
 4748SOL    HW215144   1.887   6.623   2.345
 4749SOL     OW15145   2.368   1.631   6.500
 4749SOL    HW115146   2.435   1.700   6.526
 4749SOL    HW215147   2.341   1.645   6.404
 4750SOL     OW15148   5.082   2.558   5.684
 4750SOL    HW115149   5.068   2.496   5.761
 4750SOL    HW215150   5.075   2.653   5.716
 4751SOL     OW15151   3.969   0.758   3.581
 4751SOL    HW115152   4.054   0.719   3.616
 4751SOL    HW215153   3.955   0.727   3.487
 4752SOL     OW15154   4.774   1.880   6.534
 4752SOL    HW115155   4.833   1.800   6.525
 4752SOL    HW215156   4.736   1.903   6.444
 4753SOL     OW15157   3.525   6.366   5.966
 4753SOL    HW115158   3.462   6.359   6.043
 4753SOL    HW215159   3.474   6.388   5.882
 4754SOL     OW15160   4.758   4.731   6.956
 4754SOL    HW115161   4.839   4.686   6.993
 4754SOL    HW215162   4.679   4.671   6.963
 4755SOL     OW15163   1.402   1.354   1.523
 4755SOL    HW115164   1.461   1.275   1.536
 4755SOL    HW215165   1.441   1.414   1.453
 4756SOL     OW15166   6.334   4.235   5.748
 4756SOL    HW115167   6.315   4.198   5.839
 4756SOL    HW215168   6.421   4.284   5.749
 4757SOL     OW15169   1.780   3.820   0.987
 4757SOL    HW115170   1.753   3.876   0.908
 4757SOL    HW215171   1.879   3.805   0.984
 4758SOL     OW15172   2.558   6.332   3.157
 4758SOL    HW115173   2.576   6.275   3.237
 4758SOL    HW215174   2.625   6.312   3.086
 4759SOL     OW15175   0.627   5.982   1.767
 4759SOL    HW115176   0.570   6.061   1.789
 4759SOL    HW215177   0.580   5.898   1.795
 4760SOL     OW15178   1.447   5.814   1.159
 4760SOL    HW115179   1.441   5.718   1.132
 4760SOL    HW215180   1.438   5.821   1.258
 4761SOL     OW15181   6.392   6.348   1.621
 4761SOL    HW115182   6.303   6.364   1.663
 4761SOL    HW215183   6.390   6.378   1.525
 4762SOL     OW15184   1.457   0.636   2.300
 4762SOL    HW115185   1.507   0.634   2.387
 4762SOL    HW215186   1.521   0.649   2.225
 4763SOL     OW15187   5.338   4.698   1.775
 4763SOL    HW115188   5.336   4.795   1.801
 4763SOL    HW215189   5.431   4.663   1.786
 4764SOL     OW15190   4.894   2.956   0.574
 4764SOL    HW115191   4.868   2.865   0.540
 4764SOL    HW215192   4.858   2.968   0.666
 4765SOL     OW15193   3.598   1.468   4.882
 4765SOL    HW115194   3.540   1.462   4.800
 4765SOL    HW215195   3.541   1.489   4.961
 4766SOL     OW15196   0.640   0.380   4.261
 4766SOL    HW115197   0.546   0.364   4.230
 4766SOL    HW215198   0.676   0.463   4.219
 4767SOL     OW15199   2.300   4.201   3.467
 4767SOL    HW115200   2.300   4.101   3.470
 4767SOL    HW215201   2.213   4.233   3.431
 4768SOL     OW15202   4.355   2.584   6.588
 4768SOL    HW115203   4.287   2.538   6.532
 4768SOL    HW215204   4.438   2.528   6.594
 4769SOL     OW15205   2.682   4.134   0.526
 4769SOL    HW115206   2.603   4.099   0.476
 4769SOL    HW215207   2.657   4.151   0.621
 4770SOL     OW15208   0.697   1.222   5.395
 4770SOL    HW115209   0.641   1.193   5.472
 4770SOL    HW215210   0.658   1.185   5.310
 4771SOL     OW15211   1.724   6.807   4.856
 4771SOL    HW115212   1.669   6.813   4.773
 4771SOL    HW215213   1.666   6.781   4.933
 4772SOL     OW15214   3.091   5.184   2.307
 4772SOL    HW115215   3.109   5.281   2.291
 4772SOL    HW215216   3.011   5.174   2.366
 4773SOL     OW15217   1.982   5.372   4.530
 4773SOL    HW115218   1.910   5.302   4.537
 4773SOL    HW215219   2.041   5.367   4.611
 4774SOL     OW15220   1.409   4.586   0.157
 4774SOL    HW115221   1.394   4.564   0.254
 4774SOL    HW215222   1.490   4.537   0.124
 4775SOL     OW15223   6.300   6.672   5.538
 4775SOL    HW115224   6.348   6.740   5.592
 4775SOL    HW215225   6.363   6.597   5.516
 4776SOL     OW15226   6.925   1.417   6.139
 4776SOL    HW115227   6.983   1.403   6.059
 4776SOL    HW215228   6.891   1.511   6.139
 4777SOL     OW15229   1.191   0.595   2.306
 4777SOL    HW115230   1.183   0.497   2.326
 4777SOL    HW215231   1.287   0.620   2.296
 4778SOL     OW15232   1.988   1.372   6.983
 4778SOL    HW115233   2.016   1.463   6.951
 4778SOL    HW215234   1.930   1.382   0.039
 4779SOL     OW15235   5.456   0.318   4.691
 4779SOL    HW115236   5.435   0.411   4.660
 4779SOL    HW215237   5.552   0.315   4.720
 4780SOL     OW15238   5.467   2.651   5.006
 4780SOL    HW115239   5.417   2.565   4.998
 4780SOL    HW215240   5.438   2.699   5.089
 4781SOL     OW15241   2.131   5.643   1.966
 4781SOL    HW115242   2.189   5.677   2.039
 4781SOL    HW215243   2.085   5.559   1.996
 4782SOL     OW15244   6.533   6.981   4.329
 4782SOL    HW115245   6.627   6.947   4.333
 4782SOL    HW215246   6.523   0.020   4.253
 4783SOL     OW15247   0.047   3.402   5.889
 4783SOL    HW115248   0.035   3.499   5.913
 4783SOL    HW215249   0.134   3.369   5.925
 4784SOL     OW15250   5.526   3.243   6.573
 4784SOL    HW115251   5.466   3.232   6.652
 4784SOL    HW215252   5.606   3.184   6.584
 4785SOL     OW15253   0.072   6.735   4.060
 4785SOL    HW115254   7.015   6.713   4.114
 4785SOL    HW215255   0.133   6.793   4.114
 4786SOL     OW15256   0.953   5.596   6.901
 4786SOL    HW115257   0.888   5.655   6.853
 4786SOL    HW215258   1.030   5.576   6.840
 4787SOL     OW15259   3.339   1.650   4.142
 4787SOL    HW115260   3.325   1.623   4.046
 4787SOL    HW215261   3.382   1.740   4.144
 4788SOL     OW15262   6.306   6.118   0.747
 4788SOL    HW115263   6.265   6.084   0.831
 4788SOL    HW215264   6.402   6.088   0.742
 4789SOL     OW15265   5.794   1.174   2.762
 4789SOL    HW115266   5.851   1.241   2.714
 4789SOL    HW215267   5.735   1.223   2.827
 4790SOL     OW15268   6.669   1.859   4.963
 4790SOL    HW115269   6.621   1.909   4.892
 4790SOL    HW215270   6.747   1.811   4.923
 4791SOL     OW15271   0.140   0.243   0.213
 4791SOL    HW115272   0.065   0.200   0.163
 4791SOL    HW215273   0.205   0.173   0.243
 4792SOL     OW15274   2.166   3.135   2.865
 4792SOL    HW115275   2.141   3.181   2.780
 4792SOL    HW215276   2.183   3.203   2.936
 4793SOL     OW15277   1.028   3.318   5.723
 4793SOL    HW115278   1.003   3.249   5.790
 4793SOL    HW215279   1.126   3.311   5.703
 4794SOL     OW15280   4.218   1.643   4.593
 4794SOL    HW115281   4.205   1.550   4.628
 4794SOL    HW215282   4.275   1.640   4.511
 4795SOL     OW15283   0.028   1.242   6.479
 4795SOL    HW115284   0.119   1.231   6.438
 4795SOL    HW215285   0.029   1.205   6.572
 4796SOL     OW15286   4.325   1.323   5.206
 4796SOL    HW115287   4.350   1.276   5.291
 4796SOL    HW215288   4.407   1.356   5.160
 4797SOL     OW15289   1.427   5.336   5.345
 4797SOL    HW115290   1.523   5.347   5.372
 4797SOL    HW215291   1.423   5.308   5.249
 4798SOL     OW15292   4.346   4.665   6.810
 4798SOL    HW115293   4.407   4.598   6.765
 4798SOL    HW215294   4.388   4.756   6.806
 4799SOL     OW15295   4.262   2.826   7.000
 4799SOL    HW115296   4.175   2.855   6.961
 4799SOL    HW215297   4.337   2.866   6.948
 4800SOL     OW15298   0.526   3.977   0.336
 4800SOL    HW115299   0.537   4.030   0.252
 4800SOL    HW215300   0.431   3.947   0.343
 4801SOL     OW15301   5.604   2.663   2.082
 4801SOL    HW115302   5.692   2.631   2.047
 4801SOL    HW215303   5.547   2.694   2.005
 4802SOL     OW15304   6.471   0.669   4.390
 4802SOL    HW115305   6.515   0.610   4.323
 4802SOL    HW215306   6.537   0.737   4.423
 4803SOL     OW15307   5.488   3.794   5.658
 4803SOL    HW115308   5.414   3.732   5.633
 4803SOL    HW215309   5.452   3.886   5.669
 4804SOL     OW15310   4.931   1.538   0.641
 4804SOL    HW115311   4.875   1.621   0.642
 4804SOL    HW215312   5.025   1.559   0.666
 4805SOL     OW15313   6.607   1.282   6.985
 4805SOL    HW115314   6.659   1.361   7.018
 4805SOL    HW215315   6.576   1.299   6.892
 4806SOL     OW15316   0.822   0.980   3.598
 4806SOL    HW115317   0.841   0.910   3.528
 4806SOL    HW215318   0.727   0.971   3.628
 4807SOL     OW15319   0.540   3.720   5.209
 4807SOL    HW115320   0.472   3.647   5.215
 4807SOL    HW215321   0.512   3.786   5.140
 4808SOL     OW15322   3.643   6.074   1.403
 4808SOL    HW115323   3.637   6.032   1.312
 4808SOL    HW215324   3.593   6.018   1.469
 4809SOL     OW15325   3.447   3.887   1.400
 4809SOL    HW115326   3.543   3.903   1.377
 4809SOL    HW215327   3.415   3.959   1.462
 4810SOL     OW15328   0.767   5.020   4.225
 4810SOL    HW115329   0.758   5.088   4.153
 4810SOL    HW215330   0.756   5.064   4.314
 4811SOL     OW15331   3.235   4.042   4.159
 4811SOL    HW115332   3.329   4.076   4.168
 4811SOL    HW215333   3.184   4.064   4.242
 4812SOL     OW15334   1.196   0.073   2.907
 4812SOL    HW115335   1.240   0.024   2.982
 4812SOL    HW215336   1.176   0.167   2.935
 4813SOL     OW15337   6.667   1.531   5.484
 4813SOL    HW115338   6.699   1.522   5.390
 4813SOL    HW215339   6.645   1.441   5.521
 4814SOL     OW15340   6.017   4.036   1.378
 4814SOL    HW115341   5.928   4.048   1.334
 4814SOL    HW215342   6.070   3.968   1.327
 4815SOL     OW15343   5.634   4.664   1.816
 4815SOL    HW115344   5.698   4.715   1.874
 4815SOL    HW215345   5.630   4.569   1.848
 4816SOL     OW15346   2.460   1.609   2.913
 4816SOL    HW115347   2.474   1.689   2.855
 4816SOL    HW215348   2.522   1.536   2.884
 4817SOL     OW15349   4.022   2.455   0.534
 4817SOL    HW115350   4.050   2.448   0.438
 4817SOL    HW215351   4.011   2.363   0.572
 4818SOL     OW15352   3.892   0.423   5.123
 4818SOL    HW115353   3.806   0.400   5.168
 4818SOL    HW215354   3.968   0.408   5.186
 4819SOL     OW15355   3.566   7.024   0.990
 4819SOL    HW115356   3.578   6.987   1.082
 4819SOL    HW215357   3.653   0.038   0.958
 4820SOL     OW15358   5.835   4.028   2.072
 4820SOL    HW115359   5.884   4.042   1.986
 4820SOL    HW215360   5.878   3.954   2.123
 4821SOL     OW15361   0.275   5.209   1.542
 4821SOL    HW115362   0.193   5.265   1.529
 4821SOL    HW215363   0.306   5.173   1.455
 4822SOL     OW15364   1.493   4.324   2.758
 4822SOL    HW115365   1.445   4.331   2.846
 4822SOL    HW215366   1.544   4.238   2.754
 4823SOL     OW15367   1.710   0.886   4.358
 4823SOL    HW115368   1.647   0.808   4.348
 4823SOL    HW215369   1.658   0.971   4.359
 4824SOL     OW15370   5.441   2.727   1.828
 4824SOL    HW115371   5.414   2.636   1.794
 4824SOL    HW215372   5.385   2.797   1.784
 4825SOL     OW15373   0.568   3.131   3.003
 4825SOL    HW115374   0.554   3.216   2.952
 4825SOL    HW215375   0.587   3.057   2.938
 4826SOL     OW15376   6.455   5.944   0.311
 4826SOL    HW115377   6.438   5.864   0.254
 4826SOL    HW215378   6.377   5.956   0.373
 4827SOL     OW15379   5.405   1.191   1.133
 4827SOL    HW115380   5.415   1.217   1.229
 4827SOL    HW215381   5.411   1.092   1.124
 4828SOL     OW15382   4.990   3.533   6.490
 4828SOL    HW115383   4.899   3.566   6.514
 4828SOL    HW215384   5.049   3.537   6.571
 4829SOL     OW15385   3.646   0.393   5.237
 4829SOL    HW115386   3.629   0.355   5.328
 4829SOL    HW215387   3.626   0.491   5.238
 4830SOL     OW15388   3.838   6.702   5.231
 4830SOL    HW115389   3.922   6.753   5.211
 4830SOL    HW215390   3.776   6.707   5.152
 4831SOL     OW15391   6.448   4.140   5.535
 4831SOL    HW115392   6.538   4.101   5.556
 4831SOL    HW215393   6.398   4.157   5.620
 4832SOL     OW15394   2.200   2.790   6.570
 4832SOL    HW115395   2.147   2.844   6.505
 4832SOL    HW215396   2.221   2.701   6.530
 4833SOL     OW15397   5.048   1.537   3.011
 4833SOL    HW115398   4.993   1.599   3.066
 4833SOL    HW215399   5.008   1.445   3.012
 4834SOL     OW15400   5.897   0.704   3.098
 4834SOL    HW115401   5.909   0.699   2.999
 4834SOL    HW215402   5.911   0.798   3.129
 4835SOL     OW15403   2.043   0.283   6.145
 4835SOL    HW115404   2.106   0.305   6.071
 4835SOL    HW215405   1.983   0.208   6.117
 4836SOL     OW15406   5.637   2.707   2.699
 4836SOL    HW115407   5.616   2.744   2.790
 4836SOL    HW215408   5.733   2.680   2.696
 4837SOL     OW15409   1.357   4.324   0.558
 4837SOL    HW115410   1.353   4.363   0.650
 4837SOL    HW215411   1.362   4.398   0.491
 4838SOL     OW15412   2.882   5.961   2.454
 4838SOL    HW115413   2.804   6.017   2.482
 4838SOL    HW215414   2.949   6.018   2.407
 4839SOL     OW15415   0.551   6.400   6.305
 4839SOL    HW115416   0.577   6.439   6.393
 4839SOL    HW215417   0.634   6.371   6.256
 4840SOL     OW15418   6.822   6.513   0.112
 4840SOL    HW115419   6.746   6.458   0.077
 4840SOL    HW215420   6.798   6.610   0.109
 4841SOL     OW15421   2.439   5.668   2.452
 4841SOL    HW115422   2.501   5.589   2.451
 4841SOL    HW215423   2.441   5.713   2.363
 4842SOL     OW15424   3.480   6.530   1.323
 4842SOL    HW115425   3.382   6.552   1.323
 4842SOL    HW215426   3.498   6.458   1.256
 4843SOL     OW15427   0.045   3.256   0.219
 4843SOL    HW115428   0.091   3.214   0.298
 4843SOL    HW215429   6.987   3.303   0.249
 4844SOL     OW15430   6.918   1.928   5.528
 4844SOL    HW115431   6.876   1.906   5.440
 4844SOL    HW215432   6.912   2.027   5.545
 4845SOL     OW15433   5.729   5.493   3.708
 4845SOL    HW115434   5.758   5.558   3.778
 4845SOL    HW215435   5.810   5.451   3.666
 4846SOL     OW15436   1.090   4.641   0.885
 4846SOL    HW115437   1.069   4.548   0.857
 4846SOL    HW215438   1.156   4.681   0.822
 4847SOL     OW15439   4.474   2.451   4.686
 4847SOL    HW115440   4.433   2.451   4.595
 4847SOL    HW215441   4.409   2.415   4.753
 4848SOL     OW15442   2.973   2.191   2.269
 4848SOL    HW115443   2.969   2.223   2.174
 4848SOL    HW215444   3.064   2.155   2.288
 4849SOL     OW15445   1.539   6.077   0.260
 4849SOL    HW115446   1.587   6.002   0.306
 4849SOL    HW215447   1.461   6.041   0.209
 4850SOL     OW15448   3.983   0.699   2.446
 4850SOL    HW115449   3.922   0.621   2.433
 4850SOL    HW215450   3.981   0.756   2.363
 4851SOL     OW15451   5.016   6.994   4.786
 4851SOL    HW115452   5.073   6.913   4.776
 4851SOL    HW215453   5.055   0.029   4.857
 4852SOL     OW15454   1.699   1.897   1.198
 4852SOL    HW115455   1.680   1.807   1.238
 4852SOL    HW215456   1.677   1.968   1.265
 4853SOL     OW15457   2.911   1.101   1.839
 4853SOL    HW115458   2.979   1.152   1.892
 4853SOL    HW215459   2.837   1.163   1.813
 4854SOL     OW15460   4.902   6.872   0.625
 4854SOL    HW115461   4.940   6.951   0.673
 4854SOL    HW215462   4.877   6.899   0.532
 4855SOL     OW15463   0.384   2.472   2.528
 4855SOL    HW115464   0.314   2.521   2.477
 4855SOL    HW215465   0.469   2.469   2.476
 4856SOL     OW15466   2.557   4.638   3.798
 4856SOL    HW115467   2.591   4.703   3.866
 4856SOL    HW215468   2.496   4.572   3.842
 4857SOL     OW15469   0.166   1.755   5.377
 4857SOL    HW115470   0.142   1.766   5.281
 4857SOL    HW215471   0.236   1.822   5.402
 4858SOL     OW15472   0.950   1.241   3.563
 4858SOL    HW115473   1.027   1.255   3.500
 4858SOL    HW215474   0.905   1.154   3.541
 4859SOL     OW15475   2.609   5.470   5.092
 4859SOL    HW115476   2.557   5.418   5.025
 4859SOL    HW215477   2.566   5.460   5.182
 4860SOL     OW15478   4.582   4.690   0.773
 4860SOL    HW115479   4.642   4.770   0.768
 4860SOL    HW215480   4.634   4.613   0.812
 4861SOL     OW15481   5.006   3.830   5.634
 4861SOL    HW115482   5.067   3.899   5.673
 4861SOL    HW215483   5.025   3.741   5.674
 4862SOL     OW15484   1.593   6.568   2.014
 4862SOL    HW115485   1.623   6.639   1.950
 4862SOL    HW215486   1.539   6.500   1.965
 4863SOL     OW15487   5.987   4.443   6.352
 4863SOL    HW115488   5.935   4.372   6.305
 4863SOL    HW215489   6.083   4.417   6.355
 4864SOL     OW15490   3.048   1.545   3.899
 4864SOL    HW115491   3.143   1.566   3.877
 4864SOL    HW215492   3.044   1.463   3.956
 4865SOL     OW15493   1.825   6.526   5.142
 4865SOL    HW115494   1.872   6.450   5.186
 4865SOL    HW215495   1.815   6.601   5.207
 4866SOL     OW15496   6.200   4.338   6.777
 4866SOL    HW115497   6.160   4.262   6.725
 4866SOL    HW215498   6.250   4.301   6.856
 4867SOL     OW15499   5.387   6.982   2.696
 4867SOL    HW115500   5.364   0.002   2.609
 4867SOL    HW215501   5.436   6.897   2.678
 4868SOL     OW15502   0.055   4.731   0.946
 4868SOL    HW115503   7.009   4.787   0.902
 4868SOL    HW215504   0.055   4.640   0.905
 4869SOL     OW15505   0.456   1.000   0.110
 4869SOL    HW115506   0.520   0.926   0.088
 4869SOL    HW215507   0.506   1.083   0.132
 4870SOL     OW15508   0.756   6.024   2.198
 4870SOL    HW115509   0.682   5.994   2.138
 4870SOL    HW215510   0.791   5.945   2.248
 4871SOL     OW15511   1.446   1.862   4.523
 4871SOL    HW115512   1.388   1.881   4.602
 4871SOL    HW215513   1.541   1.856   4.552
 4872SOL     OW15514   6.052   6.760   3.057
 4872SOL    HW115515   5.969   6.704   3.063
 4872SOL    HW215516   6.104   6.734   2.975
 4873SOL     OW15517   6.849   5.751   5.728
 4873SOL    HW115518   6.883   5.731   5.636
 4873SOL    HW215519   6.868   5.847   5.751
 4874SOL     OW15520   5.504   2.719   2.449
 4874SOL    HW115521   5.540   2.743   2.539
 4874SOL    HW215522   5.550   2.636   2.416
 4875SOL     OW15523   5.567   6.400   5.090
 4875SOL    HW115524   5.518   6.321   5.053
 4875SOL    HW215525   5.644   6.369   5.146
 4876SOL     OW15526   1.777   0.957   3.254
 4876SOL    HW115527   1.760   1.038   3.311
 4876SOL    HW215528   1.726   0.879   3.290
 4877SOL     OW15529   0.053   1.981   5.019
 4877SOL    HW115530   7.020   1.900   5.014
 4877SOL    HW215531   0.133   1.962   5.076
 4878SOL     OW15532   0.447   2.852   2.306
 4878SOL    HW115533   0.403   2.868   2.394
 4878SOL    HW215534   0.518   2.920   2.291
 4879SOL     OW15535   5.547   1.679   3.120
 4879SOL    HW115536   5.618   1.613   3.094
 4879SOL    HW215537   5.460   1.631   3.132
 4880SOL     OW15538   6.918   2.501   6.557
 4880SOL    HW115539   6.903   2.404   6.534
 4880SOL    HW215540   6.881   2.520   6.647
 4881SOL     OW15541   1.651   2.647   1.558
 4881SOL    HW115542   1.594   2.617   1.482
 4881SOL    HW215543   1.660   2.747   1.556
 4882SOL     OW15544   4.013   1.937   4.308
 4882SOL    HW115545   4.099   1.898   4.273
 4882SOL    HW215546   3.981   1.883   4.386
 4883SOL     OW15547   6.557   4.160   1.368
 4883SOL    HW115548   6.645   4.121   1.341
 4883SOL    HW215549   6.507   4.189   1.286
 4884SOL     OW15550   2.151   6.599   1.501
 4884SOL    HW115551   2.115   6.628   1.413
 4884SOL    HW215552   2.243   6.561   1.488
 4885SOL     OW15553   1.142   4.562   0.540
 4885SOL    HW115554   1.152   4.507   0.457
 4885SOL    HW215555   1.045   4.577   0.558
 4886SOL     OW15556   2.600   0.715   1.719
 4886SOL    HW115557   2.661   0.660   1.776
 4886SOL    HW215558   2.633   0.810   1.718
 4887SOL     OW15559   6.475   6.747   0.670
 4887SOL    HW115560   6.419   6.794   0.738
 4887SOL    HW215561   6.570   6.776   0.679
 4888SOL     OW15562   3.872   6.454   3.264
 4888SOL    HW115563   3.924   6.388   3.318
 4888SOL    HW215564   3.789   6.410   3.230
 4889SOL     OW15565   6.658   3.157   3.627
 4889SOL    HW115566   6.691   3.148   3.721
 4889SOL    HW215567   6.674   3.072   3.578
 4890SOL     OW15568   0.355   1.526   4.980
 4890SOL    HW115569   0.435   1.531   5.041
 4890SOL    HW215570   0.338   1.430   4.956
 4891SOL     OW15571   2.736   5.608   6.277
 4891SOL    HW115572   2.669   5.535   6.288
 4891SOL    HW215573   2.771   5.634   6.367
 4892SOL     OW15574   5.230   5.854   2.742
 4892SOL    HW115575   5.133   5.830   2.745
 4892SOL    HW215576   5.242   5.936   2.685
 4893SOL     OW15577   0.718   3.515   1.731
 4893SOL    HW115578   0.620   3.510   1.750
 4893SOL    HW215579   0.756   3.422   1.727
 4894SOL     OW15580   4.995   0.548   1.747
 4894SOL    HW115581   5.053   0.606   1.690
 4894SOL    HW215582   5.000   0.453   1.714
 4895SOL     OW15583   6.904   4.574   4.219
 4895SOL    HW115584   6.908   4.644   4.290
 4895SOL    HW215585   6.954   4.606   4.139
 4896SOL     OW15586   1.783   5.159   4.504
 4896SOL    HW115587   1.811   5.108   4.423
 4896SOL    HW215588   1.683   5.157   4.511
 4897SOL     OW15589   1.515   6.364   5.195
 4897SOL    HW115590   1.531   6.458   5.223
 4897SOL    HW215591   1.602   6.319   5.178
 4898SOL     OW15592   4.694   2.000   3.838
 4898SOL    HW115593   4.699   2.002   3.738
 4898SOL    HW215594   4.609   2.044   3.867
 4899SOL     OW15595   6.859   5.773   1.758
 4899SOL    HW115596   6.872   5.869   1.735
 4899SOL    HW215597   6.906   5.716   1.691
 4900SOL     OW15598   3.408   5.825   5.921
 4900SOL    HW115599   3.443   5.907   5.876
 4900SOL    HW215600   3.473   5.750   5.907
 4901SOL     OW15601   0.377   1.679   5.733
 4901SOL    HW115602   0.355   1.630   5.818
 4901SOL    HW215603   0.347   1.774   5.741
 4902SOL     OW15604   1.535   6.925   5.979
 4902SOL    HW115605   1.573   6.967   6.062
 4902SOL    HW215606   1.605   6.922   5.908
 4903SOL     OW15607   5.191   4.101   2.477
 4903SOL    HW115608   5.283   4.094   2.517
 4903SOL    HW215609   5.173   4.020   2.422
 4904SOL     OW15610   1.941   0.217   0.377
 4904SOL    HW115611   1.957   0.211   0.278
 4904SOL    HW215612   1.935   0.125   0.415
 4905SOL     OW15613   3.182   6.418   2.683
 4905SOL    HW115614   3.263   6.412   2.741
 4905SOL    HW215615   3.189   6.498   2.624
 4906SOL     OW15616   4.961   3.416   5.112
 4906SOL    HW115617   5.013   3.366   5.042
 4906SOL    HW215618   4.928   3.502   5.074
 4907SOL     OW15619   4.937   1.649   6.540
 4907SOL    HW115620   4.864   1.611   6.484
 4907SOL    HW215621   5.021   1.597   6.526
 4908SOL     OW15622   3.999   6.642   6.841
 4908SOL    HW115623   3.899   6.643   6.841
 4908SOL    HW215624   4.033   6.733   6.817
 4909SOL     OW15625   4.978   4.600   4.536
 4909SOL    HW115626   4.995   4.680   4.479
 4909SOL    HW215627   4.879   4.588   4.547
 4910SOL     OW15628   4.575   1.779   5.556
 4910SOL    HW115629   4.648   1.761   5.490
 4910SOL    HW215630   4.489   1.741   5.522
 4911SOL     OW15631   6.943   2.687   2.342
 4911SOL    HW115632   6.895   2.648   2.264
 4911SOL    HW215633   6.881   2.748   2.392
 4912SOL     OW15634   5.436   2.428   3.718
 4912SOL    HW115635   5.407   2.372   3.640
 4912SOL    HW215636   5.536   2.431   3.722
 4913SOL     OW15637   0.137   3.048   5.819
 4913SOL    HW115638   0.052   3.000   5.796
 4913SOL    HW215639   0.125   3.146   5.806
 4914SOL     OW15640   4.540   0.408   3.302
 4914SOL    HW115641   4.511   0.398   3.396
 4914SOL    HW215642   4.550   0.506   3.280
 4915SOL     OW15643   3.605   5.288   5.792
 4915SOL    HW115644   3.593   5.322   5.885
 4915SOL    HW215645   3.697   5.312   5.759
 4916SOL     OW15646   6.405   2.420   3.994
 4916SOL    HW115647   6.314   2.455   4.014
 4916SOL    HW215648   6.459   2.490   3.947
 4917SOL     OW15649   4.446   6.502   0.240
 4917SOL    HW115650   4.428   6.444   0.161
 4917SOL    HW215651   4.363   6.508   0.295
 4918SOL     OW15652   6.279   5.175   2.794
 4918SOL    HW115653   6.286   5.212   2.886
 4918SOL    HW215654   6.342   5.224   2.733
 4919SOL     OW15655   3.430   4.088   2.443
 4919SOL    HW115656   3.332   4.103   2.432
 4919SOL    HW215657   3.448   3.990   2.451
 4920SOL     OW15658   6.416   1.171   5.463
 4920SOL    HW115659   6.418   1.269   5.483
 4920SOL    HW215660   6.432   1.120   5.548
 4921SOL     OW15661   0.190   6.820   2.230
 4921SOL    HW115662   0.196   6.906   2.280
 4921SOL    HW215663   0.174   6.838   2.134
 4922SOL     OW15664   3.458   2.069   6.505
 4922SOL    HW115665   3.495   2.129   6.575
 4922SOL    HW215666   3.470   2.111   6.415
 4923SOL     OW15667   3.291   1.715   1.685
 4923SOL    HW115668   3.376   1.760   1.711
 4923SOL    HW215669   3.306   1.660   1.603
 4924SOL     OW15670   2.578   0.506   5.148
 4924SOL    HW115671   2.638   0.469   5.077
 4924SOL    HW215672   2.497   0.448   5.157
 4925SOL     OW15673   5.670   5.930   3.644
 4925SOL    HW115674   5.711   5.848   3.604
 4925SOL    HW215675   5.575   5.938   3.613
 4926SOL     OW15676   5.583   2.794   0.911
 4926SOL    HW115677   5.493   2.760   0.940
 4926SOL    HW215678   5.612   2.867   0.973
 4927SOL     OW15679   3.436   1.338   6.722
 4927SOL    HW115680   3.359   1.328   6.785
 4927SOL    HW215681   3.406   1.385   6.639
 4928SOL     OW15682   0.018   1.800   0.817
 4928SOL    HW115683   6.967   1.736   0.812
 4928SOL    HW215684   0.045   1.814   0.913
 4929SOL     OW15685   0.666   6.318   5.013
 4929SOL    HW115686   0.624   6.245   4.959
 4929SOL    HW215687   0.683   6.397   4.954
 4930SOL     OW15688   5.400   6.245   2.092
 4930SOL    HW115689   5.436   6.284   2.176
 4930SOL    HW215690   5.409   6.145   2.095
 4931SOL     OW15691   6.413   5.712   0.595
 4931SOL    HW115692   6.371   5.703   0.685
 4931SOL    HW215693   6.367   5.650   0.530
 4932SOL     OW15694   2.862   3.217   1.999
 4932SOL    HW115695   2.870   3.131   2.049
 4932SOL    HW215696   2.834   3.197   1.904
 4933SOL     OW15697   2.668   6.439   5.799
 4933SOL    HW115698   2.663   6.395   5.709
 4933SOL    HW215699   2.657   6.369   5.871
 4934SOL     OW15700   4.243   5.304   2.938
 4934SOL    HW115701   4.165   5.363   2.955
 4934SOL    HW215702   4.229   5.255   2.851
 4935SOL     OW15703   0.165   1.474   6.258
 4935SOL    HW115704   0.221   1.391   6.262
 4935SOL    HW215705   0.103   1.469   6.180
 4936SOL     OW15706   3.513   2.766   0.678
 4936SOL    HW115707   3.477   2.767   0.584
 4936SOL    HW215708   3.593   2.825   0.684
 4937SOL     OW15709   4.500   2.539   5.050
 4937SOL    HW115710   4.518   2.546   4.952
 4937SOL    HW215711   4.433   2.466   5.067
 4938SOL     OW15712   4.062   5.377   6.644
 4938SOL    HW115713   4.124   5.384   6.723
 4938SOL    HW215714   4.010   5.462   6.636
 4939SOL     OW15715   4.601   3.281   6.196
 4939SOL    HW115716   4.674   3.216   6.175
 4939SOL    HW215717   4.542   3.244   6.267
 4940SOL     OW15718   1.785   6.358   4.420
 4940SOL    HW115719   1.722   6.314   4.356
 4940SOL    HW215720   1.767   6.457   4.421
 4941SOL     OW15721   5.260   0.472   0.805
 4941SOL    HW115722   5.209   0.554   0.779
 4941SOL    HW215723   5.199   0.393   0.802
 4942SOL     OW15724   5.447   4.062   5.665
 4942SOL    HW115725   5.486   4.145   5.704
 4942SOL    HW215726   5.425   4.078   5.568
 4943SOL     OW15727   5.111   2.351   1.212
 4943SOL    HW115728   5.170   2.425   1.242
 4943SOL    HW215729   5.166   2.280   1.168
 4944SOL     OW15730   2.518   4.632   2.637
 4944SOL    HW115731   2.504   4.719   2.588
 4944SOL    HW215732   2.603   4.638   2.689
 4945SOL     OW15733   0.701   6.432   4.574
 4945SOL    HW115734   0.742   6.444   4.664
 4945SOL    HW215735   0.758   6.370   4.520
 4946SOL     OW15736   0.907   4.636   2.023
 4946SOL    HW115737   0.888   4.593   2.111
 4946SOL    HW215738   0.919   4.735   2.036
 4947SOL     OW15739   0.348   6.754   0.562
 4947SOL    HW115740   0.422   6.790   0.620
 4947SOL    HW215741   0.276   6.715   0.620
 4948SOL     OW15742   1.807   1.429   2.229
 4948SOL    HW115743   1.907   1.428   2.234
 4948SOL    HW215744   1.770   1.459   2.317
 4949SOL     OW15745   4.774   1.330   4.586
 4949SOL    HW115746   4.815   1.408   4.632
 4949SOL    HW215747   4.754   1.355   4.491
 4950SOL     OW15748   2.977   5.438   5.257
 4950SOL    HW115749   2.929   5.497   5.322
 4950SOL    HW215750   2.940   5.345   5.262
 4951SOL     OW15751   4.401   1.934   3.516
 4951SOL    HW115752   4.406   1.865   3.444
 4951SOL    HW215753   4.308   1.967   3.525
 4952SOL     OW15754   0.632   5.498   4.777
 4952SOL    HW115755   0.671   5.587   4.801
 4952SOL    HW215756   0.624   5.441   4.859
 4953SOL     OW15757   1.724   5.591   1.640
 4953SOL    HW115758   1.727   5.576   1.739
 4953SOL    HW215759   1.809   5.557   1.600
 4954SOL     OW15760   5.557   5.642   6.797
 4954SOL    HW115761   5.466   5.664   6.832
 4954SOL    HW215762   5.625   5.664   6.868
 4955SOL     OW15763   0.769   6.789   1.613
 4955SOL    HW115764   0.735   6.838   1.693
 4955SOL    HW215765   0.867   6.804   1.603
 4956SOL     OW15766   4.973   6.146   4.556
 4956SOL    HW115767   4.929   6.230   4.523
 4956SOL    HW215768   4.928   6.067   4.515
 4957SOL     OW15769   0.930   7.017   3.960
 4957SOL    HW115770   0.832   7.008   3.976
 4957SOL    HW215771   0.976   6.933   3.986
 4958SOL     OW15772   7.007   6.116   0.242
 4958SOL    HW115773   7.003   6.204   0.195
 4958SOL    HW215774   6.916   6.091   0.274
 4959SOL     OW15775   1.090   0.873   1.237
 4959SOL    HW115776   1.125   0.833   1.322
 4959SOL    HW215777   1.126   0.966   1.227
 4960SOL     OW15778   3.709   6.003   5.070
 4960SOL    HW115779   3.770   6.016   5.148
 4960SOL    HW215780   3.663   5.915   5.078
 4961SOL     OW15781   4.406   0.348   5.293
 4961SOL    HW115782   4.394   0.414   5.367
 4961SOL    HW215783   4.442   0.262   5.331
 4962SOL     OW15784   6.757   2.080   1.701
 4962SOL    HW115785   6.779   1.983   1.703
 4962SOL    HW215786   6.705   2.101   1.618
 4963SOL     OW15787   6.944   4.844   1.769
 4963SOL    HW115788   7.021   4.902   1.744
 4963SOL    HW215789   6.878   4.896   1.823
 4964SOL     OW15790   3.556   6.556   3.314
 4964SOL    HW115791   3.609   6.637   3.289
 4964SOL    HW215792   3.601   6.474   3.277
 4965SOL     OW15793   6.894   6.536   4.571
 4965SOL    HW115794   6.838   6.514   4.491
 4965SOL    HW215795   6.989   6.508   4.553
 4966SOL     OW15796   3.835   4.960   3.659
 4966SOL    HW115797   3.802   4.947   3.752
 4966SOL    HW215798   3.932   4.936   3.653
 4967SOL     OW15799   4.479   1.924   5.924
 4967SOL    HW115800   4.542   1.874   5.864
 4967SOL    HW215801   4.386   1.888   5.912
 4968SOL     OW15802   5.969   3.815   5.507
 4968SOL    HW115803   5.889   3.872   5.488
 4968SOL    HW215804   6.018   3.852   5.586
 4969SOL     OW15805   0.634   1.835   2.127
 4969SOL    HW115806   0.687   1.771   2.071
 4969SOL    HW215807   0.536   1.815   2.117
 4970SOL     OW15808   0.956   2.675   5.881
 4970SOL    HW115809   0.945   2.771   5.908
 4970SOL    HW215810   0.919   2.662   5.789
 4971SOL     OW15811   6.137   5.893   3.908
 4971SOL    HW115812   6.208   5.850   3.964
 4971SOL    HW215813   6.161   5.989   3.893
 4972SOL     OW15814   1.081   2.363   5.912
 4972SOL    HW115815   1.014   2.412   5.856
 4972SOL    HW215816   1.166   2.416   5.916
 4973SOL     OW15817   5.902   6.143   3.220
 4973SOL    HW115818   5.882   6.055   3.263
 4973SOL    HW215819   5.817   6.187   3.191
 4974SOL     OW15820   4.849   6.791   1.542
 4974SOL    HW115821   4.882   6.751   1.457
 4974SOL    HW215822   4.808   6.881   1.524
 4975SOL     OW15823   5.568   6.076   0.338
 4975SOL    HW115824   5.479   6.119   0.352
 4975SOL    HW215825   5.624   6.090   0.420
 4976SOL     OW15826   4.093   0.338   4.614
 4976SOL    HW115827   4.063   0.394   4.537
 4976SOL    HW215828   4.063   0.379   4.700
 4977SOL     OW15829   3.401   3.990   0.441
 4977SOL    HW115830   3.462   3.914   0.464
 4977SOL    HW215831   3.365   3.977   0.348
 4978SOL     OW15832   6.127   2.970   5.853
 4978SOL    HW115833   6.068   2.896   5.821
 4978SOL    HW215834   6.220   2.955   5.819
 4979SOL     OW15835   1.674   1.721   5.064
 4979SOL    HW115836   1.708   1.789   5.129
 4979SOL    HW215837   1.667   1.632   5.110
 4980SOL     OW15838   2.622   5.467   2.263
 4980SOL    HW115839   2.642   5.547   2.206
 4980SOL    HW215840   2.679   5.390   2.233
 4981SOL     OW15841   4.062   6.046   5.459
 4981SOL    HW115842   4.073   5.952   5.491
 4981SOL    HW215843   4.134   6.104   5.499
 4982SOL     OW15844   2.235   2.595   0.452
 4982SOL    HW115845   2.202   2.578   0.545
 4982SOL    HW215846   2.333   2.575   0.448
 4983SOL     OW15847   5.272   3.149   4.326
 4983SOL    HW115848   5.265   3.072   4.389
 4983SOL    HW215849   5.279   3.234   4.378
 4984SOL     OW15850   4.958   3.683   2.775
 4984SOL    HW115851   4.901   3.683   2.857
 4984SOL    HW215852   4.969   3.589   2.742
 4985SOL     OW15853   5.642   3.699   2.700
 4985SOL    HW115854   5.724   3.641   2.702
 4985SOL    HW215855   5.669   3.794   2.712
 4986SOL     OW15856   4.916   4.355   2.168
 4986SOL    HW115857   5.004   4.323   2.134
 4986SOL    HW215858   4.931   4.415   2.247
 4987SOL     OW15859   0.325   3.714   1.043
 4987SOL    HW115860   0.386   3.788   1.069
 4987SOL    HW215861   0.368   3.658   0.972
 4988SOL     OW15862   0.536   2.407   5.038
 4988SOL    HW115863   0.615   2.468   5.048
 4988SOL    HW215864   0.477   2.415   5.118
 4989SOL     OW15865   0.215   1.018   0.251
 4989SOL    HW115866   0.153   1.093   0.230
 4989SOL    HW215867   0.302   1.033   0.206
 4990SOL     OW15868   0.854   2.562   5.228
 4990SOL    HW115869   0.773   2.514   5.263
 4990SOL    HW215870   0.835   2.597   5.136
 4991SOL     OW15871   1.609   2.680   4.540
 4991SOL    HW115872   1.540   2.608   4.543
 4991SOL    HW215873   1.693   2.647   4.583
 4992SOL     OW15874   3.636   0.659   5.374
 4992SOL    HW115875   3.732   0.687   5.375
 4992SOL    HW215876   3.603   0.654   5.468
 4993SOL     OW15877   2.977   5.571   4.057
 4993SOL    HW115878   2.934   5.643   4.003
 4993SOL    HW215879   2.934   5.483   4.037
 4994SOL     OW15880   6.963   6.563   2.154
 4994SOL    HW115881   6.993   6.606   2.069
 4994SOL    HW215882   0.016   6.555   2.217
 4995SOL     OW15883   6.143   2.735   5.553
 4995SOL    HW115884   6.235   2.772   5.565
 4995SOL    HW215885   6.148   2.636   5.540
 4996SOL     OW15886   0.458   1.318   4.293
 4996SOL    HW115887   0.425   1.234   4.251
 4996SOL    HW215888   0.516   1.367   4.227
 4997SOL     OW15889   0.264   2.215   3.270
 4997SOL    HW115890   0.346   2.181   3.223
 4997SOL    HW215891   0.239   2.304   3.232
 4998SOL     OW15892   1.166   5.687   5.375
 4998SOL    HW115893   1.163   5.742   5.292
 4998SOL    HW215894   1.261   5.666   5.398
 4999SOL     OW15895   6.319   4.263   1.197
 4999SOL    HW115896   6.287   4.229   1.109
 4999SOL    HW215897   6.328   4.363   1.193
 5000SOL     OW15898   6.974   5.690   4.409
 5000SOL    HW115899   6.920   5.754   4.353
 5000SOL    HW215900   6.926   5.603   4.415
 5001SOL     OW15901   4.593   4.249   5.850
 5001SOL    HW115902   4.676   4.199   5.825
 5001SOL    HW215903   4.520   4.227   5.786
 5002SOL     OW15904   2.345   1.416   1.507
 5002SOL    HW115905   2.364   1.470   1.589
 5002SOL    HW215906   2.362   1.319   1.527
 5003SOL     OW15907   6.282   5.544   2.921
 5003SOL    HW115908   6.378   5.538   2.950
 5003SOL    HW215909   6.257   5.640   2.908
 5004SOL     OW15910   3.532   5.288   0.020
 5004SOL    HW115911   3.589   5.211   7.015
 5004SOL    HW215912   3.590   5.358   0.061
 5005SOL     OW15913   4.743   2.346   6.874
 5005SOL    HW115914   4.816   2.408   6.903
 5005SOL    HW215915   4.711   2.372   6.783
 5006SOL     OW15916   5.120   4.766   3.876
 5006SOL    HW115917   5.201   4.803   3.921
 5006SOL    HW215918   5.127   4.781   3.777
 5007SOL     OW15919   3.909   1.517   4.591
 5007SOL    HW115920   3.963   1.542   4.672
 5007SOL    HW215921   3.947   1.434   4.552
 5008SOL     OW15922   6.989   1.261   4.049
 5008SOL    HW115923   6.964   1.346   4.096
 5008SOL    HW215924   7.007   1.280   3.953
 5009SOL     OW15925   2.023   6.185   3.900
 5009SOL    HW115926   1.943   6.129   3.921
 5009SOL    HW215927   2.099   6.126   3.875
 5010SOL     OW15928   3.798   3.365   4.340
 5010SOL    HW115929   3.750   3.354   4.253
 5010SOL    HW215930   3.886   3.411   4.323
 5011SOL     OW15931   1.530   3.176   2.701
 5011SOL    HW115932   1.470   3.167   2.622
 5011SOL    HW215933   1.518   3.266   2.742
 5012SOL     OW15934   6.182   3.130   6.767
 5012SOL    HW115935   6.106   3.192   6.746
 5012SOL    HW215936   6.225   3.157   6.853
 5013SOL     OW15937   4.961   1.139   5.881
 5013SOL    HW115938   4.932   1.192   5.801
 5013SOL    HW215939   4.915   1.176   5.962
 5014SOL     OW15940   6.333   6.638   7.014
 5014SOL    HW115941   6.246   6.614   6.973
 5014SOL    HW215942   6.360   6.729   6.983
 5015SOL     OW15943   5.243   2.390   3.248
 5015SOL    HW115944   5.208   2.350   3.333
 5015SOL    HW215945   5.268   2.317   3.185
 5016SOL     OW15946   2.634   6.850   2.334
 5016SOL    HW115947   2.650   6.859   2.432
 5016SOL    HW215948   2.710   6.891   2.284
 5017SOL     OW15949   2.403   2.775   1.781
 5017SOL    HW115950   2.346   2.840   1.832
 5017SOL    HW215951   2.468   2.825   1.724
 5018SOL     OW15952   6.669   5.129   4.639
 5018SOL    HW115953   6.638   5.047   4.686
 5018SOL    HW215954   6.650   5.210   4.695
 5019SOL     OW15955   2.558   5.416   6.376
 5019SOL    HW115956   2.594   5.324   6.395
 5019SOL    HW215957   2.472   5.429   6.425
 5020SOL     OW15958   5.198   5.419   6.317
 5020SOL    HW115959   5.109   5.402   6.359
 5020SOL    HW215960   5.186   5.432   6.218
 5021SOL     OW15961   2.095   4.908   6.040
 5021SOL    HW115962   2.031   4.978   6.008
 5021SOL    HW215963   2.121   4.849   5.963
 5022SOL     OW15964   1.728   5.012   0.835
 5022SOL    HW115965   1.775   4.929   0.864
 5022SOL    HW215966   1.751   5.033   0.740
 5023SOL     OW15967   6.589   3.578   2.659
 5023SOL    HW115968   6.533   3.535   2.730
 5023SOL    HW215969   6.630   3.662   2.695
 5024SOL     OW15970   5.282   3.637   5.615
 5024SOL    HW115971   5.229   3.639   5.531
 5024SOL    HW215972   5.274   3.547   5.658
 5025SOL     OW15973   6.336   1.780   2.923
 5025SOL    HW115974   6.343   1.827   3.011
 5025SOL    HW215975   6.245   1.795   2.884
 5026SOL     OW15976   0.556   6.377   2.760
 5026SOL    HW115977   0.627   6.307   2.755
 5026SOL    HW215978   0.561   6.422   2.849
 5027SOL     OW15979   0.880   6.659   3.517
 5027SOL    HW115980   0.945   6.606   3.463
 5027SOL    HW215981   0.860   6.610   3.602
 5028SOL     OW15982   1.420   0.538   2.963
 5028SOL    HW115983   1.445   0.444   2.987
 5028SOL    HW215984   1.472   0.566   2.883
 5029SOL     OW15985   7.023   0.899   2.525
 5029SOL    HW115986   0.047   0.933   2.445
 5029SOL    HW215987   6.968   0.820   2.499
 5030SOL     OW15988   1.741   5.435   6.892
 5030SOL    HW115989   1.656   5.487   6.885
 5030SOL    HW215990   1.720   5.340   6.914
 5031SOL     OW15991   5.802   0.259   5.207
 5031SOL    HW115992   5.772   0.207   5.127
 5031SOL    HW215993   5.734   0.250   5.280
 5032SOL     OW15994   1.094   6.241   1.200
 5032SOL    HW115995   1.047   6.207   1.119
 5032SOL    HW215996   1.080   6.340   1.207
 5033SOL     OW15997   1.199   4.199   5.890
 5033SOL    HW115998   1.270   4.184   5.822
 5033SOL    HW215999   1.110   4.209   5.844
 5034SOL     OW16000   6.647   4.048   0.189
 5034SOL    HW116001   6.637   4.147   0.188
 5034SOL    HW216002   6.724   4.022   0.130
 5035SOL     OW16003   6.199   4.212   1.425
 5035SOL    HW116004   6.250   4.229   1.340
 5035SOL    HW216005   6.136   4.136   1.410
 5036SOL     OW16006   1.915   0.874   2.660
 5036SOL    HW116007   1.909   0.781   2.696
 5036SOL    HW216008   1.843   0.930   2.700
 5037SOL     OW16009   4.556   2.555   3.291
 5037SOL    HW116010   4.583   2.610   3.212
 5037SOL    HW216011   4.584   2.460   3.276
 5038SOL     OW16012   2.568   6.420   6.170
 5038SOL    HW116013   2.629   6.498   6.186
 5038SOL    HW216014   2.474   6.452   6.164
 5039SOL     OW16015   1.888   1.589   3.656
 5039SOL    HW116016   1.820   1.605   3.584
 5039SOL    HW216017   1.980   1.592   3.617
 5040SOL     OW16018   3.073   3.462   6.379
 5040SOL    HW116019   3.013   3.542   6.370
 5040SOL    HW216020   3.052   3.397   6.306
 5041SOL     OW16021   1.245   5.328   1.159
 5041SOL    HW116022   1.328   5.281   1.129
 5041SOL    HW216023   1.256   5.426   1.145
 5042SOL     OW16024   5.841   2.042   5.856
 5042SOL    HW116025   5.746   2.068   5.875
 5042SOL    HW216026   5.889   2.024   5.941
 5043SOL     OW16027   4.340   6.994   3.259
 5043SOL    HW116028   4.364   0.065   3.275
 5043SOL    HW216029   4.313   6.952   3.345
 5044SOL     OW16030   6.250   4.253   2.993
 5044SOL    HW116031   6.206   4.174   3.035
 5044SOL    HW216032   6.181   4.317   2.961
 5045SOL     OW16033   6.461   3.213   6.100
 5045SOL    HW116034   6.470   3.114   6.089
 5045SOL    HW216035   6.490   3.258   6.015
 5046SOL     OW16036   3.174   3.218   5.179
 5046SOL    HW116037   3.087   3.266   5.171
 5046SOL    HW216038   3.246   3.272   5.136
 5047SOL     OW16039   1.513   0.940   2.747
 5047SOL    HW116040   1.563   0.985   2.673
 5047SOL    HW216041   1.527   0.992   2.832
 5048SOL     OW16042   5.895   3.370   1.346
 5048SOL    HW116043   5.815   3.428   1.328
 5048SOL    HW216044   5.970   3.397   1.286
 5049SOL     OW16045   1.392   2.481   2.596
 5049SOL    HW116046   1.415   2.429   2.678
 5049SOL    HW216047   1.467   2.544   2.575
 5050SOL     OW16048   0.979   3.512   1.042
 5050SOL    HW116049   0.954   3.423   1.005
 5050SOL    HW216050   0.974   3.510   1.142
 5051SOL     OW16051   2.971   4.120   0.509
 5051SOL    HW116052   2.878   4.140   0.540
 5051SOL    HW216053   2.967   4.072   0.421
 5052SOL     OW16054   5.915   3.469   0.839
 5052SOL    HW116055   5.853   3.452   0.915
 5052SOL    HW216056   5.948   3.382   0.802
 5053SOL     OW16057   2.020   4.783   0.380
 5053SOL    HW116058   1.955   4.737   0.319
 5053SOL    HW216059   2.078   4.714   0.424
 5054SOL     OW16060   3.971   5.833   4.930
 5054SOL    HW116061   3.920   5.911   4.964
 5054SOL    HW216062   3.964   5.757   4.994
 5055SOL     OW16063   1.782   2.382   4.047
 5055SOL    HW116064   1.871   2.336   4.053
 5055SOL    HW216065   1.780   2.439   3.965
 5056SOL     OW16066   1.896   2.242   5.439
 5056SOL    HW116067   1.931   2.188   5.362
 5056SOL    HW216068   1.923   2.337   5.428
 5057SOL     OW16069   0.832   5.101   2.994
 5057SOL    HW116070   0.843   5.121   2.897
 5057SOL    HW216071   0.736   5.112   3.020
 5058SOL     OW16072   3.370   3.805   6.990
 5058SOL    HW116073   3.370   3.816   6.891
 5058SOL    HW216074   3.456   3.762   7.019
 5059SOL     OW16075   4.407   1.688   3.010
 5059SOL    HW116076   4.393   1.746   3.090
 5059SOL    HW216077   4.348   1.719   2.936
 5060SOL     OW16078   0.382   3.450   5.342
 5060SOL    HW116079   0.443   3.373   5.320
 5060SOL    HW216080   0.422   3.505   5.415
 5061SOL     OW16081   3.804   2.432   5.591
 5061SOL    HW116082   3.803   2.510   5.529
 5061SOL    HW216083   3.720   2.379   5.581
 5062SOL     OW16084   5.296   0.849   3.689
 5062SOL    HW116085   5.286   0.930   3.630
 5062SOL    HW216086   5.207   0.805   3.699
 5063SOL     OW16087   0.970   1.213   1.755
 5063SOL    HW116088   1.040   1.225   1.825
 5063SOL    HW216089   0.919   1.129   1.772
 5064SOL     OW16090   5.063   5.733   0.688
 5064SOL    HW116091   4.968   5.732   0.717
 5064SOL    HW216092   5.119   5.781   0.755
 5065SOL     OW16093   2.396   1.200   2.675
 5065SOL    HW116094   2.320   1.216   2.739
 5065SOL    HW216095   2.415   1.102   2.669
 5066SOL     OW16096   2.456   4.897   2.557
 5066SOL    HW116097   2.489   4.972   2.500
 5066SOL    HW216098   2.470   4.919   2.654
 5067SOL     OW16099   5.321   2.908   0.392
 5067SOL    HW116100   5.278   2.900   0.481
 5067SOL    HW216101   5.415   2.875   0.397
 5068SOL     OW16102   2.797   5.774   0.400
 5068SOL    HW116103   2.739   5.725   0.335
 5068SOL    HW216104   2.810   5.717   0.481
 5069SOL     OW16105   3.431   5.048   4.962
 5069SOL    HW116106   3.351   5.029   4.905
 5069SOL    HW216107   3.401   5.073   5.054
 5070SOL     OW16108   5.942   3.623   4.747
 5070SOL    HW116109   6.022   3.632   4.688
 5070SOL    HW216110   5.951   3.682   4.826
 5071SOL     OW16111   2.668   6.745   3.859
 5071SOL    HW116112   2.584   6.692   3.846
 5071SOL    HW216113   2.738   6.713   3.795
 5072SOL     OW16114   0.858   1.292   0.712
 5072SOL    HW116115   0.922   1.238   0.766
 5072SOL    HW216116   0.908   1.365   0.665
 5073SOL     OW16117   2.427   0.435   2.405
 5073SOL    HW116118   2.503   0.495   2.428
 5073SOL    HW216119   2.361   0.435   2.480
 5074SOL     OW16120   3.549   2.303   1.658
 5074SOL    HW116121   3.618   2.329   1.727
 5074SOL    HW216122   3.467   2.269   1.704
 5075SOL     OW16123   0.542   3.470   6.935
 5075SOL    HW116124   0.545   3.372   6.958
 5075SOL    HW216125   0.544   3.524   7.019
 5076SOL     OW16126   6.242   0.036   6.445
 5076SOL    HW116127   6.151   0.064   6.414
 5076SOL    HW216128   6.299   0.015   6.365
 5077SOL     OW16129   0.571   4.603   3.965
 5077SOL    HW116130   0.573   4.539   4.041
 5077SOL    HW216131   0.563   4.697   4.000
 5078SOL     OW16132   0.663   1.933   4.084
 5078SOL    HW116133   0.700   1.845   4.057
 5078SOL    HW216134   0.735   1.989   4.125
 5079SOL     OW16135   1.900   2.977   5.883
 5079SOL    HW116136   1.841   2.905   5.919
 5079SOL    HW216137   1.861   3.066   5.905
 5080SOL     OW16138   5.705   5.685   7.020
 5080SOL    HW116139   5.763   5.667   0.075
 5080SOL    HW216140   5.653   5.769   0.010
 5081SOL     OW16141   2.800   5.577   5.436
 5081SOL    HW116142   2.806   5.676   5.451
 5081SOL    HW216143   2.825   5.529   5.520
 5082SOL     OW16144   5.386   6.125   1.745
 5082SOL    HW116145   5.400   6.066   1.824
 5082SOL    HW216146   5.450   6.100   1.673
 5083SOL     OW16147   1.482   0.384   3.344
 5083SOL    HW116148   1.416   0.314   3.317
 5083SOL    HW216149   1.450   0.431   3.426
 5084SOL     OW16150   2.231   4.588   5.405
 5084SOL    HW116151   2.192   4.616   5.317
 5084SOL    HW216152   2.243   4.668   5.464
 5085SOL     OW16153   0.515   4.153   5.194
 5085SOL    HW116154   0.582   4.085   5.222
 5085SOL    HW216155   0.547   4.199   5.111
 5086SOL     OW16156   1.892   5.281   1.858
 5086SOL    HW116157   1.846   5.335   1.929
 5086SOL    HW216158   1.968   5.335   1.820
 5087SOL     OW16159   6.337   4.596   2.211
 5087SOL    HW116160   6.378   4.505   2.198
 5087SOL    HW216161   6.272   4.592   2.287
 5088SOL     OW16162   5.105   6.070   1.846
 5088SOL    HW116163   5.020   6.104   1.806
 5088SOL    HW216164   5.182   6.124   1.811
 5089SOL     OW16165   5.357   5.493   5.791
 5089SOL    HW116166   5.438   5.446   5.756
 5089SOL    HW216167   5.360   5.495   5.890
 5090SOL     OW16168   2.945   6.857   5.404
 5090SOL    HW116169   3.010   6.890   5.473
 5090SOL    HW216170   2.983   6.776   5.359
 5091SOL     OW16171   6.650   0.031   6.352
 5091SOL    HW116172   6.610   7.015   6.434
 5091SOL    HW216173   6.686   6.982   6.293
 5092SOL     OW16174   2.912   3.414   4.249
 5092SOL    HW116175   2.820   3.389   4.221
 5092SOL    HW216176   2.956   3.337   4.294
 5093SOL     OW16177   2.694   1.991   2.605
 5093SOL    HW116178   2.610   2.044   2.592
 5093SOL    HW216179   2.773   2.051   2.590
 5094SOL     OW16180   1.740   5.704   5.208
 5094SOL    HW116181   1.828   5.665   5.180
 5094SOL    HW216182   1.684   5.718   5.127
 5095SOL     OW16183   6.422   1.516   3.033
 5095SOL    HW116184   6.487   1.449   2.998
 5095SOL    HW216185   6.429   1.601   2.980
 5096SOL     OW16186   5.985   2.824   5.330
 5096SOL    HW116187   5.995   2.922   5.314
 5096SOL    HW216188   6.041   2.797   5.409
 5097SOL     OW16189   1.416   0.406   5.884
 5097SOL    HW116190   1.370   0.400   5.973
 5097SOL    HW216191   1.433   0.314   5.849
 5098SOL     OW16192   3.393   3.398   0.797
 5098SOL    HW116193   3.434   3.306   0.803
 5098SOL    HW216194   3.305   3.392   0.749
 5099SOL     OW16195   1.414   0.209   1.988
 5099SOL    HW116196   1.409   0.112   2.013
 5099SOL    HW216197   1.350   0.262   2.043
 5100SOL     OW16198   5.165   3.347   2.299
 5100SOL    HW116199   5.207   3.423   2.349
 5100SOL    HW216200   5.067   3.363   2.289
 5101SOL     OW16201   3.969   0.932   6.555
 5101SOL    HW116202   3.909   0.971   6.485
 5101SOL    HW216203   3.917   0.868   6.611
 5102SOL     OW16204   4.630   4.523   4.083
 5102SOL    HW116205   4.638   4.433   4.040
 5102SOL    HW216206   4.721   4.560   4.100
 5103SOL     OW16207   0.498   1.512   6.280
 5103SOL    HW116208   0.549   1.583   6.328
 5103SOL    HW216209   0.546   1.488   6.196
 5104SOL     OW16210   3.831   3.347   1.976
 5104SOL    HW116211   3.849   3.281   1.903
 5104SOL    HW216212   3.763   3.309   2.039
 5105SOL     OW16213   4.265   3.076   6.103
 5105SOL    HW116214   4.311   3.071   6.014
 5105SOL    HW216215   4.176   3.031   6.097
 5106SOL     OW16216   4.418   2.324   0.755
 5106SOL    HW116217   4.418   2.423   0.765
 5106SOL    HW216218   4.397   2.300   0.660
 5107SOL     OW16219   4.853   3.760   6.856
 5107SOL    HW116220   4.890   3.852   6.848
 5107SOL    HW216221   4.902   3.710   6.927
 5108SOL     OW16222   4.303   4.737   0.356
 5108SOL    HW116223   4.203   4.734   0.355
 5108SOL    HW216224   4.338   4.669   0.421
 5109SOL     OW16225   1.094   3.015   1.200
 5109SOL    HW116226   1.009   3.068   1.196
 5109SOL    HW216227   1.167   3.067   1.156
 5110SOL     OW16228   4.783   7.016   5.610
 5110SOL    HW116229   4.854   0.061   5.623
 5110SOL    HW216230   4.721   7.017   5.689
 5111SOL     OW16231   0.367   6.389   4.811
 5111SOL    HW116232   0.438   6.319   4.797
 5111SOL    HW216233   0.410   6.476   4.835
 5112SOL     OW16234   6.840   6.419   3.498
 5112SOL    HW116235   6.745   6.387   3.503
 5112SOL    HW216236   6.846   6.511   3.537
 5113SOL     OW16237   1.596   3.940   7.011
 5113SOL    HW116238   1.605   3.954   6.912
 5113SOL    HW216239   1.685   3.916   0.025
 5114SOL     OW16240   4.868   4.933   1.141
 5114SOL    HW116241   4.791   4.995   1.155
 5114SOL    HW216242   4.864   4.858   1.207
 5115SOL     OW16243   1.920   4.156   0.889
 5115SOL    HW116244   1.875   4.130   0.975
 5115SOL    HW216245   1.967   4.243   0.901
 5116SOL     OW16246   1.208   0.415   6.452
 5116SOL    HW116247   1.175   0.322   6.459
 5116SOL    HW216248   1.237   0.447   6.542
 5117SOL     OW16249   1.122   2.532   3.540
 5117SOL    HW116250   1.212   2.493   3.561
 5117SOL    HW216251   1.133   2.625   3.505
 5118SOL     OW16252   4.593   5.382   6.398
 5118SOL    HW116253   4.628   5.432   6.319
 5118SOL    HW216254   4.496   5.400   6.409
 5119SOL     OW16255   5.479   0.894   0.179
 5119SOL    HW116256   5.543   0.874   0.105
 5119SOL    HW216257   5.450   0.989   0.172
 5120SOL     OW16258   5.430   6.290   6.776
 5120SOL    HW116259   5.351   6.278   6.715
 5120SOL    HW216260   5.476   6.202   6.789
 5121SOL     OW16261   1.347   3.648   6.593
 5121SOL    HW116262   1.280   3.592   6.544
 5121SOL    HW216263   1.426   3.591   6.619
 5122SOL     OW16264   5.284   4.903   4.115
 5122SOL    HW116265   5.328   4.835   4.173
 5122SOL    HW216266   5.184   4.890   4.119
 5123SOL     OW16267   4.930   3.178   1.311
 5123SOL    HW116268   4.885   3.169   1.400
 5123SOL    HW216269   5.027   3.198   1.325
 5124SOL     OW16270   2.269   6.175   5.273
 5124SOL    HW116271   2.263   6.081   5.238
 5124SOL    HW216272   2.233   6.178   5.366
 5125SOL     OW16273   6.555   1.943   3.772
 5125SOL    HW116274   6.525   1.863   3.823
 5125SOL    HW216275   6.510   2.025   3.808
 5126SOL     OW16276   1.923   0.411   1.153
 5126SOL    HW116277   1.958   0.499   1.121
 5126SOL    HW216278   1.899   0.418   1.250
 5127SOL     OW16279   2.153   5.304   6.947
 5127SOL    HW116280   2.158   5.374   7.019
 5127SOL    HW216281   2.240   5.303   6.897
 5128SOL     OW16282   6.133   0.088   2.122
 5128SOL    HW116283   6.132   0.104   2.024
 5128SOL    HW216284   6.040   0.069   2.154
 5129SOL     OW16285   5.328   6.862   1.084
 5129SOL    HW116286   5.332   6.766   1.111
 5129SOL    HW216287   5.269   6.912   1.147
 5130SOL     OW16288   6.996   4.732   3.360
 5130SOL    HW116289   7.001   4.768   3.453
 5130SOL    HW216290   6.976   4.635   3.362
 5131SOL     OW16291   2.695   2.311   2.658
 5131SOL    HW116292   2.630   2.261   2.601
 5131SOL    HW216293   2.653   2.397   2.689
 5132SOL     OW16294   2.966   6.143   5.240
 5132SOL    HW116295   3.011   6.104   5.160
 5132SOL    HW216296   3.034   6.182   5.302
 5133SOL     OW16297   3.810   6.056   5.708
 5133SOL    HW116298   3.904   6.053   5.742
 5133SOL    HW216299   3.809   6.090   5.615
 5134SOL     OW16300   6.245   4.355   0.063
 5134SOL    HW116301   6.339   4.377   0.037
 5134SOL    HW216302   6.243   4.268   0.112
 5135SOL     OW16303   5.710   1.609   4.510
 5135SOL    HW116304   5.754   1.522   4.534
 5135SOL    HW216305   5.614   1.606   4.540
 5136SOL     OW16306   4.250   1.134   4.288
 5136SOL    HW116307   4.185   1.182   4.229
 5136SOL    HW216308   4.334   1.189   4.296
 5137SOL     OW16309   3.384   4.750   6.804
 5137SOL    HW116310   3.435   4.817   6.859
 5137SOL    HW216311   3.313   4.708   6.860
 5138SOL     OW16312   2.544   3.121   6.054
 5138SOL    HW116313   2.547   3.080   6.146
 5138SOL    HW216314   2.530   3.219   6.062
 5139SOL     OW16315   0.688   0.131   3.210
 5139SOL    HW116316   0.755   0.077   3.160
 5139SOL    HW216317   0.637   0.189   3.145
 5140SOL     OW16318   3.772   2.897   1.514
 5140SOL    HW116319   3.846   2.840   1.548
 5140SOL    HW216320   3.756   2.973   1.577
 5141SOL     OW16321   6.664   3.638   6.258
 5141SOL    HW116322   6.725   3.663   6.333
 5141SOL    HW216323   6.616   3.721   6.225
 5142SOL     OW16324   5.493   3.192   3.991
 5142SOL    HW116325   5.590   3.214   3.978
 5142SOL    HW216326   5.440   3.277   3.990
 5143SOL     OW16327   6.685   4.621   4.489
 5143SOL    HW116328   6.681   4.522   4.493
 5143SOL    HW216329   6.776   4.652   4.519
 5144SOL     OW16330   1.592   1.178   4.704
 5144SOL    HW116331   1.520   1.123   4.661
 5144SOL    HW216332   1.597   1.267   4.659
 5145SOL     OW16333   2.993   5.807   5.997
 5145SOL    HW116334   2.925   5.736   5.980
 5145SOL    HW216335   3.065   5.801   5.928
 5146SOL     OW16336   2.552   4.133   6.761
 5146SOL    HW116337   2.494   4.214   6.772
 5146SOL    HW216338   2.575   4.096   6.850
 5147SOL     OW16339   6.195   4.969   6.814
 5147SOL    HW116340   6.189   5.059   6.772
 5147SOL    HW216341   6.267   4.969   6.884
 5148SOL     OW16342   0.457   6.673   1.921
 5148SOL    HW116343   0.445   6.766   1.957
 5148SOL    HW216344   0.441   6.607   1.994
 5149SOL     OW16345   6.753   0.925   5.082
 5149SOL    HW116346   6.808   0.874   5.148
 5149SOL    HW216347   6.681   0.866   5.046
 5150SOL     OW16348   1.621   5.287   4.234
 5150SOL    HW116349   1.552   5.218   4.254
 5150SOL    HW216350   1.704   5.243   4.202
 5151SOL     OW16351   4.494   1.070   6.306
 5151SOL    HW116352   4.543   0.988   6.278
 5151SOL    HW216353   4.559   1.138   6.340
 5152SOL     OW16354   1.066   5.132   0.435
 5152SOL    HW116355   1.109   5.148   0.345
 5152SOL    HW216356   1.048   5.035   0.446
 5153SOL     OW16357   1.628   1.784   0.955
 5153SOL    HW116358   1.660   1.814   1.045
 5153SOL    HW216359   1.603   1.864   0.900
 5154SOL     OW16360   2.048   3.057   4.476
 5154SOL    HW116361   2.075   3.098   4.563
 5154SOL    HW216362   2.043   2.958   4.486
 5155SOL     OW16363   3.203   0.873   2.147
 5155SOL    HW116364   3.216   0.944   2.217
 5155SOL    HW216365   3.291   0.837   2.120
 5156SOL     OW16366   5.882   3.410   5.682
 5156SOL    HW116367   5.791   3.448   5.696
 5156SOL    HW216368   5.876   3.325   5.631
 5157SOL     OW16369   5.891   3.182   3.610
 5157SOL    HW116370   5.800   3.224   3.609
 5157SOL    HW216371   5.888   3.096   3.559
 5158SOL     OW16372   4.012   1.044   0.784
 5158SOL    HW116373   4.008   1.132   0.737
 5158SOL    HW216374   3.936   0.986   0.753
 5159SOL     OW16375   1.260   2.651   4.276
 5159SOL    HW116376   1.342   2.702   4.303
 5159SOL    HW216377   1.225   2.601   4.355
 5160SOL     OW16378   2.125   2.851   4.009
 5160SOL    HW116379   2.124   2.944   4.046
 5160SOL    HW216380   2.032   2.814   4.011
 5161SOL     OW16381   1.685   3.017   6.787
 5161SOL    HW116382   1.593   2.982   6.769
 5161SOL    HW216383   1.679   3.113   6.816
 5162SOL     OW16384   6.072   6.248   5.257
 5162SOL    HW116385   6.156   6.274   5.305
 5162SOL    HW216386   6.094   6.227   5.161
 5163SOL     OW16387   5.578   3.418   0.816
 5163SOL    HW116388   5.557   3.426   0.914
 5163SOL    HW216389   5.675   3.435   0.801
 5164SOL     OW16390   5.685   4.992   6.144
 5164SOL    HW116391   5.696   5.023   6.238
 5164SOL    HW216392   5.717   4.897   6.137
 5165SOL     OW16393   6.462   4.295   4.133
 5165SOL    HW116394   6.422   4.377   4.173
 5165SOL    HW216395   6.454   4.298   4.034
 5166SOL     OW16396   1.168   0.580   1.947
 5166SOL    HW116397   1.103   0.544   1.881
 5166SOL    HW216398   1.122   0.645   2.008
 5167SOL     OW16399   0.896   6.358   5.912
 5167SOL    HW116400   0.895   6.443   5.965
 5167SOL    HW216401   0.908   6.380   5.815
 5168SOL     OW16402   3.638   1.961   2.937
 5168SOL    HW116403   3.551   1.974   2.891
 5168SOL    HW216404   3.627   1.978   3.035
 5169SOL     OW16405   3.745   4.522   6.376
 5169SOL    HW116406   3.759   4.590   6.303
 5169SOL    HW216407   3.664   4.467   6.355
 5170SOL     OW16408   5.017   4.159   4.152
 5170SOL    HW116409   4.927   4.152   4.193
 5170SOL    HW216410   5.068   4.074   4.166
 5171SOL     OW16411   2.627   4.731   4.620
 5171SOL    HW116412   2.640   4.690   4.529
 5171SOL    HW216413   2.579   4.666   4.679
 5172SOL     OW16414   2.134   4.930   0.821
 5172SOL    HW116415   2.157   4.926   0.724
 5172SOL    HW216416   2.042   4.968   0.832
 5173SOL     OW16417   6.064   3.895   5.737
 5173SOL    HW116418   6.151   3.881   5.785
 5173SOL    HW216419   6.007   3.958   5.789
 5174SOL     OW16420   1.306   4.452   5.825
 5174SOL    HW116421   1.308   4.504   5.910
 5174SOL    HW216422   1.261   4.364   5.841
 5175SOL     OW16423   0.353   4.888   6.548
 5175SOL    HW116424   0.269   4.914   6.597
 5175SOL    HW216425   0.405   4.970   6.526
 5176SOL     OW16426   5.127   3.604   0.332
 5176SOL    HW116427   5.154   3.700   0.345
 5176SOL    HW216428   5.028   3.598   0.325
 5177SOL     OW16429   5.707   6.805   6.955
 5177SOL    HW116430   5.627   6.785   7.013
 5177SOL    HW216431   5.688   6.885   6.899
 5178SOL     OW16432   2.621   1.917   1.601
 5178SOL    HW116433   2.565   1.999   1.595
 5178SOL    HW216434   2.600   1.856   1.525
 5179SOL     OW16435   2.755   5.861   5.470
 5179SOL    HW116436   2.852   5.880   5.452
 5179SOL    HW216437   2.703   5.946   5.462
 5180SOL     OW16438   3.449   2.471   1.150
 5180SOL    HW116439   3.498   2.528   1.085
 5180SOL    HW216440   3.352   2.470   1.126
 5181SOL     OW16441   3.272   5.436   2.530
 5181SOL    HW116442   3.183   5.396   2.549
 5181SOL    HW216443   3.269   5.534   2.548
 5182SOL     OW16444   4.935   4.252   1.767
 5182SOL    HW116445   4.976   4.311   1.699
 5182SOL    HW216446   4.900   4.308   1.843
 5183SOL     OW16447   4.456   0.352   2.930
 5183SOL    HW116448   4.496   0.279   2.876
 5183SOL    HW216449   4.527   0.418   2.954
 5184SOL     OW16450   0.629   1.644   3.210
 5184SOL    HW116451   0.724   1.620   3.191
 5184SOL    HW216452   0.576   1.640   3.125
 5185SOL     OW16453   4.003   0.035   2.480
 5185SOL    HW116454   4.077   0.100   2.460
 5185SOL    HW216455   4.037   6.990   2.544
 5186SOL     OW16456   6.013   4.290   0.506
 5186SOL    HW116457   5.929   4.337   0.476
 5186SOL    HW216458   6.087   4.312   0.443
 5187SOL     OW16459   5.263   1.673   4.022
 5187SOL    HW116460   5.281   1.637   4.113
 5187SOL    HW216461   5.165   1.693   4.012
 5188SOL     OW16462   1.153   3.442   4.822
 5188SOL    HW116463   1.139   3.381   4.745
 5188SOL    HW216464   1.117   3.400   4.905
 5189SOL     OW16465   4.966   5.233   6.635
 5189SOL    HW116466   5.019   5.298   6.689
 5189SOL    HW216467   4.872   5.265   6.628
 5190SOL     OW16468   1.380   2.473   3.564
 5190SOL    HW116469   1.418   2.521   3.642
 5190SOL    HW216470   1.454   2.438   3.506
 5191SOL     OW16471   3.979   0.392   1.514
 5191SOL    HW116472   3.974   0.305   1.465
 5191SOL    HW216473   4.075   0.415   1.530
 5192SOL     OW16474   5.785   4.528   2.360
 5192SOL    HW116475   5.713   4.476   2.316
 5192SOL    HW216476   5.808   4.486   2.448
 5193SOL     OW16477   5.272   3.592   3.041
 5193SOL    HW116478   5.224   3.534   3.107
 5193SOL    HW216479   5.342   3.538   2.994
 5194SOL     OW16480   5.813   1.460   5.933
 5194SOL    HW116481   5.828   1.559   5.935
 5194SOL    HW216482   5.733   1.437   5.987
 5195SOL     OW16483   6.557   6.850   5.920
 5195SOL    HW116484   6.483   6.913   5.897
 5195SOL    HW216485   6.535   6.801   6.005
 5196SOL     OW16486   0.860   3.280   1.702
 5196SOL    HW116487   0.891   3.278   1.797
 5196SOL    HW216488   0.781   3.220   1.692
 5197SOL     OW16489   2.994   6.004   4.996
 5197SOL    HW116490   3.064   5.932   4.995
 5197SOL    HW216491   2.906   5.966   4.970
 5198SOL     OW16492   4.271   0.026   5.779
 5198SOL    HW116493   4.214   0.097   5.738
 5198SOL    HW216494   4.221   6.964   5.778
 5199SOL     OW16495   1.141   4.990   1.413
 5199SOL    HW116496   1.103   4.993   1.321
 5199SOL    HW216497   1.077   4.945   1.474
 5200SOL     OW16498   0.170   0.585   5.093
 5200SOL    HW116499   0.123   0.528   5.026
 5200SOL    HW216500   0.212   0.528   5.163
 5201SOL     OW16501   6.312   4.787   4.903
 5201SOL    HW116502   6.404   4.827   4.894
 5201SOL    HW216503   6.293   4.729   4.824
 5202SOL     OW16504   3.975   2.922   5.801
 5202SOL    HW116505   3.888   2.924   5.752
 5202SOL    HW216506   4.039   2.986   5.759
 5203SOL     OW16507   1.917   0.347   6.724
 5203SOL    HW116508   1.925   0.347   6.824
 5203SOL    HW216509   2.008   0.346   6.683
 5204SOL     OW16510   2.779   0.228   0.860
 5204SOL    HW116511   2.871   0.192   0.873
 5204SOL    HW216512   2.784   0.318   0.816
 5205SOL     OW16513   0.099   6.298   1.285
 5205SOL    HW116514   0.175   6.315   1.348
 5205SOL    HW216515   0.015   6.336   1.324
 5206SOL     OW16516   1.098   4.990   3.774
 5206SOL    HW116517   1.053   4.998   3.863
 5206SOL    HW216518   1.036   4.946   3.709
 5207SOL     OW16519   6.678   6.922   3.811
 5207SOL    HW116520   6.718   7.012   3.832
 5207SOL    HW216521   6.697   6.859   3.887
 5208SOL     OW16522   5.715   2.343   0.662
 5208SOL    HW116523   5.629   2.355   0.613
 5208SOL    HW216524   5.717   2.404   0.742
 5209SOL     OW16525   5.906   5.607   3.302
 5209SOL    HW116526   5.912   5.507   3.304
 5209SOL    HW216527   5.885   5.641   3.394
 5210SOL     OW16528   5.210   3.871   0.378
 5210SOL    HW116529   5.229   3.969   0.379
 5210SOL    HW216530   5.194   3.839   0.471
 5211SOL     OW16531   5.603   2.364   5.185
 5211SOL    HW116532   5.522   2.316   5.149
 5211SOL    HW216533   5.681   2.346   5.126
 5212SOL     OW16534   0.695   3.639   0.251
 5212SOL    HW116535   0.621   3.663   0.188
 5212SOL    HW216536   0.706   3.711   0.319
 5213SOL     OW16537   3.841   3.648   2.980
 5213SOL    HW116538   3.789   3.699   3.048
 5213SOL    HW216539   3.853   3.705   2.899
 5214SOL     OW16540   5.633   3.747   5.264
 5214SOL    HW116541   5.549   3.694   5.278
 5214SOL    HW216542   5.707   3.686   5.236
 5215SOL     OW16543   0.706   3.597   4.846
 5215SOL    HW116544   0.788   3.593   4.789
 5215SOL    HW216545   0.660   3.509   4.844
 5216SOL     OW16546   5.492   5.105   1.313
 5216SOL    HW116547   5.537   5.189   1.344
 5216SOL    HW216548   5.437   5.067   1.387
 5217SOL     OW16549   4.747   6.229   3.192
 5217SOL    HW116550   4.788   6.207   3.103
 5217SOL    HW216551   4.790   6.171   3.262
 5218SOL     OW16552   6.465   0.274   0.832
 5218SOL    HW116553   6.438   0.185   0.868
 5218SOL    HW216554   6.507   0.328   0.904
 5219SOL     OW16555   3.223   1.267   5.149
 5219SOL    HW116556   3.320   1.244   5.145
 5219SOL    HW216557   3.197   1.288   5.243
 5220SOL     OW16558   2.557   5.183   3.961
 5220SOL    HW116559   2.607   5.184   4.048
 5220SOL    HW216560   2.530   5.277   3.937
 5221SOL     OW16561   6.026   5.675   1.148
 5221SOL    HW116562   6.064   5.744   1.209
 5221SOL    HW216563   6.032   5.585   1.192
 5222SOL     OW16564   6.321   3.627   1.150
 5222SOL    HW116565   6.395   3.636   1.083
 5222SOL    HW216566   6.358   3.600   1.238
 5223SOL     OW16567   0.091   3.109   0.442
 5223SOL    HW116568   0.021   3.177   0.462
 5223SOL    HW216569   0.178   3.138   0.481
 5224SOL     OW16570   0.146   2.215   4.929
 5224SOL    HW116571   0.115   2.125   4.961
 5224SOL    HW216572   0.095   2.287   4.975
 5225SOL     OW16573   6.944   1.414   4.509
 5225SOL    HW116574   6.971   1.392   4.603
 5225SOL    HW216575   6.964   1.336   4.450
 5226SOL     OW16576   0.706   6.533   3.831
 5226SOL    HW116577   0.622   6.490   3.864
 5226SOL    HW216578   0.725   6.502   3.738
 5227SOL     OW16579   0.671   3.577   5.765
 5227SOL    HW116580   0.754   3.545   5.720
 5227SOL    HW216581   0.672   3.550   5.861
 5228SOL     OW16582   0.969   1.229   5.434
 5228SOL    HW116583   0.879   1.241   5.392
 5228SOL    HW216584   1.021   1.159   5.384
 5229SOL     OW16585   3.202   1.951   6.547
 5229SOL    HW116586   3.203   1.851   6.541
 5229SOL    HW216587   3.295   1.986   6.538
 5230SOL     OW16588   6.985   6.945   1.734
 5230SOL    HW116589   0.003   6.978   1.649
 5230SOL    HW216590   6.921   6.872   1.712
 5231SOL     OW16591   6.669   3.141   2.077
 5231SOL    HW116592   6.649   3.068   2.142
 5231SOL    HW216593   6.735   3.204   2.116
 5232SOL     OW16594   1.766   2.738   5.976
 5232SOL    HW116595   1.695   2.669   5.990
 5232SOL    HW216596   1.852   2.693   5.951
 5233SOL     OW16597   3.206   6.699   2.634
 5233SOL    HW116598   3.297   6.722   2.600
 5233SOL    HW216599   3.137   6.754   2.586
 5234SOL     OW16600   3.068   2.318   6.878
 5234SOL    HW116601   3.155   2.268   6.877
 5234SOL    HW216602   3.084   2.413   6.903
 5235SOL     OW16603   2.099   2.137   1.507
 5235SOL    HW116604   2.156   2.078   1.450
 5235SOL    HW216605   2.133   2.231   1.503
 5236SOL     OW16606   3.038   5.231   1.034
 5236SOL    HW116607   3.129   5.244   1.073
 5236SOL    HW216608   3.017   5.133   1.033
 5237SOL     OW16609   2.008   2.214   2.653
 5237SOL    HW116610   1.998   2.274   2.573
 5237SOL    HW216611   1.938   2.238   2.721
 5238SOL     OW16612   0.524   6.542   3.007
 5238SOL    HW116613   0.508   6.510   3.101
 5238SOL    HW216614   0.622   6.556   2.993
 5239SOL     OW16615   2.677   3.754   1.049
 5239SOL    HW116616   2.668   3.854   1.044
 5239SOL    HW216617   2.595   3.711   1.012
 5240SOL     OW16618   2.371   3.911   5.897
 5240SOL    HW116619   2.372   4.002   5.855
 5240SOL    HW216620   2.402   3.844   5.830
 5241SOL     OW16621   0.831   6.306   2.532
 5241SOL    HW116622   0.776   6.388   2.547
 5241SOL    HW216623   0.918   6.331   2.489
 5242SOL     OW16624   4.475   1.172   6.854
 5242SOL    HW116625   4.538   1.111   6.807
 5242SOL    HW216626   4.418   1.118   6.917
 5243SOL     OW16627   2.483   5.958   1.651
 5243SOL    HW116628   2.458   6.028   1.583
 5243SOL    HW216629   2.402   5.934   1.704
 5244SOL     OW16630   5.261   1.704   0.193
 5244SOL    HW116631   5.257   1.608   0.164
 5244SOL    HW216632   5.286   1.708   0.290
 5245SOL     OW16633   3.266   3.999   1.642
 5245SOL    HW116634   3.314   3.912   1.651
 5245SOL    HW216635   3.217   4.002   1.555
 5246SOL     OW16636   6.683   4.453   6.367
 5246SOL    HW116637   6.653   4.385   6.300
 5246SOL    HW216638   6.758   4.506   6.329
 5247SOL     OW16639   4.144   2.157   6.520
 5247SOL    HW116640   4.050   2.142   6.492
 5247SOL    HW216641   4.151   2.149   6.619
 5248SOL     OW16642   5.504   0.918   3.414
 5248SOL    HW116643   5.504   1.018   3.417
 5248SOL    HW216644   5.416   0.885   3.379
 5249SOL     OW16645   0.663   4.614   0.355
 5249SOL    HW116646   0.614   4.548   0.298
 5249SOL    HW216647   0.622   4.704   0.343
 5250SOL     OW16648   1.777   5.963   0.988
 5250SOL    HW116649   1.866   5.998   0.957
 5250SOL    HW216650   1.731   6.033   1.043
 5251SOL     OW16651   0.758   5.044   0.565
 5251SOL    HW116652   0.674   5.030   0.618
 5251SOL    HW216653   0.778   5.142   0.560
 5252SOL     OW16654   3.649   6.318   2.630
 5252SOL    HW116655   3.726   6.286   2.685
 5252SOL    HW216656   3.635   6.256   2.553
 5253SOL     OW16657   6.661   5.453   5.128
 5253SOL    HW116658   6.575   5.506   5.125
 5253SOL    HW216659   6.677   5.422   5.221
 5254SOL     OW16660   5.056   6.573   3.582
 5254SOL    HW116661   5.011   6.528   3.505
 5254SOL    HW216662   4.990   6.584   3.657
 5255SOL     OW16663   6.573   1.596   5.116
 5255SOL    HW116664   6.531   1.680   5.151
 5255SOL    HW216665   6.669   1.612   5.097
 5256SOL     OW16666   6.717   1.604   2.232
 5256SOL    HW116667   6.789   1.570   2.172
 5256SOL    HW216668   6.659   1.528   2.261
 5257SOL     OW16669   4.113   1.449   6.066
 5257SOL    HW116670   4.192   1.410   6.113
 5257SOL    HW216671   4.034   1.448   6.128
 5258SOL     OW16672   4.246   1.346   3.547
 5258SOL    HW116673   4.249   1.432   3.598
 5258SOL    HW216674   4.317   1.347   3.476
 5259SOL     OW16675   6.434   4.944   3.751
 5259SOL    HW116676   6.515   4.997   3.776
 5259SOL    HW216677   6.460   4.848   3.736
 5260SOL     OW16678   2.001   0.810   0.844
 5260SOL    HW116679   1.972   0.820   0.749
 5260SOL    HW216680   2.050   0.723   0.855
 5261SOL     OW16681   5.841   4.304   6.587
 5261SOL    HW116682   5.878   4.380   6.534
 5261SOL    HW216683   5.746   4.326   6.614
 5262SOL     OW16684   1.695   1.484   2.486
 5262SOL    HW116685   1.622   1.465   2.551
 5262SOL    HW216686   1.737   1.573   2.508
 5263SOL     OW16687   1.512   6.535   2.325
 5263SOL    HW116688   1.547   6.534   2.419
 5263SOL    HW216689   1.540   6.619   2.279
 5264SOL     OW16690   6.301   1.332   1.812
 5264SOL    HW116691   6.312   1.431   1.813
 5264SOL    HW216692   6.273   1.302   1.721
 5265SOL     OW16693   6.652   4.758   5.390
 5265SOL    HW116694   6.638   4.676   5.334
 5265SOL    HW216695   6.745   4.792   5.378
 5266SOL     OW16696   1.878   0.570   6.524
 5266SOL    HW116697   1.882   0.498   6.593
 5266SOL    HW216698   1.878   0.659   6.569
 5267SOL     OW16699   5.333   2.380   4.085
 5267SOL    HW116700   5.268   2.410   4.156
 5267SOL    HW216701   5.373   2.293   4.112
 5268SOL     OW16702   5.323   6.952   5.904
 5268SOL    HW116703   5.350   6.979   5.812
 5268SOL    HW216704   5.391   6.986   5.970
 5269SOL     OW16705   0.447   6.998   3.573
 5269SOL    HW116706   0.381   0.002   3.504
 5269SOL    HW216707   0.400   6.951   3.648
 5270SOL     OW16708   0.566   1.248   6.201
 5270SOL    HW116709   0.660   1.238   6.233
 5270SOL    HW216710   0.523   1.324   6.249
 5271SOL     OW16711   0.574   5.226   3.031
 5271SOL    HW116712   0.546   5.257   3.121
 5271SOL    HW216713   0.534   5.285   2.961
 5272SOL     OW16714   4.327   0.297   6.817
 5272SOL    HW116715   4.274   0.327   6.896
 5272SOL    HW216716   4.416   0.263   6.846
 5273SOL     OW16717   2.295   1.816   2.639
 5273SOL    HW116718   2.392   1.795   2.628
 5273SOL    HW216719   2.286   1.909   2.676
 5274SOL     OW16720   5.346   4.883   1.129
 5274SOL    HW116721   5.402   4.879   1.047
 5274SOL    HW216722   5.404   4.877   1.210
 5275SOL     OW16723   4.573   1.891   6.740
 5275SOL    HW116724   4.643   1.899   6.669
 5275SOL    HW216725   4.489   1.854   6.701
 5276SOL     OW16726   4.417   6.793   1.380
 5276SOL    HW116727   4.438   6.794   1.478
 5276SOL    HW216728   4.461   6.871   1.336
 5277SOL     OW16729   2.237   2.969   1.868
 5277SOL    HW116730   2.241   3.062   1.833
 5277SOL    HW216731   2.141   2.938   1.868
 5278SOL     OW16732   4.370   3.560   1.648
 5278SOL    HW116733   4.365   3.507   1.563
 5278SOL    HW216734   4.462   3.556   1.685
 5279SOL     OW16735   2.147   5.769   2.721
 5279SOL    HW116736   2.185   5.688   2.678
 5279SOL    HW216737   2.160   5.848   2.661
 5280SOL     OW16738   4.423   6.964   5.253
 5280SOL    HW116739   4.492   0.006   5.227
 5280SOL    HW216740   4.335   6.988   5.211
 5281SOL     OW16741   0.293   3.151   2.404
 5281SOL    HW116742   0.302   3.057   2.439
 5281SOL    HW216743   0.208   3.159   2.351
 5282SOL     OW16744   4.837   1.655   1.936
 5282SOL    HW116745   4.823   1.667   1.837
 5282SOL    HW216746   4.782   1.579   1.969
 5283SOL     OW16747   5.591   5.365   6.221
 5283SOL    HW116748   5.598   5.274   6.261
 5283SOL    HW216749   5.641   5.431   6.278
 5284SOL     OW16750   4.994   2.618   3.447
 5284SOL    HW116751   5.027   2.608   3.353
 5284SOL    HW216752   5.052   2.683   3.496
 5285SOL     OW16753   3.786   5.745   2.610
 5285SOL    HW116754   3.837   5.659   2.617
 5285SOL    HW216755   3.732   5.744   2.526
 5286SOL     OW16756   2.750   5.219   2.141
 5286SOL    HW116757   2.745   5.249   2.046
 5286SOL    HW216758   2.817   5.145   2.149
 5287SOL     OW16759   0.601   2.063   1.901
 5287SOL    HW116760   0.582   2.030   1.993
 5287SOL    HW216761   0.641   1.990   1.846
 5288SOL     OW16762   4.439   1.170   0.624
 5288SOL    HW116763   4.377   1.232   0.576
 5288SOL    HW216764   4.432   1.079   0.585
 5289SOL     OW16765   2.700   6.159   0.821
 5289SOL    HW116766   2.705   6.232   0.753
 5289SOL    HW216767   2.720   6.071   0.777
 5290SOL     OW16768   4.638   5.841   0.770
 5290SOL    HW116769   4.673   5.847   0.863
 5290SOL    HW216770   4.607   5.931   0.740
 5291SOL     OW16771   1.927   4.774   6.818
 5291SOL    HW116772   1.855   4.736   6.876
 5291SOL    HW216773   1.931   4.722   6.733
 5292SOL     OW16774   5.325   2.512   6.542
 5292SOL    HW116775   5.385   2.453   6.487
 5292SOL    HW216776   5.290   2.460   6.620
 5293SOL     OW16777   1.223   1.553   4.255
 5293SOL    HW116778   1.174   1.635   4.285
 5293SOL    HW216779   1.296   1.532   4.320
 5294SOL     OW16780   4.912   2.726   5.469
 5294SOL    HW116781   4.895   2.790   5.394
 5294SOL    HW216782   4.946   2.775   5.549
 5295SOL     OW16783   5.641   0.920   2.284
 5295SOL    HW116784   5.732   0.961   2.285
 5295SOL    HW216785   5.634   0.855   2.208
 5296SOL     OW16786   0.574   3.578   0.575
 5296SOL    HW116787   0.650   3.642   0.563
 5296SOL    HW216788   0.577   3.509   0.503
 5297SOL     OW16789   1.777   3.105   1.823
 5297SOL    HW116790   1.868   3.146   1.812
 5297SOL    HW216791   1.708   3.177   1.825
 5298SOL     OW16792   1.254   5.694   1.625
 5298SOL    HW116793   1.256   5.594   1.617
 5298SOL    HW216794   1.168   5.729   1.589
 5299SOL     OW16795   3.260   0.335   1.538
 5299SOL    HW116796   3.287   0.416   1.487
 5299SOL    HW216797   3.319   0.325   1.618
 5300SOL     OW16798   6.669   5.376   3.616
 5300SOL    HW116799   6.653   5.467   3.654
 5300SOL    HW216800   6.582   5.337   3.586
 5301SOL     OW16801   4.878   0.495   0.339
 5301SOL    HW116802   4.933   0.429   0.287
 5301SOL    HW216803   4.924   0.583   0.341
 5302SOL     OW16804   6.597   4.709   3.207
 5302SOL    HW116805   6.501   4.708   3.235
 5302SOL    HW216806   6.602   4.709   3.107
 5303SOL     OW16807   0.425   5.376   3.298
 5303SOL    HW116808   0.333   5.373   3.259
 5303SOL    HW216809   0.464   5.467   3.285
 5304SOL     OW16810   4.916   2.272   5.177
 5304SOL    HW116811   4.950   2.354   5.222
 5304SOL    HW216812   4.849   2.227   5.237
 5305SOL     OW16813   2.726   0.969   2.519
 5305SOL    HW116814   2.730   0.936   2.424
 5305SOL    HW216815   2.634   0.953   2.555
 5306SOL     OW16816   2.677   6.890   4.718
 5306SOL    HW116817   2.591   6.879   4.768
 5306SOL    HW216818   2.736   6.810   4.734
 5307SOL     OW16819   4.552   0.143   6.902
 5307SOL    HW116820   4.559   0.175   6.997
 5307SOL    HW216821   4.484   0.071   6.896
 5308SOL     OW16822   6.984   1.342   2.299
 5308SOL    HW116823   6.908   1.310   2.356
 5308SOL    HW216824   6.958   1.426   2.252
 5309SOL     OW16825   3.882   3.892   4.065
 5309SOL    HW116826   3.913   3.808   4.111
 5309SOL    HW216827   3.915   3.892   3.971
 5310SOL     OW16828   5.846   1.971   0.423
 5310SOL    HW116829   5.817   1.971   0.518
 5310SOL    HW216830   5.812   2.054   0.378
 5311SOL     OW16831   1.846   5.562   0.085
 5311SOL    HW116832   1.826   5.514   7.025
 5311SOL    HW216833   1.889   5.500   0.150
 5312SOL     OW16834   0.233   3.109   1.853
 5312SOL    HW116835   0.246   3.024   1.803
 5312SOL    HW216836   0.285   3.106   1.939
 5313SOL     OW16837   1.327   5.784   0.710
 5313SOL    HW116838   1.323   5.756   0.614
 5313SOL    HW216839   1.243   5.758   0.756
 5314SOL     OW16840   3.483   4.815   0.825
 5314SOL    HW116841   3.574   4.805   0.866
 5314SOL    HW216842   3.430   4.881   0.878
 5315SOL     OW16843   5.078   2.837   1.955
 5315SOL    HW116844   5.090   2.936   1.965
 5315SOL    HW216845   4.981   2.817   1.942
 5316SOL     OW16846   6.071   5.322   4.896
 5316SOL    HW116847   6.155   5.323   4.949
 5316SOL    HW216848   6.003   5.265   4.942
 5317SOL     OW16849   6.171   5.785   2.812
 5317SOL    HW116850   6.097   5.826   2.865
 5317SOL    HW216851   6.136   5.709   2.758
 5318SOL     OW16852   0.618   2.300   4.260
 5318SOL    HW116853   0.553   2.309   4.336
 5318SOL    HW216854   0.678   2.222   4.276
 5319SOL     OW16855   3.549   0.351   1.303
 5319SOL    HW116856   3.494   0.268   1.308
 5319SOL    HW216857   3.614   0.343   1.228
 5320SOL     OW16858   6.475   3.816   5.321
 5320SOL    HW116859   6.472   3.886   5.393
 5320SOL    HW216860   6.424   3.849   5.242
 5321SOL     OW16861   1.489   5.156   6.224
 5321SOL    HW116862   1.547   5.075   6.221
 5321SOL    HW216863   1.516   5.219   6.151
 5322SOL     OW16864   3.092   6.242   0.897
 5322SOL    HW116865   3.114   6.327   0.849
 5322SOL    HW216866   3.154   6.170   0.867
 5323SOL     OW16867   6.178   3.692   0.298
 5323SOL    HW116868   6.084   3.676   0.269
 5323SOL    HW216869   6.199   3.789   0.289
 5324SOL     OW16870   3.844   3.179   1.759
 5324SOL    HW116871   3.916   3.111   1.743
 5324SOL    HW216872   3.761   3.150   1.712
 5325SOL     OW16873   4.533   5.852   4.440
 5325SOL    HW116874   4.585   5.936   4.421
 5325SOL    HW216875   4.436   5.869   4.422
 5326SOL     OW16876   0.237   0.073   2.340
 5326SOL    HW116877   0.322   0.109   2.302
 5326SOL    HW216878   0.219   0.117   2.428
 5327SOL     OW16879   6.668   0.599   4.188
 5327SOL    HW116880   6.730   0.527   4.159
 5327SOL    HW216881   6.679   0.679   4.129
 5328SOL     OW16882   3.740   5.031   0.924
 5328SOL    HW116883   3.686   4.953   0.955
 5328SOL    HW216884   3.700   5.115   0.960
 5329SOL     OW16885   6.672   5.692   0.503
 5329SOL    HW116886   6.588   5.697   0.558
 5329SOL    HW216887   6.743   5.748   0.545
 5330SOL     OW16888   3.606   4.882   0.168
 5330SOL    HW116889   3.702   4.859   0.152
 5330SOL    HW216890   3.558   4.891   0.081
 5331SOL     OW16891   4.993   2.825   6.448
 5331SOL    HW116892   5.089   2.804   6.432
 5331SOL    HW216893   4.973   2.918   6.418
 5332SOL     OW16894   5.905   3.245   0.272
 5332SOL    HW116895   5.820   3.280   0.231
 5332SOL    HW216896   5.962   3.322   0.301
 5333SOL     OW16897   1.284   1.979   4.324
 5333SOL    HW116898   1.336   1.930   4.394
 5333SOL    HW216899   1.335   1.980   4.239
 5334SOL     OW16900   3.466   5.863   1.832
 5334SOL    HW116901   3.558   5.839   1.801
 5334SOL    HW216902   3.400   5.837   1.762
 5335SOL     OW16903   0.248   4.681   1.488
 5335SOL    HW116904   0.161   4.719   1.459
 5335SOL    HW216905   0.290   4.741   1.556
 5336SOL     OW16906   1.730   2.837   5.120
 5336SOL    HW116907   1.823   2.800   5.119
 5336SOL    HW216908   1.718   2.894   5.202
 5337SOL     OW16909   6.545   4.601   0.841
 5337SOL    HW116910   6.445   4.608   0.838
 5337SOL    HW216911   6.576   4.540   0.768
 5338SOL     OW16912   6.471   3.866   0.136
 5338SOL    HW116913   6.541   3.937   0.145
 5338SOL    HW216914   6.439   3.838   0.226
 5339SOL     OW16915   5.513   3.201   2.596
 5339SOL    HW116916   5.591   3.138   2.591
 5339SOL    HW216917   5.478   3.218   2.503
 5340SOL     OW16918   4.840   3.471   1.829
 5340SOL    HW116919   4.854   3.372   1.826
 5340SOL    HW216920   4.925   3.516   1.854
 5341SOL     OW16921   4.519   4.564   3.457
 5341SOL    HW116922   4.471   4.630   3.400
 5341SOL    HW216923   4.531   4.601   3.549
 5342SOL     OW16924   6.257   5.851   5.082
 5342SOL    HW116925   6.354   5.828   5.077
 5342SOL    HW216926   6.236   5.921   5.014
 5343SOL     OW16927   3.678   3.112   6.350
 5343SOL    HW116928   3.705   3.162   6.433
 5343SOL    HW216929   3.749   3.047   6.326
 5344SOL     OW16930   0.196   1.684   6.691
 5344SOL    HW116931   0.228   1.640   6.607
 5344SOL    HW216932   0.254   1.763   6.712
 5345SOL     OW16933   5.108   1.527   6.215
 5345SOL    HW116934   5.031   1.537   6.152
 5345SOL    HW216935   5.084   1.461   6.286
 5346SOL     OW16936   3.278   5.675   2.890
 5346SOL    HW116937   3.365   5.693   2.937
 5346SOL    HW216938   3.224   5.758   2.886
 5347SOL     OW16939   5.585   1.411   4.019
 5347SOL    HW116940   5.677   1.412   4.058
 5347SOL    HW216941   5.553   1.505   4.006
 5348SOL     OW16942   5.143   2.786   4.863
 5348SOL    HW116943   5.058   2.758   4.907
 5348SOL    HW216944   5.153   2.737   4.777
 5349SOL     OW16945   1.188   3.622   1.715
 5349SOL    HW116946   1.106   3.586   1.759
 5349SOL    HW216947   1.219   3.703   1.765
 5350SOL     OW16948   1.328   5.893   0.109
 5350SOL    HW116949   1.322   5.955   0.031
 5350SOL    HW216950   1.238   5.882   0.150
 5351SOL     OW16951   6.431   6.112   3.463
 5351SOL    HW116952   6.390   6.111   3.371
 5351SOL    HW216953   6.501   6.040   3.469
 5352SOL     OW16954   1.391   2.920   5.968
 5352SOL    HW116955   1.433   3.001   5.925
 5352SOL    HW216956   1.302   2.902   5.926
 5353SOL     OW16957   3.886   4.860   3.388
 5353SOL    HW116958   3.967   4.807   3.366
 5353SOL    HW216959   3.908   4.928   3.458
 5354SOL     OW16960   3.850   5.655   1.589
 5354SOL    HW116961   3.854   5.647   1.490
 5354SOL    HW216962   3.929   5.609   1.630
 5355SOL     OW16963   5.476   5.429   5.402
 5355SOL    HW116964   5.432   5.502   5.350
 5355SOL    HW216965   5.414   5.350   5.407
 5356SOL     OW16966   0.914   6.244   0.980
 5356SOL    HW116967   0.952   6.171   0.923
 5356SOL    HW216968   0.824   6.216   1.013
 5357SOL     OW16969   6.385   3.936   2.651
 5357SOL    HW116970   6.310   3.975   2.704
 5357SOL    HW216971   6.364   3.943   2.553
 5358SOL     OW16972   5.132   1.185   6.871
 5358SOL    HW116973   5.143   1.114   6.801
 5358SOL    HW216974   5.048   1.168   6.923
 5359SOL     OW16975   3.620   2.372   6.701
 5359SOL    HW116976   3.716   2.374   6.675
 5359SOL    HW216977   3.607   2.309   6.777
 5360SOL     OW16978   5.801   4.910   3.942
 5360SOL    HW116979   5.802   5.010   3.943
 5360SOL    HW216980   5.869   4.875   4.006
 5361SOL     OW16981   1.247   5.150   2.626
 5361SOL    HW116982   1.287   5.074   2.575
 5361SOL    HW216983   1.159   5.174   2.586
 5362SOL     OW16984   5.794   1.558   2.601
 5362SOL    HW116985   5.807   1.649   2.562
 5362SOL    HW216986   5.717   1.559   2.664
 5363SOL     OW16987   5.150   5.424   3.588
 5363SOL    HW116988   5.127   5.338   3.543
 5363SOL    HW216989   5.190   5.488   3.522
 5364SOL     OW16990   4.108   1.576   2.733
 5364SOL    HW116991   4.134   1.516   2.657
 5364SOL    HW216992   4.169   1.655   2.735
 5365SOL     OW16993   3.204   3.401   4.613
 5365SOL    HW116994   3.141   3.451   4.672
 5365SOL    HW216995   3.155   3.332   4.560
 5366SOL     OW16996   6.113   5.984   3.459
 5366SOL    HW116997   6.054   6.064   3.472
 5366SOL    HW216998   6.182   6.003   3.390
 5367SOL     OW16999   6.129   6.136   1.362
 5367SOL    HW117000   6.089   6.173   1.278
 5367SOL    HW217001   6.179   6.051   1.341
 5368SOL     OW17002   0.083   6.110   4.207
 5368SOL    HW117003   0.129   6.184   4.159
 5368SOL    HW217004   0.145   6.072   4.276
 5369SOL     OW17005   4.185   5.931   2.988
 5369SOL    HW117006   4.182   5.933   3.088
 5369SOL    HW217007   4.265   5.983   2.956
 5370SOL     OW17008   1.841   3.105   0.478
 5370SOL    HW117009   1.747   3.088   0.506
 5370SOL    HW217010   1.895   3.134   0.558
 5371SOL     OW17011   6.318   5.940   4.648
 5371SOL    HW117012   6.406   5.895   4.636
 5371SOL    HW217013   6.277   5.911   4.734
 5372SOL     OW17014   1.769   6.876   3.248
 5372SOL    HW117015   1.749   6.906   3.342
 5372SOL    HW217016   1.800   6.781   3.250
 5373SOL     OW17017   2.255   1.277   6.280
 5373SOL    HW117018   2.205   1.331   6.211
 5373SOL    HW217019   2.196   1.203   6.312
 5374SOL     OW17020   1.654   3.979   1.671
 5374SOL    HW117021   1.723   3.955   1.603
 5374SOL    HW217022   1.566   3.993   1.626
 5375SOL     OW17023   2.416   4.422   5.290
 5375SOL    HW117024   2.346   4.469   5.344
 5375SOL    HW217025   2.456   4.349   5.346
 5376SOL     OW17026   0.804   0.025   6.703
 5376SOL    HW117027   0.895   7.014   6.722
 5376SOL    HW217028   0.743   6.975   6.677
 5377SOL     OW17029   1.114   1.719   3.112
 5377SOL    HW117030   1.068   1.746   3.196
 5377SOL    HW217031   1.174   1.793   3.081
 5378SOL     OW17032   4.464   6.923   2.438
 5378SOL    HW117033   4.517   6.913   2.523
 5378SOL    HW217034   4.496   7.003   2.388
 5379SOL     OW17035   2.010   1.801   3.957
 5379SOL    HW117036   2.090   1.861   3.958
 5379SOL    HW217037   1.967   1.801   4.047
 5380SOL     OW17038   4.535   5.850   1.659
 5380SOL    HW117039   4.497   5.927   1.710
 5380SOL    HW217040   4.602   5.884   1.593
 5381SOL     OW17041   2.738   1.013   3.230
 5381SOL    HW117042   2.816   1.076   3.233
 5381SOL    HW217043   2.770   0.921   3.255
 5382SOL     OW17044   4.594   0.617   2.916
 5382SOL    HW117045   4.664   0.659   2.859
 5382SOL    HW217046   4.504   0.650   2.889
 5383SOL     OW17047   2.065   2.776   4.505
 5383SOL    HW117048   2.029   2.699   4.453
 5383SOL    HW217049   2.164   2.769   4.513
 5384SOL     OW17050   5.077   5.770   5.450
 5384SOL    HW117051   5.070   5.672   5.471
 5384SOL    HW217052   5.105   5.820   5.531
 5385SOL     OW17053   4.126   3.772   6.429
 5385SOL    HW117054   4.200   3.705   6.424
 5385SOL    HW217055   4.133   3.825   6.513
 5386SOL     OW17056   4.669   4.398   3.765
 5386SOL    HW117057   4.637   4.377   3.672
 5386SOL    HW217058   4.701   4.313   3.808
 5387SOL     OW17059   0.982   1.527   4.008
 5387SOL    HW117060   1.044   1.602   3.986
 5387SOL    HW217061   0.953   1.481   3.923
 5388SOL     OW17062   6.743   6.779   4.032
 5388SOL    HW117063   6.776   6.780   4.127
 5388SOL    HW217064   6.723   6.686   4.005
 5389SOL     OW17065   5.219   1.172   3.994
 5389SOL    HW117066   5.218   1.220   3.906
 5389SOL    HW217067   5.224   1.073   3.978
 5390SOL     OW17068   0.042   3.720   3.398
 5390SOL    HW117069   0.078   3.673   3.318
 5390SOL    HW217070   6.978   3.682   3.423
 5391SOL     OW17071   3.071   2.588   0.876
 5391SOL    HW117072   2.973   2.593   0.895
 5391SOL    HW217073   3.085   2.556   0.782
 5392SOL     OW17074   5.744   0.774   4.182
 5392SOL    HW117075   5.836   0.733   4.190
 5392SOL    HW217076   5.678   0.717   4.231
 5393SOL     OW17077   4.144   1.723   3.909
 5393SOL    HW117078   4.076   1.793   3.886
 5393SOL    HW217079   4.236   1.761   3.896
 5394SOL     OW17080   0.260   2.863   1.681
 5394SOL    HW117081   0.164   2.835   1.691
 5394SOL    HW217082   0.281   2.875   1.584
 5395SOL     OW17083   6.791   1.711   0.792
 5395SOL    HW117084   6.778   1.665   0.880
 5395SOL    HW217085   6.702   1.730   0.751
 5396SOL     OW17086   4.232   3.385   0.549
 5396SOL    HW117087   4.260   3.383   0.645
 5396SOL    HW217088   4.221   3.480   0.520
 5397SOL     OW17089   6.823   0.427   2.861
 5397SOL    HW117090   6.830   0.471   2.951
 5397SOL    HW217091   6.877   0.478   2.794
 5398SOL     OW17092   6.996   3.486   2.554
 5398SOL    HW117093   6.929   3.547   2.510
 5398SOL    HW217094   0.007   3.530   2.636
 5399SOL     OW17095   1.898   2.934   0.812
 5399SOL    HW117096   1.874   2.871   0.886
 5399SOL    HW217097   1.819   2.947   0.753
 5400SOL     OW17098   4.812   3.145   1.549
 5400SOL    HW117099   4.856   3.169   1.636
 5400SOL    HW217100   4.730   3.200   1.537
 5401SOL     OW17101   5.537   2.551   1.252
 5401SOL    HW117102   5.509   2.520   1.161
 5401SOL    HW217103   5.633   2.526   1.266
 5402SOL     OW17104   1.351   5.817   2.715
 5402SOL    HW117105   1.294   5.744   2.752
 5402SOL    HW217106   1.307   5.857   2.634
 5403SOL     OW17107   5.192   2.353   6.781
 5403SOL    HW117108   5.242   2.439   6.790
 5403SOL    HW217109   5.136   2.339   6.862
 5404SOL     OW17110   4.867   7.002   6.840
 5404SOL    HW117111   4.934   0.050   6.859
 5404SOL    HW217112   4.826   6.971   6.925
 5405SOL     OW17113   0.274   5.079   0.000
 5405SOL    HW117114   0.360   5.128   7.011
 5405SOL    HW217115   0.293   4.981   0.013
 5406SOL     OW17116   2.405   1.161   5.871
 5406SOL    HW117117   2.307   1.147   5.882
 5406SOL    HW217118   2.445   1.192   5.957
 5407SOL     OW17119   1.169   6.535   3.635
 5407SOL    HW117120   1.256   6.546   3.683
 5407SOL    HW217121   1.115   6.619   3.643
 5408SOL     OW17122   2.616   1.748   4.494
 5408SOL    HW117123   2.607   1.794   4.582
 5408SOL    HW217124   2.710   1.715   4.483
 5409SOL     OW17125   0.952   2.532   2.058
 5409SOL    HW117126   1.018   2.458   2.044
 5409SOL    HW217127   0.913   2.559   1.970
 5410SOL     OW17128   6.152   2.745   0.719
 5410SOL    HW117129   6.172   2.728   0.623
 5410SOL    HW217130   6.160   2.843   0.739
 5411SOL     OW17131   3.904   5.600   0.270
 5411SOL    HW117132   3.819   5.565   0.230
 5411SOL    HW217133   3.980   5.541   0.243
 5412SOL     OW17134   0.465   2.208   5.522
 5412SOL    HW117135   0.477   2.189   5.620
 5412SOL    HW217136   0.375   2.247   5.506
 5413SOL     OW17137   0.899   4.876   4.826
 5413SOL    HW117138   0.836   4.851   4.752
 5413SOL    HW217139   0.852   4.937   4.889
 5414SOL     OW17140   5.562   4.373   5.456
 5414SOL    HW117141   5.607   4.299   5.505
 5414SOL    HW217142   5.625   4.413   5.389
 5415SOL     OW17143   2.714   1.135   0.295
 5415SOL    HW117144   2.657   1.066   0.340
 5415SOL    HW217145   2.808   1.126   0.326
 5416SOL     OW17146   3.696   5.532   0.108
 5416SOL    HW117147   3.614   5.583   0.134
 5416SOL    HW217148   3.705   5.530   0.009
 5417SOL     OW17149   4.861   6.894   3.818
 5417SOL    HW117150   4.939   6.842   3.853
 5417SOL    HW217151   4.779   6.871   3.870
 5418SOL     OW17152   6.891   3.041   5.329
 5418SOL    HW117153   6.882   3.016   5.232
 5418SOL    HW217154   6.818   2.998   5.381
 5419SOL     OW17155   4.002   1.875   6.422
 5419SOL    HW117156   3.955   1.916   6.344
 5419SOL    HW217157   4.011   1.776   6.407
 5420SOL     OW17158   1.669   2.272   1.778
 5420SOL    HW117159   1.741   2.319   1.726
 5420SOL    HW217160   1.710   2.223   1.854
 5421SOL     OW17161   3.863   5.217   2.068
 5421SOL    HW117162   3.763   5.218   2.075
 5421SOL    HW217163   3.895   5.122   2.072
 5422SOL     OW17164   2.743   5.034   3.804
 5422SOL    HW117165   2.683   5.105   3.841
 5422SOL    HW217166   2.778   5.064   3.715
 5423SOL     OW17167   4.966   6.771   1.787
 5423SOL    HW117168   4.890   6.808   1.733
 5423SOL    HW217169   4.992   6.681   1.751
 5424SOL     OW17170   4.072   3.966   5.237
 5424SOL    HW117171   4.038   3.897   5.300
 5424SOL    HW217172   4.110   3.920   5.156
 5425SOL     OW17173   1.315   4.357   6.141
 5425SOL    HW117174   1.241   4.312   6.091
 5425SOL    HW217175   1.301   4.345   6.239
 5426SOL     OW17176   6.823   5.057   1.525
 5426SOL    HW117177   6.918   5.034   1.504
 5426SOL    HW217178   6.768   4.973   1.528
 5427SOL     OW17179   4.557   3.251   0.456
 5427SOL    HW117180   4.561   3.156   0.488
 5427SOL    HW217181   4.596   3.257   0.364
 5428SOL     OW17182   5.235   4.792   3.337
 5428SOL    HW117183   5.308   4.728   3.315
 5428SOL    HW217184   5.150   4.761   3.294
 5429SOL     OW17185   3.129   6.995   4.218
 5429SOL    HW117186   3.167   0.022   4.296
 5429SOL    HW217187   3.038   0.005   4.196
 5430SOL     OW17188   2.002   3.816   5.521
 5430SOL    HW117189   1.945   3.839   5.442
 5430SOL    HW217190   1.982   3.879   5.596
 5431SOL     OW17191   4.860   4.644   0.367
 5431SOL    HW117192   4.841   4.579   0.441
 5431SOL    HW217193   4.799   4.723   0.375
 5432SOL     OW17194   0.472   5.128   6.458
 5432SOL    HW117195   0.458   5.100   6.363
 5432SOL    HW217196   0.411   5.204   6.479
 5433SOL     OW17197   3.938   6.959   1.399
 5433SOL    HW117198   3.955   6.949   1.497
 5433SOL    HW217199   3.840   6.960   1.381
 5434SOL     OW17200   4.787   0.089   4.155
 5434SOL    HW117201   4.814   0.117   4.063
 5434SOL    HW217202   4.837   0.143   4.223
 5435SOL     OW17203   6.580   5.184   0.047
 5435SOL    HW117204   6.603   5.136   0.132
 5435SOL    HW217205   6.603   5.126   6.994
 5436SOL     OW17206   2.006   4.810   2.367
 5436SOL    HW117207   2.054   4.804   2.455
 5436SOL    HW217208   2.072   4.835   2.295
 5437SOL     OW17209   3.399   6.566   0.867
 5437SOL    HW117210   3.465   6.557   0.793
 5437SOL    HW217211   3.308   6.540   0.835
 5438SOL     OW17212   4.454   6.492   1.444
 5438SOL    HW117213   4.365   6.448   1.430
 5438SOL    HW217214   4.455   6.581   1.399
 5439SOL     OW17215   1.089   4.209   1.036
 5439SOL    HW117216   1.086   4.208   1.136
 5439SOL    HW217217   1.077   4.116   1.001
 5440SOL     OW17218   5.515   6.272   3.766
 5440SOL    HW117219   5.431   6.217   3.770
 5440SOL    HW217220   5.522   6.315   3.677
 5441SOL     OW17221   5.757   2.313   4.158
 5441SOL    HW117222   5.670   2.345   4.120
 5441SOL    HW217223   5.741   2.237   4.220
 5442SOL     OW17224   2.667   0.554   6.394
 5442SOL    HW117225   2.647   0.616   6.470
 5442SOL    HW217226   2.717   0.474   6.429
 5443SOL     OW17227   5.641   0.831   3.204
 5443SOL    HW117228   5.607   0.866   3.292
 5443SOL    HW217229   5.735   0.798   3.216
 5444SOL     OW17230   6.878   1.459   6.459
 5444SOL    HW117231   6.931   1.376   6.447
 5444SOL    HW217232   6.937   1.532   6.494
 5445SOL     OW17233   6.020   6.370   5.819
 5445SOL    HW117234   6.070   6.315   5.886
 5445SOL    HW217235   5.940   6.411   5.863
 5446SOL     OW17236   0.569   4.269   5.860
 5446SOL    HW117237   0.568   4.294   5.763
 5446SOL    HW217238   0.475   4.260   5.893
 5447SOL     OW17239   6.836   1.469   1.616
 5447SOL    HW117240   6.771   1.423   1.677
 5447SOL    HW217241   6.787   1.536   1.560
 5448SOL     OW17242   5.587   5.033   2.557
 5448SOL    HW117243   5.570   4.934   2.564
 5448SOL    HW217244   5.589   5.072   2.649
 5449SOL     OW17245   2.834   0.736   1.507
 5449SOL    HW117246   2.756   0.766   1.452
 5449SOL    HW217247   2.811   0.652   1.555
 5450SOL     OW17248   4.638   5.885   2.122
 5450SOL    HW117249   4.709   5.938   2.167
 5450SOL    HW217250   4.549   5.908   2.161
 5451SOL     OW17251   6.166   6.338   3.622
 5451SOL    HW117252   6.100   6.337   3.547
 5451SOL    HW217253   6.254   6.371   3.589
 5452SOL     OW17254   2.160   4.313   2.917
 5452SOL    HW117255   2.232   4.383   2.923
 5452SOL    HW217256   2.125   4.308   2.824
 5453SOL     OW17257   6.422   4.567   4.281
 5453SOL    HW117258   6.435   4.632   4.207
 5453SOL    HW217259   6.486   4.589   4.356
 5454SOL     OW17260   6.173   4.305   3.399
 5454SOL    HW117261   6.091   4.330   3.346
 5454SOL    HW217262   6.146   4.246   3.476
 5455SOL     OW17263   2.707   2.034   3.556
 5455SOL    HW117264   2.685   1.957   3.616
 5455SOL    HW217265   2.799   2.021   3.517
 5456SOL     OW17266   5.853   2.665   0.450
 5456SOL    HW117267   5.857   2.721   0.533
 5456SOL    HW217268   5.876   2.570   0.473
 5457SOL     OW17269   6.022   1.256   6.591
 5457SOL    HW117270   6.013   1.354   6.572
 5457SOL    HW217271   5.936   1.222   6.630
 5458SOL     OW17272   5.685   4.338   0.156
 5458SOL    HW117273   5.672   4.364   0.060
 5458SOL    HW217274   5.631   4.257   0.176
 5459SOL     OW17275   1.987   3.131   4.733
 5459SOL    HW117276   2.053   3.137   4.808
 5459SOL    HW217277   1.917   3.063   4.756
 5460SOL     OW17278   0.453   0.559   1.278
 5460SOL    HW117279   0.364   0.516   1.294
 5460SOL    HW217280   0.441   0.658   1.272
 5461SOL     OW17281   6.378   1.298   6.049
 5461SOL    HW117282   6.437   1.224   6.081
 5461SOL    HW217283   6.413   1.386   6.083
 5462SOL     OW17284   5.376   4.583   6.593
 5462SOL    HW117285   5.366   4.647   6.517
 5462SOL    HW217286   5.324   4.500   6.573
 5463SOL     OW17287   0.723   3.475   6.010
 5463SOL    HW117288   0.659   3.487   6.085
 5463SOL    HW217289   0.768   3.386   6.018
 5464SOL     OW17290   1.699   5.499   5.732
 5464SOL    HW117291   1.723   5.555   5.652
 5464SOL    HW217292   1.651   5.417   5.702
 5465SOL     OW17293   0.637   6.988   4.616
 5465SOL    HW117294   0.625   6.891   4.634
 5465SOL    HW217295   0.649   0.012   4.702
 5466SOL     OW17296   5.875   1.610   4.011
 5466SOL    HW117297   5.886   1.635   3.915
 5466SOL    HW217298   5.817   1.677   4.057
 5467SOL     OW17299   4.978   3.157   4.332
 5467SOL    HW117300   4.928   3.242   4.314
 5467SOL    HW217301   5.076   3.175   4.332
 5468SOL     OW17302   0.241   1.357   1.366
 5468SOL    HW117303   0.242   1.345   1.266
 5468SOL    HW217304   0.209   1.273   1.409
 5469SOL     OW17305   3.550   0.586   4.161
 5469SOL    HW117306   3.535   0.566   4.064
 5469SOL    HW217307   3.519   0.678   4.182
 5470SOL     OW17308   4.362   4.634   4.115
 5470SOL    HW117309   4.446   4.593   4.080
 5470SOL    HW217310   4.343   4.598   4.206
 5471SOL     OW17311   5.175   0.621   2.911
 5471SOL    HW117312   5.261   0.628   2.961
 5471SOL    HW217313   5.167   0.529   2.871
 5472SOL     OW17314   3.306   3.628   6.760
 5472SOL    HW117315   3.334   3.536   6.790
 5472SOL    HW217316   3.234   3.663   6.820
 5473SOL     OW17317   3.243   5.208   1.960
 5473SOL    HW117318   3.317   5.218   1.894
 5473SOL    HW217319   3.243   5.115   1.997
 5474SOL     OW17320   1.031   5.212   2.458
 5474SOL    HW117321   0.984   5.300   2.467
 5474SOL    HW217322   0.989   5.146   2.520
 5475SOL     OW17323   1.125   0.886   5.390
 5475SOL    HW117324   1.080   0.931   5.467
 5475SOL    HW217325   1.142   0.953   5.317
 5476SOL     OW17326   2.171   6.917   5.108
 5476SOL    HW117327   2.215   6.965   5.032
 5476SOL    HW217328   2.080   6.885   5.079
 5477SOL     OW17329   1.870   3.752   3.858
 5477SOL    HW117330   1.777   3.789   3.853
 5477SOL    HW217331   1.870   3.666   3.909
 5478SOL     OW17332   4.946   4.901   5.798
 5478SOL    HW117333   4.992   4.909   5.709
 5478SOL    HW217334   4.936   4.992   5.838
 5479SOL     OW17335   5.350   2.128   4.244
 5479SOL    HW117336   5.418   2.056   4.232
 5479SOL    HW217337   5.262   2.097   4.208
 5480SOL     OW17338   1.201   3.295   4.179
 5480SOL    HW117339   1.174   3.223   4.115
 5480SOL    HW217340   1.237   3.373   4.129
 5481SOL     OW17341   4.527   1.636   6.606
 5481SOL    HW117342   4.514   1.536   6.604
 5481SOL    HW217343   4.455   1.679   6.550
 5482SOL     OW17344   5.440   3.442   1.767
 5482SOL    HW117345   5.497   3.396   1.835
 5482SOL    HW217346   5.370   3.496   1.814
 5483SOL     OW17347   6.644   2.807   6.962
 5483SOL    HW117348   6.740   2.779   6.960
 5483SOL    HW217349   6.628   2.874   6.889
 5484SOL     OW17350   6.727   6.831   4.854
 5484SOL    HW117351   6.649   6.874   4.809
 5484SOL    HW217352   6.749   6.881   4.938
 5485SOL     OW17353   3.619   0.107   4.910
 5485SOL    HW117354   3.698   0.047   4.901
 5485SOL    HW217355   3.640   0.197   4.871
 5486SOL     OW17356   1.359   0.868   4.280
 5486SOL    HW117357   1.332   0.957   4.243
 5486SOL    HW217358   1.284   0.803   4.269
 5487SOL     OW17359   4.336   5.302   0.421
 5487SOL    HW117360   4.309   5.214   0.460
 5487SOL    HW217361   4.361   5.366   0.494
 5488SOL     OW17362   5.086   0.786   5.768
 5488SOL    HW117363   5.090   0.712   5.701
 5488SOL    HW217364   5.052   0.869   5.723
 5489SOL     OW17365   0.424   4.268   3.133
 5489SOL    HW117366   0.516   4.289   3.167
 5489SOL    HW217367   0.358   4.332   3.175
 5490SOL     OW17368   2.282   2.548   6.988
 5490SOL    HW117369   2.358   2.484   6.988
 5490SOL    HW217370   2.316   2.641   7.000
 5491SOL     OW17371   0.259   5.542   1.761
 5491SOL    HW117372   0.353   5.514   1.744
 5491SOL    HW217373   0.255   5.642   1.771
 5492SOL     OW17374   1.914   1.254   5.189
 5492SOL    HW117375   1.876   1.167   5.157
 5492SOL    HW217376   2.013   1.255   5.170
 5493SOL     OW17377   3.104   2.749   0.004
 5493SOL    HW117378   3.012   2.778   7.005
 5493SOL    HW217379   3.131   2.672   6.969
 5494SOL     OW17380   5.902   2.881   2.232
 5494SOL    HW117381   5.882   2.814   2.303
 5494SOL    HW217382   5.833   2.874   2.160
 5495SOL     OW17383   3.618   2.962   2.559
 5495SOL    HW117384   3.593   2.911   2.476
 5495SOL    HW217385   3.655   3.051   2.534
 5496SOL     OW17386   3.562   5.419   1.580
 5496SOL    HW117387   3.534   5.405   1.675
 5496SOL    HW217388   3.568   5.516   1.560
 5497SOL     OW17389   6.523   6.925   1.734
 5497SOL    HW117390   6.516   6.829   1.707
 5497SOL    HW217391   6.546   6.931   1.831
 5498SOL     OW17392   3.994   6.952   5.295
 5498SOL    HW117393   4.023   6.963   5.390
 5498SOL    HW217394   3.895   6.939   5.292
 5499SOL     OW17395   0.115   1.985   4.526
 5499SOL    HW117396   0.116   2.073   4.574
 5499SOL    HW217397   0.100   1.911   4.592
 5500SOL     OW17398   1.995   5.936   1.195
 5500SOL    HW117399   1.907   5.941   1.244
 5500SOL    HW217400   2.069   5.961   1.258
 5501SOL     OW17401   1.707   6.896   2.710
 5501SOL    HW117402   1.776   6.908   2.639
 5501SOL    HW217403   1.750   6.900   2.800
 5502SOL     OW17404   4.557   3.848   0.350
 5502SOL    HW117405   4.553   3.751   0.376
 5502SOL    HW217406   4.562   3.855   0.251
 5503SOL     OW17407   0.879   5.860   4.420
 5503SOL    HW117408   0.962   5.831   4.372
 5503SOL    HW217409   0.873   5.813   4.508
 5504SOL     OW17410   3.402   1.974   4.739
 5504SOL    HW117411   3.431   1.973   4.644
 5504SOL    HW217412   3.313   2.019   4.747
 5505SOL     OW17413   3.351   4.977   5.877
 5505SOL    HW117414   3.405   4.987   5.794
 5505SOL    HW217415   3.290   4.898   5.868
 5506SOL     OW17416   6.591   0.029   5.534
 5506SOL    HW117417   6.634   0.111   5.571
 5506SOL    HW217418   6.511   0.055   5.480
 5507SOL     OW17419   3.106   5.586   4.501
 5507SOL    HW117420   3.037   5.644   4.544
 5507SOL    HW217421   3.185   5.579   4.562
 5508SOL     OW17422   2.309   0.696   6.041
 5508SOL    HW117423   2.229   0.638   6.027
 5508SOL    HW217424   2.319   0.759   5.963
 5509SOL     OW17425   6.099   6.099   6.825
 5509SOL    HW117426   6.170   6.165   6.801
 5509SOL    HW217427   6.140   6.020   6.871
 5510SOL     OW17428   4.785   0.304   5.737
 5510SOL    HW117429   4.816   0.396   5.761
 5510SOL    HW217430   4.832   0.238   5.796
 5511SOL     OW17431   0.347   1.840   1.962
 5511SOL    HW117432   0.317   1.763   1.905
 5511SOL    HW217433   0.287   1.918   1.946
 5512SOL     OW17434   1.093   6.919   0.799
 5512SOL    HW117435   1.029   6.843   0.804
 5512SOL    HW217436   1.117   6.937   0.703
 5513SOL     OW17437   3.377   4.915   4.493
 5513SOL    HW117438   3.372   4.885   4.398
 5513SOL    HW217439   3.460   4.970   4.506
 5514SOL     OW17440   5.976   5.452   3.607
 5514SOL    HW117441   6.043   5.462   3.533
 5514SOL    HW217442   6.023   5.426   3.691
 5515SOL     OW17443   6.984   3.411   2.081
 5515SOL    HW117444   6.967   3.319   2.048
 5515SOL    HW217445   7.018   3.407   2.175
 5516SOL     OW17446   1.258   3.505   6.146
 5516SOL    HW117447   1.173   3.546   6.179
 5516SOL    HW217448   1.312   3.574   6.097
 5517SOL     OW17449   2.459   1.211   2.348
 5517SOL    HW117450   2.505   1.129   2.381
 5517SOL    HW217451   2.442   1.272   2.426
 5518SOL     OW17452   5.659   4.927   5.291
 5518SOL    HW117453   5.724   4.894   5.223
 5518SOL    HW217454   5.579   4.867   5.292
 5519SOL     OW17455   5.280   3.469   3.708
 5519SOL    HW117456   5.262   3.375   3.737
 5519SOL    HW217457   5.367   3.500   3.746
 5520SOL     OW17458   1.754   3.497   1.428
 5520SOL    HW117459   1.787   3.408   1.459
 5520SOL    HW217460   1.668   3.486   1.379
 5521SOL     OW17461   4.907   5.607   1.790
 5521SOL    HW117462   4.936   5.511   1.793
 5521SOL    HW217463   4.814   5.612   1.755
 5522SOL     OW17464   2.137   3.407   2.272
 5522SOL    HW117465   2.213   3.420   2.209
 5522SOL    HW217466   2.057   3.456   2.237
 5523SOL     OW17467   3.049   0.706   1.190
 5523SOL    HW117468   2.967   0.709   1.132
 5523SOL    HW217469   3.050   0.786   1.250
 5524SOL     OW17470   6.549   5.536   6.302
 5524SOL    HW117471   6.560   5.620   6.249
 5524SOL    HW217472   6.636   5.488   6.306
 5525SOL     OW17473   6.917   5.556   4.977
 5525SOL    HW117474   7.008   5.517   4.988
 5525SOL    HW217475   6.848   5.494   5.014
 5526SOL     OW17476   5.820   2.628   4.745
 5526SOL    HW117477   5.838   2.541   4.792
 5526SOL    HW217478   5.725   2.656   4.761
 5527SOL     OW17479   2.183   3.689   1.345
 5527SOL    HW117480   2.085   3.712   1.351
 5527SOL    HW217481   2.211   3.692   1.249
 5528SOL     OW17482   0.611   3.515   3.159
 5528SOL    HW117483   0.565   3.567   3.231
 5528SOL    HW217484   0.672   3.447   3.200
 5529SOL     OW17485   1.672   1.414   5.190
 5529SOL    HW117486   1.632   1.375   5.107
 5529SOL    HW217487   1.764   1.378   5.204
 5530SOL     OW17488   1.312   3.021   0.792
 5530SOL    HW117489   1.367   3.101   0.767
 5530SOL    HW217490   1.347   2.940   0.746
 5531SOL     OW17491   3.045   2.834   5.842
 5531SOL    HW117492   3.010   2.756   5.790
 5531SOL    HW217493   2.980   2.858   5.914
 5532SOL     OW17494   2.589   1.445   1.080
 5532SOL    HW117495   2.678   1.467   1.119
 5532SOL    HW217496   2.518   1.459   1.149
 5533SOL     OW17497   4.470   0.327   1.005
 5533SOL    HW117498   4.488   0.307   1.101
 5533SOL    HW217499   4.389   0.385   0.997
 5534SOL     OW17500   0.099   4.505   5.667
 5534SOL    HW117501   0.198   4.512   5.664
 5534SOL    HW217502   0.068   4.447   5.592
 5535SOL     OW17503   5.847   3.475   3.372
 5535SOL    HW117504   5.912   3.506   3.301
 5535SOL    HW217505   5.805   3.389   3.344
 5536SOL     OW17506   1.773   0.811   3.572
 5536SOL    HW117507   1.765   0.737   3.639
 5536SOL    HW217508   1.736   0.896   3.612
 5537SOL     OW17509   4.559   0.982   4.534
 5537SOL    HW117510   4.471   0.940   4.514
 5537SOL    HW217511   4.621   0.914   4.573
 5538SOL     OW17512   5.509   1.991   0.606
 5538SOL    HW117513   5.487   1.895   0.626
 5538SOL    HW217514   5.606   2.008   0.625
 5539SOL     OW17515   3.481   6.658   0.173
 5539SOL    HW117516   3.407   6.724   0.186
 5539SOL    HW217517   3.568   6.700   0.199
 5540SOL     OW17518   5.386   0.572   6.595
 5540SOL    HW117519   5.292   0.595   6.619
 5540SOL    HW217520   5.411   0.617   6.509
 5541SOL     OW17521   4.944   3.615   5.794
 5541SOL    HW117522   4.934   3.527   5.749
 5541SOL    HW217523   5.005   3.606   5.872
 5542SOL     OW17524   4.063   4.193   6.726
 5542SOL    HW117525   4.057   4.140   6.811
 5542SOL    HW217526   4.088   4.287   6.747
 5543SOL     OW17527   1.424   0.442   0.379
 5543SOL    HW117528   1.354   0.513   0.389
 5543SOL    HW217529   1.509   0.473   0.421
 5544SOL     OW17530   3.771   5.305   6.224
 5544SOL    HW117531   3.763   5.331   6.320
 5544SOL    HW217532   3.852   5.348   6.184
 5545SOL     OW17533   4.305   0.249   3.145
 5545SOL    HW117534   4.305   0.337   3.193
 5545SOL    HW217535   4.371   0.252   3.070
 5546SOL     OW17536   0.232   4.942   4.742
 5546SOL    HW117537   0.170   4.884   4.795
 5546SOL    HW217538   0.215   5.038   4.763
 5547SOL     OW17539   5.081   1.123   4.414
 5547SOL    HW117540   4.987   1.156   4.420
 5547SOL    HW217541   5.138   1.190   4.366
 5548SOL     OW17542   6.924   4.031   4.912
 5548SOL    HW117543   6.958   3.939   4.931
 5548SOL    HW217544   6.875   4.032   4.825
 5549SOL     OW17545   4.442   2.741   0.639
 5549SOL    HW117546   4.349   2.705   0.631
 5549SOL    HW217547   4.478   2.719   0.730
 5550SOL     OW17548   1.840   4.115   1.936
 5550SOL    HW117549   1.796   4.033   1.900
 5550SOL    HW217550   1.783   4.156   2.008
 5551SOL     OW17551   1.870   5.474   3.516
 5551SOL    HW117552   1.797   5.457   3.583
 5551SOL    HW217553   1.842   5.440   3.426
 5552SOL     OW17554   0.378   6.129   6.912
 5552SOL    HW117555   0.332   6.110   6.826
 5552SOL    HW217556   0.467   6.082   6.913
 5553SOL     OW17557   4.643   0.529   6.719
 5553SOL    HW117558   4.650   0.431   6.735
 5553SOL    HW217559   4.557   0.563   6.755
 5554SOL     OW17560   5.314   2.076   1.596
 5554SOL    HW117561   5.341   2.062   1.692
 5554SOL    HW217562   5.254   2.156   1.591
 5555SOL     OW17563   1.621   4.517   2.018
 5555SOL    HW117564   1.615   4.605   1.969
 5555SOL    HW217565   1.546   4.458   1.989
 5556SOL     OW17566   0.131   0.835   4.859
 5556SOL    HW117567   0.072   0.904   4.816
 5556SOL    HW217568   0.170   0.776   4.788
 5557SOL     OW17569   3.267   6.198   2.553
 5557SOL    HW117570   3.250   6.286   2.599
 5557SOL    HW217571   3.270   6.125   2.621
 5558SOL     OW17572   3.912   4.490   0.101
 5558SOL    HW117573   3.905   4.581   0.144
 5558SOL    HW217574   3.864   4.491   0.014
 5559SOL     OW17575   1.881   6.973   2.441
 5559SOL    HW117576   1.970   7.019   2.439
 5559SOL    HW217577   1.808   0.017   2.438
 5560SOL     OW17578   1.222   6.207   2.513
 5560SOL    HW117579   1.196   6.275   2.445
 5560SOL    HW217580   1.321   6.195   2.511
 5561SOL     OW17581   3.506   6.882   3.579
 5561SOL    HW117582   3.477   6.786   3.580
 5561SOL    HW217583   3.440   6.936   3.527
 5562SOL     OW17584   3.910   4.077   1.176
 5562SOL    HW117585   3.840   4.005   1.174
 5562SOL    HW217586   3.978   4.056   1.245
 5563SOL     OW17587   2.735   4.788   3.310
 5563SOL    HW117588   2.718   4.739   3.396
 5563SOL    HW217589   2.832   4.808   3.301
 5564SOL     OW17590   5.105   0.416   5.974
 5564SOL    HW117591   5.120   0.431   6.071
 5564SOL    HW217592   5.051   0.333   5.961
 5565SOL     OW17593   3.207   2.235   6.594
 5565SOL    HW117594   3.110   2.239   6.621
 5565SOL    HW217595   3.227   2.146   6.555
 5566SOL     OW17596   1.499   3.865   6.525
 5566SOL    HW117597   1.429   3.796   6.540
 5566SOL    HW217598   1.478   3.918   6.443
 5567SOL     OW17599   6.927   4.260   1.595
 5567SOL    HW117600   7.013   4.230   1.635
 5567SOL    HW217601   6.936   4.266   1.496
 5568SOL     OW17602   4.263   6.070   1.532
 5568SOL    HW117603   4.334   6.055   1.600
 5568SOL    HW217604   4.188   6.005   1.546
 5569SOL     OW17605   2.139   3.104   4.138
 5569SOL    HW117606   2.169   3.094   4.233
 5569SOL    HW217607   2.045   3.137   4.137
 5570SOL     OW17608   0.719   4.312   2.694
 5570SOL    HW117609   0.764   4.340   2.779
 5570SOL    HW217610   0.628   4.354   2.691
 5571SOL     OW17611   6.263   5.035   1.792
 5571SOL    HW117612   6.198   5.097   1.836
 5571SOL    HW217613   6.271   5.058   1.695
 5572SOL     OW17614   1.452   3.218   5.078
 5572SOL    HW117615   1.379   3.233   5.012
 5572SOL    HW217616   1.430   3.139   5.135
 5573SOL     OW17617   3.031   5.097   4.426
 5573SOL    HW117618   3.014   5.057   4.516
 5573SOL    HW217619   2.983   5.043   4.356
 5574SOL     OW17620   6.852   2.237   6.580
 5574SOL    HW117621   6.917   2.174   6.623
 5574SOL    HW217622   6.763   2.193   6.572
 5575SOL     OW17623   0.541   0.060   1.766
 5575SOL    HW117624   0.557   0.156   1.744
 5575SOL    HW217625   0.629   0.013   1.777
 5576SOL     OW17626   2.323   4.379   3.259
 5576SOL    HW117627   2.371   4.306   3.309
 5576SOL    HW217628   2.225   4.360   3.259
 5577SOL     OW17629   1.793   3.206   6.038
 5577SOL    HW117630   1.834   3.250   5.958
 5577SOL    HW217631   1.708   3.254   6.061
 5578SOL     OW17632   4.050   3.481   3.207
 5578SOL    HW117633   4.074   3.549   3.276
 5578SOL    HW217634   4.097   3.503   3.121
 5579SOL     OW17635   0.619   3.162   1.624
 5579SOL    HW117636   0.585   3.070   1.601
 5579SOL    HW217637   0.599   3.182   1.719
 5580SOL     OW17638   4.956   1.923   5.030
 5580SOL    HW117639   4.945   1.894   5.125
 5580SOL    HW217640   5.024   1.996   5.025
 5581SOL     OW17641   0.912   1.597   6.872
 5581SOL    HW117642   0.976   1.628   6.801
 5581SOL    HW217643   0.918   1.657   6.951
 5582SOL     OW17644   2.668   2.704   6.485
 5582SOL    HW117645   2.677   2.790   6.535
 5582SOL    HW217646   2.687   2.720   6.388
 5583SOL     OW17647   5.429   1.088   2.268
 5583SOL    HW117648   5.364   1.054   2.200
 5583SOL    HW217649   5.498   1.019   2.286
 5584SOL     OW17650   0.796   3.578   5.112
 5584SOL    HW117651   0.873   3.642   5.111
 5584SOL    HW217652   0.729   3.605   5.044
 5585SOL     OW17653   4.804   4.661   1.912
 5585SOL    HW117654   4.784   4.564   1.900
 5585SOL    HW217655   4.756   4.695   1.993
 5586SOL     OW17656   6.860   2.997   6.642
 5586SOL    HW117657   6.899   3.070   6.699
 5586SOL    HW217658   6.766   3.021   6.618
 5587SOL     OW17659   5.420   0.319   6.313
 5587SOL    HW117660   5.385   0.237   6.360
 5587SOL    HW217661   5.364   0.398   6.337
 5588SOL     OW17662   3.554   6.740   1.713
 5588SOL    HW117663   3.648   6.736   1.748
 5588SOL    HW217664   3.519   6.647   1.703
 5589SOL     OW17665   5.970   5.109   6.411
 5589SOL    HW117666   5.942   5.200   6.380
 5589SOL    HW217667   6.065   5.093   6.385
 5590SOL     OW17668   5.703   5.481   4.608
 5590SOL    HW117669   5.700   5.506   4.512
 5590SOL    HW217670   5.612   5.489   4.648
 5591SOL     OW17671   6.057   1.366   1.167
 5591SOL    HW117672   5.981   1.306   1.194
 5591SOL    HW217673   6.028   1.426   1.093
 5592SOL     OW17674   0.786   4.737   3.262
 5592SOL    HW117675   0.736   4.661   3.304
 5592SOL    HW217676   0.885   4.721   3.270
 5593SOL     OW17677   6.251   2.425   0.293
 5593SOL    HW117678   6.252   2.387   0.386
 5593SOL    HW217679   6.169   2.480   0.281
 5594SOL     OW17680   5.617   2.426   5.476
 5594SOL    HW117681   5.543   2.395   5.536
 5594SOL    HW217682   5.601   2.391   5.383
 5595SOL     OW17683   0.689   2.345   5.430
 5595SOL    HW117684   0.626   2.416   5.462
 5595SOL    HW217685   0.641   2.257   5.426
 5596SOL     OW17686   4.491   6.548   2.764
 5596SOL    HW117687   4.514   6.457   2.800
 5596SOL    HW217688   4.571   6.587   2.718
 5597SOL     OW17689   5.281   3.568   3.449
 5597SOL    HW117690   5.246   3.656   3.478
 5597SOL    HW217691   5.278   3.503   3.525
 5598SOL     OW17692   5.404   2.248   5.003
 5598SOL    HW117693   5.341   2.180   5.041
 5598SOL    HW217694   5.350   2.323   4.964
 5599SOL     OW17695   0.730   1.676   3.967
 5599SOL    HW117696   0.752   1.693   3.871
 5599SOL    HW217697   0.815   1.663   4.018
 5600SOL     OW17698   1.619   2.300   3.827
 5600SOL    HW117699   1.648   2.356   3.905
 5600SOL    HW217700   1.548   2.349   3.776
 5601SOL     OW17701   2.278   1.151   5.538
 5601SOL    HW117702   2.179   1.154   5.547
 5601SOL    HW217703   2.320   1.148   5.629
 5602SOL     OW17704   1.005   1.862   1.026
 5602SOL    HW117705   0.983   1.904   0.938
 5602SOL    HW217706   1.104   1.848   1.033
 5603SOL     OW17707   5.999   2.263   6.320
 5603SOL    HW117708   5.986   2.164   6.313
 5603SOL    HW217709   5.936   2.300   6.389
 5604SOL     OW17710   6.229   1.799   5.663
 5604SOL    HW117711   6.305   1.757   5.613
 5604SOL    HW217712   6.148   1.741   5.657
 5605SOL     OW17713   0.453   2.032   4.594
 5605SOL    HW117714   0.443   1.949   4.647
 5605SOL    HW217715   0.544   2.033   4.551
 5606SOL     OW17716   4.647   6.933   1.774
 5606SOL    HW117717   4.697   6.997   1.716
 5606SOL    HW217718   4.699   6.916   1.858
 5607SOL     OW17719   5.785   1.804   1.284
 5607SOL    HW117720   5.776   1.756   1.197
 5607SOL    HW217721   5.880   1.803   1.314
 5608SOL     OW17722   4.100   6.655   5.100
 5608SOL    HW117723   4.099   6.556   5.106
 5608SOL    HW217724   4.081   6.683   5.006
 5609SOL     OW17725   2.713   6.116   6.403
 5609SOL    HW117726   2.775   6.183   6.361
 5609SOL    HW217727   2.692   6.044   6.338
 5610SOL     OW17728   4.790   1.119   0.116
 5610SOL    HW117729   4.692   1.098   0.119
 5610SOL    HW217730   4.833   1.068   0.042
 5611SOL     OW17731   1.813   4.620   3.409
 5611SOL    HW117732   1.735   4.579   3.458
 5611SOL    HW217733   1.852   4.553   3.346
 5612SOL     OW17734   2.827   6.871   5.701
 5612SOL    HW117735   2.746   6.924   5.727
 5612SOL    HW217736   2.875   6.919   5.627
 5613SOL     OW17737   3.946   4.843   1.783
 5613SOL    HW117738   3.970   4.933   1.748
 5613SOL    HW217739   3.947   4.844   1.883
 5614SOL     OW17740   4.868   2.338   3.067
 5614SOL    HW117741   4.888   2.317   2.971
 5614SOL    HW217742   4.922   2.278   3.126
 5615SOL     OW17743   1.607   0.665   0.887
 5615SOL    HW117744   1.519   0.709   0.873
 5615SOL    HW217745   1.664   0.721   0.947
 5616SOL     OW17746   1.886   0.668   4.804
 5616SOL    HW117747   1.820   0.599   4.774
 5616SOL    HW217748   1.841   0.757   4.808
 5617SOL     OW17749   2.157   0.593   4.760
 5617SOL    HW117750   2.076   0.608   4.818
 5617SOL    HW217751   2.137   0.522   4.693
 5618SOL     OW17752   0.255   4.447   3.259
 5618SOL    HW117753   0.265   4.515   3.332
 5618SOL    HW217754   0.204   4.487   3.183
 5619SOL     OW17755   2.284   3.786   5.523
 5619SOL    HW117756   2.208   3.818   5.579
 5619SOL    HW217757   2.254   3.774   5.429
 5620SOL     OW17758   3.449   1.805   6.386
 5620SOL    HW117759   3.384   1.796   6.311
 5620SOL    HW217760   3.448   1.899   6.421
 5621SOL     OW17761   1.635   2.296   5.476
 5621SOL    HW117762   1.613   2.358   5.551
 5621SOL    HW217763   1.729   2.264   5.486
 5622SOL     OW17764   5.823   0.803   6.159
 5622SOL    HW117765   5.836   0.831   6.254
 5622SOL    HW217766   5.736   0.839   6.125
 5623SOL     OW17767   1.038   5.897   6.712
 5623SOL    HW117768   1.123   5.851   6.735
 5623SOL    HW217769   1.048   5.945   6.625
 5624SOL     OW17770   1.119   4.536   3.601
 5624SOL    HW117771   1.117   4.448   3.649
 5624SOL    HW217772   1.188   4.534   3.530
 5625SOL     OW17773   6.780   2.943   4.781
 5625SOL    HW117774   6.841   2.897   4.716
 5625SOL    HW217775   6.743   2.876   4.845
 5626SOL     OW17776   4.015   6.719   4.848
 5626SOL    HW117777   4.047   6.736   4.755
 5626SOL    HW217778   3.917   6.704   4.848
 5627SOL     OW17779   1.368   6.497   1.535
 5627SOL    HW117780   1.323   6.525   1.619
 5627SOL    HW217781   1.447   6.440   1.558
 5628SOL     OW17782   2.185   1.587   4.267
 5628SOL    HW117783   2.124   1.508   4.273
 5628SOL    HW217784   2.222   1.607   4.358
 5629SOL     OW17785   3.619   3.592   2.581
 5629SOL    HW117786   3.626   3.664   2.512
 5629SOL    HW217787   3.631   3.503   2.537
 5630SOL     OW17788   0.347   4.413   1.572
 5630SOL    HW117789   0.447   4.406   1.572
 5630SOL    HW217790   0.321   4.506   1.549
 5631SOL     OW17791   4.612   0.886   7.004
 5631SOL    HW117792   4.543   0.950   0.011
 5631SOL    HW217793   4.596   0.865   6.908
 5632SOL     OW17794   4.156   3.532   6.795
 5632SOL    HW117795   4.195   3.457   6.741
 5632SOL    HW217796   4.087   3.580   6.741
 5633SOL     OW17797   6.523   2.484   4.469
 5633SOL    HW117798   6.584   2.544   4.521
 5633SOL    HW217799   6.578   2.422   4.413
 5634SOL     OW17800   4.033   5.568   3.975
 5634SOL    HW117801   4.067   5.579   3.882
 5634SOL    HW217802   4.047   5.654   4.026
 5635SOL     OW17803   2.753   2.099   4.786
 5635SOL    HW117804   2.734   2.153   4.704
 5635SOL    HW217805   2.795   2.012   4.761
 5636SOL     OW17806   4.087   5.878   3.246
 5636SOL    HW117807   4.097   5.814   3.322
 5636SOL    HW217808   3.990   5.887   3.223
 5637SOL     OW17809   5.638   0.069   3.354
 5637SOL    HW117810   5.707   0.082   3.425
 5637SOL    HW217811   5.548   0.090   3.391
 5638SOL     OW17812   5.542   3.001   6.133
 5638SOL    HW117813   5.581   3.084   6.172
 5638SOL    HW217814   5.455   3.021   6.090
 5639SOL     OW17815   1.943   1.451   6.274
 5639SOL    HW117816   1.962   1.405   6.361
 5639SOL    HW217817   1.987   1.400   6.199
 5640SOL     OW17818   2.521   0.459   3.369
 5640SOL    HW117819   2.578   0.540   3.354
 5640SOL    HW217820   2.496   0.418   3.281
 5641SOL     OW17821   6.454   5.574   4.991
 5641SOL    HW117822   6.358   5.601   4.989
 5641SOL    HW217823   6.463   5.482   4.954
 5642SOL     OW17824   1.204   2.091   5.994
 5642SOL    HW117825   1.241   2.077   6.086
 5642SOL    HW217826   1.182   2.188   5.982
 5643SOL     OW17827   5.718   2.255   4.586
 5643SOL    HW117828   5.697   2.307   4.503
 5643SOL    HW217829   5.639   2.256   4.647
 5644SOL     OW17830   3.692   0.356   6.731
 5644SOL    HW117831   3.647   0.438   6.696
 5644SOL    HW217832   3.708   0.292   6.656
 5645SOL     OW17833   5.864   2.566   4.226
 5645SOL    HW117834   5.886   2.616   4.142
 5645SOL    HW217835   5.818   2.480   4.203
 5646SOL     OW17836   1.716   4.489   3.095
 5646SOL    HW117837   1.703   4.588   3.097
 5646SOL    HW217838   1.739   4.460   3.001
 5647SOL     OW17839   6.769   5.846   2.536
 5647SOL    HW117840   6.775   5.911   2.612
 5647SOL    HW217841   6.835   5.772   2.551
 5648SOL     OW17842   4.160   6.689   2.881
 5648SOL    HW117843   4.160   6.789   2.878
 5648SOL    HW217844   4.106   6.658   2.959
 5649SOL     OW17845   0.576   6.679   4.059
 5649SOL    HW117846   0.663   6.642   4.091
 5649SOL    HW217847   0.592   6.745   3.986
 5650SOL     OW17848   6.496   4.332   7.010
 5650SOL    HW117849   6.487   4.259   6.942
 5650SOL    HW217850   6.534   4.413   6.966
 5651SOL     OW17851   1.810   0.608   1.759
 5651SOL    HW117852   1.863   0.671   1.815
 5651SOL    HW217853   1.734   0.656   1.717
 5652SOL     OW17854   1.356   5.962   1.920
 5652SOL    HW117855   1.273   5.991   1.872
 5652SOL    HW217856   1.404   5.894   1.865
 5653SOL     OW17857   0.062   6.695   0.977
 5653SOL    HW117858   0.082   6.677   0.880
 5653SOL    HW217859   6.990   6.680   0.994
 5654SOL     OW17860   2.490   6.233   5.119
 5654SOL    HW117861   2.414   6.241   5.184
 5654SOL    HW217862   2.558   6.170   5.155
 5655SOL     OW17863   6.598   2.838   4.307
 5655SOL    HW117864   6.506   2.864   4.279
 5655SOL    HW217865   6.647   2.918   4.341
 5656SOL     OW17866   0.129   3.480   0.048
 5656SOL    HW117867   0.120   3.455   6.976
 5656SOL    HW217868   0.121   3.398   0.104
 5657SOL     OW17869   4.382   5.399   5.469
 5657SOL    HW117870   4.413   5.368   5.560
 5657SOL    HW217871   4.426   5.486   5.448
 5658SOL     OW17872   2.049   2.486   5.503
 5658SOL    HW117873   2.087   2.399   5.535
 5658SOL    HW217874   2.119   2.537   5.454
 5659SOL     OW17875   3.846   4.292   6.154
 5659SOL    HW117876   3.875   4.387   6.156
 5659SOL    HW217877   3.760   4.282   6.204
 5660SOL     OW17878   4.436   0.669   6.161
 5660SOL    HW117879   4.449   0.711   6.251
 5660SOL    HW217880   4.363   0.601   6.166
 5661SOL     OW17881   1.190   5.185   5.606
 5661SOL    HW117882   1.197   5.280   5.635
 5661SOL    HW217883   1.243   5.127   5.668
 5662SOL     OW17884   2.539   6.360   2.209
 5662SOL    HW117885   2.450   6.324   2.182
 5662SOL    HW217886   2.538   6.460   2.205
 5663SOL     OW17887   1.008   2.705   6.941
 5663SOL    HW117888   0.921   2.677   6.901
 5663SOL    HW217889   1.008   2.685   0.014
 5664SOL     OW17890   4.909   3.603   4.077
 5664SOL    HW117891   4.847   3.676   4.052
 5664SOL    HW217892   5.002   3.627   4.050
 5665SOL     OW17893   2.177   1.452   1.054
 5665SOL    HW117894   2.259   1.477   1.106
 5665SOL    HW217895   2.102   1.514   1.078
 5666SOL     OW17896   5.355   0.862   4.840
 5666SOL    HW117897   5.298   0.905   4.769
 5666SOL    HW217898   5.308   0.781   4.875
 5667SOL     OW17899   2.096   5.197   4.746
 5667SOL    HW117900   2.009   5.151   4.766
 5667SOL    HW217901   2.155   5.193   4.827
 5668SOL     OW17902   5.270   3.202   3.768
 5668SOL    HW117903   5.333   3.158   3.832
 5668SOL    HW217904   5.225   3.132   3.713
 5669SOL     OW17905   6.383   4.613   6.556
 5669SOL    HW117906   6.312   4.617   6.626
 5669SOL    HW217907   6.442   4.534   6.573
 5670SOL     OW17908   0.384   1.811   2.659
 5670SOL    HW117909   0.445   1.790   2.582
 5670SOL    HW217910   0.328   1.890   2.636
 5671SOL     OW17911   0.058   6.279   3.649
 5671SOL    HW117912   7.024   6.348   3.608
 5671SOL    HW217913   0.147   6.320   3.671
 5672SOL     OW17914   4.941   3.389   5.400
 5672SOL    HW117915   4.885   3.421   5.324
 5672SOL    HW217916   4.883   3.371   5.479
 5673SOL     OW17917   0.643   0.715   0.867
 5673SOL    HW117918   0.654   0.779   0.943
 5673SOL    HW217919   0.593   0.634   0.899
 5674SOL     OW17920   1.989   5.127   5.904
 5674SOL    HW117921   1.992   5.107   5.806
 5674SOL    HW217922   1.961   5.222   5.918
 5675SOL     OW17923   2.360   1.948   0.426
 5675SOL    HW117924   2.284   1.968   0.489
 5675SOL    HW217925   2.388   2.032   0.380
 5676SOL     OW17926   2.820   2.142   1.608
 5676SOL    HW117927   2.809   2.187   1.520
 5676SOL    HW217928   2.809   2.043   1.598
 5677SOL     OW17929   6.595   1.030   1.362
 5677SOL    HW117930   6.610   0.976   1.280
 5677SOL    HW217931   6.543   1.112   1.340
 5678SOL     OW17932   3.296   2.192   1.771
 5678SOL    HW117933   3.219   2.257   1.770
 5678SOL    HW217934   3.278   2.122   1.840
 5679SOL     OW17935   6.207   3.641   4.937
 5679SOL    HW117936   6.249   3.612   4.851
 5679SOL    HW217937   6.220   3.570   5.006
 5680SOL     OW17938   1.774   6.244   5.171
 5680SOL    HW117939   1.851   6.211   5.117
 5680SOL    HW217940   1.759   6.183   5.249
 5681SOL     OW17941   1.028   4.013   3.566
 5681SOL    HW117942   0.989   3.934   3.520
 5681SOL    HW217943   1.042   3.992   3.663
 5682SOL     OW17944   2.059   4.470   2.147
 5682SOL    HW117945   1.999   4.397   2.182
 5682SOL    HW217946   2.146   4.430   2.117
 5683SOL     OW17947   6.227   1.501   6.312
 5683SOL    HW117948   6.297   1.438   6.347
 5683SOL    HW217949   6.146   1.496   6.370
 5684SOL     OW17950   2.002   2.350   5.004
 5684SOL    HW117951   2.004   2.414   5.081
 5684SOL    HW217952   2.072   2.377   4.938
 5685SOL     OW17953   2.315   1.963   3.178
 5685SOL    HW117954   2.366   1.916   3.250
 5685SOL    HW217955   2.265   1.896   3.123
 5686SOL     OW17956   3.531   5.842   6.261
 5686SOL    HW117957   3.607   5.824   6.198
 5686SOL    HW217958   3.444   5.828   6.214
 5687SOL     OW17959   1.943   6.217   6.859
 5687SOL    HW117960   2.020   6.262   6.813
 5687SOL    HW217961   1.899   6.282   6.921
 5688SOL     OW17962   2.411   2.619   3.071
 5688SOL    HW117963   2.333   2.592   3.128
 5688SOL    HW217964   2.394   2.710   3.032
 5689SOL     OW17965   0.718   2.383   1.422
 5689SOL    HW117966   0.805   2.416   1.459
 5689SOL    HW217967   0.685   2.446   1.352
 5690SOL     OW17968   1.676   5.631   0.317
 5690SOL    HW117969   1.729   5.623   0.401
 5690SOL    HW217970   1.726   5.588   0.242
 5691SOL     OW17971   3.081   1.134   2.480
 5691SOL    HW117972   3.002   1.162   2.425
 5691SOL    HW217973   3.136   1.215   2.503
 5692SOL     OW17974   4.451   4.906   1.467
 5692SOL    HW117975   4.366   4.916   1.518
 5692SOL    HW217976   4.505   4.991   1.474
 5693SOL     OW17977   4.186   0.586   1.306
 5693SOL    HW117978   4.093   0.560   1.281
 5693SOL    HW217979   4.183   0.673   1.356
 5694SOL     OW17980   0.985   6.367   1.972
 5694SOL    HW117981   1.038   6.441   2.012
 5694SOL    HW217982   1.007   6.281   2.018
 5695SOL     OW17983   1.579   0.190   0.822
 5695SOL    HW117984   1.602   0.280   0.784
 5695SOL    HW217985   1.490   0.161   0.788
 5696SOL     OW17986   1.586   0.434   3.867
 5696SOL    HW117987   1.623   0.522   3.835
 5696SOL    HW217988   1.656   0.388   3.921
 5697SOL     OW17989   6.663   3.104   0.299
 5697SOL    HW117990   6.642   3.012   0.264
 5697SOL    HW217991   6.745   3.101   0.356
 5698SOL     OW17992   2.607   2.547   4.021
 5698SOL    HW117993   2.548   2.627   4.017
 5698SOL    HW217994   2.633   2.520   3.928
 5699SOL     OW17995   1.913   2.667   3.161
 5699SOL    HW117996   1.818   2.647   3.135
 5699SOL    HW217997   1.914   2.712   3.251
 5700SOL     OW17998   6.219   0.888   3.366
 5700SOL    HW117999   6.180   0.818   3.426
 5700SOL    HW218000   6.175   0.976   3.385
 5701SOL     OW18001   0.429   0.995   1.017
 5701SOL    HW118002   0.425   0.952   0.927
 5701SOL    HW218003   0.497   1.069   1.016
 5702SOL     OW18004   2.487   6.583   4.498
 5702SOL    HW118005   2.475   6.633   4.412
 5702SOL    HW218006   2.459   6.488   4.485
 5703SOL     OW18007   0.227   2.860   6.581
 5703SOL    HW118008   0.315   2.823   6.553
 5703SOL    HW218009   0.162   2.786   6.597
 5704SOL     OW18010   4.925   4.536   3.769
 5704SOL    HW118011   4.836   4.491   3.778
 5704SOL    HW218012   4.928   4.616   3.829
 5705SOL     OW18013   6.226   6.857   5.268
 5705SOL    HW118014   6.221   6.827   5.364
 5705SOL    HW218015   6.136   6.885   5.237
 5706SOL     OW18016   4.723   2.168   0.165
 5706SOL    HW118017   4.663   2.155   0.086
 5706SOL    HW218018   4.755   2.078   0.197
 5707SOL     OW18019   5.921   5.721   2.116
 5707SOL    HW118020   5.972   5.636   2.130
 5707SOL    HW218021   5.950   5.789   2.184
 5708SOL     OW18022   4.392   6.075   2.878
 5708SOL    HW118023   4.352   6.161   2.911
 5708SOL    HW218024   4.408   6.082   2.780
 5709SOL     OW18025   0.130   1.685   2.152
 5709SOL    HW118026   0.211   1.739   2.128
 5709SOL    HW218027   0.130   1.667   2.250
 5710SOL     OW18028   2.954   2.001   0.970
 5710SOL    HW118029   3.006   1.971   0.890
 5710SOL    HW218030   3.000   2.080   1.011
 5711SOL     OW18031   5.689   1.721   2.077
 5711SOL    HW118032   5.729   1.810   2.097
 5711SOL    HW218033   5.674   1.672   2.163
 5712SOL     OW18034   6.272   6.656   1.229
 5712SOL    HW118035   6.330   6.605   1.293
 5712SOL    HW218036   6.220   6.592   1.173
 5713SOL     OW18037   2.653   6.593   0.414
 5713SOL    HW118038   2.554   6.599   0.425
 5713SOL    HW218039   2.691   6.684   0.399
 5714SOL     OW18040   6.167   6.970   1.163
 5714SOL    HW118041   6.161   6.872   1.182
 5714SOL    HW218042   6.172   7.020   1.249
 5715SOL     OW18043   0.396   0.075   1.424
 5715SOL    HW118044   0.341   0.158   1.415
 5715SOL    HW218045   0.408   0.052   1.521
 5716SOL     OW18046   6.390   4.760   5.544
 5716SOL    HW118047   6.473   4.809   5.520
 5716SOL    HW218048   6.408   4.700   5.622
 5717SOL     OW18049   1.397   5.084   3.072
 5717SOL    HW118050   1.409   5.020   2.997
 5717SOL    HW218051   1.390   5.177   3.036
 5718SOL     OW18052   0.513   3.426   0.336
 5718SOL    HW118053   0.507   3.343   0.281
 5718SOL    HW218054   0.584   3.486   0.298
 5719SOL     OW18055   2.801   3.592   0.862
 5719SOL    HW118056   2.751   3.652   0.925
 5719SOL    HW218057   2.888   3.635   0.836
 5720SOL     OW18058   2.526   4.355   6.028
 5720SOL    HW118059   2.458   4.360   6.101
 5720SOL    HW218060   2.616   4.380   6.064
 5721SOL     OW18061   3.005   3.724   0.712
 5721SOL    HW118062   3.032   3.813   0.749
 5721SOL    HW218063   3.034   3.717   0.616
 5722SOL     OW18064   1.158   1.449   5.947
 5722SOL    HW118065   1.195   1.498   6.026
 5722SOL    HW218066   1.189   1.354   5.950
 5723SOL     OW18067   4.282   3.432   0.171
 5723SOL    HW118068   4.322   3.341   0.162
 5723SOL    HW218069   4.340   3.488   0.229
 5724SOL     OW18070   6.091   2.784   4.108
 5724SOL    HW118071   6.052   2.800   4.199
 5724SOL    HW218072   6.140   2.697   4.107
 5725SOL     OW18073   6.735   3.802   4.234
 5725SOL    HW118074   6.771   3.893   4.248
 5725SOL    HW218075   6.662   3.805   4.165
 5726SOL     OW18076   5.198   4.448   2.468
 5726SOL    HW118077   5.121   4.474   2.410
 5726SOL    HW218078   5.165   4.425   2.559
 5727SOL     OW18079   0.721   2.131   4.999
 5727SOL    HW118080   0.770   2.141   5.085
 5727SOL    HW218081   0.739   2.210   4.941
 5728SOL     OW18082   4.866   6.496   4.897
 5728SOL    HW118083   4.869   6.467   4.993
 5728SOL    HW218084   4.859   6.595   4.893
 5729SOL     OW18085   2.028   2.073   5.250
 5729SOL    HW118086   2.106   2.134   5.236
 5729SOL    HW218087   2.060   1.988   5.293
 5730SOL     OW18088   6.669   3.990   4.689
 5730SOL    HW118089   6.658   3.926   4.765
 5730SOL    HW218090   6.598   3.974   4.621
 5731SOL     OW18091   0.174   6.552   2.315
 5731SOL    HW118092   0.257   6.515   2.356
 5731SOL    HW218093   0.182   6.651   2.306
 5732SOL     OW18094   0.672   0.019   3.451
 5732SOL    HW118095   0.586   7.023   3.498
 5732SOL    HW218096   0.652   0.050   3.358
 5733SOL     OW18097   3.614   0.614   5.654
 5733SOL    HW118098   3.605   0.525   5.698
 5733SOL    HW218099   3.537   0.672   5.682
 5734SOL     OW18100   2.309   6.137   3.176
 5734SOL    HW118101   2.311   6.038   3.159
 5734SOL    HW218102   2.383   6.181   3.125
 5735SOL     OW18103   2.678   0.961   1.736
 5735SOL    HW118104   2.767   0.944   1.778
 5735SOL    HW218105   2.682   1.046   1.683
 5736SOL     OW18106   1.264   5.064   6.427
 5736SOL    HW118107   1.174   5.051   6.385
 5736SOL    HW218108   1.326   5.104   6.361
 5737SOL     OW18109   5.282   4.398   0.878
 5737SOL    HW118110   5.272   4.455   0.796
 5737SOL    HW218111   5.358   4.432   0.933
 5738SOL     OW18112   1.586   3.704   6.270
 5738SOL    HW118113   1.526   3.750   6.336
 5738SOL    HW218114   1.673   3.753   6.264
 5739SOL     OW18115   0.852   1.299   1.220
 5739SOL    HW118116   0.870   1.397   1.205
 5739SOL    HW218117   0.812   1.287   1.310
 5740SOL     OW18118   3.844   5.791   6.006
 5740SOL    HW118119   3.843   5.748   6.097
 5740SOL    HW218120   3.851   5.890   6.016
 5741SOL     OW18121   0.236   4.853   3.399
 5741SOL    HW118122   0.254   4.928   3.335
 5741SOL    HW218123   0.143   4.818   3.384
 5742SOL     OW18124   6.760   6.459   4.363
 5742SOL    HW118125   6.805   6.381   4.320
 5742SOL    HW218126   6.661   6.453   4.347
 5743SOL     OW18127   1.963   6.720   4.998
 5743SOL    HW118128   1.923   6.651   5.059
 5743SOL    HW218129   1.902   6.733   4.919
 5744SOL     OW18130   5.584   6.652   2.111
 5744SOL    HW118131   5.607   6.745   2.139
 5744SOL    HW218132   5.635   6.629   2.028
 5745SOL     OW18133   1.392   1.757   3.462
 5745SOL    HW118134   1.317   1.726   3.521
 5745SOL    HW218135   1.400   1.696   3.384
 5746SOL     OW18136   6.297   4.100   0.204
 5746SOL    HW118137   6.215   4.047   0.225
 5746SOL    HW218138   6.364   4.040   0.159
 5747SOL     OW18139   1.132   6.072   2.987
 5747SOL    HW118140   1.126   6.152   3.047
 5747SOL    HW218141   1.179   5.998   3.035
 5748SOL     OW18142   2.412   6.156   2.911
 5748SOL    HW118143   2.332   6.192   2.862
 5748SOL    HW218144   2.494   6.205   2.882
 5749SOL     OW18145   2.187   1.768   3.615
 5749SOL    HW118146   2.238   1.790   3.698
 5749SOL    HW218147   2.231   1.811   3.537
 5750SOL     OW18148   6.365   5.664   2.558
 5750SOL    HW118149   6.294   5.615   2.608
 5750SOL    HW218150   6.442   5.604   2.540
 5751SOL     OW18151   2.439   3.047   6.404
 5751SOL    HW118152   2.458   3.077   6.497
 5751SOL    HW218153   2.386   3.118   6.357
 5752SOL     OW18154   6.772   0.533   0.074
 5752SOL    HW118155   6.861   0.552   0.033
 5752SOL    HW218156   6.706   0.600   0.042
 5753SOL     OW18157   3.686   2.404   0.301
 5753SOL    HW118158   3.750   2.480   0.290
 5753SOL    HW218159   3.685   2.375   0.396
 5754SOL     OW18160   5.994   4.391   0.996
 5754SOL    HW118161   5.999   4.333   0.915
 5754SOL    HW218162   5.927   4.352   1.060
 5755SOL     OW18163   3.319   3.734   1.653
 5755SOL    HW118164   3.382   3.682   1.712
 5755SOL    HW218165   3.260   3.670   1.604
 5756SOL     OW18166   0.230   6.286   4.023
 5756SOL    HW118167   0.243   6.386   4.026
 5756SOL    HW218168   0.303   6.242   4.075
 5757SOL     OW18169   0.408   5.150   1.291
 5757SOL    HW118170   0.426   5.077   1.226
 5757SOL    HW218171   0.423   5.239   1.247
 5758SOL     OW18172   0.796   1.783   5.712
 5758SOL    HW118173   0.760   1.849   5.646
 5758SOL    HW218174   0.859   1.720   5.665
 5759SOL     OW18175   5.389   1.930   5.149
 5759SOL    HW118176   5.411   1.843   5.195
 5759SOL    HW218177   5.290   1.942   5.145
 5760SOL     OW18178   1.860   5.868   1.798
 5760SOL    HW118179   1.896   5.851   1.706
 5760SOL    HW218180   1.826   5.783   1.837
 5761SOL     OW18181   4.866   0.200   5.002
 5761SOL    HW118182   4.817   0.285   4.982
 5761SOL    HW218183   4.804   0.123   4.991
 5762SOL     OW18184   5.549   6.262   1.181
 5762SOL    HW118185   5.612   6.212   1.240
 5762SOL    HW218186   5.587   6.352   1.161
 5763SOL     OW18187   1.102   1.418   1.363
 5763SOL    HW118188   1.117   1.457   1.454
 5763SOL    HW218189   1.140   1.325   1.360
 5764SOL     OW18190   4.696   3.611   5.622
 5764SOL    HW118191   4.774   3.583   5.678
 5764SOL    HW218192   4.684   3.547   5.547
 5765SOL     OW18193   5.673   4.606   0.661
 5765SOL    HW118194   5.599   4.543   0.641
 5765SOL    HW218195   5.753   4.555   0.693
 5766SOL     OW18196   2.994   1.184   3.800
 5766SOL    HW118197   2.977   1.222   3.891
 5766SOL    HW218198   2.999   1.258   3.733
 5767SOL     OW18199   6.802   6.715   0.944
 5767SOL    HW118200   6.788   6.646   1.015
 5767SOL    HW218201   6.757   6.801   0.972
 5768SOL     OW18202   6.374   0.527   2.787
 5768SOL    HW118203   6.297   0.466   2.805
 5768SOL    HW218204   6.445   0.478   2.737
 5769SOL     OW18205   2.256   5.665   3.863
 5769SOL    HW118206   2.179   5.639   3.803
 5769SOL    HW218207   2.339   5.675   3.808
 5770SOL     OW18208   6.168   0.434   1.541
 5770SOL    HW118209   6.217   0.371   1.482
 5770SOL    HW218210   6.078   0.453   1.502
 5771SOL     OW18211   0.768   1.447   2.392
 5771SOL    HW118212   0.843   1.382   2.408
 5771SOL    HW218213   0.699   1.436   2.463
 5772SOL     OW18214   6.869   4.443   6.965
 5772SOL    HW118215   6.816   4.390   0.007
 5772SOL    HW218216   6.854   4.406   6.873
 5773SOL     OW18217   5.765   5.857   4.433
 5773SOL    HW118218   5.830   5.891   4.365
 5773SOL    HW218219   5.721   5.934   4.478
 5774SOL     OW18220   2.665   5.224   2.733
 5774SOL    HW118221   2.733   5.167   2.777
 5774SOL    HW218222   2.576   5.209   2.776
 5775SOL     OW18223   0.345   0.054   0.284
 5775SOL    HW118224   0.370   0.047   0.188
 5775SOL    HW218225   0.279   7.007   0.307
 5776SOL     OW18226   5.305   0.899   6.226
 5776SOL    HW118227   5.290   0.858   6.136
 5776SOL    HW218228   5.319   0.998   6.216
 5777SOL     OW18229   5.849   0.519   5.179
 5777SOL    HW118230   5.829   0.424   5.205
 5777SOL    HW218231   5.913   0.520   5.103
 5778SOL     OW18232   2.200   6.983   3.680
 5778SOL    HW118233   2.243   0.025   3.742
 5778SOL    HW218234   2.254   6.975   3.597
 5779SOL     OW18235   3.946   0.849   2.202
 5779SOL    HW118236   4.035   0.894   2.194
 5779SOL    HW218237   3.882   0.889   2.136
 5780SOL     OW18238   5.850   3.763   1.359
 5780SOL    HW118239   5.855   3.735   1.455
 5780SOL    HW218240   5.943   3.784   1.326
 5781SOL     OW18241   2.317   4.795   5.043
 5781SOL    HW118242   2.389   4.725   5.039
 5781SOL    HW218243   2.301   4.830   4.951
 5782SOL     OW18244   2.972   1.167   3.207
 5782SOL    HW118245   2.968   1.266   3.190
 5782SOL    HW218246   3.068   1.137   3.203
 5783SOL     OW18247   2.683   6.766   1.165
 5783SOL    HW118248   2.696   6.767   1.264
 5783SOL    HW218249   2.590   6.795   1.144
 5784SOL     OW18250   2.033   5.467   0.252
 5784SOL    HW118251   2.074   5.556   0.272
 5784SOL    HW218252   1.991   5.431   0.335
 5785SOL     OW18253   2.422   1.567   0.506
 5785SOL    HW118254   2.482   1.639   0.543
 5785SOL    HW218255   2.477   1.487   0.482
 5786SOL     OW18256   1.017   3.329   0.428
 5786SOL    HW118257   1.016   3.429   0.431
 5786SOL    HW218258   1.047   3.299   0.338
 5787SOL     OW18259   0.434   3.065   5.257
 5787SOL    HW118260   0.484   3.031   5.177
 5787SOL    HW218261   0.488   3.135   5.304
 5788SOL     OW18262   1.807   2.508   2.054
 5788SOL    HW118263   1.732   2.566   2.022
 5788SOL    HW218264   1.785   2.472   2.145
 5789SOL     OW18265   3.130   5.062   6.776
 5789SOL    HW118266   3.229   5.078   6.781
 5789SOL    HW218267   3.086   5.102   6.857
 5790SOL     OW18268   6.029   5.834   3.668
 5790SOL    HW118269   6.072   5.885   3.594
 5790SOL    HW218270   6.071   5.860   3.755
 5791SOL     OW18271   3.977   1.670   1.175
 5791SOL    HW118272   4.040   1.604   1.133
 5791SOL    HW218273   3.902   1.621   1.218
 5792SOL     OW18274   4.181   2.141   2.649
 5792SOL    HW118275   4.235   2.128   2.566
 5792SOL    HW218276   4.091   2.178   2.624
 5793SOL     OW18277   3.914   2.562   6.840
 5793SOL    HW118278   3.944   2.527   6.928
 5793SOL    HW218279   3.919   2.490   6.771
 5794SOL     OW18280   3.519   6.281   0.020
 5794SOL    HW118281   3.478   6.368   7.016
 5794SOL    HW218282   3.550   6.289   0.115
 5795SOL     OW18283   2.002   6.118   1.948
 5795SOL    HW118284   2.026   6.211   1.921
 5795SOL    HW218285   1.910   6.096   1.914
 5796SOL     OW18286   4.892   0.963   6.533
 5796SOL    HW118287   4.898   0.890   6.600
 5796SOL    HW218288   4.931   1.047   6.570
 5797SOL     OW18289   6.863   2.923   0.375
 5797SOL    HW118290   6.825   2.846   0.427
 5797SOL    HW218291   6.948   2.953   0.418
 5798SOL     OW18292   1.603   3.673   4.353
 5798SOL    HW118293   1.672   3.610   4.318
 5798SOL    HW218294   1.558   3.719   4.277
 5799SOL     OW18295   2.919   0.267   3.740
 5799SOL    HW118296   2.950   0.310   3.655
 5799SOL    HW218297   2.878   0.178   3.719
 5800SOL     OW18298   1.041   0.406   1.082
 5800SOL    HW118299   0.944   0.428   1.077
 5800SOL    HW218300   1.088   0.477   1.136
 5801SOL     OW18301   1.962   1.931   2.267
 5801SOL    HW118302   2.015   1.862   2.316
 5801SOL    HW218303   2.022   1.981   2.204
 5802SOL     OW18304   0.483   0.167   2.238
 5802SOL    HW118305   0.532   0.239   2.189
 5802SOL    HW218306   0.505   0.173   2.336
 5803SOL     OW18307   0.525   6.019   4.480
 5803SOL    HW118308   0.539   5.999   4.577
 5803SOL    HW218309   0.522   6.118   4.467
 5804SOL     OW18310   5.839   1.952   2.758
 5804SOL    HW118311   5.899   2.032   2.766
 5804SOL    HW218312   5.744   1.981   2.774
 5805SOL     OW18313   1.487   3.025   2.272
 5805SOL    HW118314   1.450   3.007   2.364
 5805SOL    HW218315   1.581   3.055   2.280
 5806SOL     OW18316   6.545   4.369   2.090
 5806SOL    HW118317   6.528   4.463   2.061
 5806SOL    HW218318   6.642   4.357   2.109
 5807SOL     OW18319   1.631   1.174   2.309
 5807SOL    HW118320   1.586   1.113   2.244
 5807SOL    HW218321   1.673   1.250   2.259
 5808SOL     OW18322   6.552   0.632   5.804
 5808SOL    HW118323   6.538   0.665   5.711
 5808SOL    HW218324   6.629   0.681   5.846
 5809SOL     OW18325   0.370   2.668   4.532
 5809SOL    HW118326   0.305   2.609   4.483
 5809SOL    HW218327   0.320   2.739   4.581
 5810SOL     OW18328   3.203   6.215   5.407
 5810SOL    HW118329   3.279   6.189   5.467
 5810SOL    HW218330   3.222   6.305   5.368
 5811SOL     OW18331   3.969   4.124   6.311
 5811SOL    HW118332   3.924   4.190   6.251
 5811SOL    HW218333   3.937   4.136   6.405
 5812SOL     OW18334   5.874   2.992   6.040
 5812SOL    HW118335   5.881   2.893   6.027
 5812SOL    HW218336   5.961   3.027   6.076
 5813SOL     OW18337   4.997   5.389   0.875
 5813SOL    HW118338   5.037   5.403   0.965
 5813SOL    HW218339   4.915   5.446   0.865
 5814SOL     OW18340   5.783   1.320   1.944
 5814SOL    HW118341   5.714   1.266   1.991
 5814SOL    HW218342   5.786   1.412   1.983
 5815SOL     OW18343   6.263   3.214   4.222
 5815SOL    HW118344   6.230   3.269   4.145
 5815SOL    HW218345   6.186   3.166   4.265
 5816SOL     OW18346   0.456   3.956   2.404
 5816SOL    HW118347   0.440   3.937   2.501
 5816SOL    HW218348   0.554   3.951   2.385
 5817SOL     OW18349   6.201   3.732   2.998
 5817SOL    HW118350   6.108   3.767   2.990
 5817SOL    HW218351   6.199   3.632   3.002
 5818SOL     OW18352   2.727   0.267   4.394
 5818SOL    HW118353   2.671   0.291   4.314
 5818SOL    HW218354   2.700   0.323   4.471
 5819SOL     OW18355   3.877   4.113   0.495
 5819SOL    HW118356   3.857   4.147   0.403
 5819SOL    HW218357   3.908   4.018   0.489
 5820SOL     OW18358   6.242   6.808   2.531
 5820SOL    HW118359   6.247   6.887   2.469
 5820SOL    HW218360   6.314   6.743   2.507
 5821SOL     OW18361   6.861   0.356   2.059
 5821SOL    HW118362   6.884   0.268   2.018
 5821SOL    HW218363   6.792   0.402   2.003
 5822SOL     OW18364   1.340   4.341   3.012
 5822SOL    HW118365   1.393   4.367   3.092
 5822SOL    HW218366   1.275   4.414   2.990
 5823SOL     OW18367   1.742   6.615   3.780
 5823SOL    HW118368   1.666   6.679   3.790
 5823SOL    HW218369   1.735   6.568   3.692
 5824SOL     OW18370   1.609   6.810   2.258
 5824SOL    HW118371   1.703   6.785   2.239
 5824SOL    HW218372   1.580   6.884   2.197
 5825SOL     OW18373   4.757   1.743   3.929
 5825SOL    HW118374   4.851   1.714   3.946
 5825SOL    HW218375   4.755   1.839   3.901
 5826SOL     OW18376   1.430   6.849   5.486
 5826SOL    HW118377   1.379   6.769   5.454
 5826SOL    HW218378   1.367   6.911   5.534
 5827SOL     OW18379   2.305   4.166   3.791
 5827SOL    HW118380   2.278   4.185   3.696
 5827SOL    HW218381   2.404   4.176   3.800
 5828SOL     OW18382   4.202   0.789   5.390
 5828SOL    HW118383   4.265   0.839   5.449
 5828SOL    HW218384   4.192   0.837   5.303
 5829SOL     OW18385   2.122   0.364   2.886
 5829SOL    HW118386   2.125   0.282   2.829
 5829SOL    HW218387   2.065   0.434   2.841
 5830SOL     OW18388   4.005   5.158   4.232
 5830SOL    HW118389   4.056   5.244   4.231
 5830SOL    HW218390   3.987   5.128   4.138
 5831SOL     OW18391   1.966   2.015   4.937
 5831SOL    HW118392   1.993   1.919   4.931
 5831SOL    HW218393   2.025   2.064   5.001
 5832SOL     OW18394   3.204   5.476   2.080
 5832SOL    HW118395   3.268   5.544   2.044
 5832SOL    HW218396   3.218   5.389   2.033
 5833SOL     OW18397   3.479   5.659   0.189
 5833SOL    HW118398   3.439   5.664   0.280
 5833SOL    HW218399   3.439   5.730   0.131
 5834SOL     OW18400   6.854   3.054   6.294
 5834SOL    HW118401   6.874   3.146   6.260
 5834SOL    HW218402   6.780   3.058   6.361
 5835SOL     OW18403   4.896   1.736   3.103
 5835SOL    HW118404   4.800   1.749   3.131
 5835SOL    HW218405   4.948   1.819   3.124
 5836SOL     OW18406   5.188   6.142   2.383
 5836SOL    HW118407   5.280   6.170   2.354
 5836SOL    HW218408   5.145   6.216   2.434
 5837SOL     OW18409   2.910   4.857   6.267
 5837SOL    HW118410   2.929   4.858   6.366
 5837SOL    HW218411   2.831   4.915   6.249
 5838SOL     OW18412   4.024   2.862   0.159
 5838SOL    HW118413   4.121   2.859   0.185
 5838SOL    HW218414   4.004   2.951   0.119
 5839SOL     OW18415   1.788   2.118   0.839
 5839SOL    HW118416   1.763   2.215   0.849
 5839SOL    HW218417   1.706   2.062   0.849
 5840SOL     OW18418   0.505   3.549   3.680
 5840SOL    HW118419   0.428   3.561   3.618
 5840SOL    HW218420   0.571   3.485   3.640
 5841SOL     OW18421   5.194   1.249   0.595
 5841SOL    HW118422   5.247   1.334   0.589
 5841SOL    HW218423   5.148   1.245   0.684
 5842SOL     OW18424   2.814   1.672   1.329
 5842SOL    HW118425   2.719   1.696   1.348
 5842SOL    HW218426   2.825   1.573   1.329
 5843SOL     OW18427   3.510   3.112   0.744
 5843SOL    HW118428   3.595   3.060   0.738
 5843SOL    HW218429   3.434   3.050   0.765
 5844SOL     OW18430   0.560   5.708   5.142
 5844SOL    HW118431   0.493   5.700   5.069
 5844SOL    HW218432   0.531   5.778   5.208
 5845SOL     OW18433   1.512   6.829   2.511
 5845SOL    HW118434   1.549   6.811   2.420
 5845SOL    HW218435   1.585   6.823   2.579
 5846SOL     OW18436   0.913   4.012   5.199
 5846SOL    HW118437   0.949   4.048   5.112
 5846SOL    HW218438   0.938   4.075   5.273
 5847SOL     OW18439   1.471   3.995   6.291
 5847SOL    HW118440   1.390   4.032   6.245
 5847SOL    HW218441   1.553   4.019   6.239
 5848SOL     OW18442   1.780   5.642   1.895
 5848SOL    HW118443   1.848   5.607   1.960
 5848SOL    HW218444   1.689   5.630   1.934
 5849SOL     OW18445   2.871   5.715   6.489
 5849SOL    HW118446   2.912   5.650   6.553
 5849SOL    HW218447   2.935   5.790   6.472
 5850SOL     OW18448   0.547   1.413   1.770
 5850SOL    HW118449   0.473   1.400   1.704
 5850SOL    HW218450   0.635   1.407   1.723
 5851SOL     OW18451   6.490   3.980   4.460
 5851SOL    HW118452   6.481   3.984   4.360
 5851SOL    HW218453   6.453   4.063   4.500
 5852SOL     OW18454   4.910   4.120   2.485
 5852SOL    HW118455   4.855   4.080   2.412
 5852SOL    HW218456   5.007   4.103   2.467
 5853SOL     OW18457   4.571   4.623   6.523
 5853SOL    HW118458   4.493   4.683   6.505
 5853SOL    HW218459   4.646   4.646   6.461
 5854SOL     OW18460   3.457   4.793   5.236
 5854SOL    HW118461   3.369   4.817   5.196
 5854SOL    HW218462   3.453   4.700   5.274
 5855SOL     OW18463   2.213   2.578   2.802
 5855SOL    HW118464   2.213   2.663   2.749
 5855SOL    HW218465   2.125   2.568   2.848
 5856SOL     OW18466   1.178   6.260   2.781
 5856SOL    HW118467   1.131   6.203   2.849
 5856SOL    HW218468   1.199   6.205   2.700
 5857SOL     OW18469   5.567   4.897   6.715
 5857SOL    HW118470   5.592   4.821   6.654
 5857SOL    HW218471   5.564   4.982   6.663
 5858SOL     OW18472   1.636   1.005   2.999
 5858SOL    HW118473   1.681   0.923   2.965
 5858SOL    HW218474   1.650   1.013   3.098
 5859SOL     OW18475   5.369   5.721   1.596
 5859SOL    HW118476   5.321   5.649   1.546
 5859SOL    HW218477   5.302   5.787   1.630
 5860SOL     OW18478   0.628   4.539   2.941
 5860SOL    HW118479   0.640   4.623   2.994
 5860SOL    HW218480   0.713   4.486   2.943
 5861SOL     OW18481   4.762   0.720   5.563
 5861SOL    HW118482   4.770   0.656   5.640
 5861SOL    HW218483   4.853   0.751   5.537
 5862SOL     OW18484   6.232   5.301   3.028
 5862SOL    HW118485   6.135   5.282   3.013
 5862SOL    HW218486   6.251   5.397   3.008
 5863SOL     OW18487   3.757   6.921   6.833
 5863SOL    HW118488   3.718   7.013   6.830
 5863SOL    HW218489   3.812   6.911   6.916
 5864SOL     OW18490   3.539   3.819   2.425
 5864SOL    HW118491   3.476   3.781   2.357
 5864SOL    HW218492   3.627   3.838   2.382
 5865SOL     OW18493   6.608   0.598   6.575
 5865SOL    HW118494   6.694   0.634   6.611
 5865SOL    HW218495   6.625   0.514   6.525
 5866SOL     OW18496   3.355   2.991   2.667
 5866SOL    HW118497   3.338   2.970   2.763
 5866SOL    HW218498   3.452   2.974   2.646
 5867SOL     OW18499   2.958   1.660   1.553
 5867SOL    HW118500   3.038   1.718   1.570
 5867SOL    HW218501   2.913   1.689   1.469
 5868SOL     OW18502   0.960   0.938   6.708
 5868SOL    HW118503   0.881   0.881   6.683
 5868SOL    HW218504   1.001   0.902   6.792
 5869SOL     OW18505   1.049   5.877   3.590
 5869SOL    HW118506   1.084   5.786   3.615
 5869SOL    HW218507   1.045   5.884   3.491
 5870SOL     OW18508   3.781   6.238   4.694
 5870SOL    HW118509   3.763   6.318   4.637
 5870SOL    HW218510   3.729   6.246   4.780
 5871SOL     OW18511   3.382   3.301   3.763
 5871SOL    HW118512   3.339   3.350   3.840
 5871SOL    HW218513   3.328   3.316   3.680
 5872SOL     OW18514   5.032   6.091   0.319
 5872SOL    HW118515   4.955   6.050   0.270
 5872SOL    HW218516   5.019   6.081   0.418
 5873SOL     OW18517   4.304   6.226   2.235
 5873SOL    HW118518   4.357   6.299   2.278
 5873SOL    HW218519   4.206   6.241   2.251
 5874SOL     OW18520   0.970   4.046   5.669
 5874SOL    HW118521   0.894   4.031   5.606
 5874SOL    HW218522   0.951   4.128   5.724
 5875SOL     OW18523   3.745   1.792   1.445
 5875SOL    HW118524   3.802   1.874   1.434
 5875SOL    HW218525   3.653   1.819   1.473
 5876SOL     OW18526   3.064   3.210   1.704
 5876SOL    HW118527   3.111   3.208   1.793
 5876SOL    HW218528   2.966   3.207   1.718
 5877SOL     OW18529   5.823   4.536   1.237
 5877SOL    HW118530   5.790   4.444   1.217
 5877SOL    HW218531   5.759   4.604   1.201
 5878SOL     OW18532   2.166   4.321   2.637
 5878SOL    HW118533   2.237   4.376   2.683
 5878SOL    HW218534   2.107   4.382   2.584
 5879SOL     OW18535   0.802   4.211   3.996
 5879SOL    HW118536   0.708   4.184   4.014
 5879SOL    HW218537   0.821   4.298   4.040
 5880SOL     OW18538   3.381   5.719   0.472
 5880SOL    HW118539   3.311   5.790   0.463
 5880SOL    HW218540   3.345   5.632   0.437
 5881SOL     OW18541   1.353   5.487   4.059
 5881SOL    HW118542   1.331   5.513   4.153
 5881SOL    HW218543   1.445   5.448   4.056
 5882SOL     OW18544   4.771   0.755   2.768
 5882SOL    HW118545   4.863   0.744   2.730
 5882SOL    HW218546   4.713   0.803   2.702
 5883SOL     OW18547   0.783   3.337   5.198
 5883SOL    HW118548   0.782   3.436   5.180
 5883SOL    HW218549   0.828   3.320   5.286
 5884SOL     OW18550   0.575   0.956   3.687
 5884SOL    HW118551   0.547   0.954   3.783
 5884SOL    HW218552   0.501   0.994   3.632
 5885SOL     OW18553   5.551   6.973   1.009
 5885SOL    HW118554   5.602   7.004   1.089
 5885SOL    HW218555   5.459   6.947   1.037
 5886SOL     OW18556   0.421   0.977   6.316
 5886SOL    HW118557   0.486   1.052   6.322
 5886SOL    HW218558   0.448   0.904   6.379
 5887SOL     OW18559   4.296   6.692   3.273
 5887SOL    HW118560   4.254   6.764   3.217
 5887SOL    HW218561   4.366   6.733   3.331
 5888SOL     OW18562   0.980   0.813   2.816
 5888SOL    HW118563   0.951   0.719   2.803
 5888SOL    HW218564   0.907   0.864   2.862
 5889SOL     OW18565   2.877   0.304   7.024
 5889SOL    HW118566   2.796   0.332   0.052
 5889SOL    HW218567   2.913   0.219   0.038
 5890SOL     OW18568   3.573   4.853   5.970
 5890SOL    HW118569   3.491   4.888   5.924
 5890SOL    HW218570   3.649   4.916   5.954
 5891SOL     OW18571   2.326   3.360   6.690
 5891SOL    HW118572   2.238   3.406   6.680
 5891SOL    HW218573   2.377   3.368   6.604
 5892SOL     OW18574   1.511   0.026   2.839
 5892SOL    HW118575   1.559   7.021   2.757
 5892SOL    HW218576   1.515   6.978   2.908
 5893SOL     OW18577   2.010   0.963   3.136
 5893SOL    HW118578   1.919   0.946   3.175
 5893SOL    HW218579   2.013   1.056   3.100
 5894SOL     OW18580   0.768   3.757   3.927
 5894SOL    HW118581   0.671   3.772   3.909
 5894SOL    HW218582   0.786   3.659   3.934
 5895SOL     OW18583   5.499   3.589   3.827
 5895SOL    HW118584   5.521   3.685   3.845
 5895SOL    HW218585   5.575   3.531   3.857
 5896SOL     OW18586   4.537   2.091   5.580
 5896SOL    HW118587   4.504   1.999   5.561
 5896SOL    HW218588   4.590   2.091   5.665
 5897SOL     OW18589   4.282   0.207   1.616
 5897SOL    HW118590   4.227   0.175   1.539
 5897SOL    HW218591   4.378   0.210   1.589
 5898SOL     OW18592   2.397   6.453   2.965
 5898SOL    HW118593   2.424   6.396   3.042
 5898SOL    HW218594   2.325   6.408   2.913
 5899SOL     OW18595   5.619   0.297   3.616
 5899SOL    HW118596   5.702   0.246   3.589
 5899SOL    HW218597   5.628   0.326   3.711
 5900SOL     OW18598   4.117   5.073   2.257
 5900SOL    HW118599   4.157   4.981   2.261
 5900SOL    HW218600   4.062   5.089   2.339
 5901SOL     OW18601   3.407   6.146   5.120
 5901SOL    HW118602   3.357   6.064   5.150
 5901SOL    HW218603   3.347   6.202   5.063
 5902SOL     OW18604   6.344   1.199   0.021
 5902SOL    HW118605   6.434   1.213   7.006
 5902SOL    HW218606   6.339   1.243   0.111
 5903SOL     OW18607   0.162   3.288   6.708
 5903SOL    HW118608   0.187   3.238   6.791
 5903SOL    HW218609   0.139   3.224   6.635
 5904SOL     OW18610   0.467   4.235   2.418
 5904SOL    HW118611   0.463   4.135   2.407
 5904SOL    HW218612   0.379   4.274   2.391
 5905SOL     OW18613   6.505   4.892   1.902
 5905SOL    HW118614   6.596   4.933   1.893
 5905SOL    HW218615   6.453   4.907   1.818
 5906SOL     OW18616   6.970   1.520   4.178
 5906SOL    HW118617   7.002   1.578   4.103
 5906SOL    HW218618   0.017   1.514   4.248
 5907SOL     OW18619   1.872   6.771   2.251
 5907SOL    HW118620   1.883   6.842   2.320
 5907SOL    HW218621   1.955   6.765   2.195
 5908SOL     OW18622   0.287   2.418   6.185
 5908SOL    HW118623   0.387   2.414   6.174
 5908SOL    HW218624   0.256   2.512   6.172
 5909SOL     OW18625   6.924   4.032   0.941
 5909SOL    HW118626   6.993   3.986   0.997
 5909SOL    HW218627   6.940   4.010   0.844
 5910SOL     OW18628   2.155   1.552   3.881
 5910SOL    HW118629   2.134   1.516   3.790
 5910SOL    HW218630   2.090   1.625   3.904
 5911SOL     OW18631   6.853   5.869   6.246
 5911SOL    HW118632   6.797   5.819   6.312
 5911SOL    HW218633   6.832   5.967   6.251
 5912SOL     OW18634   1.139   0.644   4.194
 5912SOL    HW118635   1.092   0.576   4.250
 5912SOL    HW218636   1.072   0.695   4.140
 5913SOL     OW18637   6.251   1.528   7.004
 5913SOL    HW118638   6.283   1.453   0.037
 5913SOL    HW218639   6.326   1.559   6.945
 5914SOL     OW18640   0.875   6.419   0.460
 5914SOL    HW118641   0.956   6.413   0.401
 5914SOL    HW218642   0.891   6.365   0.543
 5915SOL     OW18643   4.188   1.505   5.782
 5915SOL    HW118644   4.187   1.594   5.737
 5915SOL    HW218645   4.178   1.518   5.881
 5916SOL     OW18646   0.780   6.573   2.435
 5916SOL    HW118647   0.732   6.501   2.384
 5916SOL    HW218648   0.758   6.662   2.396
 5917SOL     OW18649   3.375   4.594   0.317
 5917SOL    HW118650   3.362   4.573   0.220
 5917SOL    HW218651   3.382   4.508   0.368
 5918SOL     OW18652   2.902   6.490   5.126
 5918SOL    HW118653   2.830   6.421   5.132
 5918SOL    HW218654   2.897   6.535   5.037
 5919SOL     OW18655   3.478   3.322   4.751
 5919SOL    HW118656   3.383   3.347   4.732
 5919SOL    HW218657   3.539   3.384   4.702
 5920SOL     OW18658   6.090   0.665   5.689
 5920SOL    HW118659   6.126   0.592   5.747
 5920SOL    HW218660   5.991   0.654   5.681
 5921SOL     OW18661   2.799   4.108   6.620
 5921SOL    HW118662   2.703   4.112   6.648
 5921SOL    HW218663   2.809   4.148   6.529
 5922SOL     OW18664   5.057   3.015   2.343
 5922SOL    HW118665   4.979   2.954   2.357
 5922SOL    HW218666   5.142   2.964   2.354
 5923SOL     OW18667   6.219   0.713   3.619
 5923SOL    HW118668   6.153   0.640   3.635
 5923SOL    HW218669   6.304   0.674   3.582
 5924SOL     OW18670   5.353   6.884   3.279
 5924SOL    HW118671   5.339   6.827   3.359
 5924SOL    HW218672   5.322   6.977   3.298
 5925SOL     OW18673   4.381   0.794   1.204
 5925SOL    HW118674   4.383   0.742   1.290
 5925SOL    HW218675   4.323   0.875   1.216
 5926SOL     OW18676   4.921   4.594   3.504
 5926SOL    HW118677   4.926   4.510   3.450
 5926SOL    HW218678   4.948   4.575   3.598
 5927SOL     OW18679   0.274   4.815   1.856
 5927SOL    HW118680   0.271   4.832   1.955
 5927SOL    HW218681   0.183   4.824   1.818
 5928SOL     OW18682   2.648   0.359   0.140
 5928SOL    HW118683   2.681   0.452   0.157
 5928SOL    HW218684   2.611   0.321   0.224
 5929SOL     OW18685   1.825   1.111   0.086
 5929SOL    HW118686   1.786   1.130   7.020
 5929SOL    HW218687   1.882   1.188   0.114
 5930SOL     OW18688   1.889   3.527   2.229
 5930SOL    HW118689   1.870   3.468   2.308
 5930SOL    HW218690   1.863   3.621   2.251
 5931SOL     OW18691   5.248   6.643   2.873
 5931SOL    HW118692   5.213   6.723   2.825
 5931SOL    HW218693   5.341   6.623   2.841
 5932SOL     OW18694   2.942   1.250   6.105
 5932SOL    HW118695   3.010   1.323   6.115
 5932SOL    HW218696   2.975   1.183   6.039
 5933SOL     OW18697   6.042   6.632   4.653
 5933SOL    HW118698   6.099   6.565   4.606
 5933SOL    HW218699   5.957   6.646   4.602
 5934SOL     OW18700   3.407   3.391   6.875
 5934SOL    HW118701   3.376   3.306   6.917
 5934SOL    HW218702   3.502   3.409   6.902
 5935SOL     OW18703   1.457   6.265   5.894
 5935SOL    HW118704   1.437   6.270   5.796
 5935SOL    HW218705   1.399   6.195   5.937
 5936SOL     OW18706   3.207   3.186   1.963
 5936SOL    HW118707   3.180   3.282   1.959
 5936SOL    HW218708   3.176   3.146   2.050
 5937SOL     OW18709   0.410   3.257   1.158
 5937SOL    HW118710   0.444   3.246   1.252
 5937SOL    HW218711   0.353   3.340   1.153
 5938SOL     OW18712   0.430   4.395   4.122
 5938SOL    HW118713   0.330   4.399   4.115
 5938SOL    HW218714   0.459   4.300   4.128
 5939SOL     OW18715   3.893   1.387   5.217
 5939SOL    HW118716   3.908   1.383   5.118
 5939SOL    HW218717   3.814   1.445   5.237
 5940SOL     OW18718   4.902   5.450   2.052
 5940SOL    HW118719   4.854   5.537   2.047
 5940SOL    HW218720   4.835   5.376   2.065
 5941SOL     OW18721   0.155   2.491   2.807
 5941SOL    HW118722   0.216   2.418   2.776
 5941SOL    HW218723   0.160   2.499   2.907
 5942SOL     OW18724   5.257   3.010   5.953
 5942SOL    HW118725   5.245   3.104   5.923
 5942SOL    HW218726   5.269   2.950   5.874
 5943SOL     OW18727   2.989   4.263   1.718
 5943SOL    HW118728   2.973   4.351   1.763
 5943SOL    HW218729   2.901   4.216   1.704
 5944SOL     OW18730   6.813   3.825   6.482
 5944SOL    HW118731   6.870   3.743   6.497
 5944SOL    HW218732   6.871   3.899   6.448
 5945SOL     OW18733   6.743   6.091   4.495
 5945SOL    HW118734   6.812   6.089   4.567
 5945SOL    HW218735   6.780   6.137   4.414
 5946SOL     OW18736   2.775   3.893   0.719
 5946SOL    HW118737   2.813   3.803   0.741
 5946SOL    HW218738   2.846   3.963   0.732
 5947SOL     OW18739   3.796   3.525   4.571
 5947SOL    HW118740   3.714   3.524   4.628
 5947SOL    HW218741   3.792   3.450   4.505
 5948SOL     OW18742   5.156   3.157   1.673
 5948SOL    HW118743   5.184   3.164   1.577
 5948SOL    HW218744   5.064   3.194   1.684
 5949SOL     OW18745   0.226   4.453   2.661
 5949SOL    HW118746   0.163   4.408   2.724
 5949SOL    HW218747   0.249   4.391   2.586
 5950SOL     OW18748   3.873   0.017   4.919
 5950SOL    HW118749   3.895   0.017   4.821
 5950SOL    HW218750   3.936   6.981   4.967
 5951SOL     OW18751   0.619   3.837   6.736
 5951SOL    HW118752   0.642   3.818   6.641
 5951SOL    HW218753   0.685   3.902   6.774
 5952SOL     OW18754   4.374   4.630   0.971
 5952SOL    HW118755   4.428   4.609   1.052
 5952SOL    HW218756   4.434   4.657   0.896
 5953SOL     OW18757   6.418   2.977   5.306
 5953SOL    HW118758   6.384   3.066   5.336
 5953SOL    HW218759   6.364   2.946   5.228
 5954SOL     OW18760   1.703   6.208   4.008
 5954SOL    HW118761   1.662   6.120   4.031
 5954SOL    HW218762   1.720   6.213   3.909
 5955SOL     OW18763   5.573   3.451   0.519
 5955SOL    HW118764   5.485   3.436   0.474
 5955SOL    HW218765   5.565   3.429   0.616
 5956SOL     OW18766   5.370   2.806   5.297
 5956SOL    HW118767   5.450   2.806   5.356
 5956SOL    HW218768   5.319   2.721   5.309
 5957SOL     OW18769   6.988   2.130   3.247
 5957SOL    HW118770   6.983   2.198   3.320
 5957SOL    HW218771   0.056   2.128   3.210
 5958SOL     OW18772   3.021   0.307   2.591
 5958SOL    HW118773   3.107   0.276   2.551
 5958SOL    HW218774   3.029   0.307   2.691
 5959SOL     OW18775   4.846   2.553   4.030
 5959SOL    HW118776   4.939   2.537   4.062
 5959SOL    HW218777   4.793   2.597   4.102
 5960SOL     OW18778   4.273   0.108   6.392
 5960SOL    HW118779   4.342   0.180   6.384
 5960SOL    HW218780   4.182   0.150   6.397
 5961SOL     OW18781   2.714   2.267   3.203
 5961SOL    HW118782   2.709   2.277   3.303
 5961SOL    HW218783   2.626   2.290   3.163
 5962SOL     OW18784   5.190   5.869   0.911
 5962SOL    HW118785   5.166   5.860   1.007
 5962SOL    HW218786   5.282   5.908   0.903
 5963SOL     OW18787   2.824   4.130   6.990
 5963SOL    HW118788   2.799   4.092   6.901
 5963SOL    HW218789   2.884   4.209   6.976
 5964SOL     OW18790   2.878   6.961   2.238
 5964SOL    HW118791   2.921   7.010   2.162
 5964SOL    HW218792   2.878   6.862   2.218
 5965SOL     OW18793   1.895   0.502   0.123
 5965SOL    HW118794   1.987   0.468   0.099
 5965SOL    HW218795   1.831   0.425   0.125
 5966SOL     OW18796   2.753   1.370   4.575
 5966SOL    HW118797   2.769   1.284   4.527
 5966SOL    HW218798   2.660   1.371   4.612
 5967SOL     OW18799   3.561   1.725   4.388
 5967SOL    HW118800   3.614   1.768   4.315
 5967SOL    HW218801   3.583   1.628   4.394
 5968SOL     OW18802   5.684   2.861   1.599
 5968SOL    HW118803   5.596   2.816   1.587
 5968SOL    HW218804   5.758   2.793   1.595
 5969SOL     OW18805   5.701   0.693   0.643
 5969SOL    HW118806   5.674   0.722   0.735
 5969SOL    HW218807   5.665   0.758   0.575
 5970SOL     OW18808   0.320   3.220   0.793
 5970SOL    HW118809   0.275   3.133   0.810
 5970SOL    HW218810   0.340   3.229   0.695
 5971SOL     OW18811   6.909   6.422   3.905
 5971SOL    HW118812   6.992   6.370   3.925
 5971SOL    HW218813   6.933   6.505   3.853
 5972SOL     OW18814   4.924   4.701   0.983
 5972SOL    HW118815   4.931   4.797   1.012
 5972SOL    HW218816   4.931   4.696   0.883
 5973SOL     OW18817   2.993   1.703   2.543
 5973SOL    HW118818   2.901   1.668   2.562
 5973SOL    HW218819   3.059   1.654   2.601
 5974SOL     OW18820   5.001   1.777   5.582
 5974SOL    HW118821   5.050   1.764   5.496
 5974SOL    HW218822   5.043   1.723   5.654
 5975SOL     OW18823   4.677   5.212   0.638
 5975SOL    HW118824   4.709   5.294   0.592
 5975SOL    HW218825   4.739   5.190   0.714
 5976SOL     OW18826   2.158   2.903   5.763
 5976SOL    HW118827   2.219   2.945   5.831
 5976SOL    HW218828   2.067   2.892   5.802
 5977SOL     OW18829   6.405   4.248   0.726
 5977SOL    HW118830   6.484   4.248   0.787
 5977SOL    HW218831   6.404   4.332   0.673
 5978SOL     OW18832   2.561   3.660   0.277
 5978SOL    HW118833   2.597   3.750   0.254
 5978SOL    HW218834   2.584   3.595   0.205
 5979SOL     OW18835   5.648   0.857   1.688
 5979SOL    HW118836   5.731   0.868   1.743
 5979SOL    HW218837   5.637   0.936   1.629
 5980SOL     OW18838   2.747   2.628   1.479
 5980SOL    HW118839   2.744   2.551   1.543
 5980SOL    HW218840   2.836   2.630   1.433
 5981SOL     OW18841   3.030   2.538   0.587
 5981SOL    HW118842   3.126   2.514   0.601
 5981SOL    HW218843   2.980   2.459   0.553
 5982SOL     OW18844   5.522   3.213   0.272
 5982SOL    HW118845   5.605   3.266   0.254
 5982SOL    HW218846   5.444   3.275   0.282
 5983SOL     OW18847   0.126   0.629   3.420
 5983SOL    HW118848   0.164   0.677   3.341
 5983SOL    HW218849   0.030   0.655   3.432
 5984SOL     OW18850   5.915   6.984   4.034
 5984SOL    HW118851   6.012   6.986   4.012
 5984SOL    HW218852   5.892   6.895   4.075
 5985SOL     OW18853   6.172   3.214   2.285
 5985SOL    HW118854   6.179   3.294   2.345
 5985SOL    HW218855   6.182   3.243   2.190
 5986SOL     OW18856   4.074   3.522   4.893
 5986SOL    HW118857   4.170   3.536   4.917
 5986SOL    HW218858   4.055   3.566   4.805
 5987SOL     OW18859   0.172   6.878   5.443
 5987SOL    HW118860   0.172   6.783   5.474
 5987SOL    HW218861   0.079   6.906   5.420
 5988SOL     OW18862   1.091   2.469   6.373
 5988SOL    HW118863   1.083   2.554   6.319
 5988SOL    HW218864   1.150   2.485   6.452
 5989SOL     OW18865   0.639   5.959   5.764
 5989SOL    HW118866   0.696   6.010   5.828
 5989SOL    HW218867   0.634   6.008   5.677
 5990SOL     OW18868   3.287   4.826   1.911
 5990SOL    HW118869   3.313   4.791   1.821
 5990SOL    HW218870   3.368   4.826   1.971
 5991SOL     OW18871   4.743   0.249   0.916
 5991SOL    HW118872   4.671   0.308   0.951
 5991SOL    HW218873   4.802   0.301   0.855
 5992SOL     OW18874   3.897   6.425   1.823
 5992SOL    HW118875   3.965   6.407   1.752
 5992SOL    HW218876   3.922   6.509   1.872
 5993SOL     OW18877   5.735   2.213   0.278
 5993SOL    HW118878   5.677   2.294   0.285
 5993SOL    HW218879   5.754   2.194   0.182
 5994SOL     OW18880   0.311   3.266   0.516
 5994SOL    HW118881   0.247   3.339   0.541
 5994SOL    HW218882   0.375   3.300   0.447
 5995SOL     OW18883   5.080   3.901   1.666
 5995SOL    HW118884   4.998   3.849   1.643
 5995SOL    HW218885   5.106   3.959   1.589
 5996SOL     OW18886   2.715   5.456   1.221
 5996SOL    HW118887   2.801   5.405   1.216
 5996SOL    HW218888   2.711   5.506   1.308
 5997SOL     OW18889   6.397   0.484   4.042
 5997SOL    HW118890   6.315   0.457   3.992
 5997SOL    HW218891   6.409   0.583   4.034
 5998SOL     OW18892   5.934   6.041   0.880
 5998SOL    HW118893   6.027   6.034   0.844
 5998SOL    HW218894   5.893   5.950   0.887
 5999SOL     OW18895   5.273   2.506   1.344
 5999SOL    HW118896   5.284   2.432   1.411
 5999SOL    HW218897   5.363   2.536   1.312
 6000SOL     OW18898   0.407   4.050   1.314
 6000SOL    HW118899   0.462   4.078   1.235
 6000SOL    HW218900   0.439   3.960   1.346
 6001SOL     OW18901   6.588   5.542   5.772
 6001SOL    HW118902   6.625   5.485   5.845
 6001SOL    HW218903   6.545   5.485   5.703
 6002SOL     OW18904   6.329   4.618   5.154
 6002SOL    HW118905   6.395   4.552   5.118
 6002SOL    HW218906   6.285   4.666   5.078
 6003SOL     OW18907   1.403   2.567   4.854
 6003SOL    HW118908   1.381   2.655   4.897
 6003SOL    HW218909   1.497   2.542   4.877
 6004SOL     OW18910   4.852   2.321   4.536
 6004SOL    HW118911   4.773   2.307   4.595
 6004SOL    HW218912   4.831   2.286   4.444
 6005SOL     OW18913   4.095   4.483   6.778
 6005SOL    HW118914   4.092   4.498   6.679
 6005SOL    HW218915   4.151   4.555   6.820
 6006SOL     OW18916   2.998   5.989   6.206
 6006SOL    HW118917   3.010   5.923   6.131
 6006SOL    HW218918   3.032   6.078   6.176
 6007SOL     OW18919   2.659   5.898   6.559
 6007SOL    HW118920   2.728   5.828   6.540
 6007SOL    HW218921   2.681   5.981   6.509
 6008SOL     OW18922   3.355   4.093   6.267
 6008SOL    HW118923   3.374   3.995   6.277
 6008SOL    HW218924   3.295   4.107   6.188
 6009SOL     OW18925   3.668   5.375   3.095
 6009SOL    HW118926   3.568   5.377   3.105
 6009SOL    HW218927   3.696   5.282   3.071
 6010SOL     OW18928   0.656   5.430   4.509
 6010SOL    HW118929   0.731   5.483   4.470
 6010SOL    HW218930   0.640   5.459   4.603
 6011SOL     OW18931   6.409   1.939   1.549
 6011SOL    HW118932   6.417   1.881   1.468
 6011SOL    HW218933   6.472   1.906   1.620
 6012SOL     OW18934   0.026   0.361   6.297
 6012SOL    HW118935   0.050   0.417   6.376
 6012SOL    HW218936   6.989   0.288   6.326
 6013SOL     OW18937   5.805   1.563   2.318
 6013SOL    HW118938   5.812   1.554   2.418
 6013SOL    HW218939   5.862   1.640   2.288
 6014SOL     OW18940   3.757   3.484   3.814
 6014SOL    HW118941   3.695   3.539   3.758
 6014SOL    HW218942   3.852   3.506   3.790
 6015SOL     OW18943   5.837   1.046   4.073
 6015SOL    HW118944   5.850   0.953   4.108
 6015SOL    HW218945   5.869   1.050   3.978
 6016SOL     OW18946   4.538   1.178   4.345
 6016SOL    HW118947   4.548   1.124   4.428
 6016SOL    HW218948   4.514   1.272   4.369
 6017SOL     OW18949   0.103   2.065   5.386
 6017SOL    HW118950   0.195   2.027   5.390
 6017SOL    HW218951   0.037   1.999   5.423
 6018SOL     OW18952   2.462   1.076   4.740
 6018SOL    HW118953   2.528   1.026   4.684
 6018SOL    HW218954   2.373   1.032   4.733
 6019SOL     OW18955   6.358   3.910   6.906
 6019SOL    HW118956   6.417   3.962   6.845
 6019SOL    HW218957   6.408   3.885   6.989
 6020SOL     OW18958   0.743   4.889   6.236
 6020SOL    HW118959   0.828   4.916   6.281
 6020SOL    HW218960   0.709   4.804   6.277
 6021SOL     OW18961   5.739   6.760   3.676
 6021SOL    HW118962   5.753   6.681   3.735
 6021SOL    HW218963   5.805   6.832   3.699
 6022SOL     OW18964   6.448   1.751   1.368
 6022SOL    HW118965   6.432   1.660   1.406
 6022SOL    HW218966   6.422   1.753   1.272
 6023SOL     OW18967   3.675   0.485   1.903
 6023SOL    HW118968   3.601   0.479   1.837
 6023SOL    HW218969   3.762   0.496   1.856
 6024SOL     OW18970   1.239   6.367   0.671
 6024SOL    HW118971   1.252   6.293   0.605
 6024SOL    HW218972   1.272   6.453   0.632
 6025SOL     OW18973   3.333   0.664   4.355
 6025SOL    HW118974   3.398   0.652   4.431
 6025SOL    HW218975   3.301   0.574   4.325
 6026SOL     OW18976   6.131   5.356   4.601
 6026SOL    HW118977   6.183   5.437   4.627
 6026SOL    HW218978   6.108   5.303   4.683
 6027SOL     OW18979   5.801   4.044   6.663
 6027SOL    HW118980   5.849   4.045   6.751
 6027SOL    HW218981   5.805   4.136   6.623
 6028SOL     OW18982   5.757   5.555   6.319
 6028SOL    HW118983   5.781   5.628   6.255
 6028SOL    HW218984   5.689   5.589   6.384
 6029SOL     OW18985   2.462   0.936   2.573
 6029SOL    HW118986   2.482   0.862   2.638
 6029SOL    HW218987   2.377   0.916   2.526
 6030SOL     OW18988   5.999   3.617   4.392
 6030SOL    HW118989   6.024   3.645   4.485
 6030SOL    HW218990   5.936   3.539   4.397
 6031SOL     OW18991   0.411   5.855   5.361
 6031SOL    HW118992   0.464   5.816   5.437
 6031SOL    HW218993   0.389   5.950   5.381
 6032SOL     OW18994   3.530   5.841   3.283
 6032SOL    HW118995   3.435   5.855   3.309
 6032SOL    HW218996   3.578   5.929   3.282
 6033SOL     OW18997   1.464   1.793   2.418
 6033SOL    HW118998   1.427   1.761   2.505
 6033SOL    HW218999   1.389   1.809   2.353
 6034SOL     OW19000   1.053   0.312   0.188
 6034SOL    HW119001   0.969   0.310   0.241
 6034SOL    HW219002   1.105   0.394   0.210
 6035SOL     OW19003   2.085   0.104   2.774
 6035SOL    HW119004   2.104   0.066   2.865
 6035SOL    HW219005   2.165   0.091   2.715
 6036SOL     OW19006   6.931   2.824   1.026
 6036SOL    HW119007   6.949   2.745   1.085
 6036SOL    HW219008   6.859   2.880   1.067
 6037SOL     OW19009   5.071   2.236   6.976
 6037SOL    HW119010   5.046   2.286   0.034
 6037SOL    HW219011   5.009   2.159   6.964
 6038SOL     OW19012   0.549   2.175   5.808
 6038SOL    HW119013   0.513   2.125   5.887
 6038SOL    HW219014   0.644   2.149   5.793
 6039SOL     OW19015   3.787   3.056   3.529
 6039SOL    HW119016   3.841   3.009   3.460
 6039SOL    HW219017   3.753   3.142   3.492
 6040SOL     OW19018   0.747   1.418   0.082
 6040SOL    HW119019   0.780   1.445   0.173
 6040SOL    HW219020   0.814   1.445   0.014
 6041SOL     OW19021   2.493   3.139   5.610
 6041SOL    HW119022   2.456   3.050   5.639
 6041SOL    HW219023   2.590   3.143   5.632
 6042SOL     OW19024   3.399   5.913   3.690
 6042SOL    HW119025   3.494   5.912   3.658
 6042SOL    HW219026   3.354   5.829   3.660
 6043SOL     OW19027   2.727   0.640   3.553
 6043SOL    HW119028   2.687   0.570   3.613
 6043SOL    HW219029   2.717   0.730   3.595
 6044SOL     OW19030   1.112   3.285   1.640
 6044SOL    HW119031   1.013   3.286   1.638
 6044SOL    HW219032   1.145   3.354   1.705
 6045SOL     OW19033   4.730   1.722   3.402
 6045SOL    HW119034   4.748   1.821   3.406
 6045SOL    HW219035   4.772   1.684   3.320
 6046SOL     OW19036   3.874   2.961   2.340
 6046SOL    HW119037   3.860   2.866   2.370
 6046SOL    HW219038   3.860   2.968   2.241
 6047SOL     OW19039   6.224   2.038   0.782
 6047SOL    HW119040   6.312   2.024   0.827
 6047SOL    HW219041   6.239   2.051   0.684
 6048SOL     OW19042   5.487   5.741   4.533
 6048SOL    HW119043   5.456   5.836   4.524
 6048SOL    HW219044   5.583   5.735   4.506
 6049SOL     OW19045   4.562   4.913   5.780
 6049SOL    HW119046   4.551   5.009   5.804
 6049SOL    HW219047   4.603   4.906   5.689
 6050SOL     OW19048   3.442   6.151   1.899
 6050SOL    HW119049   3.460   6.053   1.911
 6050SOL    HW219050   3.524   6.196   1.863
 6051SOL     OW19051   0.582   1.227   3.348
 6051SOL    HW119052   0.578   1.298   3.420
 6051SOL    HW219053   0.520   1.252   3.274
 6052SOL     OW19054   5.110   6.538   0.253
 6052SOL    HW119055   5.116   6.488   0.339
 6052SOL    HW219056   5.075   6.630   0.270
 6053SOL     OW19057   4.305   2.765   5.940
 6053SOL    HW119058   4.236   2.723   5.881
 6053SOL    HW219059   4.307   2.864   5.924
 6054SOL     OW19060   3.724   4.145   0.971
 6054SOL    HW119061   3.815   4.110   0.992
 6054SOL    HW219062   3.711   4.145   0.872
 6055SOL     OW19063   3.445   3.999   0.718
 6055SOL    HW119064   3.417   4.016   0.623
 6055SOL    HW219065   3.534   4.040   0.734
 6056SOL     OW19066   5.405   5.928   4.143
 6056SOL    HW119067   5.369   5.848   4.193
 6056SOL    HW219068   5.488   5.902   4.094
 6057SOL     OW19069   4.438   0.051   4.378
 6057SOL    HW119070   4.368   0.042   4.308
 6057SOL    HW219071   4.529   0.045   4.336
 6058SOL     OW19072   5.416   2.316   5.634
 6058SOL    HW119073   5.318   2.304   5.653
 6058SOL    HW219074   5.467   2.313   5.720
 6059SOL     OW19075   4.347   2.590   6.899
 6059SOL    HW119076   4.289   2.588   6.817
 6059SOL    HW219077   4.320   2.668   6.956
 6060SOL     OW19078   2.333   3.142   0.489
 6060SOL    HW119079   2.382   3.189   0.562
 6060SOL    HW219080   2.384   3.151   0.404
 6061SOL     OW19081   3.409   4.989   0.294
 6061SOL    HW119082   3.386   4.939   0.378
 6061SOL    HW219083   3.479   4.938   0.243
 6062SOL     OW19084   1.904   2.568   6.793
 6062SOL    HW119085   1.959   2.496   6.836
 6062SOL    HW219086   1.954   2.654   6.795
 6063SOL     OW19087   4.919   4.166   6.341
 6063SOL    HW119088   4.911   4.083   6.286
 6063SOL    HW219089   4.914   4.142   6.438
 6064SOL     OW19090   6.946   5.356   1.281
 6064SOL    HW119091   7.017   5.380   1.348
 6064SOL    HW219092   6.856   5.361   1.324
 6065SOL     OW19093   1.002   0.092   2.485
 6065SOL    HW119094   1.075   0.065   2.548
 6065SOL    HW219095   0.943   0.013   2.467
 6066SOL     OW19096   5.192   5.604   3.352
 6066SOL    HW119097   5.208   5.561   3.264
 6066SOL    HW219098   5.253   5.683   3.363
 6067SOL     OW19099   5.919   6.512   6.185
 6067SOL    HW119100   5.867   6.428   6.166
 6067SOL    HW219101   6.012   6.503   6.150
 6068SOL     OW19102   4.461   2.040   4.574
 6068SOL    HW119103   4.361   2.045   4.574
 6068SOL    HW219104   4.490   1.968   4.637
 6069SOL     OW19105   0.323   3.920   6.155
 6069SOL    HW119106   0.263   3.962   6.087
 6069SOL    HW219107   0.410   3.896   6.111
 6070SOL     OW19108   2.604   1.379   0.355
 6070SOL    HW119109   2.550   1.419   0.281
 6070SOL    HW219110   2.654   1.300   0.321
 6071SOL     OW19111   6.238   0.941   5.753
 6071SOL    HW119112   6.240   0.882   5.673
 6071SOL    HW219113   6.159   0.916   5.810
 6072SOL     OW19114   6.986   2.554   0.443
 6072SOL    HW119115   6.987   2.628   0.510
 6072SOL    HW219116   6.909   2.493   0.461
 6073SOL     OW19117   4.903   2.285   0.475
 6073SOL    HW119118   4.811   2.272   0.439
 6073SOL    HW219119   4.917   2.224   0.553
 6074SOL     OW19120   0.496   6.678   2.636
 6074SOL    HW119121   0.495   6.578   2.626
 6074SOL    HW219122   0.436   6.705   2.712
 6075SOL     OW19123   4.970   0.269   6.425
 6075SOL    HW119124   5.013   0.180   6.445
 6075SOL    HW219125   4.988   0.332   6.500
 6076SOL     OW19126   1.485   5.467   3.214
 6076SOL    HW119127   1.522   5.404   3.283
 6076SOL    HW219128   1.387   5.479   3.229
 6077SOL     OW19129   5.018   6.936   2.132
 6077SOL    HW119130   4.940   6.888   2.091
 6077SOL    HW219131   5.099   6.923   2.075
 6078SOL     OW19132   4.101   4.274   0.537
 6078SOL    HW119133   4.058   4.340   0.598
 6078SOL    HW219134   4.035   4.206   0.508
 6079SOL     OW19135   3.572   3.652   0.049
 6079SOL    HW119136   3.660   3.679   0.087
 6079SOL    HW219137   3.551   3.559   0.078
 6080SOL     OW19138   6.829   5.015   6.446
 6080SOL    HW119139   6.746   5.058   6.480
 6080SOL    HW219140   6.865   5.069   6.370
 6081SOL     OW19141   1.578   3.777   3.905
 6081SOL    HW119142   1.505   3.725   3.862
 6081SOL    HW219143   1.555   3.794   4.001
 6082SOL     OW19144   4.290   1.037   0.838
 6082SOL    HW119145   4.342   1.104   0.785
 6082SOL    HW219146   4.193   1.042   0.810
 6083SOL     OW19147   4.820   0.317   6.213
 6083SOL    HW119148   4.840   0.396   6.156
 6083SOL    HW219149   4.889   0.309   6.285
 6084SOL     OW19150   0.220   6.239   2.573
 6084SOL    HW119151   0.247   6.250   2.669
 6084SOL    HW219152   0.135   6.187   2.568
 6085SOL     OW19153   0.768   6.788   0.641
 6085SOL    HW119154   0.748   6.878   0.680
 6085SOL    HW219155   0.792   6.724   0.714
 6086SOL     OW19156   3.587   4.222   6.701
 6086SOL    HW119157   3.643   4.197   6.780
 6086SOL    HW219158   3.491   4.203   6.720
 6087SOL     OW19159   5.029   6.615   0.677
 6087SOL    HW119160   5.000   6.710   0.667
 6087SOL    HW219161   4.964   6.567   0.737
 6088SOL     OW19162   5.277   5.973   2.999
 6088SOL    HW119163   5.291   5.940   2.906
 6088SOL    HW219164   5.194   5.931   3.037
 6089SOL     OW19165   6.438   4.092   3.523
 6089SOL    HW119166   6.418   4.053   3.433
 6089SOL    HW219167   6.526   4.139   3.520
 6090SOL     OW19168   3.623   5.786   4.236
 6090SOL    HW119169   3.542   5.733   4.213
 6090SOL    HW219170   3.598   5.862   4.296
 6091SOL     OW19171   1.395   1.457   2.381
 6091SOL    HW119172   1.457   1.512   2.325
 6091SOL    HW219173   1.331   1.518   2.429
 6092SOL     OW19174   3.328   6.371   1.068
 6092SOL    HW119175   3.354   6.390   0.973
 6092SOL    HW219176   3.345   6.274   1.088
 6093SOL     OW19177   2.210   2.037   2.185
 6093SOL    HW119178   2.267   1.963   2.221
 6093SOL    HW219179   2.233   2.122   2.230
 6094SOL     OW19180   0.335   6.027   5.044
 6094SOL    HW119181   0.250   5.977   5.059
 6094SOL    HW219182   0.365   6.014   4.950
 6095SOL     OW19183   4.675   5.121   1.759
 6095SOL    HW119184   4.700   5.164   1.673
 6095SOL    HW219185   4.597   5.060   1.745
 6096SOL     OW19186   5.673   6.236   3.118
 6096SOL    HW119187   5.668   6.198   3.025
 6096SOL    HW219188   5.580   6.246   3.155
 6097SOL     OW19189   1.927   5.413   1.520
 6097SOL    HW119190   1.964   5.428   1.611
 6097SOL    HW219191   2.002   5.396   1.456
 6098SOL     OW19192   6.553   1.060   4.679
 6098SOL    HW119193   6.526   1.155   4.664
 6098SOL    HW219194   6.644   1.057   4.720
 6099SOL     OW19195   3.879   0.590   6.145
 6099SOL    HW119196   3.814   0.659   6.112
 6099SOL    HW219197   3.897   0.525   6.072
 6100SOL     OW19198   0.331   6.129   5.407
 6100SOL    HW119199   0.394   6.161   5.336
 6100SOL    HW219200   0.325   6.197   5.480
 6101SOL     OW19201   6.891   3.065   1.505
 6101SOL    HW119202   6.960   3.093   1.438
 6101SOL    HW219203   6.832   2.995   1.465
 6102SOL     OW19204   4.351   6.523   3.030
 6102SOL    HW119205   4.362   6.580   3.111
 6102SOL    HW219206   4.309   6.576   2.956
 6103SOL     OW19207   6.924   1.845   2.043
 6103SOL    HW119208   7.000   1.779   2.047
 6103SOL    HW219209   6.908   1.882   2.135
 6104SOL     OW19210   6.889   0.441   4.102
 6104SOL    HW119211   6.847   0.449   4.011
 6104SOL    HW219212   6.966   0.378   4.097
 6105SOL     OW19213   3.141   4.646   5.259
 6105SOL    HW119214   3.071   4.583   5.226
 6105SOL    HW219215   3.152   4.636   5.358
 6106SOL     OW19216   5.999   5.235   6.089
 6106SOL    HW119217   5.969   5.144   6.062
 6106SOL    HW219218   5.992   5.245   6.188
 6107SOL     OW19219   5.508   5.076   5.470
 6107SOL    HW119220   5.462   5.146   5.416
 6107SOL    HW219221   5.551   5.010   5.409
 6108SOL     OW19222   2.107   1.516   0.798
 6108SOL    HW119223   2.156   1.484   0.879
 6108SOL    HW219224   2.049   1.594   0.822
 6109SOL     OW19225   6.635   6.865   3.539
 6109SOL    HW119226   6.649   6.896   3.633
 6109SOL    HW219227   6.716   6.885   3.484
 6110SOL     OW19228   1.602   1.633   4.323
 6110SOL    HW119229   1.584   1.725   4.359
 6110SOL    HW219230   1.565   1.626   4.231
 6111SOL     OW19231   2.146   4.526   0.551
 6111SOL    HW119232   2.182   4.448   0.601
 6111SOL    HW219233   2.049   4.510   0.530
 6112SOL     OW19234   5.192   0.358   2.861
 6112SOL    HW119235   5.256   0.304   2.805
 6112SOL    HW219236   5.169   0.306   2.944
 6113SOL     OW19237   2.319   5.459   0.141
 6113SOL    HW119238   2.285   5.464   0.235
 6113SOL    HW219239   2.389   5.529   0.127
 6114SOL     OW19240   4.692   1.750   0.652
 6114SOL    HW119241   4.630   1.683   0.611
 6114SOL    HW219242   4.720   1.816   0.582
 6115SOL     OW19243   0.943   0.567   5.664
 6115SOL    HW119244   0.919   0.664   5.674
 6115SOL    HW219245   1.040   0.559   5.642
 6116SOL     OW19246   4.954   1.795   5.890
 6116SOL    HW119247   4.991   1.815   5.981
 6116SOL    HW219248   4.962   1.876   5.832
 6117SOL     OW19249   1.989   2.162   1.050
 6117SOL    HW119250   1.997   2.077   1.101
 6117SOL    HW219251   1.901   2.164   1.003
 6118SOL     OW19252   6.282   0.629   0.998
 6118SOL    HW119253   6.324   0.701   0.944
 6118SOL    HW219254   6.350   0.558   1.017
 6119SOL     OW19255   6.853   2.037   0.891
 6119SOL    HW119256   6.839   1.938   0.887
 6119SOL    HW219257   6.947   2.058   0.865
 6120SOL     OW19258   2.534   0.718   4.972
 6120SOL    HW119259   2.448   0.757   5.004
 6120SOL    HW219260   2.559   0.640   5.030
 6121SOL     OW19261   0.827   3.116   4.383
 6121SOL    HW119262   0.897   3.046   4.377
 6121SOL    HW219263   0.870   3.204   4.403
 6122SOL     OW19264   4.902   5.193   5.850
 6122SOL    HW119265   4.973   5.258   5.825
 6122SOL    HW219266   4.930   5.144   5.933
 6123SOL     OW19267   5.159   1.447   5.042
 6123SOL    HW119268   5.193   1.533   5.002
 6123SOL    HW219269   5.167   1.374   4.974
 6124SOL     OW19270   2.638   6.349   3.819
 6124SOL    HW119271   2.655   6.266   3.766
 6124SOL    HW219272   2.556   6.395   3.784
 6125SOL     OW19273   2.272   2.390   6.647
 6125SOL    HW119274   2.183   2.408   6.606
 6125SOL    HW219275   2.271   2.418   6.743
 6126SOL     OW19276   6.395   2.815   5.594
 6126SOL    HW119277   6.404   2.898   5.649
 6126SOL    HW219278   6.486   2.776   5.577
 6127SOL     OW19279   3.868   2.334   1.652
 6127SOL    HW119280   3.808   2.336   1.732
 6127SOL    HW219281   3.950   2.282   1.673
 6128SOL     OW19282   5.834   5.704   0.452
 6128SOL    HW119283   5.861   5.782   0.508
 6128SOL    HW219284   5.842   5.620   0.505
 6129SOL     OW19285   1.408   5.832   2.340
 6129SOL    HW119286   1.329   5.872   2.385
 6129SOL    HW219287   1.461   5.904   2.295
 6130SOL     OW19288   6.044   2.595   0.272
 6130SOL    HW119289   5.972   2.614   0.340
 6130SOL    HW219290   6.001   2.570   0.185
 6131SOL     OW19291   6.494   1.521   2.570
 6131SOL    HW119292   6.407   1.472   2.567
 6131SOL    HW219293   6.558   1.472   2.629
 6132SOL     OW19294   3.772   1.466   6.550
 6132SOL    HW119295   3.718   1.518   6.617
 6132SOL    HW219296   3.713   1.441   6.473
 6133SOL     OW19297   1.826   1.574   3.943
 6133SOL    HW119298   1.867   1.659   3.976
 6133SOL    HW219299   1.826   1.573   3.843
 6134SOL     OW19300   6.023   6.552   6.736
 6134SOL    HW119301   6.008   6.621   6.807
 6134SOL    HW219302   5.937   6.503   6.719
 6135SOL     OW19303   6.320   0.063   0.052
 6135SOL    HW119304   6.321   7.008   7.017
 6135SOL    HW219305   6.257   0.131   0.016
 6136SOL     OW19306   1.864   3.322   2.887
 6136SOL    HW119307   1.859   3.422   2.881
 6136SOL    HW219308   1.866   3.283   2.795
 6137SOL     OW19309   6.913   4.190   2.062
 6137SOL    HW119310   7.012   4.198   2.065
 6137SOL    HW219311   6.877   4.239   1.983
 6138SOL     OW19312   4.070   0.180   2.020
 6138SOL    HW119313   4.077   0.097   2.076
 6138SOL    HW219314   3.973   0.203   2.007
 6139SOL     OW19315   1.531   0.265   5.628
 6139SOL    HW119316   1.456   0.226   5.682
 6139SOL    HW219317   1.574   0.193   5.573
 6140SOL     OW19318   1.000   0.248   3.584
 6140SOL    HW119319   1.009   0.171   3.647
 6140SOL    HW219320   0.952   0.218   3.502
 6141SOL     OW19321   0.340   1.115   5.734
 6141SOL    HW119322   0.358   1.157   5.645
 6141SOL    HW219323   0.382   1.171   5.806
 6142SOL     OW19324   0.213   0.462   1.336
 6142SOL    HW119325   0.182   0.496   1.247
 6142SOL    HW219326   0.205   0.362   1.337
 6143SOL     OW19327   0.110   3.865   5.521
 6143SOL    HW119328   0.200   3.892   5.487
 6143SOL    HW219329   0.120   3.787   5.583
 6144SOL     OW19330   4.014   5.332   3.243
 6144SOL    HW119331   4.085   5.377   3.297
 6144SOL    HW219332   3.930   5.326   3.297
 6145SOL     OW19333   5.001   2.920   3.990
 6145SOL    HW119334   5.099   2.939   3.984
 6145SOL    HW219335   4.980   2.839   3.935
 6146SOL     OW19336   5.363   6.770   5.156
 6146SOL    HW119337   5.450   6.744   5.113
 6146SOL    HW219338   5.366   6.867   5.181
 6147SOL     OW19339   1.597   2.097   3.675
 6147SOL    HW119340   1.671   2.036   3.706
 6147SOL    HW219341   1.604   2.184   3.722
 6148SOL     OW19342   3.175   5.901   0.373
 6148SOL    HW119343   3.133   5.887   0.283
 6148SOL    HW219344   3.131   5.841   0.440
 6149SOL     OW19345   2.989   0.322   1.523
 6149SOL    HW119346   2.972   0.374   1.439
 6149SOL    HW219347   3.088   0.310   1.536
 6150SOL     OW19348   6.845   4.268   5.610
 6150SOL    HW119349   6.907   4.273   5.531
 6150SOL    HW219350   6.846   4.175   5.647
 6151SOL     OW19351   4.166   4.760   3.977
 6151SOL    HW119352   4.220   4.692   4.025
 6151SOL    HW219353   4.089   4.788   4.034
 6152SOL     OW19354   1.228   5.044   4.367
 6152SOL    HW119355   1.276   5.093   4.440
 6152SOL    HW219356   1.164   5.105   4.321
 6153SOL     OW19357   5.041   5.357   1.148
 6153SOL    HW119358   5.008   5.263   1.138
 6153SOL    HW219359   5.137   5.355   1.177
 6154SOL     OW19360   5.700   2.962   1.995
 6154SOL    HW119361   5.725   3.039   1.936
 6154SOL    HW219362   5.607   2.975   2.029
 6155SOL     OW19363   2.010   1.619   3.061
 6155SOL    HW119364   2.037   1.664   3.146
 6155SOL    HW219365   1.935   1.670   3.019
 6156SOL     OW19366   5.141   5.111   1.835
 6156SOL    HW119367   5.104   5.021   1.858
 6156SOL    HW219368   5.239   5.104   1.820
 6157SOL     OW19369   1.487   2.649   2.188
 6157SOL    HW119370   1.463   2.713   2.262
 6157SOL    HW219371   1.412   2.644   2.122
 6158SOL     OW19372   3.117   2.489   5.433
 6158SOL    HW119373   3.090   2.584   5.420
 6158SOL    HW219374   3.150   2.450   5.347
 6159SOL     OW19375   5.970   2.967   0.841
 6159SOL    HW119376   5.993   3.054   0.797
 6159SOL    HW219377   5.957   2.982   0.939
 6160SOL     OW19378   1.041   0.562   0.297
 6160SOL    HW119379   1.017   0.620   0.219
 6160SOL    HW219380   1.121   0.599   0.343
 6161SOL     OW19381   4.163   3.201   6.492
 6161SOL    HW119382   4.211   3.257   6.560
 6161SOL    HW219383   4.186   3.234   6.400
 6162SOL     OW19384   5.953   5.301   3.060
 6162SOL    HW119385   5.903   5.215   3.062
 6162SOL    HW219386   5.897   5.372   3.017
 6163SOL     OW19387   5.370   5.991   3.504
 6163SOL    HW119388   5.408   6.062   3.445
 6163SOL    HW219389   5.373   6.022   3.600
 6164SOL     OW19390   3.410   4.015   4.412
 6164SOL    HW119391   3.478   4.056   4.471
 6164SOL    HW219392   3.322   4.011   4.459
 6165SOL     OW19393   3.692   1.572   0.464
 6165SOL    HW119394   3.685   1.672   0.453
 6165SOL    HW219395   3.736   1.533   0.384
 6166SOL     OW19396   1.747   2.591   6.524
 6166SOL    HW119397   1.782   2.678   6.488
 6166SOL    HW219398   1.707   2.606   6.614
 6167SOL     OW19399   1.289   4.087   3.487
 6167SOL    HW119400   1.193   4.062   3.496
 6167SOL    HW219401   1.309   4.108   3.392
 6168SOL     OW19402   0.434   3.902   4.027
 6168SOL    HW119403   0.338   3.871   4.027
 6168SOL    HW219404   0.477   3.877   3.940
 6169SOL     OW19405   2.406   6.639   0.164
 6169SOL    HW119406   2.433   6.735   0.160
 6169SOL    HW219407   2.412   6.607   0.259
 6170SOL     OW19408   3.348   4.267   0.102
 6170SOL    HW119409   3.430   4.250   0.048
 6170SOL    HW219410   3.295   4.341   0.060
 6171SOL     OW19411   2.331   4.342   2.299
 6171SOL    HW119412   2.305   4.248   2.324
 6171SOL    HW219413   2.325   4.353   2.200
 6172SOL     OW19414   1.488   6.063   2.738
 6172SOL    HW119415   1.490   6.093   2.643
 6172SOL    HW219416   1.430   5.982   2.746
 6173SOL     OW19417   1.787   5.953   2.529
 6173SOL    HW119418   1.769   5.867   2.575
 6173SOL    HW219419   1.766   6.029   2.591
 6174SOL     OW19420   5.615   5.179   2.796
 6174SOL    HW119421   5.650   5.268   2.825
 6174SOL    HW219422   5.515   5.180   2.798
 6175SOL     OW19423   5.161   0.319   3.419
 6175SOL    HW119424   5.235   0.301   3.354
 6175SOL    HW219425   5.085   0.363   3.371
 6176SOL     OW19426   6.739   3.595   5.742
 6176SOL    HW119427   6.737   3.621   5.645
 6176SOL    HW219428   6.683   3.514   5.756
 6177SOL     OW19429   6.298   2.618   6.771
 6177SOL    HW119430   6.215   2.625   6.827
 6177SOL    HW219431   6.368   2.568   6.821
 6178SOL     OW19432   6.194   3.243   0.975
 6178SOL    HW119433   6.242   3.189   0.905
 6178SOL    HW219434   6.251   3.249   1.057
 6179SOL     OW19435   0.263   2.538   5.905
 6179SOL    HW119436   0.260   2.614   5.841
 6179SOL    HW219437   0.259   2.572   5.999
 6180SOL     OW19438   4.396   6.873   0.727
 6180SOL    HW119439   4.406   6.950   0.790
 6180SOL    HW219440   4.423   6.789   0.774
 6181SOL     OW19441   4.903   6.387   6.599
 6181SOL    HW119442   4.810   6.350   6.606
 6181SOL    HW219443   4.924   6.405   6.503
 6182SOL     OW19444   4.624   6.418   6.847
 6182SOL    HW119445   4.572   6.435   6.931
 6182SOL    HW219446   4.564   6.377   6.778
 6183SOL     OW19447   3.740   0.520   3.418
 6183SOL    HW119448   3.774   0.606   3.380
 6183SOL    HW219449   3.776   0.508   3.511
 6184SOL     OW19450   0.103   6.896   6.310
 6184SOL    HW119451   0.176   6.952   6.349
 6184SOL    HW219452   0.063   6.943   6.231
 6185SOL     OW19453   6.977   3.686   5.917
 6185SOL    HW119454   6.962   3.778   5.953
 6185SOL    HW219455   6.893   3.651   5.877
 6186SOL     OW19456   5.493   0.347   5.020
 6186SOL    HW119457   5.408   0.399   5.011
 6186SOL    HW219458   5.561   0.380   4.955
 6187SOL     OW19459   4.382   4.823   3.833
 6187SOL    HW119460   4.290   4.813   3.872
 6187SOL    HW219461   4.387   4.908   3.780
 6188SOL     OW19462   2.841   6.561   1.107
 6188SOL    HW119463   2.780   6.484   1.125
 6188SOL    HW219464   2.798   6.646   1.137
 6189SOL     OW19465   5.381   5.199   3.333
 6189SOL    HW119466   5.456   5.242   3.381
 6189SOL    HW219467   5.321   5.153   3.398
 6190SOL     OW19468   5.298   2.612   6.837
 6190SOL    HW119469   5.307   2.638   6.933
 6190SOL    HW219470   5.367   2.660   6.783
 6191SOL     OW19471   6.472   1.684   6.909
 6191SOL    HW119472   6.441   1.762   6.962
 6191SOL    HW219473   6.559   1.650   6.946
 6192SOL     OW19474   2.749   2.542   6.207
 6192SOL    HW119475   2.698   2.539   6.293
 6192SOL    HW219476   2.762   2.449   6.173
 6193SOL     OW19477   4.993   0.718   1.445
 6193SOL    HW119478   5.040   0.801   1.474
 6193SOL    HW219479   4.928   0.740   1.372
 6194SOL     OW19480   2.107   0.869   0.163
 6194SOL    HW119481   2.140   0.834   0.075
 6194SOL    HW219482   2.103   0.969   0.160
 6195SOL     OW19483   3.066   0.860   6.697
 6195SOL    HW119484   3.099   0.908   6.778
 6195SOL    HW219485   2.969   0.837   6.709
 6196SOL     OW19486   0.817   1.279   6.396
 6196SOL    HW119487   0.859   1.325   6.318
 6196SOL    HW219488   0.845   1.324   6.480
 6197SOL     OW19489   2.664   3.348   0.807
 6197SOL    HW119490   2.714   3.434   0.812
 6197SOL    HW219491   2.646   3.315   0.900
 6198SOL     OW19492   3.907   4.802   2.444
 6198SOL    HW119493   3.993   4.802   2.393
 6198SOL    HW219494   3.831   4.817   2.381
 6199SOL     OW19495   1.634   6.776   6.936
 6199SOL    HW119496   1.631   6.774   6.837
 6199SOL    HW219497   1.585   6.697   6.973
 6200SOL     OW19498   4.125   0.689   6.108
 6200SOL    HW119499   4.138   0.740   6.023
 6200SOL    HW219500   4.039   0.639   6.103
 6201SOL     OW19501   2.379   4.031   5.617
 6201SOL    HW119502   2.361   3.947   5.566
 6201SOL    HW219503   2.313   4.101   5.590
 6202SOL     OW19504   3.417   1.701   0.756
 6202SOL    HW119505   3.428   1.628   0.824
 6202SOL    HW219506   3.380   1.783   0.801
 6203SOL     OW19507   4.737   1.343   4.107
 6203SOL    HW119508   4.754   1.408   4.181
 6203SOL    HW219509   4.812   1.277   4.102
 6204SOL     OW19510   2.015   6.253   5.922
 6204SOL    HW119511   1.950   6.182   5.895
 6204SOL    HW219512   2.108   6.216   5.918
 6205SOL     OW19513   5.324   5.982   0.001
 6205SOL    HW119514   5.307   6.046   0.075
 6205SOL    HW219515   5.249   5.986   6.960
 6206SOL     OW19516   5.252   0.054   2.468
 6206SOL    HW119517   5.189   7.003   2.449
 6206SOL    HW219518   5.211   0.140   2.439
 6207SOL     OW19519   1.585   4.052   5.244
 6207SOL    HW119520   1.608   3.961   5.208
 6207SOL    HW219521   1.631   4.066   5.331
 6208SOL     OW19522   6.106   6.787   5.938
 6208SOL    HW119523   6.035   6.811   5.871
 6208SOL    HW219524   6.146   6.699   5.913
 6209SOL     OW19525   4.106   6.205   0.653
 6209SOL    HW119526   4.069   6.250   0.573
 6209SOL    HW219527   4.118   6.107   0.634
 6210SOL     OW19528   5.542   4.694   3.569
 6210SOL    HW119529   5.639   4.675   3.558
 6210SOL    HW219530   5.520   4.783   3.529
 6211SOL     OW19531   2.817   6.881   4.479
 6211SOL    HW119532   2.766   6.927   4.406
 6211SOL    HW219533   2.761   6.879   4.562
 6212SOL     OW19534   6.419   6.588   4.044
 6212SOL    HW119535   6.413   6.678   4.087
 6212SOL    HW219536   6.513   6.572   4.015
 6213SOL     OW19537   6.712   0.245   6.993
 6213SOL    HW119538   6.622   0.208   7.018
 6213SOL    HW219539   6.723   0.336   0.008
 6214SOL     OW19540   6.651   4.611   2.444
 6214SOL    HW119541   6.645   4.643   2.539
 6214SOL    HW219542   6.747   4.603   2.417
 6215SOL     OW19543   3.312   2.922   0.781
 6215SOL    HW119544   3.365   2.845   0.747
 6215SOL    HW219545   3.249   2.954   0.710
 6216SOL     OW19546   5.455   1.541   2.054
 6216SOL    HW119547   5.522   1.612   2.074
 6216SOL    HW219548   5.499   1.452   2.057
 6217SOL     OW19549   5.304   3.082   0.817
 6217SOL    HW119550   5.259   3.025   0.749
 6217SOL    HW219551   5.390   3.117   0.779
 6218SOL     OW19552   2.480   5.380   4.665
 6218SOL    HW119553   2.528   5.464   4.637
 6218SOL    HW219554   2.391   5.377   4.619
 6219SOL     OW19555   1.140   2.079   5.106
 6219SOL    HW119556   1.208   2.151   5.093
 6219SOL    HW219557   1.139   2.050   5.202
 6220SOL     OW19558   2.019   4.299   5.249
 6220SOL    HW119559   2.072   4.215   5.241
 6220SOL    HW219560   2.070   4.367   5.302
 6221SOL     OW19561   3.518   5.144   4.546
 6221SOL    HW119562   3.448   5.204   4.508
 6221SOL    HW219563   3.603   5.154   4.494
 6222SOL     OW19564   6.881   0.417   1.286
 6222SOL    HW119565   6.959   0.355   1.291
 6222SOL    HW219566   6.797   0.365   1.301
 6223SOL     OW19567   4.869   2.888   4.722
 6223SOL    HW119568   4.793   2.835   4.759
 6223SOL    HW219569   4.915   2.936   4.796
 6224SOL     OW19570   2.886   1.764   5.189
 6224SOL    HW119571   2.982   1.741   5.206
 6224SOL    HW219572   2.830   1.681   5.197
 6225SOL     OW19573   3.756   3.154   0.341
 6225SOL    HW119574   3.660   3.151   0.314
 6225SOL    HW219575   3.812   3.186   0.264
 6226SOL     OW19576   5.398   0.577   4.648
 6226SOL    HW119577   5.490   0.607   4.623
 6226SOL    HW219578   5.332   0.613   4.582
 6227SOL     OW19579   3.590   4.481   5.848
 6227SOL    HW119580   3.593   4.499   5.750
 6227SOL    HW219581   3.676   4.438   5.876
 6228SOL     OW19582   0.193   0.634   3.067
 6228SOL    HW119583   0.239   0.693   3.133
 6228SOL    HW219584   0.257   0.565   3.032
 6229SOL     OW19585   2.492   2.520   2.304
 6229SOL    HW119586   2.500   2.585   2.228
 6229SOL    HW219587   2.575   2.465   2.310
 6230SOL     OW19588   2.703   2.234   3.840
 6230SOL    HW119589   2.626   2.190   3.885
 6230SOL    HW219590   2.669   2.305   3.778
 6231SOL     OW19591   6.892   5.239   1.738
 6231SOL    HW119592   6.989   5.265   1.738
 6231SOL    HW219593   6.869   5.197   1.650
 6232SOL     OW19594   0.266   0.668   0.183
 6232SOL    HW119595   0.301   0.645   0.092
 6232SOL    HW219596   0.293   0.761   0.207
 6233SOL     OW19597   4.594   2.121   6.939
 6233SOL    HW119598   4.650   2.200   6.914
 6233SOL    HW219599   4.573   2.067   6.858
 6234SOL     OW19600   2.405   1.677   4.121
 6234SOL    HW119601   2.415   1.616   4.043
 6234SOL    HW219602   2.325   1.649   4.174
 6235SOL     OW19603   2.296   0.107   2.559
 6235SOL    HW119604   2.388   0.108   2.521
 6235SOL    HW219605   2.250   0.193   2.537
 6236SOL     OW19606   0.023   4.426   0.443
 6236SOL    HW119607   7.019   4.386   0.530
 6236SOL    HW219608   7.009   4.517   0.434
 6237SOL     OW19609   4.358   0.102   0.880
 6237SOL    HW119610   4.413   0.175   0.921
 6237SOL    HW219611   4.278   0.142   0.835
 6238SOL     OW19612   4.693   5.456   0.914
 6238SOL    HW119613   4.660   5.361   0.922
 6238SOL    HW219614   4.728   5.487   1.002
 6239SOL     OW19615   2.502   0.188   3.057
 6239SOL    HW119616   2.474   0.130   2.981
 6239SOL    HW219617   2.600   0.181   3.071
 6240SOL     OW19618   1.729   3.546   0.663
 6240SOL    HW119619   1.749   3.547   0.761
 6240SOL    HW219620   1.813   3.524   0.612
 6241SOL     OW19621   3.845   0.106   1.799
 6241SOL    HW119622   3.756   0.147   1.783
 6241SOL    HW219623   3.853   0.080   1.895
 6242SOL     OW19624   4.638   2.630   3.708
 6242SOL    HW119625   4.711   2.580   3.660
 6242SOL    HW219626   4.652   2.728   3.697
 6243SOL     OW19627   5.766   6.125   4.184
 6243SOL    HW119628   5.736   6.123   4.089
 6243SOL    HW219629   5.789   6.219   4.210
 6244SOL     OW19630   2.568   1.982   2.123
 6244SOL    HW119631   2.639   1.971   2.193
 6244SOL    HW219632   2.591   2.059   2.064
 6245SOL     OW19633   2.969   4.964   0.945
 6245SOL    HW119634   2.985   4.995   0.852
 6245SOL    HW219635   2.885   4.909   0.948
 6246SOL     OW19636   2.373   1.767   5.823
 6246SOL    HW119637   2.394   1.776   5.920
 6246SOL    HW219638   2.404   1.677   5.790
 6247SOL     OW19639   6.924   6.057   3.151
 6247SOL    HW119640   6.908   6.072   3.053
 6247SOL    HW219641   7.016   6.087   3.175
 6248SOL     OW19642   0.576   5.048   1.484
 6248SOL    HW119643   0.546   4.963   1.528
 6248SOL    HW219644   0.518   5.066   1.404
 6249SOL     OW19645   6.406   4.066   6.608
 6249SOL    HW119646   6.414   4.021   6.520
 6249SOL    HW219647   6.310   4.092   6.624
 6250SOL     OW19648   6.145   6.320   0.190
 6250SOL    HW119649   6.213   6.387   0.216
 6250SOL    HW219650   6.105   6.344   0.102
 6251SOL     OW19651   4.671   1.418   0.313
 6251SOL    HW119652   4.586   1.379   0.347
 6251SOL    HW219653   4.691   1.381   0.222
 6252SOL     OW19654   2.713   6.071   5.151
 6252SOL    HW119655   2.795   6.110   5.193
 6252SOL    HW219656   2.738   6.031   5.062
 6253SOL     OW19657   2.302   4.030   2.045
 6253SOL    HW119658   2.353   3.945   2.040
 6253SOL    HW219659   2.274   4.047   2.139
 6254SOL     OW19660   5.676   0.488   0.200
 6254SOL    HW119661   5.649   0.405   0.248
 6254SOL    HW219662   5.729   0.547   0.261
 6255SOL     OW19663   0.282   1.290   2.701
 6255SOL    HW119664   0.374   1.252   2.692
 6255SOL    HW219665   0.247   1.313   2.610
 6256SOL     OW19666   3.861   5.027   2.892
 6256SOL    HW119667   3.854   5.120   2.854
 6256SOL    HW219668   3.860   4.960   2.818
 6257SOL     OW19669   5.538   2.764   6.765
 6257SOL    HW119670   5.624   2.791   6.722
 6257SOL    HW219671   5.478   2.843   6.772
 6258SOL     OW19672   4.503   1.766   2.305
 6258SOL    HW119673   4.477   1.800   2.215
 6258SOL    HW219674   4.598   1.791   2.324
 6259SOL     OW19675   3.030   2.259   1.719
 6259SOL    HW119676   2.973   2.182   1.691
 6259SOL    HW219677   2.992   2.300   1.801
 6260SOL     OW19678   3.730   3.987   6.872
 6260SOL    HW119679   3.821   3.991   6.829
 6260SOL    HW219680   3.736   3.938   6.959
 6261SOL     OW19681   4.101   1.472   0.309
 6261SOL    HW119682   4.132   1.528   0.232
 6261SOL    HW219683   4.004   1.487   0.325
 6262SOL     OW19684   1.008   4.774   6.562
 6262SOL    HW119685   0.940   4.793   6.633
 6262SOL    HW219686   0.993   4.837   6.485
 6263SOL     OW19687   6.961   6.953   0.648
 6263SOL    HW119688   6.864   6.972   0.663
 6263SOL    HW219689   6.972   6.859   0.617
 6264SOL     OW19690   2.593   1.802   0.552
 6264SOL    HW119691   2.553   1.874   0.495
 6264SOL    HW219692   2.619   1.841   0.640
 6265SOL     OW19693   3.938   3.434   1.658
 6265SOL    HW119694   3.902   3.378   1.733
 6265SOL    HW219695   3.991   3.377   1.596
 6266SOL     OW19696   2.675   0.710   3.293
 6266SOL    HW119697   2.722   0.680   3.376
 6266SOL    HW219698   2.612   0.784   3.315
 6267SOL     OW19699   3.701   0.349   6.350
 6267SOL    HW119700   3.773   0.406   6.389
 6267SOL    HW219701   3.670   0.282   6.419
 6268SOL     OW19702   3.610   5.387   2.820
 6268SOL    HW119703   3.567   5.379   2.910
 6268SOL    HW219704   3.701   5.346   2.823
 6269SOL     OW19705   5.968   5.247   1.599
 6269SOL    HW119706   5.964   5.345   1.582
 6269SOL    HW219707   5.942   5.228   1.694
 6270SOL     OW19708   0.858   0.205   4.872
 6270SOL    HW119709   0.834   0.273   4.802
 6270SOL    HW219710   0.777   0.150   4.894
 6271SOL     OW19711   6.546   1.472   0.742
 6271SOL    HW119712   6.644   1.453   0.747
 6271SOL    HW219713   6.516   1.518   0.826
 6272SOL     OW19714   2.278   2.296   3.385
 6272SOL    HW119715   2.181   2.275   3.399
 6272SOL    HW219716   2.334   2.234   3.440
 6273SOL     OW19717   3.490   1.297   1.633
 6273SOL    HW119718   3.455   1.254   1.550
 6273SOL    HW219719   3.587   1.319   1.622
 6274SOL     OW19720   3.992   6.872   6.147
 6274SOL    HW119721   3.962   6.959   6.185
 6274SOL    HW219722   4.089   6.858   6.167
 6275SOL     OW19723   2.084   0.101   4.768
 6275SOL    HW119724   2.076   0.199   4.751
 6275SOL    HW219725   2.032   0.078   4.850
 6276SOL     OW19726   1.479   5.042   4.236
 6276SOL    HW119727   1.393   5.020   4.282
 6276SOL    HW219728   1.503   4.970   4.171
 6277SOL     OW19729   5.452   3.066   3.031
 6277SOL    HW119730   5.486   3.140   2.973
 6277SOL    HW219731   5.475   3.086   3.127
 6278SOL     OW19732   5.144   0.382   4.403
 6278SOL    HW119733   5.127   0.307   4.467
 6278SOL    HW219734   5.060   0.433   4.388
 6279SOL     OW19735   4.242   2.066   0.542
 6279SOL    HW119736   4.170   2.081   0.475
 6279SOL    HW219737   4.203   2.026   0.625
 6280SOL     OW19738   0.656   4.737   5.759
 6280SOL    HW119739   0.669   4.787   5.844
 6280SOL    HW219740   0.626   4.800   5.687
 6281SOL     OW19741   2.402   6.982   5.486
 6281SOL    HW119742   2.352   6.944   5.564
 6281SOL    HW219743   2.400   6.918   5.410
 6282SOL     OW19744   2.132   6.801   4.483
 6282SOL    HW119745   2.092   6.886   4.517
 6282SOL    HW219746   2.207   6.821   4.420
 6283SOL     OW19747   6.704   2.730   4.930
 6283SOL    HW119748   6.607   2.722   4.950
 6283SOL    HW219749   6.756   2.722   5.015
 6284SOL     OW19750   1.601   4.039   5.578
 6284SOL    HW119751   1.686   4.091   5.582
 6284SOL    HW219752   1.616   3.955   5.525
 6285SOL     OW19753   1.531   4.063   3.064
 6285SOL    HW119754   1.595   4.004   3.015
 6285SOL    HW219755   1.579   4.107   3.141
 6286SOL     OW19756   5.327   0.629   3.515
 6286SOL    HW119757   5.338   0.699   3.585
 6286SOL    HW219758   5.307   0.541   3.559
 6287SOL     OW19759   4.581   4.385   1.693
 6287SOL    HW119760   4.653   4.387   1.763
 6287SOL    HW219761   4.502   4.335   1.728
 6288SOL     OW19762   5.799   3.794   0.845
 6288SOL    HW119763   5.816   3.703   0.810
 6288SOL    HW219764   5.713   3.829   0.809
 6289SOL     OW19765   1.512   1.491   3.807
 6289SOL    HW119766   1.517   1.409   3.749
 6289SOL    HW219767   1.517   1.573   3.749
 6290SOL     OW19768   4.902   3.422   3.101
 6290SOL    HW119769   4.931   3.384   3.014
 6290SOL    HW219770   4.978   3.470   3.144
 6291SOL     OW19771   3.243   4.065   3.298
 6291SOL    HW119772   3.146   4.039   3.304
 6291SOL    HW219773   3.290   4.037   3.381
 6292SOL     OW19774   1.151   2.005   2.441
 6292SOL    HW119775   1.096   1.952   2.505
 6292SOL    HW219776   1.152   2.101   2.469
 6293SOL     OW19777   4.822   0.195   0.317
 6293SOL    HW119778   4.905   0.226   0.269
 6293SOL    HW219779   4.803   0.257   0.393
 6294SOL     OW19780   4.518   5.440   2.887
 6294SOL    HW119781   4.441   5.382   2.860
 6294SOL    HW219782   4.537   5.427   2.984
 6295SOL     OW19783   5.857   6.183   6.493
 6295SOL    HW119784   5.777   6.239   6.472
 6295SOL    HW219785   5.865   6.172   6.592
 6296SOL     OW19786   6.159   1.560   3.080
 6296SOL    HW119787   6.254   1.565   3.049
 6296SOL    HW219788   6.105   1.511   3.012
 6297SOL     OW19789   5.912   6.868   5.749
 6297SOL    HW119790   5.826   6.863   5.800
 6297SOL    HW219791   5.917   6.954   5.699
 6298SOL     OW19792   1.068   2.486   4.879
 6298SOL    HW119793   1.065   2.504   4.780
 6298SOL    HW219794   1.131   2.410   4.897
 6299SOL     OW19795   6.512   3.040   6.854
 6299SOL    HW119796   6.447   3.087   6.795
 6299SOL    HW219797   6.553   3.107   6.917
 6300SOL     OW19798   4.929   0.643   3.565
 6300SOL    HW119799   4.964   0.648   3.472
 6300SOL    HW219800   4.839   0.686   3.569
 6301SOL     OW19801   3.066   0.191   0.851
 6301SOL    HW119802   3.083   0.240   0.937
 6301SOL    HW219803   3.141   0.127   0.834
 6302SOL     OW19804   1.455   1.261   3.654
 6302SOL    HW119805   1.392   1.237   3.728
 6302SOL    HW219806   1.434   1.208   3.573
 6303SOL     OW19807   2.012   6.104   5.044
 6303SOL    HW119808   1.977   6.078   4.954
 6303SOL    HW219809   2.023   6.022   5.100
 6304SOL     OW19810   2.700   1.393   6.930
 6304SOL    HW119811   2.690   1.307   6.979
 6304SOL    HW219812   2.611   1.439   6.926
 6305SOL     OW19813   6.573   0.134   1.090
 6305SOL    HW119814   6.571   0.233   1.074
 6305SOL    HW219815   6.490   0.092   1.054
 6306SOL     OW19816   6.405   2.886   3.510
 6306SOL    HW119817   6.498   2.873   3.543
 6306SOL    HW219818   6.344   2.903   3.588
 6307SOL     OW19819   2.115   4.968   0.207
 6307SOL    HW119820   2.069   4.895   0.259
 6307SOL    HW219821   2.196   4.998   0.258
 6308SOL     OW19822   3.373   2.184   5.316
 6308SOL    HW119823   3.459   2.203   5.269
 6308SOL    HW219824   3.299   2.234   5.272
 6309SOL     OW19825   5.577   1.927   3.906
 6309SOL    HW119826   5.648   1.995   3.929
 6309SOL    HW219827   5.541   1.946   3.815
 6310SOL     OW19828   1.653   5.109   4.866
 6310SOL    HW119829   1.559   5.080   4.848
 6310SOL    HW219830   1.716   5.052   4.813
 6311SOL     OW19831   5.748   0.661   4.737
 6311SOL    HW119832   5.764   0.743   4.792
 6311SOL    HW219833   5.718   0.687   4.646
 6312SOL     OW19834   3.818   4.751   5.728
 6312SOL    HW119835   3.794   4.829   5.669
 6312SOL    HW219836   3.735   4.699   5.749
 6313SOL     OW19837   2.282   5.591   2.978
 6313SOL    HW119838   2.323   5.545   2.899
 6313SOL    HW219839   2.183   5.595   2.967
 6314SOL     OW19840   2.789   6.403   3.348
 6314SOL    HW119841   2.738   6.330   3.392
 6314SOL    HW219842   2.800   6.383   3.251
 6315SOL     OW19843   3.388   3.389   0.362
 6315SOL    HW119844   3.366   3.389   0.265
 6315SOL    HW219845   3.404   3.295   0.393
 6316SOL     OW19846   4.862   2.396   5.580
 6316SOL    HW119847   4.927   2.472   5.573
 6316SOL    HW219848   4.771   2.427   5.554
 6317SOL     OW19849   5.558   6.763   4.333
 6317SOL    HW119850   5.602   6.715   4.408
 6317SOL    HW219851   5.549   6.860   4.356
 6318SOL     OW19852   2.427   1.886   4.701
 6318SOL    HW119853   2.502   1.838   4.747
 6318SOL    HW219854   2.435   1.984   4.717
 6319SOL     OW19855   6.958   1.608   3.427
 6319SOL    HW119856   6.946   1.563   3.338
 6319SOL    HW219857   0.023   1.653   3.430
 6320SOL     OW19858   6.116   3.452   2.873
 6320SOL    HW119859   6.122   3.353   2.861
 6320SOL    HW219860   6.102   3.496   2.785
 6321SOL     OW19861   2.485   4.025   0.383
 6321SOL    HW119862   2.495   3.978   0.471
 6321SOL    HW219863   2.393   4.009   0.347
 6322SOL     OW19864   1.099   0.794   6.921
 6322SOL    HW119865   1.115   0.699   6.897
 6322SOL    HW219866   1.186   0.840   6.938
 6323SOL     OW19867   3.936   2.801   0.408
 6323SOL    HW119868   3.985   2.824   0.324
 6323SOL    HW219869   3.924   2.883   0.463
 6324SOL     OW19870   4.187   1.350   6.425
 6324SOL    HW119871   4.259   1.308   6.370
 6324SOL    HW219872   4.166   1.290   6.502
 6325SOL     OW19873   0.640   2.402   2.434
 6325SOL    HW119874   0.709   2.438   2.372
 6325SOL    HW219875   0.633   2.303   2.423
 6326SOL     OW19876   4.909   5.748   1.495
 6326SOL    HW119877   4.926   5.773   1.591
 6326SOL    HW219878   4.823   5.789   1.465
 6327SOL     OW19879   5.459   5.694   5.582
 6327SOL    HW119880   5.459   5.769   5.648
 6327SOL    HW219881   5.477   5.608   5.630
 6328SOL     OW19882   3.024   3.954   6.373
 6328SOL    HW119883   3.109   3.954   6.426
 6328SOL    HW219884   3.046   3.954   6.275
 6329SOL     OW19885   0.514   1.424   3.547
 6329SOL    HW119886   0.424   1.440   3.506
 6329SOL    HW219887   0.572   1.505   3.534
 6330SOL     OW19888   3.712   1.756   0.056
 6330SOL    HW119889   3.662   1.835   0.092
 6330SOL    HW219890   3.680   1.735   6.989
 6331SOL     OW19891   6.495   2.484   1.781
 6331SOL    HW119892   6.492   2.485   1.681
 6331SOL    HW219893   6.544   2.403   1.813
 6332SOL     OW19894   5.767   5.884   1.447
 6332SOL    HW119895   5.827   5.836   1.511
 6332SOL    HW219896   5.766   5.836   1.359
 6333SOL     OW19897   3.659   5.109   3.061
 6333SOL    HW119898   3.581   5.109   2.999
 6333SOL    HW219899   3.737   5.065   3.016
 6334SOL     OW19900   1.934   1.190   2.918
 6334SOL    HW119901   1.892   1.224   2.833
 6334SOL    HW219902   1.917   1.256   2.992
 6335SOL     OW19903   6.805   1.307   6.748
 6335SOL    HW119904   6.827   1.353   6.662
 6335SOL    HW219905   6.760   1.220   6.728
 6336SOL     OW19906   0.219   2.489   4.367
 6336SOL    HW119907   0.132   2.513   4.409
 6336SOL    HW219908   0.207   2.408   4.309
 6337SOL     OW19909   6.093   5.006   5.558
 6337SOL    HW119910   6.149   4.953   5.622
 6337SOL    HW219911   6.092   5.102   5.587
 6338SOL     OW19912   3.928   1.302   3.649
 6338SOL    HW119913   3.995   1.229   3.649
 6338SOL    HW219914   3.951   1.369   3.578
 6339SOL     OW19915   6.854   1.635   3.917
 6339SOL    HW119916   6.783   1.642   3.988
 6339SOL    HW219917   6.837   1.554   3.861
 6340SOL     OW19918   2.137   5.723   4.289
 6340SOL    HW119919   2.090   5.636   4.302
 6340SOL    HW219920   2.218   5.708   4.231
 6341SOL     OW19921   0.302   4.608   3.482
 6341SOL    HW119922   0.305   4.588   3.580
 6341SOL    HW219923   0.282   4.705   3.469
 6342SOL     OW19924   1.124   2.768   1.045
 6342SOL    HW119925   1.212   2.730   1.072
 6342SOL    HW219926   1.105   2.851   1.098
 6343SOL     OW19927   3.823   1.190   6.735
 6343SOL    HW119928   3.848   1.255   6.663
 6343SOL    HW219929   3.739   1.142   6.709
 6344SOL     OW19930   0.833   4.486   4.144
 6344SOL    HW119931   0.850   4.573   4.191
 6344SOL    HW219932   0.788   4.423   4.207
 6345SOL     OW19933   3.447   1.482   1.845
 6345SOL    HW119934   3.485   1.426   1.771
 6345SOL    HW219935   3.472   1.577   1.830
 6346SOL     OW19936   0.625   4.516   3.375
 6346SOL    HW119937   0.607   4.421   3.398
 6346SOL    HW219938   0.539   4.568   3.379
 6347SOL     OW19939   2.722   0.345   1.132
 6347SOL    HW119940   2.711   0.266   1.192
 6347SOL    HW219941   2.724   0.315   1.037
 6348SOL     OW19942   1.078   3.054   3.985
 6348SOL    HW119943   0.991   3.038   4.032
 6348SOL    HW219944   1.142   2.981   4.009
 6349SOL     OW19945   2.753   0.626   0.166
 6349SOL    HW119946   2.800   0.663   0.086
 6349SOL    HW219947   2.745   0.698   0.236
 6350SOL     OW19948   1.554   6.002   2.193
 6350SOL    HW119949   1.653   5.991   2.189
 6350SOL    HW219950   1.525   6.073   2.129
 6351SOL     OW19951   6.909   1.080   2.725
 6351SOL    HW119952   6.812   1.055   2.722
 6351SOL    HW219953   6.960   1.025   2.659
 6352SOL     OW19954   0.305   5.518   2.069
 6352SOL    HW119955   0.290   5.429   2.027
 6352SOL    HW219956   0.261   5.589   2.013
 6353SOL     OW19957   0.162   6.888   1.162
 6353SOL    HW119958   0.259   6.891   1.186
 6353SOL    HW219959   0.144   6.810   1.103
 6354SOL     OW19960   0.454   6.508   3.520
 6354SOL    HW119961   0.489   6.600   3.497
 6354SOL    HW219962   0.527   6.441   3.509
 6355SOL     OW19963   1.867   2.400   3.324
 6355SOL    HW119964   1.899   2.473   3.263
 6355SOL    HW219965   1.918   2.316   3.305
 6356SOL     OW19966   3.431   3.313   1.683
 6356SOL    HW119967   3.418   3.411   1.671
 6356SOL    HW219968   3.379   3.264   1.613
 6357SOL     OW19969   4.468   1.949   0.381
 6357SOL    HW119970   4.457   1.957   0.282
 6357SOL    HW219971   4.394   1.998   0.427
 6358SOL     OW19972   6.657   2.155   3.392
 6358SOL    HW119973   6.633   2.073   3.444
 6358SOL    HW219974   6.726   2.131   3.323
 6359SOL     OW19975   0.048   1.200   6.755
 6359SOL    HW119976   6.993   1.248   6.791
 6359SOL    HW219977   0.128   1.259   6.761
 6360SOL     OW19978   3.128   5.703   4.251
 6360SOL    HW119979   3.116   5.677   4.346
 6360SOL    HW219980   3.079   5.638   4.192
 6361SOL     OW19981   4.611   5.910   6.170
 6361SOL    HW119982   4.551   5.938   6.096
 6361SOL    HW219983   4.587   5.960   6.253
 6362SOL     OW19984   5.897   5.778   6.627
 6362SOL    HW119985   5.964   5.849   6.649
 6362SOL    HW219986   5.850   5.802   6.542
 6363SOL     OW19987   1.094   5.754   4.233
 6363SOL    HW119988   1.138   5.677   4.279
 6363SOL    HW219989   1.115   5.751   4.135
 6364SOL     OW19990   2.468   2.557   5.546
 6364SOL    HW119991   2.449   2.487   5.615
 6364SOL    HW219992   2.394   2.559   5.479
 6365SOL     OW19993   4.892   6.626   2.816
 6365SOL    HW119994   4.928   6.592   2.729
 6365SOL    HW219995   4.941   6.709   2.842
 6366SOL     OW19996   0.524   5.225   5.218
 6366SOL    HW119997   0.571   5.148   5.262
 6366SOL    HW219998   0.458   5.265   5.281
 6367SOL     OW19999   5.546   6.916   4.069
 6367SOL    HW120000   5.582   6.867   4.148
 6367SOL    HW220001   5.518   6.850   3.999
 6368SOL     OW20002   2.892   6.676   4.313
 6368SOL    HW120003   2.991   6.668   4.326
 6368SOL    HW220004   2.862   6.766   4.342
 6369SOL     OW20005   2.664   5.215   4.208
 6369SOL    HW120006   2.650   5.309   4.240
 6369SOL    HW220007   2.677   5.155   4.286
 6370SOL     OW20008   6.264   2.529   1.482
 6370SOL    HW120009   6.356   2.551   1.449
 6370SOL    HW220010   6.216   2.475   1.413
 6371SOL     OW20011   4.746   2.451   2.423
 6371SOL    HW120012   4.786   2.529   2.376
 6371SOL    HW220013   4.772   2.367   2.376
 6372SOL     OW20014   3.045   6.153   2.358
 6372SOL    HW120015   3.076   6.126   2.267
 6372SOL    HW220016   3.123   6.181   2.413
 6373SOL     OW20017   4.197   3.974   6.640
 6373SOL    HW120018   4.125   4.041   6.660
 6373SOL    HW220019   4.260   4.013   6.573
 6374SOL     OW20020   2.995   3.110   2.463
 6374SOL    HW120021   3.042   3.022   2.468
 6374SOL    HW220022   3.042   3.176   2.521
 6375SOL     OW20023   1.877   6.191   2.920
 6375SOL    HW120024   1.789   6.183   2.966
 6375SOL    HW220025   1.863   6.215   2.824
 6376SOL     OW20026   6.743   2.723   5.246
 6376SOL    HW120027   6.829   2.720   5.298
 6376SOL    HW220028   6.684   2.795   5.283
 6377SOL     OW20029   6.998   1.197   4.343
 6377SOL    HW120030   0.062   1.175   4.382
 6377SOL    HW220031   6.988   1.153   4.254
 6378SOL     OW20032   4.885   4.096   3.604
 6378SOL    HW120033   4.827   4.039   3.546
 6378SOL    HW220034   4.932   4.164   3.548
 6379SOL     OW20035   2.416   4.664   3.357
 6379SOL    HW120036   2.426   4.568   3.330
 6379SOL    HW220037   2.381   4.717   3.280
 6380SOL     OW20038   0.077   0.980   5.971
 6380SOL    HW120039   0.064   1.052   5.903
 6380SOL    HW220040   0.172   0.948   5.967
 6381SOL     OW20041   2.973   3.768   2.978
 6381SOL    HW120042   2.964   3.776   2.879
 6381SOL    HW220043   2.984   3.859   3.018
 6382SOL     OW20044   0.924   3.561   5.677
 6382SOL    HW120045   0.988   3.634   5.703
 6382SOL    HW220046   0.965   3.472   5.699
 6383SOL     OW20047   2.766   1.119   4.439
 6383SOL    HW120048   2.683   1.076   4.474
 6383SOL    HW220049   2.752   1.147   4.344
 6384SOL     OW20050   6.856   4.858   3.161
 6384SOL    HW120051   6.910   4.827   3.239
 6384SOL    HW220052   6.766   4.816   3.164
 6385SOL     OW20053   0.132   5.844   4.622
 6385SOL    HW120054   0.183   5.870   4.539
 6385SOL    HW220055   0.173   5.762   4.662
 6386SOL     OW20056   2.822   4.999   1.238
 6386SOL    HW120057   2.921   4.988   1.246
 6386SOL    HW220058   2.781   4.910   1.217
 6387SOL     OW20059   6.449   0.520   5.269
 6387SOL    HW120060   6.537   0.476   5.250
 6387SOL    HW220061   6.449   0.556   5.362
 6388SOL     OW20062   2.900   4.864   2.344
 6388SOL    HW120063   2.860   4.782   2.303
 6388SOL    HW220064   2.999   4.861   2.336
 6389SOL     OW20065   0.773   5.036   3.336
 6389SOL    HW120066   0.767   4.943   3.300
 6389SOL    HW220067   0.683   5.065   3.369
 6390SOL     OW20068   0.772   3.475   3.920
 6390SOL    HW120069   0.759   3.383   3.882
 6390SOL    HW220070   0.749   3.473   4.017
 6391SOL     OW20071   2.991   1.688   0.167
 6391SOL    HW120072   2.897   1.701   0.199
 6391SOL    HW220073   3.007   1.592   0.147
 6392SOL     OW20074   1.820   0.062   4.201
 6392SOL    HW120075   1.789   6.995   4.177
 6392SOL    HW220076   1.890   0.056   4.272
 6393SOL     OW20077   6.040   6.642   0.402
 6393SOL    HW120078   5.951   6.642   0.447
 6393SOL    HW220079   6.110   6.672   0.467
 6394SOL     OW20080   2.539   4.656   0.201
 6394SOL    HW120081   2.629   4.629   0.169
 6394SOL    HW220082   2.479   4.673   0.122
 6395SOL     OW20083   6.293   1.730   0.729
 6395SOL    HW120084   6.213   1.782   0.758
 6395SOL    HW220085   6.307   1.653   0.792
 6396SOL     OW20086   5.177   4.147   5.462
 6396SOL    HW120087   5.086   4.111   5.439
 6396SOL    HW220088   5.247   4.082   5.432
 6397SOL     OW20089   0.269   1.334   1.078
 6397SOL    HW120090   0.240   1.257   1.021
 6397SOL    HW220091   0.238   1.419   1.037
 6398SOL     OW20092   3.137   1.427   1.511
 6398SOL    HW120093   3.085   1.490   1.568
 6398SOL    HW220094   3.205   1.478   1.458
 6399SOL     OW20095   2.555   5.564   6.740
 6399SOL    HW120096   2.590   5.638   6.797
 6399SOL    HW220097   2.501   5.603   6.665
 6400SOL     OW20098   2.644   5.464   3.886
 6400SOL    HW120099   2.646   5.538   3.953
 6400SOL    HW220100   2.728   5.411   3.894
 6401SOL     OW20101   0.516   4.892   4.092
 6401SOL    HW120102   0.494   4.928   4.001
 6401SOL    HW220103   0.610   4.918   4.116
 6402SOL     OW20104   2.378   0.762   2.890
 6402SOL    HW120105   2.303   0.807   2.842
 6402SOL    HW220106   2.456   0.826   2.897
 6403SOL     OW20107   0.390   5.682   0.241
 6403SOL    HW120108   0.381   5.587   0.270
 6403SOL    HW220109   0.474   5.720   0.278
 6404SOL     OW20110   5.311   1.282   3.260
 6404SOL    HW120111   5.228   1.231   3.281
 6404SOL    HW220112   5.391   1.231   3.291
 6405SOL     OW20113   2.444   1.418   2.552
 6405SOL    HW120114   2.427   1.341   2.612
 6405SOL    HW220115   2.404   1.501   2.591
 6406SOL     OW20116   2.531   2.085   3.984
 6406SOL    HW120117   2.498   2.129   4.067
 6406SOL    HW220118   2.554   1.990   4.003
 6407SOL     OW20119   3.754   5.020   6.337
 6407SOL    HW120120   3.771   5.102   6.282
 6407SOL    HW220121   3.660   4.988   6.320
 6408SOL     OW20122   6.078   1.718   6.633
 6408SOL    HW120123   6.043   1.799   6.680
 6408SOL    HW220124   6.175   1.705   6.658
 6409SOL     OW20125   1.267   4.520   2.527
 6409SOL    HW120126   1.308   4.586   2.589
 6409SOL    HW220127   1.332   4.446   2.509
 6410SOL     OW20128   1.313   1.251   0.974
 6410SOL    HW120129   1.331   1.167   0.923
 6410SOL    HW220130   1.375   1.323   0.942
 6411SOL     OW20131   0.916   0.768   3.430
 6411SOL    HW120132   0.937   0.696   3.497
 6411SOL    HW220133   1.001   0.814   3.403
 6412SOL     OW20134   0.239   2.667   5.038
 6412SOL    HW120135   0.278   2.754   5.009
 6412SOL    HW220136   0.268   2.595   4.974
 6413SOL     OW20137   6.969   4.699   0.434
 6413SOL    HW120138   0.020   4.702   0.369
 6413SOL    HW220139   6.955   4.790   0.473
 6414SOL     OW20140   5.588   6.294   2.514
 6414SOL    HW120141   5.592   6.344   2.427
 6414SOL    HW220142   5.659   6.328   2.575
 6415SOL     OW20143   1.774   1.825   1.796
 6415SOL    HW120144   1.747   1.843   1.891
 6415SOL    HW220145   1.829   1.901   1.762
 6416SOL     OW20146   1.619   0.412   6.133
 6416SOL    HW120147   1.546   0.345   6.143
 6416SOL    HW220148   1.631   0.461   6.219
 6417SOL     OW20149   0.794   6.586   2.993
 6417SOL    HW120150   0.859   6.551   2.925
 6417SOL    HW220151   0.763   6.677   2.966
 6418SOL     OW20152   6.189   6.114   2.100
 6418SOL    HW120153   6.279   6.147   2.126
 6418SOL    HW220154   6.119   6.162   2.154
 6419SOL     OW20155   3.041   4.937   1.450
 6419SOL    HW120156   2.978   5.000   1.495
 6419SOL    HW220157   3.094   4.888   1.520
 6420SOL     OW20158   2.027   4.173   0.055
 6420SOL    HW120159   2.037   4.182   0.154
 6420SOL    HW220160   1.972   4.249   0.021
 6421SOL     OW20161   5.378   1.840   1.145
 6421SOL    HW120162   5.417   1.843   1.053
 6421SOL    HW220163   5.282   1.866   1.142
 6422SOL     OW20164   5.938   1.584   3.356
 6422SOL    HW120165   6.017   1.645   3.344
 6422SOL    HW220166   5.959   1.495   3.316
 6423SOL     OW20167   4.898   3.638   0.083
 6423SOL    HW120168   4.834   3.592   0.145
 6423SOL    HW220169   4.961   3.570   0.043
 6424SOL     OW20170   6.987   4.745   5.654
 6424SOL    HW120171   0.036   4.682   5.678
 6424SOL    HW220172   6.908   4.728   5.713
 6425SOL     OW20173   0.938   4.902   2.034
 6425SOL    HW120174   0.988   4.981   2.070
 6425SOL    HW220175   0.945   4.902   1.934
 6426SOL     OW20176   0.689   2.726   3.585
 6426SOL    HW120177   0.730   2.803   3.536
 6426SOL    HW220178   0.597   2.708   3.547
 6427SOL     OW20179   2.256   3.290   5.225
 6427SOL    HW120180   2.282   3.253   5.136
 6427SOL    HW220181   2.338   3.321   5.274
 6428SOL     OW20182   6.881   3.714   2.428
 6428SOL    HW120183   6.920   3.763   2.350
 6428SOL    HW220184   6.818   3.774   2.477
 6429SOL     OW20185   1.297   0.492   3.949
 6429SOL    HW120186   1.396   0.505   3.945
 6429SOL    HW220187   1.255   0.575   3.988
 6430SOL     OW20188   5.772   3.262   1.024
 6430SOL    HW120189   5.733   3.280   1.114
 6430SOL    HW220190   5.840   3.190   1.031
 6431SOL     OW20191   5.501   6.772   2.584
 6431SOL    HW120192   5.440   6.759   2.506
 6431SOL    HW220193   5.592   6.799   2.551
 6432SOL     OW20194   4.909   3.430   0.664
 6432SOL    HW120195   4.827   3.485   0.645
 6432SOL    HW220196   4.985   3.465   0.610
 6433SOL     OW20197   2.811   4.033   1.721
 6433SOL    HW120198   2.731   4.008   1.776
 6433SOL    HW220199   2.845   3.952   1.673
 6434SOL     OW20200   1.516   4.757   1.059
 6434SOL    HW120201   1.539   4.846   1.098
 6434SOL    HW220202   1.494   4.767   0.962
 6435SOL     OW20203   4.608   4.162   6.698
 6435SOL    HW120204   4.594   4.259   6.674
 6435SOL    HW220205   4.564   4.104   6.630
 6436SOL     OW20206   1.893   2.824   3.400
 6436SOL    HW120207   1.943   2.754   3.450
 6436SOL    HW220208   1.957   2.894   3.367
 6437SOL     OW20209   1.223   0.579   6.672
 6437SOL    HW120210   1.277   0.660   6.649
 6437SOL    HW220211   1.268   0.529   6.745
 6438SOL     OW20212   1.206   3.686   3.826
 6438SOL    HW120213   1.112   3.714   3.809
 6438SOL    HW220214   1.246   3.651   3.741
 6439SOL     OW20215   0.993   0.088   1.105
 6439SOL    HW120216   1.031   0.132   1.023
 6439SOL    HW220217   1.068   0.057   1.164
 6440SOL     OW20218   1.138   1.636   2.814
 6440SOL    HW120219   1.236   1.615   2.807
 6440SOL    HW220220   1.106   1.612   2.905
 6441SOL     OW20221   2.192   1.132   3.425
 6441SOL    HW120222   2.200   1.037   3.394
 6441SOL    HW220223   2.283   1.168   3.447
 6442SOL     OW20224   3.144   1.230   4.246
 6442SOL    HW120225   3.102   1.304   4.299
 6442SOL    HW220226   3.242   1.247   4.238
 6443SOL     OW20227   2.740   1.938   0.723
 6443SOL    HW120228   2.732   2.031   0.757
 6443SOL    HW220229   2.803   1.935   0.646
 6444SOL     OW20230   0.459   0.961   2.900
 6444SOL    HW120231   0.371   0.915   2.912
 6444SOL    HW220232   0.457   1.050   2.945
 6445SOL     OW20233   4.007   3.358   5.389
 6445SOL    HW120234   4.010   3.346   5.488
 6445SOL    HW220235   3.912   3.360   5.358
 6446SOL     OW20236   6.743   1.261   0.252
 6446SOL    HW120237   6.780   1.197   0.185
 6446SOL    HW220238   6.791   1.250   0.339
 6447SOL     OW20239   1.182   0.376   2.936
 6447SOL    HW120240   1.262   0.437   2.931
 6447SOL    HW220241   1.105   0.426   2.974
 6448SOL     OW20242   5.583   2.808   2.979
 6448SOL    HW120243   5.534   2.890   3.008
 6448SOL    HW220244   5.538   2.727   3.015
 6449SOL     OW20245   3.720   2.933   0.725
 6449SOL    HW120246   3.752   2.936   0.819
 6449SOL    HW220247   3.795   2.957   0.663
 6450SOL     OW20248   6.756   3.459   0.676
 6450SOL    HW120249   6.847   3.494   0.699
 6450SOL    HW220250   6.686   3.522   0.710
 6451SOL     OW20251   2.666   6.353   4.965
 6451SOL    HW120252   2.609   6.291   5.020
 6451SOL    HW220253   2.610   6.428   4.930
 6452SOL     OW20254   3.544   6.319   3.884
 6452SOL    HW120255   3.543   6.418   3.872
 6452SOL    HW220256   3.562   6.274   3.796
 6453SOL     OW20257   1.734   5.828   6.544
 6453SOL    HW120258   1.769   5.891   6.475
 6453SOL    HW220259   1.803   5.813   6.615
 6454SOL     OW20260   3.452   1.566   5.112
 6454SOL    HW120261   3.467   1.659   5.079
 6454SOL    HW220262   3.359   1.537   5.089
 6455SOL     OW20263   5.875   2.499   5.507
 6455SOL    HW120264   5.782   2.470   5.488
 6455SOL    HW220265   5.886   2.518   5.605
 6456SOL     OW20266   0.126   0.315   3.864
 6456SOL    HW120267   0.222   0.334   3.881
 6456SOL    HW220268   0.089   0.383   3.800
 6457SOL     OW20269   6.706   2.759   0.875
 6457SOL    HW120270   6.794   2.719   0.901
 6457SOL    HW220271   6.703   2.855   0.904
 6458SOL     OW20272   1.564   5.741   3.151
 6458SOL    HW120273   1.524   5.661   3.195
 6458SOL    HW220274   1.630   5.784   3.213
 6459SOL     OW20275   5.337   5.010   6.886
 6459SOL    HW120276   5.304   5.029   6.793
 6459SOL    HW220277   5.276   4.944   6.930
 6460SOL     OW20278   3.482   5.036   6.178
 6460SOL    HW120279   3.429   4.992   6.251
 6460SOL    HW220280   3.479   4.980   6.096
 6461SOL     OW20281   3.530   5.237   4.798
 6461SOL    HW120282   3.517   5.205   4.704
 6461SOL    HW220283   3.496   5.167   4.862
 6462SOL     OW20284   2.017   3.647   4.330
 6462SOL    HW120285   1.945   3.581   4.349
 6462SOL    HW220286   2.068   3.666   4.415
 6463SOL     OW20287   1.572   4.303   6.061
 6463SOL    HW120288   1.474   4.313   6.074
 6463SOL    HW220289   1.598   4.336   5.971
 6464SOL     OW20290   0.160   5.300   3.163
 6464SOL    HW120291   0.072   5.342   3.143
 6464SOL    HW220292   0.175   5.221   3.103
 6465SOL     OW20293   6.267   1.267   3.172
 6465SOL    HW120294   6.272   1.216   3.086
 6465SOL    HW220295   6.307   1.357   3.159
 6466SOL     OW20296   0.002   2.416   5.059
 6466SOL    HW120297   0.009   2.516   5.049
 6466SOL    HW220298   0.052   2.388   5.141
 6467SOL     OW20299   2.509   0.936   6.442
 6467SOL    HW120300   2.470   0.990   6.368
 6467SOL    HW220301   2.435   0.885   6.487
 6468SOL     OW20302   5.092   5.010   1.012
 6468SOL    HW120303   5.184   4.989   1.044
 6468SOL    HW220304   5.026   4.987   1.085
 6469SOL     OW20305   6.923   1.263   5.341
 6469SOL    HW120306   6.830   1.290   5.366
 6469SOL    HW220307   6.933   1.164   5.350
 6470SOL     OW20308   6.743   0.323   5.829
 6470SOL    HW120309   6.796   0.332   5.914
 6470SOL    HW220310   6.655   0.282   5.849
 6471SOL     OW20311   5.504   4.972   5.946
 6471SOL    HW120312   5.562   4.994   6.024
 6471SOL    HW220313   5.508   5.045   5.878
 6472SOL     OW20314   1.117   6.051   1.849
 6472SOL    HW120315   1.085   6.099   1.930
 6472SOL    HW220316   1.050   5.982   1.821
 6473SOL     OW20317   2.044   1.949   6.480
 6473SOL    HW120318   2.122   1.887   6.480
 6473SOL    HW220319   1.960   1.895   6.491
 6474SOL     OW20320   1.735   3.010   5.310
 6474SOL    HW120321   1.672   2.987   5.384
 6474SOL    HW220322   1.809   3.067   5.346
 6475SOL     OW20323   3.985   6.137   4.401
 6475SOL    HW120324   4.014   6.207   4.336
 6475SOL    HW220325   3.885   6.130   4.400
 6476SOL     OW20326   4.392   4.937   2.627
 6476SOL    HW120327   4.449   5.012   2.594
 6476SOL    HW220328   4.332   4.970   2.700
 6477SOL     OW20329   6.747   5.558   0.256
 6477SOL    HW120330   6.716   5.621   0.327
 6477SOL    HW220331   6.667   5.518   0.211
 6478SOL     OW20332   4.782   6.772   0.864
 6478SOL    HW120333   4.823   6.798   0.776
 6478SOL    HW220334   4.854   6.743   0.927
 6479SOL     OW20335   4.081   5.120   2.709
 6479SOL    HW120336   4.029   5.079   2.635
 6479SOL    HW220337   4.097   5.052   2.781
 6480SOL     OW20338   3.084   2.473   0.155
 6480SOL    HW120339   3.145   2.535   0.204
 6480SOL    HW220340   3.138   2.409   0.100
 6481SOL     OW20341   4.682   0.993   1.274
 6481SOL    HW120342   4.588   0.991   1.240
 6481SOL    HW220343   4.693   1.069   1.338
 6482SOL     OW20344   0.151   0.560   6.472
 6482SOL    HW120345   0.113   0.541   6.562
 6482SOL    HW220346   0.139   0.657   6.450
 6483SOL     OW20347   1.686   6.552   3.047
 6483SOL    HW120348   1.764   6.565   3.109
 6483SOL    HW220349   1.618   6.494   3.091
 6484SOL     OW20350   4.630   6.721   3.908
 6484SOL    HW120351   4.616   6.754   4.001
 6484SOL    HW220352   4.584   6.782   3.843
 6485SOL     OW20353   1.687   2.523   3.083
 6485SOL    HW120354   1.645   2.589   3.021
 6485SOL    HW220355   1.619   2.492   3.149
 6486SOL     OW20356   1.707   3.505   3.720
 6486SOL    HW120357   1.714   3.559   3.636
 6486SOL    HW220358   1.795   3.461   3.739
 6487SOL     OW20359   5.733   6.462   4.102
 6487SOL    HW120360   5.650   6.419   4.066
 6487SOL    HW220361   5.729   6.463   4.202
 6488SOL     OW20362   3.124   5.460   5.837
 6488SOL    HW120363   3.162   5.369   5.819
 6488SOL    HW220364   3.177   5.529   5.786
 6489SOL     OW20365   2.136   1.858   5.409
 6489SOL    HW120366   2.218   1.900   5.448
 6489SOL    HW220367   2.092   1.800   5.477
 6490SOL     OW20368   3.681   1.079   0.512
 6490SOL    HW120369   3.694   1.071   0.413
 6490SOL    HW220370   3.706   1.171   0.541
 6491SOL     OW20371   3.809   1.980   6.650
 6491SOL    HW120372   3.769   2.037   6.578
 6491SOL    HW220373   3.870   1.913   6.609
 6492SOL     OW20374   5.779   6.279   0.011
 6492SOL    HW120375   5.808   6.200   0.065
 6492SOL    HW220376   5.857   6.315   6.985
 6493SOL     OW20377   1.110   6.471   6.187
 6493SOL    HW120378   1.119   6.372   6.180
 6493SOL    HW220379   1.103   6.497   6.283
 6494SOL     OW20380   0.748   0.321   3.718
 6494SOL    HW120381   0.766   0.340   3.814
 6494SOL    HW220382   0.832   0.292   3.672
 6495SOL     OW20383   5.606   4.814   2.761
 6495SOL    HW120384   5.519   4.830   2.807
 6495SOL    HW220385   5.671   4.775   2.825
 6496SOL     OW20386   1.469   0.037   2.344
 6496SOL    HW120387   1.483   7.016   2.432
 6496SOL    HW220388   1.550   0.092   2.322
 6497SOL     OW20389   1.454   4.576   0.430
 6497SOL    HW120390   1.396   4.655   0.447
 6497SOL    HW220391   1.548   4.596   0.458
 6498SOL     OW20392   2.172   4.629   4.145
 6498SOL    HW120393   2.187   4.628   4.046
 6498SOL    HW220394   2.076   4.650   4.164
 6499SOL     OW20395   5.776   1.259   3.790
 6499SOL    HW120396   5.825   1.287   3.872
 6499SOL    HW220397   5.715   1.333   3.761
 6500SOL     OW20398   4.986   5.202   3.513
 6500SOL    HW120399   5.001   5.139   3.437
 6500SOL    HW220400   4.948   5.152   3.591
 6501SOL     OW20401   6.918   4.294   1.048
 6501SOL    HW120402   6.856   4.364   1.014
 6501SOL    HW220403   6.892   4.205   1.011
 6502SOL     OW20404   0.900   5.436   2.802
 6502SOL    HW120405   0.830   5.370   2.775
 6502SOL    HW220406   0.990   5.398   2.784
 6503SOL     OW20407   4.306   6.786   4.659
 6503SOL    HW120408   4.219   6.833   4.646
 6503SOL    HW220409   4.289   6.690   4.682
 6504SOL     OW20410   3.070   0.670   0.700
 6504SOL    HW120411   3.104   0.605   0.632
 6504SOL    HW220412   3.084   0.633   0.792
 6505SOL     OW20413   6.429   5.125   0.952
 6505SOL    HW120414   6.421   5.085   1.044
 6505SOL    HW220415   6.380   5.212   0.950
 6506SOL     OW20416   2.129   2.546   1.329
 6506SOL    HW120417   2.107   2.495   1.246
 6506SOL    HW220418   2.091   2.499   1.409
 6507SOL     OW20419   2.044   0.305   1.538
 6507SOL    HW120420   2.095   0.363   1.475
 6507SOL    HW220421   2.072   0.326   1.632
 6508SOL     OW20422   2.184   1.850   2.956
 6508SOL    HW120423   2.122   1.909   2.905
 6508SOL    HW220424   2.214   1.775   2.897
 6509SOL     OW20425   0.522   2.659   3.968
 6509SOL    HW120426   0.549   2.577   4.019
 6509SOL    HW220427   0.539   2.740   4.025
 6510SOL     OW20428   5.782   4.759   6.167
 6510SOL    HW120429   5.698   4.705   6.170
 6510SOL    HW220430   5.831   4.748   6.254
 6511SOL     OW20431   6.553   6.082   6.486
 6511SOL    HW120432   6.641   6.104   6.442
 6511SOL    HW220433   6.479   6.124   6.434
 6512SOL     OW20434   4.833   6.576   3.781
 6512SOL    HW120435   4.753   6.636   3.778
 6512SOL    HW220436   4.881   6.588   3.868
 6513SOL     OW20437   3.347   6.955   2.959
 6513SOL    HW120438   3.383   6.990   3.046
 6513SOL    HW220439   3.414   6.969   2.887
 6514SOL     OW20440   3.698   7.003   4.188
 6514SOL    HW120441   3.734   0.053   4.244
 6514SOL    HW220442   3.668   0.014   4.100
 6515SOL     OW20443   0.832   6.842   5.129
 6515SOL    HW120444   0.776   6.840   5.212
 6515SOL    HW220445   0.774   6.830   5.049
 6516SOL     OW20446   0.793   1.596   5.467
 6516SOL    HW120447   0.815   1.531   5.539
 6516SOL    HW220448   0.694   1.608   5.462
 6517SOL     OW20449   0.973   1.493   0.568
 6517SOL    HW120450   1.066   1.496   0.532
 6517SOL    HW220451   0.954   1.575   0.621
 6518SOL     OW20452   6.484   6.175   1.364
 6518SOL    HW120453   6.447   6.194   1.455
 6518SOL    HW220454   6.507   6.078   1.357
 6519SOL     OW20455   2.325   2.163   3.762
 6519SOL    HW120456   2.367   2.114   3.838
 6519SOL    HW220457   2.320   2.261   3.784
 6520SOL     OW20458   5.554   5.540   1.433
 6520SOL    HW120459   5.533   5.454   1.480
 6520SOL    HW220460   5.531   5.617   1.493
 6521SOL     OW20461   0.094   1.420   5.238
 6521SOL    HW120462   0.033   1.351   5.277
 6521SOL    HW220463   0.173   1.433   5.298
 6522SOL     OW20464   2.589   5.464   5.777
 6522SOL    HW120465   2.545   5.421   5.856
 6522SOL    HW220466   2.520   5.499   5.715
 6523SOL     OW20467   2.000   2.177   6.325
 6523SOL    HW120468   1.920   2.202   6.379
 6523SOL    HW220469   2.027   2.083   6.346
 6524SOL     OW20470   4.057   3.623   3.752
 6524SOL    HW120471   4.110   3.539   3.742
 6524SOL    HW220472   4.041   3.641   3.849
 6525SOL     OW20473   0.292   2.897   3.308
 6525SOL    HW120474   0.325   2.854   3.392
 6525SOL    HW220475   0.201   2.936   3.325
 6526SOL     OW20476   1.274   5.923   5.007
 6526SOL    HW120477   1.240   6.007   5.050
 6526SOL    HW220478   1.197   5.871   4.971
 6527SOL     OW20479   1.657   0.517   4.721
 6527SOL    HW120480   1.578   0.458   4.733
 6527SOL    HW220481   1.628   0.607   4.690
 6528SOL     OW20482   6.728   1.252   4.454
 6528SOL    HW120483   6.823   1.239   4.423
 6528SOL    HW220484   6.728   1.284   4.549
 6529SOL     OW20485   6.983   2.299   2.302
 6529SOL    HW120486   6.920   2.350   2.361
 6529SOL    HW220487   6.944   2.291   2.210
 6530SOL     OW20488   6.563   1.819   0.675
 6530SOL    HW120489   6.469   1.805   0.706
 6530SOL    HW220490   6.591   1.914   0.692
 6531SOL     OW20491   4.697   2.694   4.246
 6531SOL    HW120492   4.691   2.661   4.341
 6531SOL    HW220493   4.751   2.778   4.243
 6532SOL     OW20494   6.928   1.716   6.211
 6532SOL    HW120495   6.979   1.692   6.293
 6532SOL    HW220496   6.870   1.795   6.230
 6533SOL     OW20497   4.512   0.272   1.294
 6533SOL    HW120498   4.497   0.319   1.381
 6533SOL    HW220499   4.605   0.291   1.261
 6534SOL     OW20500   2.079   3.853   1.034
 6534SOL    HW120501   2.067   3.925   1.102
 6534SOL    HW220502   2.077   3.892   0.942
 6535SOL     OW20503   0.713   3.866   5.764
 6535SOL    HW120504   0.808   3.891   5.748
 6535SOL    HW220505   0.703   3.767   5.764
 6536SOL     OW20506   6.405   2.395   0.044
 6536SOL    HW120507   6.331   2.397   0.112
 6536SOL    HW220508   6.431   2.300   0.027
 6537SOL     OW20509   1.291   0.069   0.178
 6537SOL    HW120510   1.207   0.117   0.205
 6537SOL    HW220511   1.275   0.020   0.092
 6538SOL     OW20512   2.687   3.005   6.993
 6538SOL    HW120513   2.718   2.998   0.064
 6538SOL    HW220514   2.742   2.943   6.936
 6539SOL     OW20515   2.161   2.217   0.145
 6539SOL    HW120516   2.118   2.132   0.175
 6539SOL    HW220517   2.260   2.204   0.138
 6540SOL     OW20518   3.089   1.381   4.909
 6540SOL    HW120519   3.120   1.341   4.995
 6540SOL    HW220520   3.087   1.480   4.917
 6541SOL     OW20521   1.943   2.585   6.180
 6541SOL    HW120522   1.980   2.580   6.087
 6541SOL    HW220523   1.934   2.493   6.218
 6542SOL     OW20524   6.103   4.413   3.752
 6542SOL    HW120525   6.188   4.465   3.748
 6542SOL    HW220526   6.027   4.470   3.721
 6543SOL     OW20527   6.421   5.910   6.899
 6543SOL    HW120528   6.466   5.976   6.840
 6543SOL    HW220529   6.381   5.956   6.978
 6544SOL     OW20530   6.322   6.796   4.612
 6544SOL    HW120531   6.273   6.709   4.613
 6544SOL    HW220532   6.256   6.871   4.601
 6545SOL     OW20533   4.955   1.511   5.942
 6545SOL    HW120534   5.001   1.483   5.858
 6545SOL    HW220535   4.940   1.610   5.939
 6546SOL     OW20536   2.689   4.463   6.243
 6546SOL    HW120537   2.720   4.547   6.287
 6546SOL    HW220538   2.755   4.435   6.174
 6547SOL     OW20539   4.938   2.326   6.657
 6547SOL    HW120540   5.029   2.356   6.688
 6547SOL    HW220541   4.895   2.273   6.730
 6548SOL     OW20542   6.943   4.847   5.417
 6548SOL    HW120543   6.960   4.825   5.513
 6548SOL    HW220544   6.965   4.944   5.401
 6549SOL     OW20545   3.603   1.865   1.071
 6549SOL    HW120546   3.644   1.778   1.098
 6549SOL    HW220547   3.638   1.892   0.981
 6550SOL     OW20548   0.506   5.622   3.265
 6550SOL    HW120549   0.557   5.628   3.351
 6550SOL    HW220550   0.542   5.689   3.200
 6551SOL     OW20551   1.953   4.681   1.972
 6551SOL    HW120552   1.986   4.623   2.046
 6551SOL    HW220553   1.924   4.624   1.895
 6552SOL     OW20554   2.804   5.098   5.511
 6552SOL    HW120555   2.851   5.011   5.493
 6552SOL    HW220556   2.785   5.144   5.424
 6553SOL     OW20557   1.030   3.172   2.517
 6553SOL    HW120558   0.988   3.092   2.559
 6553SOL    HW220559   1.006   3.254   2.569
 6554SOL     OW20560   6.968   2.725   5.401
 6554SOL    HW120561   6.979   2.635   5.443
 6554SOL    HW220562   6.974   2.796   5.471
 6555SOL     OW20563   0.155   1.298   2.083
 6555SOL    HW120564   0.250   1.322   2.102
 6555SOL    HW220565   0.099   1.318   2.164
 6556SOL     OW20566   4.251   6.222   4.828
 6556SOL    HW120567   4.164   6.269   4.840
 6556SOL    HW220568   4.236   6.124   4.820
 6557SOL     OW20569   6.631   5.373   1.287
 6557SOL    HW120570   6.601   5.469   1.277
 6557SOL    HW220571   6.565   5.324   1.344
 6558SOL     OW20572   6.300   5.501   6.970
 6558SOL    HW120573   6.383   5.505   0.001
 6558SOL    HW220574   6.258   5.411   6.980
 6559SOL     OW20575   4.167   3.678   0.759
 6559SOL    HW120576   4.168   3.778   0.766
 6559SOL    HW220577   4.091   3.641   0.812
 6560SOL     OW20578   3.813   2.139   0.154
 6560SOL    HW120579   3.912   2.138   0.169
 6560SOL    HW220580   3.772   2.212   0.207
 6561SOL     OW20581   4.046   3.326   3.907
 6561SOL    HW120582   4.062   3.277   3.992
 6561SOL    HW220583   4.010   3.263   3.838
 6562SOL     OW20584   6.517   3.841   6.136
 6562SOL    HW120585   6.549   3.835   6.042
 6562SOL    HW220586   6.418   3.857   6.137
 6563SOL     OW20587   1.485   5.444   2.114
 6563SOL    HW120588   1.482   5.538   2.081
 6563SOL    HW220589   1.459   5.382   2.040
 6564SOL     OW20590   1.170   5.366   2.166
 6564SOL    HW120591   1.224   5.390   2.247
 6564SOL    HW220592   1.226   5.376   2.084
 6565SOL     OW20593   6.780   3.039   5.816
 6565SOL    HW120594   6.786   3.114   5.882
 6565SOL    HW220595   6.704   2.979   5.841
 6566SOL     OW20596   3.568   6.701   1.030
 6566SOL    HW120597   3.521   6.660   0.951
 6566SOL    HW220598   3.514   6.778   1.064
 6567SOL     OW20599   5.428   2.815   1.356
 6567SOL    HW120600   5.437   2.895   1.297
 6567SOL    HW220601   5.482   2.740   1.318
 6568SOL     OW20602   4.020   4.306   1.512
 6568SOL    HW120603   3.931   4.265   1.492
 6568SOL    HW220604   4.091   4.260   1.458
 6569SOL     OW20605   0.789   4.683   7.006
 6569SOL    HW120606   0.834   4.747   0.044
 6569SOL    HW220607   0.800   4.590   0.015
 6570SOL     OW20608   6.115   2.372   1.298
 6570SOL    HW120609   6.028   2.324   1.292
 6570SOL    HW220610   6.153   2.383   1.207
 6571SOL     OW20611   2.790   5.635   3.599
 6571SOL    HW120612   2.830   5.666   3.685
 6571SOL    HW220613   2.692   5.620   3.611
 6572SOL     OW20614   0.688   4.204   6.115
 6572SOL    HW120615   0.702   4.112   6.151
 6572SOL    HW220616   0.632   4.199   6.032
 6573SOL     OW20617   1.815   1.733   2.646
 6573SOL    HW120618   1.826   1.822   2.602
 6573SOL    HW220619   1.900   1.681   2.639
 6574SOL     OW20620   3.158   4.912   3.050
 6574SOL    HW120621   3.242   4.914   3.106
 6574SOL    HW220622   3.083   4.954   3.101
 6575SOL     OW20623   0.490   1.626   2.819
 6575SOL    HW120624   0.446   1.694   2.761
 6575SOL    HW220625   0.445   1.623   2.909
 6576SOL     OW20626   1.060   5.971   6.444
 6576SOL    HW120627   1.057   5.879   6.405
 6576SOL    HW220628   1.155   5.997   6.463
 6577SOL     OW20629   6.559   2.476   3.606
 6577SOL    HW120630   6.470   2.470   3.561
 6577SOL    HW220631   6.561   2.556   3.665
 6578SOL     OW20632   6.167   4.992   3.737
 6578SOL    HW120633   6.265   4.973   3.738
 6578SOL    HW220634   6.148   5.069   3.676
 6579SOL     OW20635   0.225   3.991   2.847
 6579SOL    HW120636   0.263   3.917   2.904
 6579SOL    HW220637   0.293   4.018   2.778
 6580SOL     OW20638   6.211   2.358   1.742
 6580SOL    HW120639   6.217   2.429   1.672
 6580SOL    HW220640   6.303   2.322   1.761
 6581SOL     OW20641   2.711   1.823   6.262
 6581SOL    HW120642   2.797   1.772   6.255
 6581SOL    HW220643   2.635   1.763   6.237
 6582SOL     OW20644   6.337   6.999   2.943
 6582SOL    HW120645   6.289   6.986   2.856
 6582SOL    HW220646   6.436   7.003   2.926
 6583SOL     OW20647   5.638   1.538   5.720
 6583SOL    HW120648   5.660   1.575   5.630
 6583SOL    HW220649   5.718   1.493   5.758
 6584SOL     OW20650   6.160   1.825   6.123
 6584SOL    HW120651   6.135   1.732   6.096
 6584SOL    HW220652   6.171   1.829   6.222
 6585SOL     OW20653   1.501   1.375   6.847
 6585SOL    HW120654   1.419   1.432   6.840
 6585SOL    HW220655   1.580   1.428   6.816
 6586SOL     OW20656   6.444   2.451   5.911
 6586SOL    HW120657   6.494   2.397   5.843
 6586SOL    HW220658   6.360   2.485   5.870
 6587SOL     OW20659   2.245   6.628   3.378
 6587SOL    HW120660   2.155   6.622   3.421
 6587SOL    HW220661   2.252   6.712   3.325
 6588SOL     OW20662   1.423   3.239   0.201
 6588SOL    HW120663   1.506   3.185   0.207
 6588SOL    HW220664   1.376   3.220   0.114
 6589SOL     OW20665   4.263   1.878   5.453
 6589SOL    HW120666   4.220   1.787   5.456
 6589SOL    HW220667   4.200   1.946   5.490
 6590SOL     OW20668   0.196   1.276   5.010
 6590SOL    HW120669   0.131   1.240   4.943
 6590SOL    HW220670   0.146   1.321   5.084
 6591SOL     OW20671   5.623   1.266   2.942
 6591SOL    HW120672   5.536   1.308   2.918
 6591SOL    HW220673   5.606   1.177   2.986
 6592SOL     OW20674   4.961   5.696   4.262
 6592SOL    HW120675   4.992   5.615   4.312
 6592SOL    HW220676   4.946   5.671   4.166
 6593SOL     OW20677   3.735   1.139   2.315
 6593SOL    HW120678   3.724   1.229   2.356
 6593SOL    HW220679   3.668   1.075   2.354
 6594SOL     OW20680   5.760   0.213   6.546
 6594SOL    HW120681   5.810   0.164   6.475
 6594SOL    HW220682   5.766   0.312   6.530
 6595SOL     OW20683   1.704   3.997   0.764
 6595SOL    HW120684   1.609   4.028   0.768
 6595SOL    HW220685   1.764   4.075   0.781
 6596SOL     OW20686   4.172   6.947   5.083
 6596SOL    HW120687   4.115   6.957   5.165
 6596SOL    HW220688   4.200   6.851   5.074
 6597SOL     OW20689   0.197   4.766   5.243
 6597SOL    HW120690   0.097   4.756   5.241
 6597SOL    HW220691   0.234   4.716   5.321
 6598SOL     OW20692   1.778   6.019   5.424
 6598SOL    HW120693   1.707   5.990   5.360
 6598SOL    HW220694   1.782   5.954   5.500
 6599SOL     OW20695   3.876   4.383   5.806
 6599SOL    HW120696   3.902   4.316   5.876
 6599SOL    HW220697   3.945   4.456   5.804
 6600SOL     OW20698   4.678   6.045   4.099
 6600SOL    HW120699   4.635   5.982   4.035
 6600SOL    HW220700   4.778   6.039   4.089
 6601SOL     OW20701   0.807   0.287   0.348
 6601SOL    HW120702   0.847   0.302   0.438
 6601SOL    HW220703   0.723   0.235   0.357
 6602SOL     OW20704   6.418   1.496   1.471
 6602SOL    HW120705   6.426   1.397   1.479
 6602SOL    HW220706   6.365   1.532   1.547
 6603SOL     OW20707   2.163   3.678   3.641
 6603SOL    HW120708   2.167   3.605   3.709
 6603SOL    HW220709   2.245   3.734   3.646
 6604SOL     OW20710   3.602   5.817   2.430
 6604SOL    HW120711   3.561   5.895   2.383
 6604SOL    HW220712   3.554   5.801   2.517
 6605SOL     OW20713   5.847   6.032   0.132
 6605SOL    HW120714   5.919   6.036   0.201
 6605SOL    HW220715   5.759   6.049   0.175
 6606SOL     OW20716   5.049   0.788   2.726
 6606SOL    HW120717   5.104   0.810   2.645
 6606SOL    HW220718   5.108   0.744   2.794
 6607SOL     OW20719   0.985   2.263   2.519
 6607SOL    HW120720   1.047   2.340   2.527
 6607SOL    HW220721   0.953   2.256   2.424
 6608SOL     OW20722   6.237   3.604   4.268
 6608SOL    HW120723   6.147   3.598   4.311
 6608SOL    HW220724   6.228   3.591   4.169
 6609SOL     OW20725   5.765   1.892   6.514
 6609SOL    HW120726   5.754   1.795   6.493
 6609SOL    HW220727   5.675   1.934   6.522
 6610SOL     OW20728   2.557   0.661   6.628
 6610SOL    HW120729   2.470   0.710   6.635
 6610SOL    HW220730   2.544   0.566   6.657
 6611SOL     OW20731   5.896   2.634   2.712
 6611SOL    HW120732   5.960   2.690   2.766
 6611SOL    HW220733   5.888   2.544   2.754
 6612SOL     OW20734   1.670   6.357   6.913
 6612SOL    HW120735   1.581   6.373   6.957
 6612SOL    HW220736   1.721   6.443   6.909
 6613SOL     OW20737   4.672   5.263   1.977
 6613SOL    HW120738   4.686   5.221   1.887
 6613SOL    HW220739   4.640   5.194   2.041
 6614SOL     OW20740   5.167   6.023   5.906
 6614SOL    HW120741   5.231   6.094   5.937
 6614SOL    HW220742   5.074   6.047   5.934
 6615SOL     OW20743   1.021   3.756   5.121
 6615SOL    HW120744   0.980   3.838   5.163
 6615SOL    HW220745   1.067   3.781   5.036
 6616SOL     OW20746   4.836   0.371   4.654
 6616SOL    HW120747   4.919   0.418   4.683
 6616SOL    HW220748   4.851   0.272   4.656
 6617SOL     OW20749   4.113   0.234   5.668
 6617SOL    HW120750   4.034   0.279   5.627
 6617SOL    HW220751   4.159   0.298   5.730
 6618SOL     OW20752   0.552   4.738   1.335
 6618SOL    HW120753   0.566   4.736   1.236
 6618SOL    HW220754   0.456   4.719   1.354
 6619SOL     OW20755   4.862   5.671   2.857
 6619SOL    HW120756   4.919   5.707   2.783
 6619SOL    HW220757   4.802   5.599   2.821
 6620SOL     OW20758   1.949   2.539   5.215
 6620SOL    HW120759   1.852   2.516   5.212
 6620SOL    HW220760   1.967   2.597   5.295
 6621SOL     OW20761   2.668   3.898   0.227
 6621SOL    HW120762   2.761   3.936   0.221
 6621SOL    HW220763   2.616   3.950   0.295
 6622SOL     OW20764   0.043   6.395   0.449
 6622SOL    HW120765   0.007   6.471   0.503
 6622SOL    HW220766   0.133   6.369   0.484
 6623SOL     OW20767   3.484   3.529   2.058
 6623SOL    HW120768   3.433   3.445   2.073
 6623SOL    HW220769   3.437   3.605   2.104
 6624SOL     OW20770   4.071   4.840   4.423
 6624SOL    HW120771   4.115   4.927   4.445
 6624SOL    HW220772   3.995   4.824   4.486
 6625SOL     OW20773   6.582   0.681   0.323
 6625SOL    HW120774   6.590   0.772   0.284
 6625SOL    HW220775   6.673   0.639   0.329
 6626SOL     OW20776   3.568   4.959   3.660
 6626SOL    HW120777   3.659   4.923   3.640
 6626SOL    HW220778   3.556   5.047   3.615
 6627SOL     OW20779   2.049   6.548   1.228
 6627SOL    HW120780   1.967   6.517   1.277
 6627SOL    HW220781   2.023   6.577   1.135
 6628SOL     OW20782   3.896   6.030   3.048
 6628SOL    HW120783   3.811   6.034   2.996
 6628SOL    HW220784   3.963   6.092   3.007
 6629SOL     OW20785   3.243   4.811   0.471
 6629SOL    HW120786   3.305   4.755   0.415
 6629SOL    HW220787   3.172   4.752   0.511
 6630SOL     OW20788   3.201   2.157   0.234
 6630SOL    HW120789   3.200   2.060   0.257
 6630SOL    HW220790   3.109   2.194   0.242
 6631SOL     OW20791   4.893   0.906   2.384
 6631SOL    HW120792   4.853   0.927   2.473
 6631SOL    HW220793   4.841   0.950   2.312
 6632SOL     OW20794   6.861   1.814   1.738
 6632SOL    HW120795   6.911   1.761   1.669
 6632SOL    HW220796   6.850   1.759   1.821
 6633SOL     OW20797   0.721   0.020   1.026
 6633SOL    HW120798   0.744   0.033   0.930
 6633SOL    HW220799   0.805   0.009   1.080
 6634SOL     OW20800   0.047   2.874   6.292
 6634SOL    HW120801   7.005   2.947   6.274
 6634SOL    HW220802   0.018   2.821   6.371
 6635SOL     OW20803   4.716   4.217   3.259
 6635SOL    HW120804   4.618   4.222   3.240
 6635SOL    HW220805   4.759   4.152   3.196
 6636SOL     OW20806   2.060   2.453   4.198
 6636SOL    HW120807   2.094   2.421   4.287
 6636SOL    HW220808   1.967   2.487   4.209
 6637SOL     OW20809   6.860   0.299   0.813
 6637SOL    HW120810   6.845   0.315   0.716
 6637SOL    HW220811   6.827   0.378   0.865
 6638SOL     OW20812   2.435   5.783   5.803
 6638SOL    HW120813   2.400   5.698   5.763
 6638SOL    HW220814   2.535   5.783   5.798
 6639SOL     OW20815   5.768   5.387   0.169
 6639SOL    HW120816   5.776   5.483   0.197
 6639SOL    HW220817   5.699   5.342   0.225
 6640SOL     OW20818   6.027   2.896   3.225
 6640SOL    HW120819   5.991   2.963   3.289
 6640SOL    HW220820   5.960   2.879   3.153
 6641SOL     OW20821   1.975   4.545   5.756
 6641SOL    HW120822   2.015   4.565   5.845
 6641SOL    HW220823   1.942   4.451   5.754
 6642SOL     OW20824   0.346   5.999   0.125
 6642SOL    HW120825   0.321   6.048   0.041
 6642SOL    HW220826   0.324   5.902   0.115
 6643SOL     OW20827   4.861   4.685   6.681
 6643SOL    HW120828   4.923   4.763   6.691
 6643SOL    HW220829   4.841   4.646   6.771
 6644SOL     OW20830   3.079   4.818   2.092
 6644SOL    HW120831   3.154   4.836   2.028
 6644SOL    HW220832   3.019   4.748   2.054
 6645SOL     OW20833   0.728   5.227   5.608
 6645SOL    HW120834   0.803   5.227   5.542
 6645SOL    HW220835   0.766   5.214   5.700
 6646SOL     OW20836   2.629   5.630   4.144
 6646SOL    HW120837   2.632   5.728   4.162
 6646SOL    HW220838   2.660   5.580   4.224
 6647SOL     OW20839   3.125   2.079   1.995
 6647SOL    HW120840   3.073   2.005   2.036
 6647SOL    HW220841   3.064   2.155   1.973
 6648SOL     OW20842   4.984   5.727   2.139
 6648SOL    HW120843   5.031   5.812   2.113
 6648SOL    HW220844   4.975   5.668   2.059
 6649SOL     OW20845   3.844   2.220   6.419
 6649SOL    HW120846   3.774   2.202   6.350
 6649SOL    HW220847   3.910   2.286   6.385
 6650SOL     OW20848   3.290   1.971   2.939
 6650SOL    HW120849   3.320   1.964   2.843
 6650SOL    HW220850   3.199   1.930   2.947
 6651SOL     OW20851   1.248   2.550   6.577
 6651SOL    HW120852   1.286   2.469   6.620
 6651SOL    HW220853   1.228   2.618   6.648
 6652SOL     OW20854   6.610   5.544   2.543
 6652SOL    HW120855   6.631   5.601   2.622
 6652SOL    HW220856   6.695   5.517   2.497
 6653SOL     OW20857   3.308   3.604   3.731
 6653SOL    HW120858   3.298   3.558   3.819
 6653SOL    HW220859   3.307   3.536   3.658
 6654SOL     OW20860   2.278   3.235   1.771
 6654SOL    HW120861   2.299   3.325   1.809
 6654SOL    HW220862   2.358   3.199   1.723
 6655SOL     OW20863   2.402   6.144   1.484
 6655SOL    HW120864   2.361   6.146   1.393
 6655SOL    HW220865   2.339   6.187   1.549
 6656SOL     OW20866   6.237   2.402   1.037
 6656SOL    HW120867   6.188   2.454   0.967
 6656SOL    HW220868   6.317   2.455   1.068
 6657SOL     OW20869   2.858   6.291   6.247
 6657SOL    HW120870   2.914   6.279   6.165
 6657SOL    HW220871   2.825   6.385   6.251
 6658SOL     OW20872   5.239   0.770   5.371
 6658SOL    HW120873   5.195   0.718   5.445
 6658SOL    HW220874   5.305   0.834   5.411
 6659SOL     OW20875   2.045   2.823   6.807
 6659SOL    HW120876   2.105   2.820   6.727
 6659SOL    HW220877   2.033   2.917   6.836
 6660SOL     OW20878   6.837   6.650   3.019
 6660SOL    HW120879   6.855   6.598   3.102
 6660SOL    HW220880   6.790   6.735   3.043
 6661SOL     OW20881   0.500   6.079   3.926
 6661SOL    HW120882   0.429   6.010   3.921
 6661SOL    HW220883   0.550   6.082   3.839
 6662SOL     OW20884   1.600   2.286   0.071
 6662SOL    HW120885   1.556   2.328   7.016
 6662SOL    HW220886   1.683   2.337   0.094
 6663SOL     OW20887   0.329   5.740   2.620
 6663SOL    HW120888   0.250   5.799   2.636
 6663SOL    HW220889   0.312   5.650   2.661
 6664SOL     OW20890   1.518   1.217   3.136
 6664SOL    HW120891   1.562   1.135   3.100
 6664SOL    HW220892   1.554   1.297   3.087
 6665SOL     OW20893   2.498   6.705   3.032
 6665SOL    HW120894   2.474   6.622   2.982
 6665SOL    HW220895   2.533   6.680   3.123
 6666SOL     OW20896   6.358   0.491   0.007
 6666SOL    HW120897   6.402   0.544   6.959
 6666SOL    HW220898   6.429   0.447   0.063
 6667SOL     OW20899   6.815   4.359   4.707
 6667SOL    HW120900   6.737   4.302   4.680
 6667SOL    HW220901   6.877   4.370   4.630
 6668SOL     OW20902   0.432   4.842   1.620
 6668SOL    HW120903   0.506   4.775   1.613
 6668SOL    HW220904   0.396   4.840   1.713
 6669SOL     OW20905   2.174   5.964   2.531
 6669SOL    HW120906   2.164   5.968   2.432
 6669SOL    HW220907   2.260   6.008   2.558
 6670SOL     OW20908   3.598   4.719   0.451
 6670SOL    HW120909   3.598   4.654   0.527
 6670SOL    HW220910   3.528   4.691   0.384
 6671SOL     OW20911   6.674   3.043   4.430
 6671SOL    HW120912   6.725   3.055   4.515
 6671SOL    HW220913   6.709   3.106   4.361
 6672SOL     OW20914   1.591   1.100   5.716
 6672SOL    HW120915   1.597   1.197   5.695
 6672SOL    HW220916   1.683   1.063   5.729
 6673SOL     OW20917   4.644   4.467   1.450
 6673SOL    HW120918   4.604   4.440   1.537
 6673SOL    HW220919   4.637   4.566   1.440
 6674SOL     OW20920   0.679   7.018   4.081
 6674SOL    HW120921   0.593   7.007   4.032
 6674SOL    HW220922   0.661   7.025   4.179
 6675SOL     OW20923   5.766   4.783   0.504
 6675SOL    HW120924   5.748   4.745   0.413
 6675SOL    HW220925   5.733   4.720   0.574
 6676SOL     OW20926   0.946   2.253   6.305
 6676SOL    HW120927   0.997   2.340   6.299
 6676SOL    HW220928   0.916   2.227   6.213
 6677SOL     OW20929   0.813   3.300   0.748
 6677SOL    HW120930   0.789   3.250   0.665
 6677SOL    HW220931   0.879   3.247   0.801
 6678SOL     OW20932   0.912   2.943   5.931
 6678SOL    HW120933   0.959   3.020   5.974
 6678SOL    HW220934   0.819   2.970   5.907
 6679SOL     OW20935   1.783   1.797   4.107
 6679SOL    HW120936   1.715   1.724   4.105
 6679SOL    HW220937   1.797   1.826   4.202
 6680SOL     OW20938   3.071   6.532   6.249
 6680SOL    HW120939   2.984   6.581   6.257
 6680SOL    HW220940   3.096   6.525   6.152
 6681SOL     OW20941   5.266   4.993   0.500
 6681SOL    HW120942   5.245   5.083   0.462
 6681SOL    HW220943   5.268   5.000   0.600
 6682SOL     OW20944   0.234   6.363   1.748
 6682SOL    HW120945   0.229   6.439   1.813
 6682SOL    HW220946   0.218   6.398   1.655
 6683SOL     OW20947   5.289   1.923   3.898
 6683SOL    HW120948   5.374   1.903   3.946
 6683SOL    HW220949   5.281   1.862   3.819
 6684SOL     OW20950   2.135   0.028   3.038
 6684SOL    HW120951   2.228   0.003   3.067
 6684SOL    HW220952   2.113   0.119   3.071
 6685SOL     OW20953   5.137   3.461   6.274
 6685SOL    HW120954   5.197   3.386   6.247
 6685SOL    HW220955   5.106   3.447   6.368
 6686SOL     OW20956   6.641   3.863   3.267
 6686SOL    HW120957   6.549   3.864   3.307
 6686SOL    HW220958   6.634   3.875   3.168
 6687SOL     OW20959   1.131   2.183   0.745
 6687SOL    HW120960   1.226   2.197   0.775
 6687SOL    HW220961   1.130   2.161   0.647
 6688SOL     OW20962   0.563   5.130   2.454
 6688SOL    HW120963   0.570   5.041   2.408
 6688SOL    HW220964   0.586   5.203   2.389
 6689SOL     OW20965   4.630   4.545   0.106
 6689SOL    HW120966   4.685   4.481   0.053
 6689SOL    HW220967   4.533   4.528   0.087
 6690SOL     OW20968   1.965   2.690   0.624
 6690SOL    HW120969   1.948   2.709   0.528
 6690SOL    HW220970   1.944   2.771   0.679
 6691SOL     OW20971   2.208   4.419   1.758
 6691SOL    HW120972   2.191   4.497   1.698
 6691SOL    HW220973   2.233   4.339   1.703
 6692SOL     OW20974   3.213   3.922   5.444
 6692SOL    HW120975   3.188   4.001   5.389
 6692SOL    HW220976   3.136   3.896   5.503
 6693SOL     OW20977   4.161   3.578   5.214
 6693SOL    HW120978   4.254   3.604   5.241
 6693SOL    HW220979   4.112   3.543   5.294
 6694SOL     OW20980   3.537   6.152   0.815
 6694SOL    HW120981   3.614   6.119   0.870
 6694SOL    HW220982   3.471   6.078   0.803
 6695SOL     OW20983   1.598   2.021   0.095
 6695SOL    HW120984   1.605   2.119   0.080
 6695SOL    HW220985   1.681   1.989   0.141
 6696SOL     OW20986   2.104   2.736   1.684
 6696SOL    HW120987   2.048   2.680   1.747
 6696SOL    HW220988   2.199   2.708   1.692
 6697SOL     OW20989   4.969   1.030   3.101
 6697SOL    HW120990   4.896   1.034   3.169
 6697SOL    HW220991   4.961   0.945   3.049
 6698SOL     OW20992   3.922   3.526   0.458
 6698SOL    HW120993   3.898   3.487   0.547
 6698SOL    HW220994   3.841   3.571   0.418
 6699SOL     OW20995   1.652   4.376   0.123
 6699SOL    HW120996   1.635   4.321   0.204
 6699SOL    HW220997   1.616   4.330   0.042
 6700SOL     OW20998   6.918   5.912   0.497
 6700SOL    HW120999   6.920   6.010   0.516
 6700SOL    HW221000   7.011   5.876   0.498
 6701SOL     OW21001   0.625   2.046   0.567
 6701SOL    HW121002   0.587   2.110   0.500
 6701SOL    HW221003   0.611   2.081   0.659
 6702SOL     OW21004   2.983   1.762   1.123
 6702SOL    HW121005   2.950   1.848   1.085
 6702SOL    HW221006   2.933   1.741   1.207
 6703SOL     OW21007   0.505   1.958   0.197
 6703SOL    HW121008   0.409   1.974   0.220
 6703SOL    HW221009   0.521   1.860   0.189
 6704SOL     OW21010   5.488   1.861   2.270
 6704SOL    HW121011   5.520   1.945   2.313
 6704SOL    HW221012   5.453   1.799   2.340
 6705SOL     OW21013   5.773   1.603   0.090
 6705SOL    HW121014   5.725   1.690   0.075
 6705SOL    HW221015   5.869   1.613   0.062
 6706SOL     OW21016   0.547   4.691   6.366
 6706SOL    HW121017   0.600   4.644   6.295
 6706SOL    HW221018   0.489   4.760   6.323
 6707SOL     OW21019   1.499   6.157   2.440
 6707SOL    HW121020   1.503   6.115   2.349
 6707SOL    HW221021   1.576   6.219   2.451
 6708SOL     OW21022   2.189   6.104   1.315
 6708SOL    HW121023   2.268   6.136   1.262
 6708SOL    HW221024   2.122   6.178   1.323
 6709SOL     OW21025   4.760   1.465   3.093
 6709SOL    HW121026   4.743   1.505   3.003
 6709SOL    HW221027   4.825   1.389   3.083
 6710SOL     OW21028   3.542   2.482   0.682
 6710SOL    HW121029   3.572   2.577   0.694
 6710SOL    HW221030   3.444   2.480   0.664
 6711SOL     OW21031   3.673   4.144   0.714
 6711SOL    HW121032   3.641   4.234   0.683
 6711SOL    HW221033   3.746   4.112   0.654
 6712SOL     OW21034   3.567   5.397   0.378
 6712SOL    HW121035   3.534   5.449   0.299
 6712SOL    HW221036   3.632   5.328   0.347
 6713SOL     OW21037   2.179   2.106   1.912
 6713SOL    HW121038   2.100   2.166   1.896
 6713SOL    HW221039   2.216   2.123   2.003
 6714SOL     OW21040   6.414   1.001   4.025
 6714SOL    HW121041   6.322   1.021   4.058
 6714SOL    HW221042   6.447   1.077   3.968
 6715SOL     OW21043   0.724   1.155   0.971
 6715SOL    HW121044   0.766   1.194   1.052
 6715SOL    HW221045   0.729   1.221   0.895
 6716SOL     OW21046   2.215   6.141   0.564
 6716SOL    HW121047   2.226   6.096   0.475
 6716SOL    HW221048   2.233   6.238   0.555
 6717SOL     OW21049   3.317   1.803   6.826
 6717SOL    HW121050   3.244   1.773   6.764
 6717SOL    HW221051   3.303   1.763   6.916
 6718SOL     OW21052   3.316   6.903   0.437
 6718SOL    HW121053   3.267   6.898   0.350
 6718SOL    HW221054   3.328   6.999   0.463
 6719SOL     OW21055   0.311   7.019   5.639
 6719SOL    HW121056   0.262   6.963   5.572
 6719SOL    HW221057   0.294   0.091   5.621
 6720SOL     OW21058   2.100   5.075   1.891
 6720SOL    HW121059   2.081   4.981   1.861
 6720SOL    HW221060   2.016   5.116   1.927
 6721SOL     OW21061   5.767   6.519   3.816
 6721SOL    HW121062   5.773   6.494   3.913
 6721SOL    HW221063   5.716   6.448   3.767
 6722SOL     OW21064   4.372   3.604   6.973
 6722SOL    HW121065   4.329   3.557   0.025
 6722SOL    HW221066   4.313   3.597   6.892
 6723SOL     OW21067   4.034   6.292   2.269
 6723SOL    HW121068   3.989   6.356   2.331
 6723SOL    HW221069   3.972   6.270   2.194
 6724SOL     OW21070   3.307   5.116   5.217
 6724SOL    HW121071   3.242   5.184   5.182
 6724SOL    HW221072   3.269   5.024   5.207
 6725SOL     OW21073   0.315   4.647   2.274
 6725SOL    HW121074   0.404   4.645   2.319
 6725SOL    HW221075   0.315   4.581   2.198
 6726SOL     OW21076   2.406   2.107   2.948
 6726SOL    HW121077   2.387   2.074   3.040
 6726SOL    HW221078   2.460   2.192   2.954
 6727SOL     OW21079   3.748   3.591   6.830
 6727SOL    HW121080   3.804   3.553   6.904
 6727SOL    HW221081   3.672   3.643   6.870
 6728SOL     OW21082   4.444   1.503   3.796
 6728SOL    HW121083   4.521   1.548   3.751
 6728SOL    HW221084   4.358   1.535   3.755
 6729SOL     OW21085   5.325   0.309   2.197
 6729SOL    HW121086   5.262   0.313   2.275
 6729SOL    HW221087   5.279   0.344   2.115
 6730SOL     OW21088   2.271   0.700   0.266
 6730SOL    HW121089   2.245   0.608   0.237
 6730SOL    HW221090   2.214   0.768   0.220
 6731SOL     OW21091   2.872   4.745   1.724
 6731SOL    HW121092   2.873   4.698   1.812
 6731SOL    HW221093   2.938   4.820   1.726
 6732SOL     OW21094   2.283   4.767   1.259
 6732SOL    HW121095   2.210   4.822   1.299
 6732SOL    HW221096   2.298   4.796   1.164
 6733SOL     OW21097   5.147   5.947   5.639
 6733SOL    HW121098   5.120   5.949   5.736
 6733SOL    HW221099   5.171   6.039   5.609
 6734SOL     OW21100   2.257   3.320   5.639
 6734SOL    HW121101   2.179   3.260   5.620
 6734SOL    HW221102   2.342   3.268   5.632
 6735SOL     OW21103   0.013   5.254   5.780
 6735SOL    HW121104   6.958   5.211   5.821
 6735SOL    HW221105   0.024   5.346   5.817
 6736SOL     OW21106   2.131   3.528   2.713
 6736SOL    HW121107   2.141   3.617   2.667
 6736SOL    HW221108   2.145   3.455   2.647
 6737SOL     OW21109   2.322   1.075   1.160
 6737SOL    HW121110   2.324   0.992   1.104
 6737SOL    HW221111   2.231   1.117   1.154
 6738SOL     OW21112   2.995   1.245   2.091
 6738SOL    HW121113   3.089   1.217   2.072
 6738SOL    HW221114   2.973   1.228   2.187
 6739SOL     OW21115   3.749   5.972   4.799
 6739SOL    HW121116   3.778   6.050   4.744
 6739SOL    HW221117   3.727   6.002   4.892
 6740SOL     OW21118   6.484   2.160   3.903
 6740SOL    HW121119   6.439   2.250   3.903
 6740SOL    HW221120   6.582   2.173   3.911
 6741SOL     OW21121   6.631   0.315   6.538
 6741SOL    HW121122   6.704   0.305   6.606
 6741SOL    HW221123   6.576   0.232   6.535
 6742SOL     OW21124   6.400   6.139   6.078
 6742SOL    HW121125   6.319   6.138   6.020
 6742SOL    HW221126   6.482   6.139   6.020
 6743SOL     OW21127   4.724   3.022   0.776
 6743SOL    HW121128   4.679   2.974   0.852
 6743SOL    HW221129   4.776   3.100   0.812
 6744SOL     OW21130   4.961   5.085   6.097
 6744SOL    HW121131   5.041   5.025   6.091
 6744SOL    HW221132   4.972   5.148   6.174
 6745SOL     OW21133   6.966   4.401   3.568
 6745SOL    HW121134   6.894   4.439   3.627
 6745SOL    HW221135   6.953   4.434   3.474
 6746SOL     OW21136   0.230   1.623   1.345
 6746SOL    HW121137   0.254   1.528   1.366
 6746SOL    HW221138   0.296   1.661   1.281
 6747SOL     OW21139   5.759   6.513   5.890
 6747SOL    HW121140   5.728   6.599   5.930
 6747SOL    HW221141   5.781   6.527   5.793
 6748SOL     OW21142   0.106   0.381   1.999
 6748SOL    HW121143   0.140   0.293   2.030
 6748SOL    HW221144   0.023   0.405   2.050
 6749SOL     OW21145   3.766   6.502   1.108
 6749SOL    HW121146   3.696   6.571   1.089
 6749SOL    HW221147   3.792   6.457   1.022
 6750SOL     OW21148   2.535   3.254   5.366
 6750SOL    HW121149   2.552   3.231   5.462
 6750SOL    HW221150   2.508   3.172   5.316
 6751SOL     OW21151   3.510   1.824   5.487
 6751SOL    HW121152   3.583   1.862   5.430
 6751SOL    HW221153   3.535   1.833   5.583
 6752SOL     OW21154   6.367   1.881   0.034
 6752SOL    HW121155   6.389   1.929   0.119
 6752SOL    HW221156   6.268   1.866   0.028
 6753SOL     OW21157   5.149   2.128   6.357
 6753SOL    HW121158   5.150   2.192   6.279
 6753SOL    HW221159   5.075   2.154   6.420
 6754SOL     OW21160   5.950   0.616   0.058
 6754SOL    HW121161   5.963   0.554   0.135
 6754SOL    HW221162   6.039   0.637   0.017
 6755SOL     OW21163   5.037   1.958   3.162
 6755SOL    HW121164   4.977   2.036   3.180
 6755SOL    HW221165   5.114   1.959   3.226
 6756SOL     OW21166   5.333   4.057   4.216
 6756SOL    HW121167   5.389   4.129   4.256
 6756SOL    HW221168   5.270   4.022   4.286
 6757SOL     OW21169   5.495   5.288   1.533
 6757SOL    HW121170   5.567   5.257   1.594
 6757SOL    HW221171   5.408   5.291   1.582
 6758SOL     OW21172   5.386   2.251   2.796
 6758SOL    HW121173   5.332   2.192   2.737
 6758SOL    HW221174   5.393   2.342   2.755
 6759SOL     OW21175   0.417   4.878   3.815
 6759SOL    HW121176   0.379   4.786   3.803
 6759SOL    HW221177   0.383   4.939   3.744
 6760SOL     OW21178   0.426   4.277   4.689
 6760SOL    HW121179   0.397   4.363   4.731
 6760SOL    HW221180   0.398   4.200   4.747
 6761SOL     OW21181   5.838   3.492   6.499
 6761SOL    HW121182   5.757   3.509   6.555
 6761SOL    HW221183   5.893   3.575   6.492
 6762SOL     OW21184   5.520   5.124   4.350
 6762SOL    HW121185   5.508   5.122   4.449
 6762SOL    HW221186   5.442   5.171   4.308
 6763SOL     OW21187   5.344   6.221   6.006
 6763SOL    HW121188   5.424   6.210   5.947
 6763SOL    HW221189   5.283   6.289   5.966
 6764SOL     OW21190   2.321   3.604   6.948
 6764SOL    HW121191   2.340   3.518   6.994
 6764SOL    HW221192   2.387   3.619   6.874
 6765SOL     OW21193   5.144   5.216   2.607
 6765SOL    HW121194   5.081   5.148   2.571
 6765SOL    HW221195   5.197   5.256   2.532
 6766SOL     OW21196   1.397   1.084   5.485
 6766SOL    HW121197   1.329   1.033   5.538
 6766SOL    HW221198   1.480   1.095   5.540
 6767SOL     OW21199   0.884   2.229   6.059
 6767SOL    HW121200   0.965   2.278   6.026
 6767SOL    HW221201   0.837   2.186   5.982
 6768SOL     OW21202   0.282   0.086   5.941
 6768SOL    HW121203   0.224   0.094   5.859
 6768SOL    HW221204   0.277   0.171   5.993
 6769SOL     OW21205   1.579   3.162   6.221
 6769SOL    HW121206   1.644   3.099   6.178
 6769SOL    HW221207   1.489   3.120   6.223
 6770SOL     OW21208   7.010   1.337   3.773
 6770SOL    HW121209   6.941   1.368   3.707
 6770SOL    HW221210   0.048   1.413   3.793
 6771SOL     OW21211   4.086   1.050   2.457
 6771SOL    HW121212   4.056   1.139   2.424
 6771SOL    HW221213   4.025   0.979   2.420
 6772SOL     OW21214   0.837   1.006   1.854
 6772SOL    HW121215   0.806   0.911   1.858
 6772SOL    HW221216   0.812   1.053   1.938
 6773SOL     OW21217   0.920   0.528   1.503
 6773SOL    HW121218   0.872   0.444   1.476
 6773SOL    HW221219   0.941   0.582   1.421
 6774SOL     OW21220   3.031   1.875   5.529
 6774SOL    HW121221   2.966   1.890   5.454
 6774SOL    HW221222   3.122   1.905   5.500
 6775SOL     OW21223   0.531   2.752   4.761
 6775SOL    HW121224   0.517   2.850   4.747
 6775SOL    HW221225   0.449   2.712   4.801
 6776SOL     OW21226   3.560   3.500   3.258
 6776SOL    HW121227   3.547   3.531   3.164
 6776SOL    HW221228   3.522   3.568   3.321
 6777SOL     OW21229   6.874   6.160   6.605
 6777SOL    HW121230   6.814   6.233   6.573
 6777SOL    HW221231   6.945   6.199   6.664
 6778SOL     OW21232   5.441   5.939   1.939
 6778SOL    HW121233   5.417   5.887   2.021
 6778SOL    HW221234   5.534   5.974   1.948
 6779SOL     OW21235   5.223   4.369   6.518
 6779SOL    HW121236   5.134   4.413   6.528
 6779SOL    HW221237   5.222   4.281   6.566
 6780SOL     OW21238   3.292   1.073   2.303
 6780SOL    HW121239   3.213   1.075   2.365
 6780SOL    HW221240   3.317   1.167   2.278
 6781SOL     OW21241   6.171   2.424   3.085
 6781SOL    HW121242   6.170   2.501   3.148
 6781SOL    HW221243   6.116   2.349   3.123
 6782SOL     OW21244   6.868   1.900   3.234
 6782SOL    HW121245   6.862   1.851   3.321
 6782SOL    HW221246   6.909   1.990   3.251
 6783SOL     OW21247   0.544   6.026   6.093
 6783SOL    HW121248   0.638   6.041   6.061
 6783SOL    HW221249   0.492   5.977   6.023
 6784SOL     OW21250   1.533   4.283   1.199
 6784SOL    HW121251   1.597   4.310   1.271
 6784SOL    HW221252   1.440   4.286   1.234
 6785SOL     OW21253   5.580   5.063   3.750
 6785SOL    HW121254   5.668   5.112   3.745
 6785SOL    HW221255   5.586   4.991   3.818
 6786SOL     OW21256   5.975   2.160   5.655
 6786SOL    HW121257   5.914   2.122   5.724
 6786SOL    HW221258   5.975   2.100   5.575
 6787SOL     OW21259   3.087   1.883   0.346
 6787SOL    HW121260   3.045   1.823   0.279
 6787SOL    HW221261   3.136   1.828   0.414
 6788SOL     OW21262   0.255   4.165   1.496
 6788SOL    HW121263   0.272   4.258   1.531
 6788SOL    HW221264   0.315   4.147   1.418
 6789SOL     OW21265   5.783   4.682   2.928
 6789SOL    HW121266   5.782   4.583   2.944
 6789SOL    HW221267   5.820   4.728   3.008
 6790SOL     OW21268   0.457   5.693   6.941
 6790SOL    HW121269   0.377   5.712   6.998
 6790SOL    HW221270   0.468   5.594   6.932
 6791SOL     OW21271   2.603   6.623   3.263
 6791SOL    HW121272   2.566   6.530   3.266
 6791SOL    HW221273   2.703   6.620   3.269
 6792SOL     OW21274   4.006   0.161   6.178
 6792SOL    HW121275   4.100   0.169   6.146
 6792SOL    HW221276   3.991   0.222   6.256
 6793SOL     OW21277   1.899   3.493   6.259
 6793SOL    HW121278   1.815   3.438   6.258
 6793SOL    HW221279   1.927   3.514   6.165
 6794SOL     OW21280   6.128   2.282   5.226
 6794SOL    HW121281   6.155   2.379   5.232
 6794SOL    HW221282   6.029   2.274   5.242
 6795SOL     OW21283   1.219   0.698   1.447
 6795SOL    HW121284   1.213   0.636   1.368
 6795SOL    HW221285   1.261   0.650   1.523
 6796SOL     OW21286   6.599   1.790   2.769
 6796SOL    HW121287   6.501   1.792   2.790
 6796SOL    HW221288   6.641   1.713   2.816
 6797SOL     OW21289   1.269   3.136   1.053
 6797SOL    HW121290   1.305   3.230   1.055
 6797SOL    HW221291   1.298   3.092   0.967
 6798SOL     OW21292   4.998   1.389   2.143
 6798SOL    HW121293   4.914   1.383   2.090
 6798SOL    HW221294   5.061   1.317   2.115
 6799SOL     OW21295   6.323   6.857   3.211
 6799SOL    HW121296   6.382   6.917   3.265
 6799SOL    HW221297   6.317   6.892   3.117
 6800SOL     OW21298   6.547   3.354   1.450
 6800SOL    HW121299   6.570   3.384   1.543
 6800SOL    HW221300   6.565   3.257   1.441
 6801SOL     OW21301   0.893   6.299   6.458
 6801SOL    HW121302   0.963   6.326   6.524
 6801SOL    HW221303   0.903   6.202   6.436
 6802SOL     OW21304   3.143   4.594   1.706
 6802SOL    HW121305   3.145   4.692   1.725
 6802SOL    HW221306   3.072   4.551   1.763
 6803SOL     OW21307   5.084   5.759   6.279
 6803SOL    HW121308   5.005   5.770   6.218
 6803SOL    HW221309   5.167   5.787   6.230
 6804SOL     OW21310   3.556   5.076   2.338
 6804SOL    HW121311   3.572   5.149   2.272
 6804SOL    HW221312   3.528   5.114   2.425
 6805SOL     OW21313   0.718   4.314   4.318
 6805SOL    HW121314   0.677   4.390   4.370
 6805SOL    HW221315   0.669   4.229   4.339
 6806SOL     OW21316   5.979   3.240   1.680
 6806SOL    HW121317   6.067   3.199   1.701
 6806SOL    HW221318   5.991   3.339   1.666
 6807SOL     OW21319   3.159   4.063   2.625
 6807SOL    HW121320   3.164   4.077   2.527
 6807SOL    HW221321   3.138   4.150   2.670
 6808SOL     OW21322   3.507   0.735   3.631
 6808SOL    HW121323   3.496   0.834   3.637
 6808SOL    HW221324   3.527   0.709   3.537
 6809SOL     OW21325   5.962   3.060   0.495
 6809SOL    HW121326   5.977   3.115   0.413
 6809SOL    HW221327   5.864   3.038   0.503
 6810SOL     OW21328   3.009   0.315   4.422
 6810SOL    HW121329   2.918   0.277   4.409
 6810SOL    HW221330   3.018   0.401   4.370
 6811SOL     OW21331   6.586   0.921   1.106
 6811SOL    HW121332   6.622   0.831   1.133
 6811SOL    HW221333   6.644   0.959   1.034
 6812SOL     OW21334   3.205   4.875   5.129
 6812SOL    HW121335   3.146   4.882   5.049
 6812SOL    HW221336   3.181   4.793   5.181
 6813SOL     OW21337   0.042   4.097   2.438
 6813SOL    HW121338   6.967   4.107   2.443
 6813SOL    HW221339   0.071   4.027   2.504
 6814SOL     OW21340   5.762   1.260   0.527
 6814SOL    HW121341   5.831   1.313   0.478
 6814SOL    HW221342   5.743   1.303   0.615
 6815SOL     OW21343   0.766   5.919   6.645
 6815SOL    HW121344   0.744   5.837   6.699
 6815SOL    HW221345   0.863   5.940   6.655
 6816SOL     OW21346   6.935   0.267   4.499
 6816SOL    HW121347   6.844   0.240   4.529
 6816SOL    HW221348   6.928   0.333   4.424
 6817SOL     OW21349   4.143   2.010   1.055
 6817SOL    HW121350   4.053   1.990   1.094
 6817SOL    HW221351   4.174   2.098   1.089
 6818SOL     OW21352   1.009   6.985   4.777
 6818SOL    HW121353   0.979   7.021   4.866
 6818SOL    HW221354   1.108   6.976   4.776
 6819SOL     OW21355   4.770   4.391   1.947
 6819SOL    HW121356   4.817   4.394   2.035
 6819SOL    HW221357   4.687   4.337   1.954
 6820SOL     OW21358   2.900   5.141   1.586
 6820SOL    HW121359   2.809   5.145   1.545
 6820SOL    HW221360   2.892   5.138   1.686
 6821SOL     OW21361   3.574   2.821   5.070
 6821SOL    HW121362   3.633   2.744   5.097
 6821SOL    HW221363   3.506   2.789   5.004
 6822SOL     OW21364   5.978   3.752   4.995
 6822SOL    HW121365   6.069   3.718   4.972
 6822SOL    HW221366   5.968   3.846   4.961
 6823SOL     OW21367   0.336   2.890   4.930
 6823SOL    HW121368   0.412   2.906   4.993
 6823SOL    HW221369   0.284   2.975   4.918
 6824SOL     OW21370   0.759   6.887   5.391
 6824SOL    HW121371   0.840   6.858   5.441
 6824SOL    HW221372   0.725   6.973   5.428
 6825SOL     OW21373   4.252   4.184   1.427
 6825SOL    HW121374   4.211   4.108   1.377
 6825SOL    HW221375   4.329   4.151   1.481
 6826SOL     OW21376   6.169   7.010   3.652
 6826SOL    HW121377   6.135   0.029   3.569
 6826SOL    HW221378   6.188   0.056   3.721
 6827SOL     OW21379   4.523   5.561   5.101
 6827SOL    HW121380   4.597   5.628   5.112
 6827SOL    HW221381   4.435   5.608   5.109
 6828SOL     OW21382   3.235   2.053   2.299
 6828SOL    HW121383   3.303   2.065   2.227
 6828SOL    HW221384   3.183   1.970   2.281
 6829SOL     OW21385   3.805   6.993   3.020
 6829SOL    HW121386   3.860   6.926   3.070
 6829SOL    HW221387   3.775   0.040   3.083
 6830SOL     OW21388   4.180   4.800   2.310
 6830SOL    HW121389   4.211   4.733   2.377
 6830SOL    HW221390   4.208   4.772   2.219
 6831SOL     OW21391   1.427   1.574   6.479
 6831SOL    HW121392   1.443   1.669   6.452
 6831SOL    HW221393   1.506   1.540   6.531
 6832SOL     OW21394   2.742   2.311   6.424
 6832SOL    HW121395   2.791   2.285   6.508
 6832SOL    HW221396   2.653   2.348   6.448
 6833SOL     OW21397   3.586   5.422   6.045
 6833SOL    HW121398   3.495   5.399   6.078
 6833SOL    HW221399   3.655   5.388   6.108
 6834SOL     OW21400   6.488   6.926   6.548
 6834SOL    HW121401   6.476   6.832   6.580
 6834SOL    HW221402   6.430   6.988   6.601
 6835SOL     OW21403   3.010   0.778   4.238
 6835SOL    HW121404   3.084   0.713   4.259
 6835SOL    HW221405   2.928   0.752   4.289
 6836SOL     OW21406   1.265   4.776   6.714
 6836SOL    HW121407   1.229   4.732   6.632
 6836SOL    HW221408   1.241   4.874   6.712
 6837SOL     OW21409   5.895   0.637   2.192
 6837SOL    HW121410   5.886   0.690   2.276
 6837SOL    HW221411   5.934   0.547   2.213
 6838SOL     OW21412   2.725   3.839   5.588
 6838SOL    HW121413   2.702   3.826   5.492
 6838SOL    HW221414   2.676   3.919   5.623
 6839SOL     OW21415   6.235   2.920   4.683
 6839SOL    HW121416   6.292   3.001   4.672
 6839SOL    HW221417   6.171   2.934   4.759
 6840SOL     OW21418   3.208   6.239   4.965
 6840SOL    HW121419   3.165   6.303   4.901
 6840SOL    HW221420   3.153   6.155   4.968
 6841SOL     OW21421   4.602   6.963   0.976
 6841SOL    HW121422   4.629   0.030   0.948
 6841SOL    HW221423   4.654   6.896   0.922
 6842SOL     OW21424   0.494   3.701   4.697
 6842SOL    HW121425   0.407   3.674   4.738
 6842SOL    HW221426   0.564   3.705   4.768
 6843SOL     OW21427   4.579   2.141   1.466
 6843SOL    HW121428   4.488   2.109   1.494
 6843SOL    HW221429   4.631   2.167   1.547
 6844SOL     OW21430   3.453   5.442   4.405
 6844SOL    HW121431   3.535   5.386   4.399
 6844SOL    HW221432   3.372   5.384   4.406
 6845SOL     OW21433   3.894   4.556   1.039
 6845SOL    HW121434   3.961   4.604   0.981
 6845SOL    HW221435   3.910   4.457   1.032
 6846SOL     OW21436   4.066   3.139   2.442
 6846SOL    HW121437   4.152   3.131   2.391
 6846SOL    HW221438   3.991   3.100   2.388
 6847SOL     OW21439   6.222   3.837   1.563
 6847SOL    HW121440   6.314   3.873   1.578
 6847SOL    HW221441   6.163   3.862   1.639
 6848SOL     OW21442   6.246   6.148   3.836
 6848SOL    HW121443   6.233   6.227   3.776
 6848SOL    HW221444   6.337   6.110   3.821
 6849SOL     OW21445   3.328   6.399   4.488
 6849SOL    HW121446   3.387   6.342   4.544
 6849SOL    HW221447   3.334   6.369   4.392
 6850SOL     OW21448   5.101   3.358   1.090
 6850SOL    HW121449   5.068   3.362   1.184
 6850SOL    HW221450   5.113   3.263   1.062
 6851SOL     OW21451   1.577   5.954   5.248
 6851SOL    HW121452   1.569   5.996   5.158
 6851SOL    HW221453   1.616   5.863   5.239
 6852SOL     OW21454   0.120   4.981   1.643
 6852SOL    HW121455   0.110   4.950   1.548
 6852SOL    HW221456   0.175   5.064   1.645
 6853SOL     OW21457   6.728   3.735   5.194
 6853SOL    HW121458   6.710   3.679   5.113
 6853SOL    HW221459   6.643   3.749   5.245
 6854SOL     OW21460   0.310   2.110   6.970
 6854SOL    HW121461   0.241   2.168   6.926
 6854SOL    HW221462   0.276   2.079   0.034
 6855SOL     OW21463   3.034   6.283   1.990
 6855SOL    HW121464   2.955   6.256   2.045
 6855SOL    HW221465   3.043   6.382   1.992
 6856SOL     OW21466   0.336   4.470   4.941
 6856SOL    HW121467   0.354   4.559   4.983
 6856SOL    HW221468   0.420   4.416   4.939
 6857SOL     OW21469   4.300   1.251   5.852
 6857SOL    HW121470   4.279   1.186   5.779
 6857SOL    HW221471   4.283   1.344   5.820
 6858SOL     OW21472   3.646   2.658   5.272
 6858SOL    HW121473   3.730   2.609   5.297
 6858SOL    HW221474   3.567   2.599   5.290
 6859SOL     OW21475   3.624   0.235   0.128
 6859SOL    HW121476   3.551   0.287   0.173
 6859SOL    HW221477   3.713   0.273   0.153
 6860SOL     OW21478   4.993   4.603   0.049
 6860SOL    HW121479   4.958   4.510   0.036
 6860SOL    HW221480   5.038   4.609   0.138
 6861SOL     OW21481   5.639   4.278   0.599
 6861SOL    HW121482   5.714   4.318   0.545
 6861SOL    HW221483   5.552   4.310   0.562
 6862SOL     OW21484   3.510   5.603   3.686
 6862SOL    HW121485   3.544   5.521   3.640
 6862SOL    HW221486   3.545   5.606   3.780
 6863SOL     OW21487   0.818   3.028   4.045
 6863SOL    HW121488   0.772   3.037   3.957
 6863SOL    HW221489   0.764   3.074   4.116
 6864SOL     OW21490   4.323   5.522   5.940
 6864SOL    HW121491   4.290   5.473   6.020
 6864SOL    HW221492   4.379   5.461   5.884
 6865SOL     OW21493   6.050   3.036   4.877
 6865SOL    HW121494   6.089   3.102   4.942
 6865SOL    HW221495   6.005   3.084   4.802
 6866SOL     OW21496   0.739   3.588   2.092
 6866SOL    HW121497   0.653   3.558   2.133
 6866SOL    HW221498   0.812   3.524   2.116
 6867SOL     OW21499   2.528   4.518   2.355
 6867SOL    HW121500   2.526   4.544   2.452
 6867SOL    HW221501   2.484   4.428   2.344
 6868SOL     OW21502   1.692   5.137   5.127
 6868SOL    HW121503   1.697   5.053   5.181
 6868SOL    HW221504   1.679   5.114   5.031
 6869SOL     OW21505   6.432   3.515   4.797
 6869SOL    HW121506   6.375   3.481   4.723
 6869SOL    HW221507   6.511   3.563   4.760
 6870SOL     OW21508   5.248   3.573   2.409
 6870SOL    HW121509   5.231   3.537   2.500
 6870SOL    HW221510   5.281   3.667   2.416
 6871SOL     OW21511   4.760   0.536   1.465
 6871SOL    HW121512   4.693   0.610   1.464
 6871SOL    HW221513   4.843   0.567   1.511
 6872SOL     OW21514   3.093   3.572   0.053
 6872SOL    HW121515   3.087   3.608   6.985
 6872SOL    HW221516   3.015   3.511   0.070
 6873SOL     OW21517   5.556   4.420   5.906
 6873SOL    HW121518   5.527   4.467   5.822
 6873SOL    HW221519   5.652   4.392   5.897
 6874SOL     OW21520   1.044   2.686   5.406
 6874SOL    HW121521   0.991   2.634   5.338
 6874SOL    HW221522   1.093   2.760   5.361
 6875SOL     OW21523   2.833   1.671   4.129
 6875SOL    HW121524   2.810   1.615   4.208
 6875SOL    HW221525   2.904   1.626   4.075
 6876SOL     OW21526   3.579   6.538   5.564
 6876SOL    HW121527   3.511   6.530   5.637
 6876SOL    HW221528   3.643   6.462   5.570
 6877SOL     OW21529   2.550   3.890   6.962
 6877SOL    HW121530   2.600   3.898   0.023
 6877SOL    HW221531   2.458   3.856   6.980
 6878SOL     OW21532   1.822   1.712   4.817
 6878SOL    HW121533   1.778   1.702   4.728
 6878SOL    HW221534   1.752   1.722   4.888
 6879SOL     OW21535   0.938   1.603   6.031
 6879SOL    HW121536   1.006   1.557   5.974
 6879SOL    HW221537   0.933   1.700   6.006
 6880SOL     OW21538   1.904   4.398   5.030
 6880SOL    HW121539   1.943   4.362   5.114
 6880SOL    HW221540   1.946   4.352   4.951
 6881SOL     OW21541   6.678   4.852   1.580
 6881SOL    HW121542   6.696   4.773   1.637
 6881SOL    HW221543   6.582   4.851   1.551
 6882SOL     OW21544   1.956   0.395   5.502
 6882SOL    HW121545   2.050   0.385   5.535
 6882SOL    HW221546   1.952   0.367   5.406
 6883SOL     OW21547   3.253   5.763   1.684
 6883SOL    HW121548   3.227   5.851   1.645
 6883SOL    HW221549   3.187   5.737   1.754
 6884SOL     OW21550   2.991   4.808   2.826
 6884SOL    HW121551   3.047   4.783   2.905
 6884SOL    HW221552   3.051   4.829   2.748
 6885SOL     OW21553   3.829   5.224   5.001
 6885SOL    HW121554   3.798   5.290   4.932
 6885SOL    HW221555   3.783   5.242   5.088
 6886SOL     OW21556   5.164   2.298   2.506
 6886SOL    HW121557   5.182   2.235   2.581
 6886SOL    HW221558   5.128   2.247   2.428
 6887SOL     OW21559   5.100   0.441   4.738
 6887SOL    HW121560   5.177   0.499   4.710
 6887SOL    HW221561   5.124   0.390   4.820
 6888SOL     OW21562   5.159   5.821   4.904
 6888SOL    HW121563   5.159   5.836   5.003
 6888SOL    HW221564   5.232   5.877   4.862
 6889SOL     OW21565   1.646   4.035   6.051
 6889SOL    HW121566   1.601   3.992   5.973
 6889SOL    HW221567   1.658   4.133   6.033
 6890SOL     OW21568   2.270   0.787   6.992
 6890SOL    HW121569   2.329   0.707   7.007
 6890SOL    HW221570   2.315   0.851   6.929
 6891SOL     OW21571   3.233   4.960   4.737
 6891SOL    HW121572   3.225   5.055   4.708
 6891SOL    HW221573   3.275   4.906   4.664
 6892SOL     OW21574   4.240   1.184   3.777
 6892SOL    HW121575   4.328   1.186   3.825
 6892SOL    HW221576   4.239   1.254   3.705
 6893SOL     OW21577   6.253   6.993   2.334
 6893SOL    HW121578   6.341   0.015   2.333
 6893SOL    HW221579   6.194   0.009   2.264
 6894SOL     OW21580   6.333   4.533   6.176
 6894SOL    HW121581   6.313   4.446   6.220
 6894SOL    HW221582   6.397   4.585   6.233
 6895SOL     OW21583   4.282   5.148   6.472
 6895SOL    HW121584   4.204   5.110   6.522
 6895SOL    HW221585   4.294   5.098   6.386
 6896SOL     OW21586   4.272   6.628   3.625
 6896SOL    HW121587   4.252   6.530   3.615
 6896SOL    HW221588   4.322   6.643   3.711
 6897SOL     OW21589   3.522   2.092   0.520
 6897SOL    HW121590   3.485   2.170   0.470
 6897SOL    HW221591   3.613   2.114   0.555
 6898SOL     OW21592   4.099   1.420   2.511
 6898SOL    HW121593   4.077   1.506   2.465
 6898SOL    HW221594   4.014   1.375   2.540
 6899SOL     OW21595   5.550   6.548   6.767
 6899SOL    HW121596   5.505   6.459   6.761
 6899SOL    HW221597   5.580   6.564   6.861
 6900SOL     OW21598   4.132   1.492   5.255
 6900SOL    HW121599   4.205   1.425   5.246
 6900SOL    HW221600   4.044   1.447   5.241
 6901SOL     OW21601   1.450   0.749   7.002
 6901SOL    HW121602   1.403   0.768   0.064
 6901SOL    HW221603   1.546   0.727   7.020
 6902SOL     OW21604   6.189   5.465   1.434
 6902SOL    HW121605   6.100   5.472   1.389
 6902SOL    HW221606   6.185   5.508   1.524
 6903SOL     OW21607   4.124   3.973   1.314
 6903SOL    HW121608   4.165   3.928   1.235
 6903SOL    HW221609   4.134   3.915   1.395
 6904SOL     OW21610   6.929   1.419   3.023
 6904SOL    HW121611   7.023   1.399   2.994
 6904SOL    HW221612   6.914   1.380   3.114
 6905SOL     OW21613   4.368   4.962   1.027
 6905SOL    HW121614   4.321   4.953   0.939
 6905SOL    HW221615   4.360   4.876   1.078
 6906SOL     OW21616   4.310   6.170   3.963
 6906SOL    HW121617   4.234   6.218   3.919
 6906SOL    HW221618   4.348   6.103   3.899
 6907SOL     OW21619   3.604   1.577   1.525
 6907SOL    HW121620   3.673   1.632   1.478
 6907SOL    HW221621   3.643   1.489   1.552
 6908SOL     OW21622   7.016   6.513   6.454
 6908SOL    HW121623   6.923   6.481   6.442
 6908SOL    HW221624   0.010   6.527   6.552
 6909SOL     OW21625   4.758   3.280   6.935
 6909SOL    HW121626   4.769   3.219   7.014
 6909SOL    HW221627   4.729   3.371   6.967
 6910SOL     OW21628   6.593   1.372   2.242
 6910SOL    HW121629   6.504   1.360   2.286
 6910SOL    HW221630   6.589   1.338   2.148
 6911SOL     OW21631   4.142   0.482   5.236
 6911SOL    HW121632   4.117   0.522   5.148
 6911SOL    HW221633   4.239   0.459   5.236
 6912SOL     OW21634   4.648   5.198   0.997
 6912SOL    HW121635   4.733   5.156   0.964
 6912SOL    HW221636   4.608   5.141   1.069
 6913SOL     OW21637   4.993   5.326   5.282
 6913SOL    HW121638   4.960   5.232   5.273
 6913SOL    HW221639   4.915   5.387   5.299
 6914SOL     OW21640   6.322   4.856   0.482
 6914SOL    HW121641   6.255   4.805   0.536
 6914SOL    HW221642   6.342   4.806   0.398
 6915SOL     OW21643   1.143   5.751   1.228
 6915SOL    HW121644   1.241   5.766   1.242
 6915SOL    HW221645   1.097   5.840   1.227
 6916SOL     OW21646   0.089   1.523   6.915
 6916SOL    HW121647   0.119   1.569   6.998
 6916SOL    HW221648   0.136   1.563   6.836
 6917SOL     OW21649   5.397   0.114   6.505
 6917SOL    HW121650   5.390   0.026   6.552
 6917SOL    HW221651   5.400   0.188   6.573
 6918SOL     OW21652   2.235   3.073   3.571
 6918SOL    HW121653   2.220   3.156   3.517
 6918SOL    HW221654   2.252   2.996   3.509
 6919SOL     OW21655   1.580   6.155   3.537
 6919SOL    HW121656   1.491   6.194   3.561
 6919SOL    HW221657   1.603   6.181   3.444
 6920SOL     OW21658   4.641   6.328   4.784
 6920SOL    HW121659   4.726   6.363   4.824
 6920SOL    HW221660   4.604   6.397   4.721
 6921SOL     OW21661   0.058   6.843   3.023
 6921SOL    HW121662   0.067   6.750   3.058
 6921SOL    HW221663   7.007   6.848   2.958
 6922SOL     OW21664   1.452   5.523   6.843
 6922SOL    HW121665   1.473   5.573   6.927
 6922SOL    HW221666   1.361   5.548   6.810
 6923SOL     OW21667   4.503   6.451   4.570
 6923SOL    HW121668   4.533   6.522   4.507
 6923SOL    HW221669   4.421   6.482   4.619
 6924SOL     OW21670   6.811   6.159   1.200
 6924SOL    HW121671   6.894   6.209   1.174
 6924SOL    HW221672   6.754   6.145   1.120
 6925SOL     OW21673   5.903   5.903   2.878
 6925SOL    HW121674   5.907   6.003   2.878
 6925SOL    HW221675   5.824   5.873   2.824
 6926SOL     OW21676   3.040   3.763   4.509
 6926SOL    HW121677   2.989   3.692   4.558
 6926SOL    HW221678   3.051   3.736   4.413
 6927SOL     OW21679   4.429   3.711   6.056
 6927SOL    HW121680   4.408   3.644   6.126
 6927SOL    HW221681   4.506   3.679   6.001
 6928SOL     OW21682   6.263   6.733   6.436
 6928SOL    HW121683   6.309   6.818   6.461
 6928SOL    HW221684   6.164   6.747   6.440
 6929SOL     OW21685   3.351   5.207   0.434
 6929SOL    HW121686   3.408   5.289   0.432
 6929SOL    HW221687   3.394   5.134   0.382
 6930SOL     OW21688   1.262   6.287   3.161
 6930SOL    HW121689   1.348   6.236   3.167
 6930SOL    HW221690   1.201   6.258   3.235
 6931SOL     OW21691   1.626   0.823   1.689
 6931SOL    HW121692   1.528   0.834   1.670
 6931SOL    HW221693   1.652   0.886   1.763
 6932SOL     OW21694   2.917   2.293   0.323
 6932SOL    HW121695   2.902   2.307   0.421
 6932SOL    HW221696   2.907   2.380   0.275
 6933SOL     OW21697   3.717   6.635   6.949
 6933SOL    HW121698   3.745   6.731   6.937
 6933SOL    HW221699   3.627   6.622   6.908
 6934SOL     OW21700   6.291   4.142   6.012
 6934SOL    HW121701   6.341   4.165   6.096
 6934SOL    HW221702   6.195   4.122   6.035
 6935SOL     OW21703   4.541   5.740   3.654
 6935SOL    HW121704   4.449   5.723   3.689
 6935SOL    HW221705   4.559   5.678   3.578
 6936SOL     OW21706   1.668   4.470   1.478
 6936SOL    HW121707   1.649   4.547   1.540
 6936SOL    HW221708   1.642   4.384   1.522
 6937SOL     OW21709   4.253   6.992   6.134
 6937SOL    HW121710   4.263   0.037   6.205
 6937SOL    HW221711   4.254   0.011   6.044
 6938SOL     OW21712   5.543   1.941   4.691
 6938SOL    HW121713   5.635   1.907   4.670
 6938SOL    HW221714   5.547   2.039   4.710
 6939SOL     OW21715   0.737   5.290   2.640
 6939SOL    HW121716   0.771   5.368   2.587
 6939SOL    HW221717   0.695   5.224   2.577
 6940SOL     OW21718   3.939   0.633   5.384
 6940SOL    HW121719   3.952   0.732   5.395
 6940SOL    HW221720   4.019   0.594   5.338
 6941SOL     OW21721   3.912   2.962   3.290
 6941SOL    HW121722   3.882   2.901   3.217
 6941SOL    HW221723   3.974   3.031   3.252
 6942SOL     OW21724   0.006   1.431   0.246
 6942SOL    HW121725   6.996   1.382   0.166
 6942SOL    HW221726   7.025   1.530   0.229
 6943SOL     OW21727   5.001   6.068   6.595
 6943SOL    HW121728   4.984   6.027   6.685
 6943SOL    HW221729   4.953   6.015   6.525
 6944SOL     OW21730   1.598   6.620   6.266
 6944SOL    HW121731   1.621   6.535   6.220
 6944SOL    HW221732   1.499   6.630   6.271
 6945SOL     OW21733   4.965   2.056   5.618
 6945SOL    HW121734   4.990   1.960   5.607
 6945SOL    HW221735   4.875   2.072   5.577
 6946SOL     OW21736   6.311   4.591   3.757
 6946SOL    HW121737   6.407   4.617   3.770
 6946SOL    HW221738   6.254   4.641   3.823
 6947SOL     OW21739   3.613   7.025   2.808
 6947SOL    HW121740   3.674   0.023   2.883
 6947SOL    HW221741   3.620   6.927   2.788
 6948SOL     OW21742   3.865   1.456   4.942
 6948SOL    HW121743   3.769   1.473   4.918
 6948SOL    HW221744   3.906   1.395   4.875
 6949SOL     OW21745   5.156   0.589   2.518
 6949SOL    HW121746   5.189   0.683   2.525
 6949SOL    HW221747   5.066   0.582   2.559
 6950SOL     OW21748   2.037   0.854   3.597
 6950SOL    HW121749   2.081   0.838   3.509
 6950SOL    HW221750   1.938   0.844   3.587
 6951SOL     OW21751   5.821   5.337   5.778
 6951SOL    HW121752   5.817   5.238   5.794
 6951SOL    HW221753   5.814   5.385   5.866
 6952SOL     OW21754   0.506   5.109   4.981
 6952SOL    HW121755   0.411   5.090   4.956
 6952SOL    HW221756   0.508   5.175   5.056
 6953SOL     OW21757   5.183   1.246   4.866
 6953SOL    HW121758   5.215   1.209   4.779
 6953SOL    HW221759   5.084   1.233   4.874
 6954SOL     OW21760   0.739   4.897   2.778
 6954SOL    HW121761   0.729   4.857   2.869
 6954SOL    HW221762   0.649   4.912   2.738
 6955SOL     OW21763   5.976   5.153   2.355
 6955SOL    HW121764   5.876   5.157   2.357
 6955SOL    HW221765   6.014   5.237   2.392
 6956SOL     OW21766   3.117   4.909   1.721
 6956SOL    HW121767   3.177   4.893   1.799
 6956SOL    HW221768   3.075   4.999   1.730
 6957SOL     OW21769   0.706   3.812   0.462
 6957SOL    HW121770   0.626   3.862   0.429
 6957SOL    HW221771   0.750   3.865   0.535
 6958SOL     OW21772   2.493   3.584   6.275
 6958SOL    HW121773   2.427   3.656   6.254
 6958SOL    HW221774   2.576   3.599   6.221
 6959SOL     OW21775   3.307   0.921   4.300
 6959SOL    HW121776   3.313   0.821   4.303
 6959SOL    HW221777   3.242   0.952   4.369
 6960SOL     OW21778   6.856   5.208   6.763
 6960SOL    HW121779   6.809   5.129   6.804
 6960SOL    HW221780   6.954   5.191   6.761
 6961SOL     OW21781   6.708   1.436   2.840
 6961SOL    HW121782   6.765   1.431   2.922
 6961SOL    HW221783   6.621   1.389   2.857
 6962SOL     OW21784   4.445   3.584   0.395
 6962SOL    HW121785   4.469   3.515   0.463
 6962SOL    HW221786   4.365   3.636   0.426
 6963SOL     OW21787   6.016   5.453   2.091
 6963SOL    HW121788   6.069   5.402   2.159
 6963SOL    HW221789   5.926   5.411   2.081
 6964SOL     OW21790   3.815   6.350   5.207
 6964SOL    HW121791   3.907   6.379   5.232
 6964SOL    HW221792   3.809   6.250   5.214
 6965SOL     OW21793   6.837   3.250   5.991
 6965SOL    HW121794   6.919   3.299   5.964
 6965SOL    HW221795   6.796   3.294   6.071
 6966SOL     OW21796   4.455   2.468   3.886
 6966SOL    HW121797   4.446   2.531   3.809
 6966SOL    HW221798   4.544   2.424   3.883
 6967SOL     OW21799   1.953   1.344   6.708
 6967SOL    HW121800   1.955   1.332   6.808
 6967SOL    HW221801   2.031   1.399   6.679
 6968SOL     OW21802   4.759   0.187   2.176
 6968SOL    HW121803   4.719   0.271   2.139
 6968SOL    HW221804   4.696   0.110   2.160
 6969SOL     OW21805   3.338   1.587   1.404
 6969SOL    HW121806   3.362   1.641   1.324
 6969SOL    HW221807   3.421   1.559   1.452
 6970SOL     OW21808   4.744   3.511   0.257
 6970SOL    HW121809   4.647   3.529   0.271
 6970SOL    HW221810   4.797   3.557   0.329
 6971SOL     OW21811   5.478   0.919   2.687
 6971SOL    HW121812   5.558   0.977   2.703
 6971SOL    HW221813   5.501   0.846   2.623
 6972SOL     OW21814   5.386   4.753   4.736
 6972SOL    HW121815   5.421   4.773   4.644
 6972SOL    HW221816   5.297   4.798   4.748
 6973SOL     OW21817   2.244   4.839   3.801
 6973SOL    HW121818   2.166   4.881   3.754
 6973SOL    HW221819   2.272   4.757   3.750
 6974SOL     OW21820   3.470   3.958   4.766
 6974SOL    HW121821   3.411   3.900   4.710
 6974SOL    HW221822   3.479   4.047   4.723
 6975SOL     OW21823   3.720   1.254   5.900
 6975SOL    HW121824   3.809   1.264   5.856
 6975SOL    HW221825   3.714   1.163   5.942
 6976SOL     OW21826   1.969   5.014   6.736
 6976SOL    HW121827   1.989   5.084   6.805
 6976SOL    HW221828   1.959   4.925   6.781
 6977SOL     OW21829   3.432   2.040   2.691
 6977SOL    HW121830   3.507   2.106   2.682
 6977SOL    HW221831   3.351   2.075   2.643
 6978SOL     OW21832   6.281   0.924   3.104
 6978SOL    HW121833   6.257   0.912   3.200
 6978SOL    HW221834   6.315   0.838   3.066
 6979SOL     OW21835   0.450   4.951   3.065
 6979SOL    HW121836   0.526   5.016   3.053
 6979SOL    HW221837   0.387   4.985   3.134
 6980SOL     OW21838   3.548   0.872   4.750
 6980SOL    HW121839   3.522   0.804   4.681
 6980SOL    HW221840   3.596   0.828   4.825
 6981SOL     OW21841   2.625   4.764   6.389
 6981SOL    HW121842   2.538   4.797   6.425
 6981SOL    HW221843   2.683   4.842   6.363
 6982SOL     OW21844   0.152   6.464   4.625
 6982SOL    HW121845   0.198   6.488   4.540
 6982SOL    HW221846   0.220   6.449   4.697
 6983SOL     OW21847   6.320   0.759   3.976
 6983SOL    HW121848   6.245   0.793   3.919
 6983SOL    HW221849   6.369   0.837   4.017
 6984SOL     OW21850   1.702   1.528   6.786
 6984SOL    HW121851   1.789   1.529   6.833
 6984SOL    HW221852   1.717   1.513   6.688
 6985SOL     OW21853   4.672   6.340   2.089
 6985SOL    HW121854   4.719   6.371   2.006
 6985SOL    HW221855   4.615   6.261   2.067
 6986SOL     OW21856   2.211   6.574   5.058
 6986SOL    HW121857   2.140   6.627   5.012
 6986SOL    HW221858   2.170   6.515   5.128
 6987SOL     OW21859   0.429   3.622   6.392
 6987SOL    HW121860   0.390   3.546   6.445
 6987SOL    HW221861   0.373   3.636   6.309
 6988SOL     OW21862   4.974   0.835   4.466
 6988SOL    HW121863   5.012   0.928   4.468
 6988SOL    HW221864   5.049   0.769   4.458
 6989SOL     OW21865   1.600   2.485   4.262
 6989SOL    HW121866   1.603   2.457   4.358
 6989SOL    HW221867   1.634   2.411   4.205
 6990SOL     OW21868   3.644   3.300   7.004
 6990SOL    HW121869   3.726   3.355   7.019
 6990SOL    HW221870   3.667   3.221   6.947
 6991SOL     OW21871   4.160   4.398   5.445
 6991SOL    HW121872   4.150   4.365   5.539
 6991SOL    HW221873   4.107   4.339   5.384
 6992SOL     OW21874   5.312   6.834   5.585
 6992SOL    HW121875   5.301   6.933   5.592
 6992SOL    HW221876   5.409   6.811   5.593
 6993SOL     OW21877   0.397   6.986   2.939
 6993SOL    HW121878   0.364   6.997   3.033
 6993SOL    HW221879   0.374   6.894   2.906
 6994SOL     OW21880   1.208   2.906   0.009
 6994SOL    HW121881   1.125   2.868   6.993
 6994SOL    HW221882   1.275   2.834   0.021
 6995SOL     OW21883   0.179   5.743   3.034
 6995SOL    HW121884   0.106   5.772   2.972
 6995SOL    HW221885   0.265   5.786   3.007
 6996SOL     OW21886   2.110   6.648   6.039
 6996SOL    HW121887   2.170   6.619   5.964
 6996SOL    HW221888   2.051   6.572   6.066
 6997SOL     OW21889   4.522   0.170   4.712
 6997SOL    HW121890   4.585   0.104   4.672
 6997SOL    HW221891   4.429   0.150   4.682
 6998SOL     OW21892   1.381   2.835   3.132
 6998SOL    HW121893   1.405   2.795   3.221
 6998SOL    HW221894   1.304   2.785   3.093
 6999SOL     OW21895   3.701   1.709   6.272
 6999SOL    HW121896   3.636   1.746   6.338
 6999SOL    HW221897   3.654   1.687   6.186
 7000SOL     OW21898   6.909   6.392   1.432
 7000SOL    HW121899   6.908   6.492   1.431
 7000SOL    HW221900   6.860   6.359   1.513
 7001SOL     OW21901   2.522   2.219   5.446
 7001SOL    HW121902   2.537   2.252   5.353
 7001SOL    HW221903   2.609   2.217   5.496
 7002SOL     OW21904   1.810   4.833   2.751
 7002SOL    HW121905   1.781   4.815   2.845
 7002SOL    HW221906   1.893   4.890   2.752
 7003SOL     OW21907   2.914   6.197   0.116
 7003SOL    HW121908   2.849   6.209   0.041
 7003SOL    HW221909   2.897   6.109   0.161
 7004SOL     OW21910   1.374   4.944   1.273
 7004SOL    HW121911   1.362   4.851   1.307
 7004SOL    HW221912   1.311   5.005   1.320
 7005SOL     OW21913   5.655   6.980   5.436
 7005SOL    HW121914   5.643   6.899   5.493
 7005SOL    HW221915   5.575   6.991   5.377
 7006SOL     OW21916   4.257   4.789   5.086
 7006SOL    HW121917   4.293   4.698   5.066
 7006SOL    HW221918   4.180   4.781   5.149
 7007SOL     OW21919   4.662   5.037   2.553
 7007SOL    HW121920   4.761   5.032   2.536
 7007SOL    HW221921   4.620   5.095   2.483
 7008SOL     OW21922   0.427   4.825   4.371
 7008SOL    HW121923   0.441   4.732   4.336
 7008SOL    HW221924   0.466   4.890   4.306
 7009SOL     OW21925   0.027   4.664   2.332
 7009SOL    HW121926   0.126   4.676   2.339
 7009SOL    HW221927   0.005   4.615   2.247
 7010SOL     OW21928   4.388   4.826   6.418
 7010SOL    HW121929   4.465   4.885   6.442
 7010SOL    HW221930   4.332   4.871   6.348
 7011SOL     OW21931   2.337   1.432   5.014
 7011SOL    HW121932   2.287   1.434   4.927
 7011SOL    HW221933   2.384   1.519   5.027
 7012SOL     OW21934   1.330   1.224   2.264
 7012SOL    HW121935   1.362   1.209   2.170
 7012SOL    HW221936   1.362   1.313   2.296
 7013SOL     OW21937   0.723   0.492   2.321
 7013SOL    HW121938   0.722   0.561   2.394
 7013SOL    HW221939   0.762   0.407   2.357
 7014SOL     OW21940   2.662   5.169   1.387
 7014SOL    HW121941   2.713   5.097   1.340
 7014SOL    HW221942   2.568   5.171   1.354
 7015SOL     OW21943   4.908   2.632   2.218
 7015SOL    HW121944   5.004   2.649   2.245
 7015SOL    HW221945   4.855   2.715   2.233
 7016SOL     OW21946   2.964   4.972   0.657
 7016SOL    HW121947   2.914   5.055   0.681
 7016SOL    HW221948   3.059   4.996   0.635
 7017SOL     OW21949   3.754   1.859   4.219
 7017SOL    HW121950   3.824   1.915   4.263
 7017SOL    HW221951   3.794   1.771   4.193
 7018SOL     OW21952   0.065   5.315   4.089
 7018SOL    HW121953   0.106   5.236   4.045
 7018SOL    HW221954   0.064   5.301   4.188
 7019SOL     OW21955   1.870   5.955   0.141
 7019SOL    HW121956   1.872   5.859   0.168
 7019SOL    HW221957   1.889   6.013   0.220
 7020SOL     OW21958   6.707   0.025   6.029
 7020SOL    HW121959   6.676   0.119   6.015
 7020SOL    HW221960   6.651   6.988   5.975
 7021SOL     OW21961   3.138   1.029   5.880
 7021SOL    HW121962   3.138   1.030   5.780
 7021SOL    HW221963   3.045   1.009   5.913
 7022SOL     OW21964   5.349   5.493   6.548
 7022SOL    HW121965   5.329   5.458   6.456
 7022SOL    HW221966   5.436   5.543   6.546
 7023SOL     OW21967   6.470   4.270   2.848
 7023SOL    HW121968   6.389   4.264   2.906
 7023SOL    HW221969   6.443   4.283   2.753
 7024SOL     OW21970   0.291   6.321   0.608
 7024SOL    HW121971   0.339   6.396   0.562
 7024SOL    HW221972   0.315   6.235   0.564
 7025SOL     OW21973   2.732   0.602   5.851
 7025SOL    HW121974   2.708   0.663   5.927
 7025SOL    HW221975   2.730   0.508   5.883
 7026SOL     OW21976   4.089   2.024   0.778
 7026SOL    HW121977   4.065   1.927   0.769
 7026SOL    HW221978   4.111   2.044   0.874
 7027SOL     OW21979   4.255   0.105   4.668
 7027SOL    HW121980   4.208   0.185   4.632
 7027SOL    HW221981   4.295   0.053   4.592
 7028SOL     OW21982   3.309   6.791   4.675
 7028SOL    HW121983   3.227   6.735   4.687
 7028SOL    HW221984   3.341   6.822   4.764
 7029SOL     OW21985   3.355   0.511   5.358
 7029SOL    HW121986   3.389   0.458   5.280
 7029SOL    HW221987   3.257   0.495   5.370
 7030SOL     OW21988   2.050   3.907   4.239
 7030SOL    HW121989   2.147   3.928   4.242
 7030SOL    HW221990   2.036   3.811   4.266
 7031SOL     OW21991   2.598   6.661   5.156
 7031SOL    HW121992   2.549   6.620   5.080
 7031SOL    HW221993   2.696   6.662   5.137
 7032SOL     OW21994   5.974   1.340   2.656
 7032SOL    HW121995   5.922   1.423   2.633
 7032SOL    HW221996   6.063   1.343   2.609
 7033SOL     OW21997   6.578   0.126   4.125
 7033SOL    HW121998   6.518   0.095   4.051
 7033SOL    HW221999   6.663   0.161   4.086
 7034SOL     OW22000   6.141   5.909   3.163
 7034SOL    HW122001   6.183   5.818   3.155
 7034SOL    HW222002   6.204   5.979   3.130
 7035SOL     OW22003   6.462   5.309   1.851
 7035SOL    HW122004   6.450   5.269   1.941
 7035SOL    HW222005   6.375   5.348   1.820
 7036SOL     OW22006   6.523   4.642   1.376
 7036SOL    HW122007   6.462   4.595   1.312
 7036SOL    HW222008   6.558   4.577   1.443
 7037SOL     OW22009   1.408   6.837   6.668
 7037SOL    HW122010   1.405   6.827   6.768
 7037SOL    HW222011   1.423   6.747   6.627
 7038SOL     OW22012   1.768   4.376   4.331
 7038SOL    HW122013   1.717   4.295   4.300
 7038SOL    HW222014   1.704   4.444   4.368
 7039SOL     OW22015   4.472   1.370   6.649
 7039SOL    HW122016   4.526   1.345   6.569
 7039SOL    HW222017   4.489   1.305   6.722
 7040SOL     OW22018   4.717   2.763   6.094
 7040SOL    HW122019   4.693   2.698   6.021
 7040SOL    HW222020   4.696   2.722   6.183
 7041SOL     OW22021   2.707   1.400   2.429
 7041SOL    HW122022   2.701   1.410   2.330
 7041SOL    HW222023   2.619   1.421   2.471
 7042SOL     OW22024   2.450   0.432   6.283
 7042SOL    HW122025   2.529   0.485   6.314
 7042SOL    HW222026   2.459   0.337   6.313
 7043SOL     OW22027   1.726   2.125   3.162
 7043SOL    HW122028   1.650   2.082   3.210
 7043SOL    HW222029   1.699   2.145   3.068
 7044SOL     OW22030   4.854   6.045   2.298
 7044SOL    HW122031   4.898   6.038   2.387
 7044SOL    HW222032   4.902   6.113   2.243
 7045SOL     OW22033   5.423   5.344   0.889
 7045SOL    HW122034   5.399   5.441   0.886
 7045SOL    HW222035   5.496   5.325   0.824
 7046SOL     OW22036   2.465   0.684   4.713
 7046SOL    HW122037   2.496   0.686   4.808
 7046SOL    HW222038   2.375   0.640   4.708
 7047SOL     OW22039   1.981   1.183   4.178
 7047SOL    HW122040   1.990   1.128   4.261
 7047SOL    HW222041   2.009   1.129   4.099
 7048SOL     OW22042   6.331   6.503   0.219
 7048SOL    HW122043   6.344   6.553   0.133
 7048SOL    HW222044   6.379   6.551   0.293
 7049SOL     OW22045   2.293   1.268   0.730
 7049SOL    HW122046   2.238   1.351   0.722
 7049SOL    HW222047   2.345   1.270   0.815
 7050SOL     OW22048   3.863   3.932   4.837
 7050SOL    HW122049   3.846   3.952   4.741
 7050SOL    HW222050   3.849   4.014   4.892
 7051SOL     OW22051   5.901   6.695   2.149
 7051SOL    HW122052   5.809   6.677   2.184
 7051SOL    HW222053   5.943   6.769   2.202
 7052SOL     OW22054   6.387   1.900   3.159
 7052SOL    HW122055   6.352   1.952   3.237
 7052SOL    HW222056   6.433   1.817   3.192
 7053SOL     OW22057   6.904   4.620   6.302
 7053SOL    HW122058   6.966   4.569   6.242
 7053SOL    HW222059   6.954   4.655   6.381
 7054SOL     OW22060   6.993   0.110   1.551
 7054SOL    HW122061   6.896   0.105   1.528
 7054SOL    HW222062   7.005   0.172   1.629
 7055SOL     OW22063   3.319   7.014   5.265
 7055SOL    HW122064   3.329   6.942   5.196
 7055SOL    HW222065   3.222   0.010   5.276
 7056SOL     OW22066   4.631   5.247   3.606
 7056SOL    HW122067   4.615   5.243   3.508
 7056SOL    HW222068   4.682   5.167   3.636
 7057SOL     OW22069   0.793   6.139   3.491
 7057SOL    HW122070   0.820   6.044   3.481
 7057SOL    HW222071   0.742   6.168   3.409
 7058SOL     OW22072   0.766   5.012   5.012
 7058SOL    HW122073   0.772   4.937   5.077
 7058SOL    HW222074   0.674   5.053   5.016
 7059SOL     OW22075   1.347   0.224   2.662
 7059SOL    HW122076   1.396   0.172   2.732
 7059SOL    HW222077   1.322   0.163   2.587
 7060SOL     OW22078   2.997   0.030   1.177
 7060SOL    HW122079   3.078   7.022   1.227
 7060SOL    HW222080   2.981   6.997   1.097
 7061SOL     OW22081   0.207   1.336   2.438
 7061SOL    HW122082   0.120   1.331   2.390
 7061SOL    HW222083   0.279   1.298   2.380
 7062SOL     OW22084   5.902   1.708   4.908
 7062SOL    HW122085   5.885   1.610   4.903
 7062SOL    HW222086   5.941   1.741   4.822
 7063SOL     OW22087   2.892   6.666   1.746
 7063SOL    HW122088   2.930   6.630   1.661
 7063SOL    HW222089   2.904   6.765   1.749
 7064SOL     OW22090   4.140   2.395   0.313
 7064SOL    HW122091   4.114   2.325   0.247
 7064SOL    HW222092   4.224   2.440   0.283
 7065SOL     OW22093   4.661   3.864   1.723
 7065SOL    HW122094   4.562   3.855   1.720
 7065SOL    HW222095   4.686   3.942   1.781
 7066SOL     OW22096   3.681   6.275   0.260
 7066SOL    HW122097   3.716   6.323   0.340
 7066SOL    HW222098   3.608   6.213   0.287
 7067SOL     OW22099   0.386   4.065   4.925
 7067SOL    HW122100   0.371   4.157   4.962
 7067SOL    HW222101   0.482   4.040   4.938
 7068SOL     OW22102   1.040   0.619   3.016
 7068SOL    HW122103   1.086   0.703   2.986
 7068SOL    HW222104   0.965   0.642   3.077
 7069SOL     OW22105   1.393   4.304   5.285
 7069SOL    HW122106   1.488   4.297   5.256
 7069SOL    HW222107   1.390   4.319   5.384
 7070SOL     OW22108   6.104   5.811   4.783
 7070SOL    HW122109   6.060   5.721   4.783
 7070SOL    HW222110   6.048   5.876   4.835
 7071SOL     OW22111   1.289   6.616   5.392
 7071SOL    HW122112   1.294   6.567   5.479
 7071SOL    HW222113   1.226   6.568   5.331
 7072SOL     OW22114   0.293   6.421   6.509
 7072SOL    HW122115   0.214   6.363   6.488
 7072SOL    HW222116   0.321   6.470   6.426
 7073SOL     OW22117   0.613   0.739   5.998
 7073SOL    HW122118   0.658   0.662   6.044
 7073SOL    HW222119   0.667   0.822   6.012
 7074SOL     OW22120   3.499   2.675   1.553
 7074SOL    HW122121   3.566   2.670   1.627
 7074SOL    HW222122   3.415   2.629   1.581
 7075SOL     OW22123   1.233   5.446   3.310
 7075SOL    HW122124   1.148   5.420   3.263
 7075SOL    HW222125   1.236   5.401   3.399
 7076SOL     OW22126   2.848   2.802   6.919
 7076SOL    HW122127   2.809   2.733   6.981
 7076SOL    HW222128   2.828   2.776   6.825
 7077SOL     OW22129   2.150   5.362   5.671
 7077SOL    HW122130   2.102   5.388   5.755
 7077SOL    HW222131   2.189   5.271   5.682
 7078SOL     OW22132   6.112   0.561   3.264
 7078SOL    HW122133   6.046   0.486   3.260
 7078SOL    HW222134   6.081   0.636   3.205
 7079SOL     OW22135   5.313   5.657   5.331
 7079SOL    HW122136   5.248   5.731   5.346
 7079SOL    HW222137   5.375   5.650   5.409
 7080SOL     OW22138   5.060   0.264   4.063
 7080SOL    HW122139   5.011   0.310   4.137
 7080SOL    HW222140   4.995   0.229   3.996
 7081SOL     OW22141   3.852   1.069   4.893
 7081SOL    HW122142   3.910   1.082   4.812
 7081SOL    HW222143   3.770   1.126   4.884
 7082SOL     OW22144   5.462   0.627   6.349
 7082SOL    HW122145   5.390   0.697   6.353
 7082SOL    HW222146   5.482   0.605   6.254
 7083SOL     OW22147   3.371   0.133   6.031
 7083SOL    HW122148   3.447   0.100   5.975
 7083SOL    HW222149   3.319   0.202   5.979
 7084SOL     OW22150   6.798   6.116   6.350
 7084SOL    HW122151   6.826   6.190   6.290
 7084SOL    HW222152   6.839   6.129   6.441
 7085SOL     OW22153   2.562   2.279   1.263
 7085SOL    HW122154   2.501   2.347   1.222
 7085SOL    HW222155   2.557   2.194   1.210
 7086SOL     OW22156   6.383   1.019   6.383
 7086SOL    HW122157   6.441   0.947   6.421
 7086SOL    HW222158   6.296   0.980   6.353
 7087SOL     OW22159   1.464   2.910   3.964
 7087SOL    HW122160   1.407   2.850   3.907
 7087SOL    HW222161   1.560   2.883   3.954
 7088SOL     OW22162   6.586   2.192   5.316
 7088SOL    HW122163   6.640   2.171   5.397
 7088SOL    HW222164   6.642   2.243   5.250
 7089SOL     OW22165   2.714   1.690   0.251
 7089SOL    HW122166   2.762   1.690   0.339
 7089SOL    HW222167   2.623   1.650   0.262
 7090SOL     OW22168   2.391   2.191   4.674
 7090SOL    HW122169   2.335   2.157   4.598
 7090SOL    HW222170   2.448   2.267   4.642
 7091SOL     OW22171   0.164   5.730   6.990
 7091SOL    HW122172   0.109   5.655   0.001
 7091SOL    HW222173   0.121   5.817   7.014
 7092SOL     OW22174   3.076   3.669   0.452
 7092SOL    HW122175   3.167   3.681   0.490
 7092SOL    HW222176   3.074   3.702   0.358
 7093SOL     OW22177   3.312   2.980   4.954
 7093SOL    HW122178   3.371   3.058   4.973
 7093SOL    HW222179   3.364   2.911   4.903
 7094SOL     OW22180   0.350   0.360   5.855
 7094SOL    HW122181   0.448   0.364   5.875
 7094SOL    HW222182   0.313   0.452   5.848
 7095SOL     OW22183   1.088   2.948   6.602
 7095SOL    HW122184   1.064   3.015   6.672
 7095SOL    HW222185   1.004   2.909   6.562
 7096SOL     OW22186   4.767   1.739   2.377
 7096SOL    HW122187   4.703   1.678   2.423
 7096SOL    HW222188   4.829   1.686   2.319
 7097SOL     OW22189   0.344   0.523   1.856
 7097SOL    HW122190   0.279   0.464   1.903
 7097SOL    HW222191   0.295   0.593   1.805
 7098SOL     OW22192   1.701   6.486   5.919
 7098SOL    HW122193   1.743   6.562   5.869
 7098SOL    HW222194   1.604   6.507   5.934
 7099SOL     OW22195   7.018   0.969   6.235
 7099SOL    HW122196   0.016   0.958   6.138
 7099SOL    HW222197   6.962   1.051   6.247
 7100SOL     OW22198   5.813   2.842   1.255
 7100SOL    HW122199   5.751   2.896   1.197
 7100SOL    HW222200   5.822   2.887   1.344
 7101SOL     OW22201   2.673   0.106   5.122
 7101SOL    HW122202   2.743   0.145   5.062
 7101SOL    HW222203   2.582   0.123   5.085
 7102SOL     OW22204   4.720   2.468   0.704
 7102SOL    HW122205   4.623   2.450   0.686
 7102SOL    HW222206   4.734   2.478   0.803
 7103SOL     OW22207   3.594   6.706   6.547
 7103SOL    HW122208   3.602   6.625   6.489
 7103SOL    HW222209   3.685   6.732   6.581
 7104SOL     OW22210   0.858   2.280   3.183
 7104SOL    HW122211   0.804   2.255   3.264
 7104SOL    HW222212   0.917   2.204   3.157
 7105SOL     OW22213   3.264   3.842   5.105
 7105SOL    HW122214   3.201   3.855   5.029
 7105SOL    HW222215   3.255   3.918   5.169
 7106SOL     OW22216   3.396   2.529   5.328
 7106SOL    HW122217   3.336   2.482   5.264
 7106SOL    HW222218   3.341   2.584   5.391
 7107SOL     OW22219   2.997   1.457   0.407
 7107SOL    HW122220   2.933   1.530   0.432
 7107SOL    HW222221   3.052   1.432   0.486
 7108SOL     OW22222   4.775   0.317   1.314
 7108SOL    HW122223   4.757   0.393   1.376
 7108SOL    HW222224   4.826   0.350   1.235
 7109SOL     OW22225   3.674   6.493   6.378
 7109SOL    HW122226   3.599   6.450   6.428
 7109SOL    HW222227   3.699   6.437   6.299
 7110SOL     OW22228   4.286   5.059   3.412
 7110SOL    HW122229   4.346   5.131   3.445
 7110SOL    HW222230   4.272   5.068   3.313
 7111SOL     OW22231   1.896   3.256   4.145
 7111SOL    HW122232   1.873   3.239   4.240
 7111SOL    HW222233   1.833   3.206   4.086
 7112SOL     OW22234   1.123   6.505   3.075
 7112SOL    HW122235   1.181   6.424   3.079
 7112SOL    HW222236   1.066   6.502   2.993
 7113SOL     OW22237   4.143   3.681   4.431
 7113SOL    HW122238   4.150   3.589   4.393
 7113SOL    HW222239   4.224   3.734   4.406
 7114SOL     OW22240   3.599   1.072   0.233
 7114SOL    HW122241   3.639   0.993   0.186
 7114SOL    HW222242   3.560   1.134   0.165
 7115SOL     OW22243   4.825   1.814   1.064
 7115SOL    HW122244   4.802   1.868   1.145
 7115SOL    HW222245   4.836   1.875   0.985
 7116SOL     OW22246   5.639   3.755   3.025
 7116SOL    HW122247   5.574   3.680   3.008
 7116SOL    HW222248   5.595   3.842   3.003
 7117SOL     OW22249   5.678   6.572   1.874
 7117SOL    HW122250   5.614   6.500   1.848
 7117SOL    HW222251   5.696   6.631   1.795
 7118SOL     OW22252   6.759   3.269   1.194
 7118SOL    HW122253   6.682   3.333   1.183
 7118SOL    HW222254   6.785   3.265   1.290
 7119SOL     OW22255   6.241   2.034   3.381
 7119SOL    HW122256   6.324   2.018   3.435
 7119SOL    HW222257   6.252   2.118   3.327
 7120SOL     OW22258   4.941   0.380   3.248
 7120SOL    HW122259   4.873   0.308   3.238
 7120SOL    HW222260   4.911   0.462   3.201
 7121SOL     OW22261   3.530   6.650   2.048
 7121SOL    HW122262   3.497   6.608   2.133
 7121SOL    HW222263   3.481   6.610   1.970
 7122SOL     OW22264   6.175   0.852   6.285
 7122SOL    HW122265   6.174   0.886   6.191
 7122SOL    HW222266   6.102   0.897   6.337
 7123SOL     OW22267   2.386   5.070   1.202
 7123SOL    HW122268   2.430   5.148   1.159
 7123SOL    HW222269   2.365   5.001   1.133
 7124SOL     OW22270   0.541   5.180   0.780
 7124SOL    HW122271   0.480   5.117   0.730
 7124SOL    HW222272   0.613   5.128   0.825
 7125SOL     OW22273   5.883   6.241   2.737
 7125SOL    HW122274   5.954   6.202   2.678
 7125SOL    HW222275   5.912   6.330   2.771
 7126SOL     OW22276   1.319   4.795   0.468
 7126SOL    HW122277   1.231   4.751   0.487
 7126SOL    HW222278   1.334   4.869   0.533
 7127SOL     OW22279   3.441   6.249   4.761
 7127SOL    HW122280   3.429   6.151   4.777
 7127SOL    HW222281   3.361   6.298   4.796
 7128SOL     OW22282   3.173   4.237   1.505
 7128SOL    HW122283   3.125   4.230   1.592
 7128SOL    HW222284   3.149   4.159   1.447
 7129SOL     OW22285   2.520   0.416   1.295
 7129SOL    HW122286   2.578   0.387   1.218
 7129SOL    HW222287   2.459   0.342   1.321
 7130SOL     OW22288   2.246   4.996   2.990
 7130SOL    HW122289   2.208   4.942   2.915
 7130SOL    HW222290   2.320   5.054   2.955
 7131SOL     OW22291   2.509   0.886   3.432
 7131SOL    HW122292   2.443   0.846   3.496
 7131SOL    HW222293   2.574   0.943   3.481
 7132SOL     OW22294   3.135   4.008   3.011
 7132SOL    HW122295   3.223   3.989   2.967
 7132SOL    HW222296   3.150   4.059   3.096
 7133SOL     OW22297   5.349   5.152   2.779
 7133SOL    HW122298   5.315   5.182   2.868
 7133SOL    HW222299   5.279   5.169   2.709
 7134SOL     OW22300   5.561   3.846   3.865
 7134SOL    HW122301   5.513   3.923   3.907
 7134SOL    HW222302   5.659   3.854   3.882
 7135SOL     OW22303   0.943   1.907   4.967
 7135SOL    HW122304   0.993   1.953   5.040
 7135SOL    HW222305   0.854   1.952   4.955
 7136SOL     OW22306   2.172   1.611   0.347
 7136SOL    HW122307   2.099   1.610   0.416
 7136SOL    HW222308   2.255   1.572   0.387
 7137SOL     OW22309   4.339   0.814   4.498
 7137SOL    HW122310   4.266   0.883   4.497
 7137SOL    HW222311   4.357   0.783   4.405
 7138SOL     OW22312   2.611   4.209   0.766
 7138SOL    HW122313   2.677   4.273   0.805
 7138SOL    HW222314   2.586   4.142   0.835
 7139SOL     OW22315   3.484   2.193   1.070
 7139SOL    HW122316   3.487   2.132   1.148
 7139SOL    HW222317   3.478   2.288   1.102
 7140SOL     OW22318   6.583   3.586   5.013
 7140SOL    HW122319   6.546   3.525   5.083
 7140SOL    HW222320   6.546   3.561   4.924
 7141SOL     OW22321   2.864   6.813   0.678
 7141SOL    HW122322   2.959   6.843   0.681
 7141SOL    HW222323   2.853   6.733   0.737
 7142SOL     OW22324   4.019   5.794   4.120
 7142SOL    HW122325   3.984   5.788   4.213
 7142SOL    HW222326   4.112   5.832   4.122
 7143SOL     OW22327   1.925   3.402   4.682
 7143SOL    HW122328   1.960   3.310   4.699
 7143SOL    HW222329   1.857   3.399   4.609
 7144SOL     OW22330   0.582   2.534   3.322
 7144SOL    HW122331   0.621   2.553   3.232
 7144SOL    HW222332   0.513   2.462   3.314
 7145SOL     OW22333   4.976   0.223   6.908
 7145SOL    HW122334   4.927   0.301   6.947
 7145SOL    HW222335   5.074   0.242   6.908
 7146SOL     OW22336   3.240   5.008   0.658
 7146SOL    HW122337   3.246   4.932   0.594
 7146SOL    HW222338   3.277   5.091   0.616
 7147SOL     OW22339   0.334   0.413   3.055
 7147SOL    HW122340   0.354   0.418   3.153
 7147SOL    HW222341   0.409   0.365   3.008
 7148SOL     OW22342   0.659   0.739   1.505
 7148SOL    HW122343   0.678   0.793   1.423
 7148SOL    HW222344   0.705   0.650   1.498
 7149SOL     OW22345   6.139   1.087   4.047
 7149SOL    HW122346   6.049   1.056   4.079
 7149SOL    HW222347   6.128   1.170   3.992
 7150SOL     OW22348   6.131   3.306   0.025
 7150SOL    HW122349   6.111   3.400   7.021
 7150SOL    HW222350   6.055   3.270   0.078
 7151SOL     OW22351   2.782   6.070   1.055
 7151SOL    HW122352   2.759   5.972   1.054
 7151SOL    HW222353   2.754   6.111   0.968
 7152SOL     OW22354   1.505   2.603   3.780
 7152SOL    HW122355   1.577   2.671   3.765
 7152SOL    HW222356   1.490   2.593   3.878
 7153SOL     OW22357   3.658   1.261   3.623
 7153SOL    HW122358   3.618   1.254   3.714
 7153SOL    HW222359   3.755   1.283   3.631
 7154SOL     OW22360   4.975   5.933   3.971
 7154SOL    HW122361   4.920   5.855   4.000
 7154SOL    HW222362   5.042   5.904   3.904
 7155SOL     OW22363   2.735   0.101   1.240
 7155SOL    HW122364   2.832   0.092   1.219
 7155SOL    HW222365   2.681   0.058   1.168
 7156SOL     OW22366   6.916   5.744   5.257
 7156SOL    HW122367   6.959   5.821   5.303
 7156SOL    HW222368   6.893   5.771   5.163
 7157SOL     OW22369   4.576   4.570   1.176
 7157SOL    HW122370   4.631   4.607   1.101
 7157SOL    HW222371   4.576   4.470   1.171
 7158SOL     OW22372   6.322   6.817   4.307
 7158SOL    HW122373   6.307   6.749   4.379
 7158SOL    HW222374   6.394   6.881   4.335
 7159SOL     OW22375   0.719   5.717   6.810
 7159SOL    HW122376   0.718   5.619   6.788
 7159SOL    HW222377   0.632   5.742   6.852
 7160SOL     OW22378   5.280   0.713   2.174
 7160SOL    HW122379   5.215   0.695   2.100
 7160SOL    HW222380   5.284   0.633   2.235
 7161SOL     OW22381   3.665   3.227   3.855
 7161SOL    HW122382   3.576   3.253   3.818
 7161SOL    HW222383   3.727   3.305   3.848
 7162SOL     OW22384   3.446   4.924   3.183
 7162SOL    HW122385   3.508   4.857   3.142
 7162SOL    HW222386   3.496   5.007   3.206
 7163SOL     OW22387   2.429   0.420   2.775
 7163SOL    HW122388   2.489   0.361   2.720
 7163SOL    HW222389   2.351   0.448   2.721
 7164SOL     OW22390   2.418   1.224   3.046
 7164SOL    HW122391   2.370   1.224   2.958
 7164SOL    HW222392   2.502   1.171   3.038
 7165SOL     OW22393   4.799   0.883   1.715
 7165SOL    HW122394   4.750   0.851   1.634
 7165SOL    HW222395   4.761   0.839   1.797
 7166SOL     OW22396   5.000   4.862   1.881
 7166SOL    HW122397   4.922   4.801   1.873
 7166SOL    HW222398   5.081   4.810   1.906
 7167SOL     OW22399   4.808   2.796   5.013
 7167SOL    HW122400   4.843   2.887   4.991
 7167SOL    HW222401   4.802   2.785   5.112
 7168SOL     OW22402   1.489   0.745   3.989
 7168SOL    HW122403   1.444   0.834   3.982
 7168SOL    HW222404   1.521   0.731   4.083
 7169SOL     OW22405   1.548   2.415   5.697
 7169SOL    HW122406   1.491   2.497   5.691
 7169SOL    HW222407   1.499   2.344   5.748
 7170SOL     OW22408   6.476   4.848   4.527
 7170SOL    HW122409   6.476   4.918   4.456
 7170SOL    HW222410   6.542   4.777   4.503
 7171SOL     OW22411   4.142   3.207   5.206
 7171SOL    HW122412   4.125   3.252   5.119
 7171SOL    HW222413   4.104   3.262   5.280
 7172SOL     OW22414   1.616   0.079   0.523
 7172SOL    HW122415   1.633   0.014   0.450
 7172SOL    HW222416   1.522   0.113   0.516
 7173SOL     OW22417   6.646   6.201   5.968
 7173SOL    HW122418   6.659   6.289   5.922
 7173SOL    HW222419   6.732   6.151   5.968
 7174SOL     OW22420   1.384   5.555   0.340
 7174SOL    HW122421   1.474   5.563   0.383
 7174SOL    HW222422   1.347   5.463   0.357
 7175SOL     OW22423   6.863   3.779   5.494
 7175SOL    HW122424   6.955   3.816   5.488
 7175SOL    HW222425   6.862   3.684   5.461
 7176SOL     OW22426   5.873   4.010   1.617
 7176SOL    HW122427   5.919   4.031   1.531
 7176SOL    HW222428   5.873   3.911   1.631
 7177SOL     OW22429   0.657   6.358   2.321
 7177SOL    HW122430   0.667   6.364   2.222
 7177SOL    HW222431   0.691   6.269   2.353
 7178SOL     OW22432   0.659   2.676   6.287
 7178SOL    HW122433   0.684   2.610   6.217
 7178SOL    HW222434   0.726   2.674   6.361
 7179SOL     OW22435   2.711   3.671   6.120
 7179SOL    HW122436   2.733   3.763   6.088
 7179SOL    HW222437   2.791   3.612   6.110
 7180SOL     OW22438   0.222   6.325   2.169
 7180SOL    HW122439   0.166   6.384   2.226
 7180SOL    HW222440   0.201   6.229   2.190
 7181SOL     OW22441   5.155   1.211   2.023
 7181SOL    HW122442   5.205   1.279   1.970
 7181SOL    HW222443   5.212   1.131   2.037
 7182SOL     OW22444   3.010   3.801   5.566
 7182SOL    HW122445   2.910   3.793   5.561
 7182SOL    HW222446   3.048   3.715   5.599
 7183SOL     OW22447   1.100   5.604   2.549
 7183SOL    HW122448   1.123   5.608   2.646
 7183SOL    HW222449   1.159   5.537   2.503
 7184SOL     OW22450   2.263   6.371   3.631
 7184SOL    HW122451   2.322   6.450   3.651
 7184SOL    HW222452   2.249   6.365   3.532
 7185SOL     OW22453   4.676   2.399   6.611
 7185SOL    HW122454   4.774   2.389   6.596
 7185SOL    HW222455   4.626   2.345   6.544
 7186SOL     OW22456   0.644   6.706   4.536
 7186SOL    HW122457   0.572   6.709   4.467
 7186SOL    HW222458   0.668   6.610   4.555
 7187SOL     OW22459   2.161   4.620   1.544
 7187SOL    HW122460   2.244   4.674   1.535
 7187SOL    HW222461   2.102   4.635   1.465
 7188SOL     OW22462   5.128   1.322   1.021
 7188SOL    HW122463   5.056   1.333   1.090
 7188SOL    HW222464   5.216   1.311   1.066
 7189SOL     OW22465   6.117   1.079   4.427
 7189SOL    HW122466   6.189   1.077   4.496
 7189SOL    HW222467   6.152   1.119   4.343
 7190SOL     OW22468   4.680   4.918   3.367
 7190SOL    HW122469   4.691   4.895   3.464
 7190SOL    HW222470   4.769   4.917   3.322
 7191SOL     OW22471   1.681   3.430   2.468
 7191SOL    HW122472   1.661   3.473   2.557
 7191SOL    HW222473   1.739   3.350   2.482
 7192SOL     OW22474   3.079   4.789   5.754
 7192SOL    HW122475   3.035   4.875   5.730
 7192SOL    HW222476   3.069   4.772   5.852
 7193SOL     OW22477   4.427   1.742   3.326
 7193SOL    HW122478   4.328   1.729   3.324
 7193SOL    HW222479   4.472   1.654   3.338
 7194SOL     OW22480   2.958   1.502   1.942
 7194SOL    HW122481   2.966   1.413   1.987
 7194SOL    HW222482   3.037   1.559   1.965
 7195SOL     OW22483   0.824   5.438   1.511
 7195SOL    HW122484   0.849   5.518   1.456
 7195SOL    HW222485   0.898   5.417   1.575
 7196SOL     OW22486   3.367   3.082   2.244
 7196SOL    HW122487   3.331   3.030   2.321
 7196SOL    HW222488   3.374   3.179   2.269
 7197SOL     OW22489   0.587   2.341   6.172
 7197SOL    HW122490   0.625   2.407   6.108
 7197SOL    HW222491   0.647   2.261   6.178
 7198SOL     OW22492   1.394   6.076   6.937
 7198SOL    HW122493   1.411   6.166   6.977
 7198SOL    HW222494   1.476   6.045   6.888
 7199SOL     OW22495   6.628   6.383   2.773
 7199SOL    HW122496   6.720   6.419   2.762
 7199SOL    HW222497   6.624   6.289   2.740
 7200SOL     OW22498   2.005   1.382   1.399
 7200SOL    HW122499   2.064   1.462   1.387
 7200SOL    HW222500   1.996   1.362   1.497
 7201SOL     OW22501   2.338   4.494   3.864
 7201SOL    HW122502   2.310   4.456   3.953
 7201SOL    HW222503   2.305   4.435   3.791
 7202SOL     OW22504   3.820   1.155   6.379
 7202SOL    HW122505   3.734   1.176   6.425
 7202SOL    HW222506   3.877   1.237   6.376
 7203SOL     OW22507   5.534   1.007   6.708
 7203SOL    HW122508   5.584   1.078   6.659
 7203SOL    HW222509   5.529   1.030   6.805
 7204SOL     OW22510   5.932   1.804   2.548
 7204SOL    HW122511   5.883   1.863   2.612
 7204SOL    HW222512   6.026   1.790   2.580
 7205SOL     OW22513   2.131   4.507   2.432
 7205SOL    HW122514   2.194   4.444   2.386
 7205SOL    HW222515   2.064   4.542   2.366
 7206SOL     OW22516   5.952   0.884   1.752
 7206SOL    HW122517   5.962   0.855   1.657
 7206SOL    HW222518   6.020   0.954   1.773
 7207SOL     OW22519   3.818   0.013   2.052
 7207SOL    HW122520   3.877   7.007   2.126
 7207SOL    HW222521   3.791   0.108   2.069
 7208SOL     OW22522   3.082   0.467   5.433
 7208SOL    HW122523   3.038   0.423   5.354
 7208SOL    HW222524   3.014   0.482   5.505
 7209SOL     OW22525   4.036   3.640   4.668
 7209SOL    HW122526   4.082   3.687   4.593
 7209SOL    HW222527   3.959   3.587   4.633
 7210SOL     OW22528   4.205   0.386   4.286
 7210SOL    HW122529   4.285   0.425   4.330
 7210SOL    HW222530   4.192   0.292   4.317
 7211SOL     OW22531   1.433   5.339   2.990
 7211SOL    HW122532   1.510   5.328   2.927
 7211SOL    HW222533   1.463   5.385   3.073
 7212SOL     OW22534   5.377   6.602   4.181
 7212SOL    HW122535   5.414   6.518   4.142
 7212SOL    HW222536   5.445   6.645   4.240
 7213SOL     OW22537   5.470   0.812   5.534
 7213SOL    HW122538   5.491   0.746   5.607
 7213SOL    HW222539   5.544   0.814   5.468
 7214SOL     OW22540   1.249   4.925   5.151
 7214SOL    HW122541   1.242   4.845   5.091
 7214SOL    HW222542   1.242   5.008   5.095
 7215SOL     OW22543   1.318   3.602   3.594
 7215SOL    HW122544   1.371   3.655   3.529
 7215SOL    HW222545   1.263   3.534   3.546
 7216SOL     OW22546   2.039   0.915   1.846
 7216SOL    HW122547   2.021   0.965   1.762
 7216SOL    HW222548   2.100   0.838   1.826
 7217SOL     OW22549   1.163   2.790   2.423
 7217SOL    HW122550   1.162   2.784   2.324
 7217SOL    HW222551   1.079   2.832   2.455
 7218SOL     OW22552   5.562   2.725   5.483
 7218SOL    HW122553   5.632   2.795   5.468
 7218SOL    HW222554   5.605   2.635   5.488
 7219SOL     OW22555   3.729   1.480   2.042
 7219SOL    HW122556   3.753   1.574   2.067
 7219SOL    HW222557   3.656   1.447   2.101
 7220SOL     OW22558   6.877   0.746   2.893
 7220SOL    HW122559   6.896   0.671   2.956
 7220SOL    HW222560   6.941   0.821   2.911
 7221SOL     OW22561   5.966   5.679   5.679
 7221SOL    HW122562   5.887   5.722   5.636
 7221SOL    HW222563   6.023   5.636   5.609
 7222SOL     OW22564   0.061   6.303   1.940
 7222SOL    HW122565   0.122   6.311   2.019
 7222SOL    HW222566   0.113   6.322   1.856
 7223SOL     OW22567   3.315   0.805   5.340
 7223SOL    HW122568   3.309   0.709   5.365
 7223SOL    HW222569   3.373   0.815   5.259
 7224SOL     OW22570   4.658   6.619   4.395
 7224SOL    HW122571   4.653   6.658   4.304
 7224SOL    HW222572   4.749   6.635   4.434
 7225SOL     OW22573   2.219   6.283   6.873
 7225SOL    HW122574   2.213   6.365   6.930
 7225SOL    HW222575   2.159   6.213   6.910
 7226SOL     OW22576   6.319   0.079   0.998
 7226SOL    HW122577   6.267   0.037   1.072
 7226SOL    HW222578   6.294   0.038   0.911
 7227SOL     OW22579   6.168   2.641   6.181
 7227SOL    HW122580   6.252   2.594   6.208
 7227SOL    HW222581   6.191   2.728   6.136
 7228SOL     OW22582   1.322   0.686   3.186
 7228SOL    HW122583   1.331   0.628   3.267
 7228SOL    HW222584   1.327   0.629   3.104
 7229SOL     OW22585   0.760   0.335   3.404
 7229SOL    HW122586   0.748   0.264   3.334
 7229SOL    HW222587   0.678   0.340   3.460
 7230SOL     OW22588   5.898   3.636   2.994
 7230SOL    HW122589   5.806   3.656   3.028
 7230SOL    HW222590   5.893   3.614   2.897
 7231SOL     OW22591   5.323   0.874   6.531
 7231SOL    HW122592   5.305   0.894   6.435
 7231SOL    HW222593   5.395   0.935   6.566
 7232SOL     OW22594   3.609   4.751   1.321
 7232SOL    HW122595   3.510   4.742   1.317
 7232SOL    HW222596   3.650   4.660   1.328
 7233SOL     OW22597   6.832   2.436   6.063
 7233SOL    HW122598   6.802   2.435   5.968
 7233SOL    HW222599   6.908   2.371   6.075
 7234SOL     OW22600   6.172   2.018   2.046
 7234SOL    HW122601   6.175   1.919   2.061
 7234SOL    HW222602   6.098   2.058   2.100
 7235SOL     OW22603   6.103   3.280   5.009
 7235SOL    HW122604   6.043   3.330   4.947
 7235SOL    HW222605   6.157   3.345   5.063
 7236SOL     OW22606   3.418   0.863   3.008
 7236SOL    HW122607   3.424   0.799   2.931
 7236SOL    HW222608   3.400   0.812   3.092
 7237SOL     OW22609   5.922   6.063   6.113
 7237SOL    HW122610   5.872   5.981   6.086
 7237SOL    HW222611   5.982   6.042   6.190
 7238SOL     OW22612   1.267   1.156   1.265
 7238SOL    HW122613   1.348   1.100   1.285
 7238SOL    HW222614   1.280   1.202   1.178
 7239SOL     OW22615   4.004   1.520   1.615
 7239SOL    HW122616   4.000   1.618   1.596
 7239SOL    HW222617   4.042   1.506   1.707
 7240SOL     OW22618   3.239   4.204   0.573
 7240SOL    HW122619   3.311   4.162   0.518
 7240SOL    HW222620   3.151   4.162   0.549
 7241SOL     OW22621   3.395   0.261   5.185
 7241SOL    HW122622   3.487   0.294   5.207
 7241SOL    HW222623   3.390   0.162   5.202
 7242SOL     OW22624   4.784   4.379   6.968
 7242SOL    HW122625   4.690   4.362   6.938
 7242SOL    HW222626   4.834   4.293   6.971
 7243SOL     OW22627   0.165   5.766   0.404
 7243SOL    HW122628   0.178   5.857   0.365
 7243SOL    HW222629   0.185   5.697   0.334
 7244SOL     OW22630   5.765   1.411   0.759
 7244SOL    HW122631   5.725   1.414   0.851
 7244SOL    HW222632   5.821   1.492   0.745
 7245SOL     OW22633   6.814   1.848   3.736
 7245SOL    HW122634   6.734   1.898   3.770
 7245SOL    HW222635   6.820   1.760   3.783
 7246SOL     OW22636   0.638   6.095   5.493
 7246SOL    HW122637   0.628   6.183   5.539
 7246SOL    HW222638   0.609   6.103   5.398
 7247SOL     OW22639   3.460   5.762   2.653
 7247SOL    HW122640   3.371   5.738   2.616
 7247SOL    HW222641   3.460   5.749   2.753
 7248SOL     OW22642   3.128   0.324   4.697
 7248SOL    HW122643   3.144   0.419   4.725
 7248SOL    HW222644   3.097   0.323   4.602
 7249SOL     OW22645   6.050   5.273   0.004
 7249SOL    HW122646   6.016   5.221   6.951
 7249SOL    HW222647   6.006   5.362   0.006
 7250SOL     OW22648   2.969   4.216   6.393
 7250SOL    HW122649   2.922   4.258   6.316
 7250SOL    HW222650   2.984   4.119   6.375
 7251SOL     OW22651   5.215   0.176   5.245
 7251SOL    HW122652   5.215   0.261   5.297
 7251SOL    HW222653   5.150   0.112   5.285
 7252SOL     OW22654   4.097   3.812   4.962
 7252SOL    HW122655   4.188   3.819   4.920
 7252SOL    HW222656   4.034   3.874   4.915
 7253SOL     OW22657   5.310   5.240   1.121
 7253SOL    HW122658   5.372   5.179   1.171
 7253SOL    HW222659   5.350   5.261   1.032
 7254SOL     OW22660   4.833   6.424   5.149
 7254SOL    HW122661   4.752   6.368   5.165
 7254SOL    HW222662   4.833   6.501   5.213
 7255SOL     OW22663   3.530   4.142   2.196
 7255SOL    HW122664   3.515   4.128   2.294
 7255SOL    HW222665   3.545   4.239   2.178
 7256SOL     OW22666   4.965   4.903   4.056
 7256SOL    HW122667   4.868   4.920   4.036
 7256SOL    HW222668   5.000   4.833   3.993
 7257SOL     OW22669   5.952   4.176   3.628
 7257SOL    HW122670   5.996   4.114   3.563
 7257SOL    HW222671   6.020   4.211   3.692
 7258SOL     OW22672   3.038   0.002   5.115
 7258SOL    HW122673   3.022   6.928   5.108
 7258SOL    HW222674   3.083   0.034   5.032
 7259SOL     OW22675   1.909   5.397   5.879
 7259SOL    HW122676   1.824   5.415   5.829
 7259SOL    HW222677   1.917   5.462   5.955
 7260SOL     OW22678   3.602   2.019   1.784
 7260SOL    HW122679   3.574   2.057   1.696
 7260SOL    HW222680   3.600   2.091   1.854
 7261SOL     OW22681   1.306   3.836   1.821
 7261SOL    HW122682   1.291   3.934   1.810
 7261SOL    HW222683   1.403   3.819   1.841
 7262SOL     OW22684   6.299   1.794   5.024
 7262SOL    HW122685   6.382   1.850   5.018
 7262SOL    HW222686   6.294   1.752   5.114
 7263SOL     OW22687   4.243   6.643   1.783
 7263SOL    HW122688   4.167   6.685   1.833
 7263SOL    HW222689   4.206   6.576   1.718
 7264SOL     OW22690   1.174   6.770   4.974
 7264SOL    HW122691   1.102   6.728   5.031
 7264SOL    HW222692   1.176   6.868   4.990
 7265SOL     OW22693   4.261   3.901   5.969
 7265SOL    HW122694   4.320   3.835   6.017
 7265SOL    HW222695   4.254   3.985   6.022
 7266SOL     OW22696   5.160   1.663   1.644
 7266SOL    HW122697   5.258   1.670   1.623
 7266SOL    HW222698   5.107   1.690   1.564
 7267SOL     OW22699   0.277   2.926   4.171
 7267SOL    HW122700   0.330   2.853   4.215
 7267SOL    HW222701   0.300   2.930   4.074
 7268SOL     OW22702   3.270   6.928   1.259
 7268SOL    HW122703   3.278   6.865   1.182
 7268SOL    HW222704   3.258   6.876   1.344
 7269SOL     OW22705   1.866   6.868   1.962
 7269SOL    HW122706   1.852   6.917   1.876
 7269SOL    HW222707   1.802   6.792   1.968
 7270SOL     OW22708   3.489   1.294   2.600
 7270SOL    HW122709   3.533   1.373   2.643
 7270SOL    HW222710   3.392   1.294   2.623
 7271SOL     OW22711   6.073   4.887   4.146
 7271SOL    HW122712   6.004   4.821   4.177
 7271SOL    HW222713   6.120   4.926   4.226
 7272SOL     OW22714   5.945   2.133   1.325
 7272SOL    HW122715   5.870   2.155   1.388
 7272SOL    HW222716   6.012   2.075   1.372
 7273SOL     OW22717   6.077   5.965   6.328
 7273SOL    HW122718   6.122   5.876   6.340
 7273SOL    HW222719   6.096   6.022   6.408
 7274SOL     OW22720   0.110   4.253   4.749
 7274SOL    HW122721   0.122   4.352   4.754
 7274SOL    HW222722   0.057   4.222   4.828
 7275SOL     OW22723   5.883   6.878   1.256
 7275SOL    HW122724   5.883   6.919   1.348
 7275SOL    HW222725   5.839   6.789   1.260
 7276SOL     OW22726   2.917   2.233   4.012
 7276SOL    HW122727   2.853   2.239   3.936
 7276SOL    HW222728   2.868   2.205   4.095
 7277SOL     OW22729   5.280   1.585   4.294
 7277SOL    HW122730   5.260   1.682   4.310
 7277SOL    HW222731   5.336   1.550   4.368
 7278SOL     OW22732   2.094   1.646   3.347
 7278SOL    HW122733   2.159   1.595   3.291
 7278SOL    HW222734   2.112   1.629   3.443
 7279SOL     OW22735   4.280   4.373   1.036
 7279SOL    HW122736   4.285   4.457   0.981
 7279SOL    HW222737   4.279   4.397   1.133
 7280SOL     OW22738   6.328   1.919   5.408
 7280SOL    HW122739   6.277   1.850   5.355
 7280SOL    HW222740   6.425   1.914   5.385
 7281SOL     OW22741   4.029   5.703   2.084
 7281SOL    HW122742   4.001   5.792   2.120
 7281SOL    HW222743   3.964   5.633   2.114
 7282SOL     OW22744   6.307   3.829   2.174
 7282SOL    HW122745   6.282   3.864   2.264
 7282SOL    HW222746   6.284   3.732   2.169
 7283SOL     OW22747   4.585   5.154   3.048
 7283SOL    HW122748   4.603   5.162   2.950
 7283SOL    HW222749   4.642   5.219   3.098
 7284SOL     OW22750   0.173   1.616   2.425
 7284SOL    HW122751   0.225   1.543   2.470
 7284SOL    HW222752   0.093   1.639   2.480
 7285SOL     OW22753   4.915   3.190   1.820
 7285SOL    HW122754   4.979   3.194   1.898
 7285SOL    HW222755   4.841   3.127   1.841
 7286SOL     OW22756   6.291   1.534   3.807
 7286SOL    HW122757   6.299   1.439   3.777
 7286SOL    HW222758   6.269   1.592   3.728
 7287SOL     OW22759   2.730   1.492   3.081
 7287SOL    HW122760   2.720   1.585   3.046
 7287SOL    HW222761   2.704   1.427   3.009
 7288SOL     OW22762   2.506   1.730   2.312
 7288SOL    HW122763   2.516   1.816   2.262
 7288SOL    HW222764   2.441   1.671   2.265
 7289SOL     OW22765   6.657   2.133   1.454
 7289SOL    HW122766   6.706   2.218   1.477
 7289SOL    HW222767   6.562   2.155   1.432
 7290SOL     OW22768   4.045   1.058   4.696
 7290SOL    HW122769   4.128   1.084   4.745
 7290SOL    HW222770   4.069   1.010   4.612
 7291SOL     OW22771   2.454   1.224   0.959
 7291SOL    HW122772   2.486   1.315   0.983
 7291SOL    HW222773   2.397   1.188   1.034
 7292SOL     OW22774   2.706   6.864   2.615
 7292SOL    HW122775   2.750   6.940   2.569
 7292SOL    HW222776   2.775   6.807   2.660
 7293SOL     OW22777   6.653   1.648   4.099
 7293SOL    HW122778   6.627   1.563   4.146
 7293SOL    HW222779   6.667   1.720   4.167
 7294SOL     OW22780   3.426   6.333   2.120
 7294SOL    HW122781   3.518   6.358   2.148
 7294SOL    HW222782   3.429   6.247   2.068
 7295SOL     OW22783   5.488   4.148   0.992
 7295SOL    HW122784   5.468   4.241   1.022
 7295SOL    HW222785   5.481   4.085   1.070
 7296SOL     OW22786   4.629   5.074   2.166
 7296SOL    HW122787   4.547   5.071   2.109
 7296SOL    HW222788   4.606   5.115   2.255
 7297SOL     OW22789   4.536   7.003   1.259
 7297SOL    HW122790   4.546   6.988   1.161
 7297SOL    HW222791   4.515   0.075   1.277
 7298SOL     OW22792   3.869   5.111   0.326
 7298SOL    HW122793   3.857   5.166   0.409
 7298SOL    HW222794   3.895   5.171   0.250
 7299SOL     OW22795   1.189   3.148   6.469
 7299SOL    HW122796   1.156   3.073   6.527
 7299SOL    HW222797   1.286   3.136   6.449
 7300SOL     OW22798   0.056   5.570   2.240
 7300SOL    HW122799   0.150   5.560   2.272
 7300SOL    HW222800   0.030   5.487   2.190
 7301SOL     OW22801   4.348   1.773   6.484
 7301SOL    HW122802   4.383   1.867   6.481
 7301SOL    HW222803   4.282   1.759   6.411
 7302SOL     OW22804   5.575   2.072   5.953
 7302SOL    HW122805   5.574   2.037   6.046
 7302SOL    HW222806   5.538   2.003   5.891
 7303SOL     OW22807   2.828   1.587   2.157
 7303SOL    HW122808   2.825   1.563   2.060
 7303SOL    HW222809   2.752   1.648   2.178
 7304SOL     OW22810   2.845   5.594   0.600
 7304SOL    HW122811   2.884   5.510   0.562
 7304SOL    HW222812   2.779   5.570   0.672
 7305SOL     OW22813   5.988   1.204   0.263
 7305SOL    HW122814   5.921   1.191   0.189
 7305SOL    HW222815   6.037   1.118   0.278
 7306SOL     OW22816   0.971   2.977   1.767
 7306SOL    HW122817   1.052   3.017   1.724
 7306SOL    HW222818   0.937   2.902   1.709
 7307SOL     OW22819   1.886   0.017   0.694
 7307SOL    HW122820   1.825   0.050   0.621
 7307SOL    HW222821   1.838   0.023   0.781
 7308SOL     OW22822   4.417   1.210   2.953
 7308SOL    HW122823   4.368   1.291   2.919
 7308SOL    HW222824   4.451   1.157   2.876
 7309SOL     OW22825   2.260   5.124   3.722
 7309SOL    HW122826   2.333   5.066   3.687
 7309SOL    HW222827   2.300   5.197   3.778
 7310SOL     OW22828   2.533   2.797   6.015
 7310SOL    HW122829   2.553   2.840   5.927
 7310SOL    HW222830   2.592   2.836   6.086
 7311SOL     OW22831   0.442   5.830   5.892
 7311SOL    HW122832   0.496   5.891   5.834
 7311SOL    HW222833   0.435   5.740   5.850
 7312SOL     OW22834   6.320   1.922   3.996
 7312SOL    HW122835   6.366   1.850   3.944
 7312SOL    HW222836   6.370   2.008   3.986
 7313SOL     OW22837   2.555   0.694   2.694
 7313SOL    HW122838   2.556   0.631   2.617
 7313SOL    HW222839   2.487   0.663   2.761
 7314SOL     OW22840   0.871   4.605   5.690
 7314SOL    HW122841   0.790   4.654   5.721
 7314SOL    HW222842   0.934   4.594   5.767
 7315SOL     OW22843   2.229   4.880   2.185
 7315SOL    HW122844   2.226   4.954   2.118
 7315SOL    HW222845   2.320   4.837   2.183
 7316SOL     OW22846   3.711   1.631   1.203
 7316SOL    HW122847   3.708   1.654   1.300
 7316SOL    HW222848   3.689   1.535   1.190
 7317SOL     OW22849   4.094   2.144   0.173
 7317SOL    HW122850   4.089   2.094   0.259
 7317SOL    HW222851   4.155   2.097   0.110
 7318SOL     OW22852   5.293   6.508   0.553
 7318SOL    HW122853   5.238   6.587   0.581
 7318SOL    HW222854   5.282   6.434   0.620
 7319SOL     OW22855   5.614   6.265   6.341
 7319SOL    HW122856   5.667   6.248   6.258
 7319SOL    HW222857   5.520   6.237   6.327
 7320SOL     OW22858   0.690   2.488   1.090
 7320SOL    HW122859   0.765   2.553   1.078
 7320SOL    HW222860   0.650   2.465   1.001
 7321SOL     OW22861   1.904   1.882   0.024
 7321SOL    HW122862   1.972   1.889   0.096
 7321SOL    HW222863   1.890   1.971   7.006
 7322SOL     OW22864   1.252   3.362   3.375
 7322SOL    HW122865   1.347   3.391   3.384
 7322SOL    HW222866   1.199   3.438   3.336
 7323SOL     OW22867   0.643   2.930   0.350
 7323SOL    HW122868   0.725   2.898   0.398
 7323SOL    HW222869   0.562   2.890   0.393
 7324SOL     OW22870   4.981   3.832   3.284
 7324SOL    HW122871   4.951   3.795   3.373
 7324SOL    HW222872   5.071   3.874   3.294
 7325SOL     OW22873   4.341   1.214   5.443
 7325SOL    HW122874   4.389   1.127   5.455
 7325SOL    HW222875   4.246   1.205   5.470
 7326SOL     OW22876   3.850   0.613   0.564
 7326SOL    HW122877   3.930   0.556   0.578
 7326SOL    HW222878   3.849   0.647   0.469
 7327SOL     OW22879   1.507   4.431   3.242
 7327SOL    HW122880   1.590   4.453   3.192
 7327SOL    HW222881   1.524   4.356   3.306
 7328SOL     OW22882   4.547   4.865   5.067
 7328SOL    HW122883   4.596   4.826   4.988
 7328SOL    HW222884   4.466   4.810   5.087
 7329SOL     OW22885   3.198   3.138   1.251
 7329SOL    HW122886   3.116   3.080   1.246
 7329SOL    HW222887   3.242   3.141   1.162
 7330SOL     OW22888   2.680   3.495   1.484
 7330SOL    HW122889   2.702   3.496   1.581
 7330SOL    HW222890   2.764   3.493   1.430
 7331SOL     OW22891   5.157   2.706   2.323
 7331SOL    HW122892   5.226   2.776   2.305
 7331SOL    HW222893   5.184   2.653   2.404
 7332SOL     OW22894   3.079   6.209   6.051
 7332SOL    HW122895   3.016   6.147   6.004
 7332SOL    HW222896   3.086   6.294   6.000
 7333SOL     OW22897   0.541   1.190   1.383
 7333SOL    HW122898   0.585   1.107   1.348
 7333SOL    HW222899   0.444   1.172   1.397
 7334SOL     OW22900   1.972   5.903   3.641
 7334SOL    HW122901   2.040   5.893   3.569
 7334SOL    HW222902   2.018   5.925   3.727
 7335SOL     OW22903   0.234   3.971   2.277
 7335SOL    HW122904   0.322   3.979   2.324
 7335SOL    HW222905   0.161   3.999   2.339
 7336SOL     OW22906   2.685   6.453   1.891
 7336SOL    HW122907   2.711   6.490   1.802
 7336SOL    HW222908   2.605   6.502   1.925
 7337SOL     OW22909   2.655   1.347   3.326
 7337SOL    HW122910   2.660   1.365   3.228
 7337SOL    HW222911   2.597   1.267   3.342
 7338SOL     OW22912   5.146   3.819   1.220
 7338SOL    HW122913   5.140   3.875   1.303
 7338SOL    HW222914   5.067   3.758   1.216
 7339SOL     OW22915   0.022   6.096   4.665
 7339SOL    HW122916   0.042   6.150   4.583
 7339SOL    HW222917   0.063   6.006   4.656
 7340SOL     OW22918   3.122   6.881   0.628
 7340SOL    HW122919   3.199   6.861   0.568
 7340SOL    HW222920   3.154   6.883   0.723
 7341SOL     OW22921   6.638   5.370   4.873
 7341SOL    HW122922   6.670   5.409   4.959
 7341SOL    HW222923   6.549   5.326   4.888
 7342SOL     OW22924   1.476   5.133   1.114
 7342SOL    HW122925   1.571   5.120   1.139
 7342SOL    HW222926   1.419   5.065   1.160
 7343SOL     OW22927   5.116   2.852   2.719
 7343SOL    HW122928   5.053   2.863   2.642
 7343SOL    HW222929   5.101   2.926   2.785
 7344SOL     OW22930   2.455   0.868   0.208
 7344SOL    HW122931   2.399   0.793   0.243
 7344SOL    HW222932   2.428   0.953   0.253
 7345SOL     OW22933   3.481   5.419   0.648
 7345SOL    HW122934   3.507   5.437   0.554
 7345SOL    HW222935   3.515   5.329   0.676
 7346SOL     OW22936   3.670   4.982   1.815
 7346SOL    HW122937   3.658   4.928   1.898
 7346SOL    HW222938   3.668   4.922   1.735
 7347SOL     OW22939   6.463   3.397   2.234
 7347SOL    HW122940   6.548   3.439   2.265
 7347SOL    HW222941   6.465   3.299   2.253
 7348SOL     OW22942   0.850   1.636   5.144
 7348SOL    HW122943   0.876   1.724   5.103
 7348SOL    HW222944   0.836   1.647   5.242
 7349SOL     OW22945   3.378   1.097   0.582
 7349SOL    HW122946   3.438   1.043   0.521
 7349SOL    HW222947   3.366   1.188   0.543
 7350SOL     OW22948   2.200   1.264   2.844
 7350SOL    HW122949   2.111   1.230   2.874
 7350SOL    HW222950   2.213   1.358   2.877
 7351SOL     OW22951   4.507   4.315   6.947
 7351SOL    HW122952   4.442   4.240   6.937
 7351SOL    HW222953   4.495   4.379   6.871
 7352SOL     OW22954   6.694   1.199   3.450
 7352SOL    HW122955   6.598   1.194   3.422
 7352SOL    HW222956   6.717   1.119   3.506
 7353SOL     OW22957   4.984   2.184   4.881
 7353SOL    HW122958   5.046   2.176   4.959
 7353SOL    HW222959   5.036   2.178   4.796
 7354SOL     OW22960   6.473   4.419   5.011
 7354SOL    HW122961   6.443   4.355   4.941
 7354SOL    HW222962   6.573   4.428   5.009
 7355SOL     OW22963   1.017   4.553   1.368
 7355SOL    HW122964   1.034   4.595   1.279
 7355SOL    HW222965   0.989   4.623   1.433
 7356SOL     OW22966   6.686   1.262   5.496
 7356SOL    HW122967   6.643   1.198   5.431
 7356SOL    HW222968   6.728   1.210   5.570
 7357SOL     OW22969   0.056   1.471   0.878
 7357SOL    HW122970   0.082   1.423   0.794
 7357SOL    HW222971   6.981   1.467   0.889
 7358SOL     OW22972   3.276   0.792   3.980
 7358SOL    HW122973   3.374   0.809   3.983
 7358SOL    HW222974   3.228   0.872   4.017
 7359SOL     OW22975   3.550   3.190   2.940
 7359SOL    HW122976   3.551   3.279   2.986
 7359SOL    HW222977   3.637   3.143   2.959
 7360SOL     OW22978   0.585   3.258   5.377
 7360SOL    HW122979   0.647   3.295   5.308
 7360SOL    HW222980   0.634   3.253   5.465
 7361SOL     OW22981   4.938   0.146   1.967
 7361SOL    HW122982   5.000   0.067   1.971
 7361SOL    HW222983   4.888   0.154   2.053
 7362SOL     OW22984   1.890   6.859   6.267
 7362SOL    HW122985   1.793   6.879   6.257
 7362SOL    HW222986   1.902   6.768   6.308
 7363SOL     OW22987   5.662   2.842   6.327
 7363SOL    HW122988   5.660   2.747   6.293
 7363SOL    HW222989   5.639   2.904   6.253
 7364SOL     OW22990   5.260   0.991   1.469
 7364SOL    HW122991   5.242   1.075   1.417
 7364SOL    HW222992   5.196   0.984   1.545
 7365SOL     OW22993   3.443   0.764   2.042
 7365SOL    HW122994   3.417   0.682   1.990
 7365SOL    HW222995   3.529   0.747   2.090
 7366SOL     OW22996   0.886   5.617   0.357
 7366SOL    HW122997   0.938   5.584   0.278
 7366SOL    HW222998   0.850   5.538   0.408
 7367SOL     OW22999   5.218   3.475   6.681
 7367SOL    HW123000   5.258   3.387   6.655
 7367SOL    HW223001   5.145   3.460   6.748
 7368SOL     OW23002   2.922   3.419   3.460
 7368SOL    HW123003   2.914   3.381   3.552
 7368SOL    HW223004   2.894   3.515   3.461
 7369SOL     OW23005   4.948   2.508   6.330
 7369SOL    HW123006   5.034   2.559   6.324
 7369SOL    HW223007   4.882   2.561   6.383
 7370SOL     OW23008   1.811   6.491   1.334
 7370SOL    HW123009   1.816   6.391   1.331
 7370SOL    HW223010   1.734   6.523   1.279
 7371SOL     OW23011   2.405   5.012   4.420
 7371SOL    HW123012   2.471   5.074   4.378
 7371SOL    HW223013   2.369   4.949   4.351
 7372SOL     OW23014   3.288   6.676   5.912
 7372SOL    HW123015   3.227   6.755   5.917
 7372SOL    HW223016   3.319   6.653   6.004
 7373SOL     OW23017   3.920   0.739   1.626
 7373SOL    HW123018   3.925   0.835   1.656
 7373SOL    HW223019   3.825   0.716   1.604
 7374SOL     OW23020   2.119   3.559   6.653
 7374SOL    HW123021   2.174   3.627   6.700
 7374SOL    HW223022   2.071   3.602   6.576
 7375SOL     OW23023   1.537   6.806   3.076
 7375SOL    HW123024   1.536   6.706   3.081
 7375SOL    HW223025   1.593   6.842   3.151
 7376SOL     OW23026   2.483   3.736   5.707
 7376SOL    HW123027   2.418   3.756   5.634
 7376SOL    HW223028   2.576   3.752   5.675
 7377SOL     OW23029   4.608   4.699   1.647
 7377SOL    HW123030   4.655   4.765   1.588
 7377SOL    HW223031   4.672   4.665   1.716
 7378SOL     OW23032   6.825   2.461   5.794
 7378SOL    HW123033   6.786   2.447   5.703
 7378SOL    HW223034   6.923   2.440   5.793
 7379SOL     OW23035   4.319   1.068   1.188
 7379SOL    HW123036   4.360   1.150   1.147
 7379SOL    HW223037   4.221   1.068   1.169
 7380SOL     OW23038   6.819   2.464   4.681
 7380SOL    HW123039   6.744   2.522   4.712
 7380SOL    HW223040   6.831   2.388   4.745
 7381SOL     OW23041   5.422   2.361   0.093
 7381SOL    HW123042   5.490   2.359   0.020
 7381SOL    HW223043   5.396   2.267   0.118
 7382SOL     OW23044   6.626   5.849   3.949
 7382SOL    HW123045   6.688   5.770   3.960
 7382SOL    HW223046   6.680   5.932   3.934
 7383SOL     OW23047   6.505   6.039   3.816
 7383SOL    HW123048   6.588   6.083   3.781
 7383SOL    HW223049   6.529   5.951   3.857
 7384SOL     OW23050   5.635   1.273   1.715
 7384SOL    HW123051   5.576   1.203   1.756
 7384SOL    HW223052   5.714   1.289   1.774
 7385SOL     OW23053   4.900   0.210   1.692
 7385SOL    HW123054   4.974   0.225   1.627
 7385SOL    HW223055   4.937   0.173   1.777
 7386SOL     OW23056   0.536   2.756   5.821
 7386SOL    HW123057   0.557   2.699   5.901
 7386SOL    HW223058   0.567   2.850   5.839
 7387SOL     OW23059   3.865   5.791   3.740
 7387SOL    HW123060   3.952   5.742   3.730
 7387SOL    HW223061   3.847   5.807   3.837
 7388SOL     OW23062   6.228   4.449   4.735
 7388SOL    HW123063   6.311   4.479   4.689
 7388SOL    HW223064   6.173   4.395   4.671
 7389SOL     OW23065   0.703   4.031   5.553
 7389SOL    HW123066   0.664   3.985   5.473
 7389SOL    HW223067   0.700   3.969   5.632
 7390SOL     OW23068   1.991   6.462   5.731
 7390SOL    HW123069   2.000   6.373   5.776
 7390SOL    HW223070   1.961   6.530   5.797
 7391SOL     OW23071   0.139   3.811   0.098
 7391SOL    HW123072   0.091   3.844   0.179
 7391SOL    HW223073   0.199   3.736   0.123
 7392SOL     OW23074   2.157   5.007   3.286
 7392SOL    HW123075   2.072   5.051   3.314
 7392SOL    HW223076   2.162   5.004   3.186
 7393SOL     OW23077   0.659   3.452   1.133
 7393SOL    HW123078   0.599   3.372   1.124
 7393SOL    HW223079   0.667   3.498   1.045
 7394SOL     OW23080   3.060   3.337   6.618
 7394SOL    HW123081   3.010   3.399   6.678
 7394SOL    HW223082   3.067   3.378   6.527
 7395SOL     OW23083   1.806   6.705   0.507
 7395SOL    HW123084   1.827   6.709   0.605
 7395SOL    HW223085   1.707   6.711   0.494
 7396SOL     OW23086   1.325   0.016   0.901
 7396SOL    HW123087   1.236   7.004   0.873
 7396SOL    HW223088   1.315   0.113   0.924
 7397SOL     OW23089   6.488   4.528   4.711
 7397SOL    HW123090   6.529   4.446   4.671
 7397SOL    HW223091   6.557   4.579   4.762
 7398SOL     OW23092   4.139   6.087   3.403
 7398SOL    HW123093   4.127   5.998   3.359
 7398SOL    HW223094   4.231   6.122   3.384
 7399SOL     OW23095   5.051   4.287   5.027
 7399SOL    HW123096   4.978   4.320   4.967
 7399SOL    HW223097   5.140   4.311   4.988
 7400SOL     OW23098   2.493   5.068   6.758
 7400SOL    HW123099   2.448   4.979   6.757
 7400SOL    HW223100   2.430   5.138   6.724
 7401SOL     OW23101   5.456   1.364   4.377
 7401SOL    HW123102   5.460   1.332   4.283
 7401SOL    HW223103   5.472   1.288   4.440
 7402SOL     OW23104   2.060   6.987   3.320
 7402SOL    HW123105   2.048   6.972   3.222
 7402SOL    HW223106   2.144   6.941   3.351
 7403SOL     OW23107   1.831   3.552   1.675
 7403SOL    HW123108   1.788   3.549   1.585
 7403SOL    HW223109   1.931   3.547   1.664
 7404SOL     OW23110   1.090   1.206   2.714
 7404SOL    HW123111   1.098   1.148   2.796
 7404SOL    HW223112   1.178   1.208   2.667
 7405SOL     OW23113   2.864   4.541   5.733
 7405SOL    HW123114   2.912   4.628   5.722
 7405SOL    HW223115   2.930   4.466   5.728
 7406SOL     OW23116   0.631   5.362   1.976
 7406SOL    HW123117   0.677   5.415   1.905
 7406SOL    HW223118   0.625   5.416   2.060
 7407SOL     OW23119   1.726   0.587   5.938
 7407SOL    HW123120   1.665   0.535   5.998
 7407SOL    HW223121   1.740   0.537   5.852
 7408SOL     OW23122   0.743   3.677   5.400
 7408SOL    HW123123   0.661   3.644   5.447
 7408SOL    HW223124   0.742   3.647   5.305
 7409SOL     OW23125   2.793   5.629   5.996
 7409SOL    HW123126   2.749   5.620   6.085
 7409SOL    HW223127   2.724   5.629   5.924
 7410SOL     OW23128   5.926   5.272   0.835
 7410SOL    HW123129   5.837   5.294   0.794
 7410SOL    HW223130   5.981   5.222   0.769
 7411SOL     OW23131   4.665   5.558   5.826
 7411SOL    HW123132   4.675   5.514   5.737
 7411SOL    HW223133   4.664   5.488   5.898
 7412SOL     OW23134   1.325   2.203   0.077
 7412SOL    HW123135   1.406   2.253   0.107
 7412SOL    HW223136   1.344   2.158   7.015
 7413SOL     OW23137   6.852   3.031   4.109
 7413SOL    HW123138   6.898   2.958   4.159
 7413SOL    HW223139   6.831   3.107   4.171
 7414SOL     OW23140   6.595   5.682   2.784
 7414SOL    HW123141   6.605   5.738   2.866
 7414SOL    HW223142   6.531   5.726   2.721
 7415SOL     OW23143   2.559   1.754   2.568
 7415SOL    HW123144   2.543   1.735   2.471
 7415SOL    HW223145   2.625   1.829   2.576
 7416SOL     OW23146   5.113   6.750   3.892
 7416SOL    HW123147   5.183   6.695   3.846
 7416SOL    HW223148   5.150   6.787   3.977
 7417SOL     OW23149   0.967   6.094   0.410
 7417SOL    HW123150   0.899   6.045   0.356
 7417SOL    HW223151   0.932   6.109   0.503
 7418SOL     OW23152   1.264   3.617   0.438
 7418SOL    HW123153   1.277   3.565   0.522
 7418SOL    HW223154   1.312   3.704   0.445
 7419SOL     OW23155   5.609   0.946   4.767
 7419SOL    HW123156   5.674   1.013   4.802
 7419SOL    HW223157   5.530   0.941   4.828
 7420SOL     OW23158   0.054   5.683   1.967
 7420SOL    HW123159   6.997   5.709   1.916
 7420SOL    HW223160   0.027   5.652   2.058
 7421SOL     OW23161   4.368   2.982   1.392
 7421SOL    HW123162   4.437   2.912   1.404
 7421SOL    HW223163   4.387   3.059   1.452
 7422SOL     OW23164   1.090   2.836   0.785
 7422SOL    HW123165   1.143   2.920   0.799
 7422SOL    HW223166   1.105   2.774   0.863
 7423SOL     OW23167   2.035   5.743   7.013
 7423SOL    HW123168   2.115   5.698   6.971
 7423SOL    HW223169   1.970   5.673   0.019
 7424SOL     OW23170   6.054   1.398   4.626
 7424SOL    HW123171   6.130   1.431   4.570
 7424SOL    HW223172   5.980   1.366   4.566
 7425SOL     OW23173   4.168   6.779   5.828
 7425SOL    HW123174   4.255   6.764   5.876
 7425SOL    HW223175   4.093   6.745   5.885
 7426SOL     OW23176   0.711   0.997   6.953
 7426SOL    HW123177   0.681   0.974   6.860
 7426SOL    HW223178   0.767   1.080   6.950
 7427SOL     OW23179   4.320   5.557   4.340
 7427SOL    HW123180   4.311   5.654   4.317
 7427SOL    HW223181   4.336   5.547   4.438
 7428SOL     OW23182   2.750   1.996   6.016
 7428SOL    HW123183   2.767   1.936   6.094
 7428SOL    HW223184   2.753   2.091   6.046
 7429SOL     OW23185   6.461   6.655   3.572
 7429SOL    HW123186   6.509   6.732   3.530
 7429SOL    HW223187   6.373   6.686   3.608
 7430SOL     OW23188   0.717   4.180   4.726
 7430SOL    HW123189   0.793   4.224   4.677
 7430SOL    HW223190   0.698   4.091   4.686
 7431SOL     OW23191   1.012   4.825   2.470
 7431SOL    HW123192   1.089   4.809   2.409
 7431SOL    HW223193   0.954   4.743   2.472
 7432SOL     OW23194   0.874   6.053   5.038
 7432SOL    HW123195   0.849   5.964   5.077
 7432SOL    HW223196   0.791   6.108   5.027
 7433SOL     OW23197   6.749   5.468   0.873
 7433SOL    HW123198   6.733   5.380   0.916
 7433SOL    HW223199   6.835   5.465   0.821
 7434SOL     OW23200   4.777   0.067   6.495
 7434SOL    HW123201   4.788   0.126   6.576
 7434SOL    HW223202   4.867   0.041   6.461
 7435SOL     OW23203   1.558   6.075   0.711
 7435SOL    HW123204   1.628   6.020   0.665
 7435SOL    HW223205   1.531   6.030   0.796
 7436SOL     OW23206   5.106   3.049   6.706
 7436SOL    HW123207   5.050   2.966   6.714
 7436SOL    HW223208   5.054   3.128   6.738
 7437SOL     OW23209   6.981   5.743   6.041
 7437SOL    HW123210   6.910   5.797   6.086
 7437SOL    HW223211   0.019   5.803   5.992
 7438SOL     OW23212   6.342   4.217   1.974
 7438SOL    HW123213   6.273   4.281   1.939
 7438SOL    HW223214   6.424   4.267   2.000
 7439SOL     OW23215   1.435   6.510   3.801
 7439SOL    HW123216   1.532   6.535   3.799
 7439SOL    HW223217   1.423   6.418   3.764
 7440SOL     OW23218   0.978   2.406   3.827
 7440SOL    HW123219   0.995   2.350   3.908
 7440SOL    HW223220   0.932   2.351   3.758
 7441SOL     OW23221   5.316   0.290   3.975
 7441SOL    HW123222   5.237   0.239   4.009
 7441SOL    HW223223   5.399   0.256   4.019
 7442SOL     OW23224   1.555   1.306   0.090
 7442SOL    HW123225   1.511   1.218   0.110
 7442SOL    HW223226   1.568   1.315   7.016
 7443SOL     OW23227   6.900   1.235   0.995
 7443SOL    HW123228   6.869   1.156   0.942
 7443SOL    HW223229   7.000   1.235   0.999
 7444SOL     OW23230   0.156   2.576   6.634
 7444SOL    HW123231   0.239   2.530   6.603
 7444SOL    HW223232   0.077   2.536   6.589
 7445SOL     OW23233   5.659   2.970   2.603
 7445SOL    HW123234   5.565   2.954   2.634
 7445SOL    HW223235   5.711   2.885   2.610
 7446SOL     OW23236   6.988   3.320   0.992
 7446SOL    HW123237   6.894   3.306   1.022
 7446SOL    HW223238   7.002   3.278   0.903
 7447SOL     OW23239   0.455   4.333   6.238
 7447SOL    HW123240   0.431   4.249   6.287
 7447SOL    HW223241   0.552   4.332   6.215
 7448SOL     OW23242   6.831   6.762   5.952
 7448SOL    HW123243   6.894   6.827   5.910
 7448SOL    HW223244   6.738   6.798   5.950
 7449SOL     OW23245   4.450   1.158   1.844
 7449SOL    HW123246   4.511   1.085   1.875
 7449SOL    HW223247   4.391   1.186   1.920
 7450SOL     OW23248   3.036   0.363   2.864
 7450SOL    HW123249   3.037   0.410   2.952
 7450SOL    HW223250   3.031   0.264   2.878
 7451SOL     OW23251   1.707   1.163   3.443
 7451SOL    HW123252   1.633   1.229   3.439
 7451SOL    HW223253   1.723   1.136   3.538
 7452SOL     OW23254   1.515   6.730   5.044
 7452SOL    HW123255   1.441   6.791   5.072
 7452SOL    HW223256   1.551   6.682   5.124
 7453SOL     OW23257   5.237   6.100   5.217
 7453SOL    HW123258   5.232   6.022   5.280
 7453SOL    HW223259   5.145   6.124   5.187
 7454SOL     OW23260   0.658   3.501   0.828
 7454SOL    HW123261   0.607   3.490   0.743
 7454SOL    HW223262   0.738   3.440   0.827
 7455SOL     OW23263   5.668   1.838   0.092
 7455SOL    HW123264   5.654   1.898   0.171
 7455SOL    HW223265   5.587   1.840   0.034
 7456SOL     OW23266   1.876   3.200   5.438
 7456SOL    HW123267   1.894   3.281   5.383
 7456SOL    HW223268   1.959   3.172   5.485
 7457SOL     OW23269   6.019   0.157   6.035
 7457SOL    HW123270   6.080   0.227   6.073
 7457SOL    HW223271   6.040   0.069   6.077
 7458SOL     OW23272   2.686   0.839   0.330
 7458SOL    HW123273   2.611   0.865   0.269
 7458SOL    HW223274   2.648   0.806   0.416
 7459SOL     OW23275   4.500   0.620   4.669
 7459SOL    HW123276   4.482   0.590   4.575
 7459SOL    HW223277   4.443   0.569   4.733
 7460SOL     OW23278   0.734   5.157   6.960
 7460SOL    HW123279   0.780   5.237   6.999
 7460SOL    HW223280   0.678   5.185   6.883
 7461SOL     OW23281   4.613   0.467   3.914
 7461SOL    HW123282   4.559   0.410   3.976
 7461SOL    HW223283   4.638   0.413   3.833
 7462SOL     OW23284   2.088   1.425   2.224
 7462SOL    HW123285   2.039   1.486   2.162
 7462SOL    HW223286   2.169   1.389   2.178
 7463SOL     OW23287   3.167   3.744   2.475
 7463SOL    HW123288   3.102   3.674   2.444
 7463SOL    HW223289   3.220   3.709   2.552
 7464SOL     OW23290   5.345   6.200   6.292
 7464SOL    HW123291   5.261   6.207   6.346
 7464SOL    HW223292   5.323   6.211   6.195
 7465SOL     OW23293   3.190   0.601   1.440
 7465SOL    HW123294   3.126   0.634   1.370
 7465SOL    HW223295   3.144   0.598   1.528
 7466SOL     OW23296   0.916   0.227   6.536
 7466SOL    HW123297   0.889   0.144   6.584
 7466SOL    HW223298   0.834   0.278   6.508
 7467SOL     OW23299   6.346   1.829   1.070
 7467SOL    HW123300   6.251   1.862   1.074
 7467SOL    HW223301   6.400   1.892   1.014
 7468SOL     OW23302   6.424   3.671   3.506
 7468SOL    HW123303   6.413   3.572   3.519
 7468SOL    HW223304   6.387   3.696   3.416
 7469SOL     OW23305   0.046   1.471   1.847
 7469SOL    HW123306   0.100   1.418   1.913
 7469SOL    HW223307   0.004   1.408   1.781
 7470SOL     OW23308   0.165   2.615   2.413
 7470SOL    HW123309   0.071   2.632   2.384
 7470SOL    HW223310   0.178   2.651   2.506
 7471SOL     OW23311   6.232   5.753   6.368
 7471SOL    HW123312   6.329   5.769   6.389
 7471SOL    HW223313   6.192   5.695   6.438
 7472SOL     OW23314   3.216   5.711   3.385
 7472SOL    HW123315   3.241   5.807   3.394
 7472SOL    HW223316   3.200   5.672   3.475
 7473SOL     OW23317   0.464   3.425   4.863
 7473SOL    HW123318   0.388   3.380   4.909
 7473SOL    HW223319   0.471   3.392   4.769
 7474SOL     OW23320   4.206   0.946   2.699
 7474SOL    HW123321   4.132   0.883   2.721
 7474SOL    HW223322   4.185   0.992   2.613
 7475SOL     OW23323   4.105   1.676   0.103
 7475SOL    HW123324   4.014   1.680   0.144
 7475SOL    HW223325   4.100   1.629   0.015
 7476SOL     OW23326   3.104   0.073   4.851
 7476SOL    HW123327   3.102   0.161   4.805
 7476SOL    HW223328   3.104   7.024   4.784
 7477SOL     OW23329   4.709   2.222   3.423
 7477SOL    HW123330   4.744   2.306   3.464
 7477SOL    HW223331   4.636   2.244   3.358
 7478SOL     OW23332   2.352   4.909   0.976
 7478SOL    HW123333   2.432   4.897   0.916
 7478SOL    HW223334   2.271   4.927   0.920
 7479SOL     OW23335   4.726   0.579   6.451
 7479SOL    HW123336   4.688   0.537   6.533
 7479SOL    HW223337   4.747   0.509   6.384
 7480SOL     OW23338   6.993   5.145   0.858
 7480SOL    HW123339   6.946   5.199   0.928
 7480SOL    HW223340   6.929   5.082   0.815
 7481SOL     OW23341   6.100   5.518   0.789
 7481SOL    HW123342   6.123   5.426   0.819
 7481SOL    HW223343   6.038   5.561   0.854
 7482SOL     OW23344   4.901   0.273   4.328
 7482SOL    HW123345   4.821   0.308   4.377
 7482SOL    HW223346   4.955   0.215   4.389
 7483SOL     OW23347   3.491   0.511   6.284
 7483SOL    HW123348   3.505   0.529   6.186
 7483SOL    HW223349   3.561   0.448   6.316
 7484SOL     OW23350   2.431   6.967   2.144
 7484SOL    HW123351   2.404   0.039   2.142
 7484SOL    HW223352   2.481   6.948   2.229
 7485SOL     OW23353   1.720   6.719   6.669
 7485SOL    HW123354   1.748   6.796   6.613
 7485SOL    HW223355   1.710   6.637   6.612
 7486SOL     OW23356   1.794   0.121   5.576
 7486SOL    HW123357   1.846   0.204   5.557
 7486SOL    HW223358   1.729   0.104   5.502
 7487SOL     OW23359   4.381   5.388   3.495
 7487SOL    HW123360   4.441   5.344   3.561
 7487SOL    HW223361   4.422   5.383   3.404
 7488SOL     OW23362   3.788   0.962   5.873
 7488SOL    HW123363   3.869   1.001   5.916
 7488SOL    HW223364   3.814   0.911   5.792
 7489SOL     OW23365   6.330   3.675   3.227
 7489SOL    HW123366   6.301   3.696   3.134
 7489SOL    HW223367   6.399   3.602   3.225
 7490SOL     OW23368   5.587   1.568   1.756
 7490SOL    HW123369   5.604   1.587   1.852
 7490SOL    HW223370   5.572   1.470   1.744
 7491SOL     OW23371   6.536   5.497   6.585
 7491SOL    HW123372   6.473   5.553   6.639
 7491SOL    HW223373   6.522   5.516   6.488
 7492SOL     OW23374   2.354   2.763   4.527
 7492SOL    HW123375   2.405   2.810   4.599
 7492SOL    HW223376   2.417   2.711   4.470
 7493SOL     OW23377   5.482   3.567   0.144
 7493SOL    HW123378   5.457   3.658   0.176
 7493SOL    HW223379   5.512   3.572   0.048
 7494SOL     OW23380   4.779   1.991   1.281
 7494SOL    HW123381   4.862   2.044   1.297
 7494SOL    HW223382   4.699   2.049   1.299
 7495SOL     OW23383   0.369   1.774   2.325
 7495SOL    HW123384   0.447   1.747   2.381
 7495SOL    HW223385   0.297   1.705   2.334
 7496SOL     OW23386   1.198   4.547   5.338
 7496SOL    HW123387   1.200   4.482   5.263
 7496SOL    HW223388   1.274   4.528   5.401
 7497SOL     OW23389   2.419   4.969   1.629
 7497SOL    HW123390   2.347   4.958   1.697
 7497SOL    HW223391   2.494   5.022   1.668
 7498SOL     OW23392   4.444   1.422   4.375
 7498SOL    HW123393   4.415   1.497   4.434
 7498SOL    HW223394   4.422   1.444   4.280
 7499SOL     OW23395   4.895   5.649   4.010
 7499SOL    HW123396   4.817   5.604   3.966
 7499SOL    HW223397   4.979   5.628   3.959
 7500SOL     OW23398   5.304   4.548   1.547
 7500SOL    HW123399   5.313   4.583   1.640
 7500SOL    HW223400   5.232   4.597   1.500
 7501SOL     OW23401   0.132   4.377   3.795
 7501SOL    HW123402   0.122   4.383   3.696
 7501SOL    HW223403   0.134   4.280   3.822
 7502SOL     OW23404   2.246   1.459   4.735
 7502SOL    HW123405   2.180   1.416   4.674
 7502SOL    HW223406   2.231   1.558   4.737
 7503SOL     OW23407   2.298   2.646   5.985
 7503SOL    HW123408   2.347   2.732   5.999
 7503SOL    HW223409   2.346   2.572   6.032
 7504SOL     OW23410   4.099   5.679   3.731
 7504SOL    HW123411   4.189   5.704   3.767
 7504SOL    HW223412   4.105   5.590   3.686
 7505SOL     OW23413   1.347   1.546   4.855
 7505SOL    HW123414   1.424   1.609   4.847
 7505SOL    HW223415   1.326   1.529   4.951
 7506SOL     OW23416   3.616   1.427   3.388
 7506SOL    HW123417   3.622   1.350   3.451
 7506SOL    HW223418   3.700   1.432   3.334
 7507SOL     OW23419   1.098   6.178   6.223
 7507SOL    HW123420   1.032   6.116   6.180
 7507SOL    HW223421   1.115   6.148   6.317
 7508SOL     OW23422   4.697   0.294   3.697
 7508SOL    HW123423   4.669   0.205   3.661
 7508SOL    HW223424   4.794   0.308   3.678
 7509SOL     OW23425   4.750   3.912   5.608
 7509SOL    HW123426   4.842   3.875   5.622
 7509SOL    HW223427   4.688   3.839   5.580
 7510SOL     OW23428   3.673   4.223   4.784
 7510SOL    HW123429   3.611   4.284   4.833
 7510SOL    HW223430   3.737   4.182   4.848
 7511SOL     OW23431   1.431   0.928   2.387
 7511SOL    HW123432   1.404   0.841   2.346
 7511SOL    HW223433   1.350   0.985   2.402
 7512SOL     OW23434   2.111   2.831   2.145
 7512SOL    HW123435   2.138   2.914   2.194
 7512SOL    HW223436   2.043   2.853   2.076
 7513SOL     OW23437   1.425   2.895   6.722
 7513SOL    HW123438   1.397   2.990   6.711
 7513SOL    HW223439   1.344   2.836   6.725
 7514SOL     OW23440   2.770   5.959   3.181
 7514SOL    HW123441   2.839   5.890   3.202
 7514SOL    HW223442   2.722   5.934   3.097
 7515SOL     OW23443   6.061   5.585   2.702
 7515SOL    HW123444   6.048   5.524   2.780
 7515SOL    HW223445   6.005   5.553   2.625
 7516SOL     OW23446   0.724   0.903   2.916
 7516SOL    HW123447   0.763   0.908   3.008
 7516SOL    HW223448   0.638   0.954   2.913
 7517SOL     OW23449   0.378   3.820   1.641
 7517SOL    HW123450   0.367   3.834   1.739
 7517SOL    HW223451   0.292   3.841   1.594
 7518SOL     OW23452   4.681   5.550   3.871
 7518SOL    HW123453   4.735   5.570   3.789
 7518SOL    HW223454   4.655   5.454   3.871
 7519SOL     OW23455   2.353   5.607   4.130
 7519SOL    HW123456   2.450   5.631   4.136
 7519SOL    HW223457   2.326   5.604   4.034
 7520SOL     OW23458   2.316   7.010   4.903
 7520SOL    HW123459   2.248   0.023   4.839
 7520SOL    HW223460   2.346   6.921   4.869
 7521SOL     OW23461   5.015   4.379   5.923
 7521SOL    HW123462   4.973   4.375   5.833
 7521SOL    HW223463   5.108   4.415   5.916
 7522SOL     OW23464   1.749   1.000   1.874
 7522SOL    HW123465   1.843   0.981   1.845
 7522SOL    HW223466   1.751   1.057   1.956
 7523SOL     OW23467   6.208   6.517   6.562
 7523SOL    HW123468   6.143   6.533   6.637
 7523SOL    HW223469   6.243   6.605   6.529
 7524SOL     OW23470   6.488   1.586   4.500
 7524SOL    HW123471   6.427   1.646   4.550
 7524SOL    HW223472   6.579   1.626   4.496
 7525SOL     OW23473   1.733   6.787   1.150
 7525SOL    HW123474   1.715   6.883   1.172
 7525SOL    HW223475   1.654   6.731   1.176
 7526SOL     OW23476   3.520   3.078   5.191
 7526SOL    HW123477   3.545   3.150   5.127
 7526SOL    HW223478   3.531   2.989   5.148
 7527SOL     OW23479   5.551   4.566   2.671
 7527SOL    HW123480   5.592   4.649   2.709
 7527SOL    HW223481   5.502   4.518   2.743
 7528SOL     OW23482   6.694   3.979   6.260
 7528SOL    HW123483   6.734   3.919   6.329
 7528SOL    HW223484   6.623   3.929   6.210
 7529SOL     OW23485   3.220   0.728   5.964
 7529SOL    HW123486   3.175   0.818   5.967
 7529SOL    HW223487   3.210   0.689   5.873
 7530SOL     OW23488   0.598   3.548   2.388
 7530SOL    HW123489   0.554   3.474   2.438
 7530SOL    HW223490   0.609   3.627   2.448
 7531SOL     OW23491   3.539   2.010   3.208
 7531SOL    HW123492   3.451   2.057   3.209
 7531SOL    HW223493   3.559   1.976   3.300
 7532SOL     OW23494   4.998   4.974   2.511
 7532SOL    HW123495   5.085   4.926   2.498
 7532SOL    HW223496   4.959   4.950   2.600
 7533SOL     OW23497   3.634   0.363   4.654
 7533SOL    HW123498   3.667   0.433   4.591
 7533SOL    HW223499   3.663   0.385   4.747
 7534SOL     OW23500   4.812   0.080   4.654
 7534SOL    HW123501   4.872   0.034   4.720
 7534SOL    HW223502   4.746   0.014   4.618
 7535SOL     OW23503   3.297   3.550   6.483
 7535SOL    HW123504   3.273   3.583   6.574
 7535SOL    HW223505   3.216   3.511   6.439
 7536SOL     OW23506   3.572   6.141   4.112
 7536SOL    HW123507   3.576   6.189   4.024
 7536SOL    HW223508   3.487   6.164   4.159
 7537SOL     OW23509   2.263   4.783   5.874
 7537SOL    HW123510   2.269   4.697   5.923
 7537SOL    HW223511   2.303   4.856   5.929
 7538SOL     OW23512   3.442   3.336   2.443
 7538SOL    HW123513   3.519   3.389   2.409
 7538SOL    HW223514   3.441   3.338   2.543
 7539SOL     OW23515   2.012   2.807   4.807
 7539SOL    HW123516   2.031   2.825   4.711
 7539SOL    HW223517   1.945   2.874   4.841
 7540SOL     OW23518   1.952   1.479   0.586
 7540SOL    HW123519   1.910   1.569   0.572
 7540SOL    HW223520   2.013   1.482   0.666
 7541SOL     OW23521   6.741   2.735   5.856
 7541SOL    HW123522   6.821   2.680   5.834
 7541SOL    HW223523   6.733   2.745   5.955
 7542SOL     OW23524   1.927   6.895   6.789
 7542SOL    HW123525   1.934   6.857   6.696
 7542SOL    HW223526   1.857   6.846   6.840
 7543SOL     OW23527   3.815   3.104   6.857
 7543SOL    HW123528   3.832   3.122   6.760
 7543SOL    HW223529   3.741   3.037   6.866
 7544SOL     OW23530   2.072   2.274   2.988
 7544SOL    HW123531   2.167   2.283   3.016
 7544SOL    HW223532   2.036   2.363   2.959
 7545SOL     OW23533   5.145   6.449   4.292
 7545SOL    HW123534   5.097   6.414   4.213
 7545SOL    HW223535   5.227   6.499   4.263
 7546SOL     OW23536   5.126   0.639   6.520
 7546SOL    HW123537   5.108   0.725   6.566
 7546SOL    HW223538   5.058   0.571   6.548
 7547SOL     OW23539   3.360   0.157   0.358
 7547SOL    HW123540   3.377   0.238   0.303
 7547SOL    HW223541   3.334   0.183   0.451
 7548SOL     OW23542   1.315   2.616   1.216
 7548SOL    HW123543   1.393   2.674   1.190
 7548SOL    HW223544   1.316   2.603   1.315
 7549SOL     OW23545   6.329   2.315   2.126
 7549SOL    HW123546   6.266   2.256   2.075
 7549SOL    HW223547   6.303   2.317   2.222
 7550SOL     OW23548   1.977   5.438   1.090
 7550SOL    HW123549   1.947   5.371   1.022
 7550SOL    HW223550   1.897   5.482   1.131
 7551SOL     OW23551   4.693   3.746   6.454
 7551SOL    HW123552   4.636   3.819   6.416
 7551SOL    HW223553   4.749   3.707   6.381
 7552SOL     OW23554   3.767   5.290   3.914
 7552SOL    HW123555   3.686   5.239   3.943
 7552SOL    HW223556   3.762   5.384   3.948
 7553SOL     OW23557   4.311   4.679   5.742
 7553SOL    HW123558   4.354   4.702   5.829
 7553SOL    HW223559   4.357   4.599   5.703
 7554SOL     OW23560   6.332   1.015   1.107
 7554SOL    HW123561   6.328   1.037   1.204
 7554SOL    HW223562   6.423   0.979   1.084
 7555SOL     OW23563   0.882   5.761   5.444
 7555SOL    HW123564   0.978   5.732   5.444
 7555SOL    HW223565   0.859   5.799   5.355
 7556SOL     OW23566   0.256   3.154   4.325
 7556SOL    HW123567   0.344   3.197   4.347
 7556SOL    HW223568   0.272   3.072   4.269
 7557SOL     OW23569   4.550   3.812   0.086
 7557SOL    HW123570   4.562   3.886   0.020
 7557SOL    HW223571   4.596   3.730   0.052
 7558SOL     OW23572   1.476   3.442   3.871
 7558SOL    HW123573   1.549   3.463   3.806
 7558SOL    HW223574   1.470   3.342   3.883
 7559SOL     OW23575   0.678   4.564   1.070
 7559SOL    HW123576   0.770   4.601   1.060
 7559SOL    HW223577   0.611   4.634   1.043
 7560SOL     OW23578   4.418   6.743   6.702
 7560SOL    HW123579   4.397   6.837   6.676
 7560SOL    HW223580   4.385   6.726   6.795
 7561SOL     OW23581   0.532   2.908   1.171
 7561SOL    HW123582   0.451   2.953   1.209
 7561SOL    HW223583   0.564   2.958   1.091
 7562SOL     OW23584   4.753   5.455   5.297
 7562SOL    HW123585   4.754   5.537   5.240
 7562SOL    HW223586   4.677   5.396   5.269
 7563SOL     OW23587   2.092   1.012   2.500
 7563SOL    HW123588   2.071   0.992   2.404
 7563SOL    HW223589   2.021   0.973   2.559
 7564SOL     OW23590   4.936   6.254   4.060
 7564SOL    HW123591   4.853   6.284   4.109
 7564SOL    HW223592   4.949   6.156   4.074
 7565SOL     OW23593   4.674   4.496   0.896
 7565SOL    HW123594   4.755   4.446   0.867
 7565SOL    HW223595   4.606   4.431   0.932
 7566SOL     OW23596   1.550   6.312   4.927
 7566SOL    HW123597   1.629   6.371   4.908
 7566SOL    HW223598   1.501   6.346   5.007
 7567SOL     OW23599   2.947   3.413   0.371
 7567SOL    HW123600   2.855   3.443   0.395
 7567SOL    HW223601   3.013   3.481   0.404
 7568SOL     OW23602   5.189   4.392   3.098
 7568SOL    HW123603   5.257   4.366   3.029
 7568SOL    HW223604   5.224   4.369   3.189
 7569SOL     OW23605   4.196   0.134   0.431
 7569SOL    HW123606   4.122   0.140   0.364
 7569SOL    HW223607   4.229   0.040   0.437
 7570SOL     OW23608   6.574   4.829   4.777
 7570SOL    HW123609   6.528   4.824   4.689
 7570SOL    HW223610   6.650   4.763   4.780
 7571SOL     OW23611   5.297   4.016   2.204
 7571SOL    HW123612   5.376   3.997   2.145
 7571SOL    HW223613   5.214   3.983   2.160
 7572SOL     OW23614   2.331   1.657   4.502
 7572SOL    HW123615   2.421   1.696   4.489
 7572SOL    HW223616   2.290   1.695   4.586
 7573SOL     OW23617   2.347   5.834   5.008
 7573SOL    HW123618   2.261   5.838   5.060
 7573SOL    HW223619   2.337   5.888   4.924
 7574SOL     OW23620   5.338   6.372   2.600
 7574SOL    HW123621   5.373   6.385   2.693
 7574SOL    HW223622   5.414   6.358   2.537
 7575SOL     OW23623   4.338   2.321   4.902
 7575SOL    HW123624   4.299   2.231   4.883
 7575SOL    HW223625   4.282   2.369   4.970
 7576SOL     OW23626   6.008   3.060   1.119
 7576SOL    HW123627   6.060   3.129   1.069
 7576SOL    HW223628   6.071   2.998   1.167
 7577SOL     OW23629   4.531   0.349   5.633
 7577SOL    HW123630   4.612   0.370   5.688
 7577SOL    HW223631   4.557   0.288   5.558
 7578SOL     OW23632   2.569   4.654   4.275
 7578SOL    HW123633   2.523   4.580   4.323
 7578SOL    HW223634   2.503   4.725   4.252
 7579SOL     OW23635   3.721   1.336   2.914
 7579SOL    HW123636   3.672   1.261   2.960
 7579SOL    HW223637   3.658   1.386   2.854
 7580SOL     OW23638   1.645   4.116   3.308
 7580SOL    HW123639   1.729   4.061   3.312
 7580SOL    HW223640   1.635   4.167   3.393
 7581SOL     OW23641   5.834   0.568   1.088
 7581SOL    HW123642   5.901   0.577   1.014
 7581SOL    HW223643   5.753   0.622   1.066
 7582SOL     OW23644   2.699   1.162   1.143
 7582SOL    HW123645   2.777   1.164   1.081
 7582SOL    HW223646   2.670   1.256   1.163
 7583SOL     OW23647   0.293   3.701   2.538
 7583SOL    HW123648   0.292   3.665   2.445
 7583SOL    HW223649   0.219   3.766   2.549
 7584SOL     OW23650   2.180   0.975   1.587
 7584SOL    HW123651   2.244   0.898   1.586
 7584SOL    HW223652   2.103   0.955   1.527
 7585SOL     OW23653   1.584   4.680   5.797
 7585SOL    HW123654   1.655   4.751   5.800
 7585SOL    HW223655   1.494   4.723   5.810
 7586SOL     OW23656   2.601   1.065   1.993
 7586SOL    HW123657   2.639   1.026   1.909
 7586SOL    HW223658   2.504   1.045   1.998
 7587SOL     OW23659   1.676   1.285   6.338
 7587SOL    HW123660   1.579   1.259   6.342
 7587SOL    HW223661   1.725   1.221   6.279
 7588SOL     OW23662   6.974   4.242   1.333
 7588SOL    HW123663   6.949   4.271   1.240
 7588SOL    HW223664   7.000   4.146   1.332
 7589SOL     OW23665   5.772   6.137   0.488
 7589SOL    HW123666   5.861   6.107   0.454
 7589SOL    HW223667   5.760   6.235   0.469
 7590SOL     OW23668   1.829   1.141   6.152
 7590SOL    HW123669   1.895   1.089   6.207
 7590SOL    HW223670   1.872   1.169   6.066
 7591SOL     OW23671   6.664   5.055   0.277
 7591SOL    HW123672   6.755   5.093   0.288
 7591SOL    HW223673   6.644   4.995   0.355
 7592SOL     OW23674   5.479   5.386   0.277
 7592SOL    HW123675   5.465   5.429   0.188
 7592SOL    HW223676   5.455   5.451   0.349
 7593SOL     OW23677   5.965   2.446   6.064
 7593SOL    HW123678   5.965   2.364   6.120
 7593SOL    HW223679   6.028   2.513   6.103
 7594SOL     OW23680   1.536   5.998   4.080
 7594SOL    HW123681   1.466   5.973   4.013
 7594SOL    HW223682   1.523   5.944   4.163
 7595SOL     OW23683   6.312   2.900   0.284
 7595SOL    HW123684   6.296   2.989   0.241
 7595SOL    HW223685   6.398   2.862   0.249
 7596SOL     OW23686   5.150   4.278   2.000
 7596SOL    HW123687   5.136   4.377   2.001
 7596SOL    HW223688   5.231   4.255   2.055
 7597SOL     OW23689   3.044   5.365   1.650
 7597SOL    HW123690   2.982   5.425   1.702
 7597SOL    HW223691   2.997   5.280   1.628
 7598SOL     OW23692   6.419   1.134   3.389
 7598SOL    HW123693   6.357   1.170   3.319
 7598SOL    HW223694   6.425   1.034   3.380
 7599SOL     OW23695   6.609   2.307   2.136
 7599SOL    HW123696   6.678   2.286   2.068
 7599SOL    HW223697   6.519   2.310   2.092
 7600SOL     OW23698   1.651   1.829   1.553
 7600SOL    HW123699   1.691   1.916   1.522
 7600SOL    HW223700   1.707   1.793   1.628
 7601SOL     OW23701   2.673   6.540   5.389
 7601SOL    HW123702   2.769   6.565   5.405
 7601SOL    HW223703   2.642   6.581   5.303
 7602SOL     OW23704   1.959   3.596   4.864
 7602SOL    HW123705   1.864   3.600   4.894
 7602SOL    HW223706   1.971   3.518   4.803
 7603SOL     OW23707   0.789   0.276   1.780
 7603SOL    HW123708   0.698   0.317   1.774
 7603SOL    HW223709   0.823   0.257   1.688
 7604SOL     OW23710   4.994   6.456   6.290
 7604SOL    HW123711   5.066   6.429   6.354
 7604SOL    HW223712   4.927   6.383   6.283
 7605SOL     OW23713   5.825   4.256   6.193
 7605SOL    HW123714   5.804   4.300   6.105
 7605SOL    HW223715   5.743   4.210   6.227
 7606SOL     OW23716   5.787   2.103   2.351
 7606SOL    HW123717   5.808   2.048   2.271
 7606SOL    HW223718   5.872   2.143   2.387
 7607SOL     OW23719   5.129   6.695   6.562
 7607SOL    HW123720   5.065   6.696   6.485
 7607SOL    HW223721   5.078   6.704   6.648
 7608SOL     OW23722   3.353   2.885   3.531
 7608SOL    HW123723   3.382   2.864   3.438
 7608SOL    HW223724   3.260   2.921   3.530
 7609SOL     OW23725   1.359   2.957   4.462
 7609SOL    HW123726   1.405   2.936   4.376
 7609SOL    HW223727   1.400   3.038   4.503
 7610SOL     OW23728   5.281   7.002   1.364
 7610SOL    HW123729   5.303   6.947   1.445
 7610SOL    HW223730   5.193   6.973   1.327
 7611SOL     OW23731   1.983   1.942   1.244
 7611SOL    HW123732   2.004   1.848   1.269
 7611SOL    HW223733   1.887   1.948   1.215
 7612SOL     OW23734   4.241   1.462   2.978
 7612SOL    HW123735   4.185   1.478   2.896
 7612SOL    HW223736   4.308   1.536   2.987
 7613SOL     OW23737   4.714   1.082   2.215
 7613SOL    HW123738   4.633   1.037   2.251
 7613SOL    HW223739   4.709   1.181   2.232
 7614SOL     OW23740   3.956   2.054   0.433
 7614SOL    HW123741   3.889   1.981   0.417
 7614SOL    HW223742   3.927   2.109   0.511
 7615SOL     OW23743   3.478   5.062   5.656
 7615SOL    HW123744   3.501   5.152   5.692
 7615SOL    HW223745   3.552   5.030   5.597
 7616SOL     OW23746   6.214   4.643   4.012
 7616SOL    HW123747   6.164   4.705   4.073
 7616SOL    HW223748   6.184   4.549   4.030
 7617SOL     OW23749   3.403   6.038   2.379
 7617SOL    HW123750   3.366   6.103   2.446
 7617SOL    HW223751   3.333   5.970   2.358
 7618SOL     OW23752   1.561   2.795   0.698
 7618SOL    HW123753   1.561   2.697   0.679
 7618SOL    HW223754   1.574   2.810   0.796
 7619SOL     OW23755   5.899   3.559   5.421
 7619SOL    HW123756   5.876   3.498   5.497
 7619SOL    HW223757   5.922   3.650   5.457
 7620SOL     OW23758   3.162   6.673   1.930
 7620SOL    HW123759   3.157   6.706   1.836
 7620SOL    HW223760   3.215   6.588   1.934
 7621SOL     OW23761   2.500   1.453   2.005
 7621SOL    HW123762   2.508   1.552   2.002
 7621SOL    HW223763   2.591   1.412   2.013
 7622SOL     OW23764   4.641   2.267   0.405
 7622SOL    HW123765   4.553   2.260   0.451
 7622SOL    HW223766   4.636   2.222   0.316
 7623SOL     OW23767   5.114   0.592   5.565
 7623SOL    HW123768   5.040   0.529   5.544
 7623SOL    HW223769   5.172   0.552   5.637
 7624SOL     OW23770   0.337   0.400   3.326
 7624SOL    HW123771   0.258   0.448   3.364
 7624SOL    HW223772   0.421   0.447   3.353
 7625SOL     OW23773   4.517   0.388   1.554
 7625SOL    HW123774   4.616   0.398   1.563
 7625SOL    HW223775   4.472   0.472   1.586
 7626SOL     OW23776   1.556   5.329   4.705
 7626SOL    HW123777   1.611   5.256   4.743
 7626SOL    HW223778   1.615   5.393   4.655
 7627SOL     OW23779   6.960   2.553   0.157
 7627SOL    HW123780   6.913   2.469   0.130
 7627SOL    HW223781   6.959   2.561   0.256
 7628SOL     OW23782   3.361   1.754   1.186
 7628SOL    HW123783   3.296   1.798   1.124
 7628SOL    HW223784   3.454   1.770   1.152
 7629SOL     OW23785   6.291   5.482   3.612
 7629SOL    HW123786   6.264   5.537   3.691
 7629SOL    HW223787   6.357   5.533   3.557
 7630SOL     OW23788   6.364   0.716   2.443
 7630SOL    HW123789   6.456   0.722   2.404
 7630SOL    HW223790   6.368   0.745   2.539
 7631SOL     OW23791   0.524   2.153   3.661
 7631SOL    HW123792   0.555   2.087   3.729
 7631SOL    HW223793   0.529   2.246   3.698
 7632SOL     OW23794   4.493   1.586   6.889
 7632SOL    HW123795   4.570   1.630   6.935
 7632SOL    HW223796   4.504   1.594   6.790
 7633SOL     OW23797   5.360   4.184   6.690
 7633SOL    HW123798   5.363   4.251   6.764
 7633SOL    HW223799   5.383   4.094   6.726
 7634SOL     OW23800   0.950   1.665   2.357
 7634SOL    HW123801   0.979   1.645   2.263
 7634SOL    HW223802   0.861   1.623   2.373
 7635SOL     OW23803   2.910   4.653   5.423
 7635SOL    HW123804   2.930   4.605   5.338
 7635SOL    HW223805   2.813   4.643   5.445
 7636SOL     OW23806   1.315   0.171   3.973
 7636SOL    HW123807   1.391   0.158   4.037
 7636SOL    HW223808   1.263   0.252   3.998
 7637SOL     OW23809   1.845   5.988   4.201
 7637SOL    HW123810   1.873   5.894   4.183
 7637SOL    HW223811   1.773   6.015   4.137
 7638SOL     OW23812   4.854   4.933   2.105
 7638SOL    HW123813   4.862   4.908   2.009
 7638SOL    HW223814   4.767   4.980   2.121
 7639SOL     OW23815   0.789   1.785   4.524
 7639SOL    HW123816   0.718   1.758   4.590
 7639SOL    HW223817   0.868   1.725   4.534
 7640SOL     OW23818   2.656   2.415   6.781
 7640SOL    HW123819   2.709   2.337   6.750
 7640SOL    HW223820   2.573   2.424   6.725
 7641SOL     OW23821   6.353   3.528   2.526
 7641SOL    HW123822   6.360   3.559   2.431
 7641SOL    HW223823   6.445   3.521   2.565
 7642SOL     OW23824   2.809   1.709   2.901
 7642SOL    HW123825   2.806   1.648   2.821
 7642SOL    HW223826   2.739   1.780   2.891
 7643SOL     OW23827   4.846   2.904   2.963
 7643SOL    HW123828   4.769   2.916   3.025
 7643SOL    HW223829   4.927   2.949   3.000
 7644SOL     OW23830   0.246   3.554   3.268
 7644SOL    HW123831   0.276   3.460   3.287
 7644SOL    HW223832   0.264   3.576   3.172
 7645SOL     OW23833   5.013   3.984   6.582
 7645SOL    HW123834   5.025   3.961   6.679
 7645SOL    HW223835   5.103   4.003   6.541
 7646SOL     OW23836   1.653   1.968   2.341
 7646SOL    HW123837   1.590   1.901   2.380
 7646SOL    HW223838   1.734   1.974   2.398
 7647SOL     OW23839   2.240   4.165   1.589
 7647SOL    HW123840   2.256   4.174   1.491
 7647SOL    HW223841   2.327   4.150   1.635
 7648SOL     OW23842   4.286   0.558   3.157
 7648SOL    HW123843   4.385   0.549   3.156
 7648SOL    HW223844   4.254   0.585   3.066
 7649SOL     OW23845   3.028   0.903   1.376
 7649SOL    HW123846   2.954   0.881   1.439
 7649SOL    HW223847   3.088   0.971   1.417
 7650SOL     OW23848   6.366   4.933   2.689
 7650SOL    HW123849   6.400   5.020   2.722
 7650SOL    HW223850   6.390   4.860   2.753
 7651SOL     OW23851   3.879   1.456   6.249
 7651SOL    HW123852   3.785   1.454   6.216
 7651SOL    HW223853   3.897   1.545   6.291
 7652SOL     OW23854   1.406   2.844   2.523
 7652SOL    HW123855   1.405   2.839   2.623
 7652SOL    HW223856   1.316   2.818   2.488
 7653SOL     OW23857   3.117   2.179   1.083
 7653SOL    HW123858   3.134   2.207   1.178
 7653SOL    HW223859   3.205   2.164   1.037
 7654SOL     OW23860   4.897   3.703   3.530
 7654SOL    HW123861   4.935   3.611   3.542
 7654SOL    HW223862   4.867   3.738   3.619
 7655SOL     OW23863   4.439   6.435   5.643
 7655SOL    HW123864   4.359   6.491   5.624
 7655SOL    HW223865   4.514   6.461   5.582
 7656SOL     OW23866   1.013   6.332   4.833
 7656SOL    HW123867   1.012   6.235   4.806
 7656SOL    HW223868   1.071   6.343   4.913
 7657SOL     OW23869   4.353   1.388   4.112
 7657SOL    HW123870   4.426   1.394   4.044
 7657SOL    HW223871   4.305   1.301   4.102
 7658SOL     OW23872   3.973   0.444   5.950
 7658SOL    HW123873   4.045   0.495   5.902
 7658SOL    HW223874   4.014   0.370   6.002
 7659SOL     OW23875   5.644   0.303   1.095
 7659SOL    HW123876   5.712   0.231   1.105
 7659SOL    HW223877   5.690   0.391   1.086
 7660SOL     OW23878   5.894   4.749   4.576
 7660SOL    HW123879   5.985   4.744   4.616
 7660SOL    HW223880   5.882   4.674   4.511
 7661SOL     OW23881   5.806   3.114   3.311
 7661SOL    HW123882   5.711   3.134   3.287
 7661SOL    HW223883   5.809   3.034   3.372
 7662SOL     OW23884   6.961   5.368   2.074
 7662SOL    HW123885   0.004   5.360   2.001
 7662SOL    HW223886   6.871   5.387   2.035
 7663SOL     OW23887   0.140   5.552   0.564
 7663SOL    HW123888   0.155   5.648   0.538
 7663SOL    HW223889   0.078   5.509   0.498
 7664SOL     OW23890   2.324   5.382   3.823
 7664SOL    HW123891   2.320   5.464   3.881
 7664SOL    HW223892   2.309   5.407   3.728
 7665SOL     OW23893   2.827   6.719   4.930
 7665SOL    HW123894   2.921   6.740   4.901
 7665SOL    HW223895   2.802   6.777   5.007
 7666SOL     OW23896   0.761   0.905   1.076
 7666SOL    HW123897   0.740   0.992   1.030
 7666SOL    HW223898   0.855   0.879   1.057
 7667SOL     OW23899   4.664   5.686   6.484
 7667SOL    HW123900   4.565   5.691   6.495
 7667SOL    HW223901   4.687   5.607   6.427
 7668SOL     OW23902   3.336   3.763   1.142
 7668SOL    HW123903   3.356   3.799   1.233
 7668SOL    HW223904   3.282   3.680   1.151
 7669SOL     OW23905   4.747   6.330   4.233
 7669SOL    HW123906   4.670   6.282   4.191
 7669SOL    HW223907   4.740   6.428   4.214
 7670SOL     OW23908   1.847   4.773   0.855
 7670SOL    HW123909   1.824   4.694   0.799
 7670SOL    HW223910   1.899   4.743   0.935
 7671SOL     OW23911   5.850   2.347   4.789
 7671SOL    HW123912   5.945   2.349   4.761
 7671SOL    HW223913   5.792   2.322   4.711
 7672SOL     OW23914   5.245   1.084   2.713
 7672SOL    HW123915   5.267   1.126   2.625
 7672SOL    HW223916   5.323   1.030   2.745
 7673SOL     OW23917   0.831   4.868   1.373
 7673SOL    HW123918   0.868   4.909   1.456
 7673SOL    HW223919   0.735   4.843   1.387
 7674SOL     OW23920   5.901   0.876   4.941
 7674SOL    HW123921   5.990   0.916   4.962
 7674SOL    HW223922   5.863   0.834   5.024
 7675SOL     OW23923   4.491   6.298   3.654
 7675SOL    HW123924   4.535   6.314   3.566
 7675SOL    HW223925   4.561   6.296   3.726
 7676SOL     OW23926   1.756   7.009   0.938
 7676SOL    HW123927   1.680   0.047   0.923
 7676SOL    HW223928   1.725   6.929   0.989
 7677SOL     OW23929   2.216   2.862   2.724
 7677SOL    HW123930   2.182   2.947   2.765
 7677SOL    HW223931   2.245   2.881   2.629
 7678SOL     OW23932   6.029   6.931   0.372
 7678SOL    HW123933   6.012   6.834   0.384
 7678SOL    HW223934   5.950   6.974   0.329
 7679SOL     OW23935   1.128   5.269   5.356
 7679SOL    HW123936   1.162   5.227   5.440
 7679SOL    HW223937   1.181   5.351   5.336
 7680SOL     OW23938   4.284   2.298   6.949
 7680SOL    HW123939   4.215   2.357   6.991
 7680SOL    HW223940   4.375   2.335   6.966
 7681SOL     OW23941   2.753   1.709   6.938
 7681SOL    HW123942   2.775   1.612   6.933
 7681SOL    HW223943   2.696   1.726   7.018
 7682SOL     OW23944   3.612   0.029   1.538
 7682SOL    HW123945   3.524   0.043   1.492
 7682SOL    HW223946   3.604   6.974   1.599
 7683SOL     OW23947   5.379   1.890   3.244
 7683SOL    HW123948   5.372   1.828   3.321
 7683SOL    HW223949   5.451   1.857   3.182
 7684SOL     OW23950   4.369   2.048   6.433
 7684SOL    HW123951   4.373   2.046   6.333
 7684SOL    HW223952   4.283   2.091   6.462
 7685SOL     OW23953   3.428   2.954   1.014
 7685SOL    HW123954   3.414   2.891   1.091
 7685SOL    HW223955   3.371   2.926   0.937
 7686SOL     OW23956   3.573   0.071   3.960
 7686SOL    HW123957   3.495   0.012   3.981
 7686SOL    HW223958   3.541   0.164   3.946
 7687SOL     OW23959   4.717   5.005   5.527
 7687SOL    HW123960   4.767   4.936   5.475
 7687SOL    HW223961   4.639   5.038   5.473
 7688SOL     OW23962   6.859   6.212   4.269
 7688SOL    HW123963   6.794   6.153   4.220
 7688SOL    HW223964   6.952   6.188   4.241
 7689SOL     OW23965   4.021   6.341   4.834
 7689SOL    HW123966   4.026   6.413   4.765
 7689SOL    HW223967   3.935   6.291   4.824
 7690SOL     OW23968   0.224   5.656   3.289
 7690SOL    HW123969   0.321   5.641   3.308
 7690SOL    HW223970   0.210   5.661   3.190
 7691SOL     OW23971   4.903   3.541   4.509
 7691SOL    HW123972   4.876   3.491   4.427
 7691SOL    HW223973   4.912   3.477   4.585
 7692SOL     OW23974   2.476   6.644   1.956
 7692SOL    HW123975   2.377   6.660   1.960
 7692SOL    HW223976   2.516   6.702   1.885
 7693SOL     OW23977   5.176   1.783   6.780
 7693SOL    HW123978   5.097   1.839   6.758
 7693SOL    HW223979   5.257   1.818   6.732
 7694SOL     OW23980   0.020   5.248   4.346
 7694SOL    HW123981   0.021   5.150   4.327
 7694SOL    HW223982   0.098   5.271   4.405
 7695SOL     OW23983   4.112   0.704   0.325
 7695SOL    HW123984   4.069   0.653   0.251
 7695SOL    HW223985   4.117   0.647   0.407
 7696SOL     OW23986   0.565   3.222   5.766
 7696SOL    HW123987   0.637   3.274   5.721
 7696SOL    HW223988   0.527   3.156   5.702
 7697SOL     OW23989   3.768   1.751   1.965
 7697SOL    HW123990   3.736   1.819   2.031
 7697SOL    HW223991   3.699   1.738   1.894
 7698SOL     OW23992   0.136   3.287   5.655
 7698SOL    HW123993   0.065   3.327   5.713
 7698SOL    HW223994   0.142   3.338   5.569
 7699SOL     OW23995   2.444   4.802   6.749
 7699SOL    HW123996   2.367   4.805   6.813
 7699SOL    HW223997   2.525   4.770   6.797
 7700SOL     OW23998   5.011   6.427   4.679
 7700SOL    HW123999   4.978   6.477   4.760
 7700SOL    HW224000   4.934   6.403   4.621
 7701SOL     OW24001   5.845   2.008   4.638
 7701SOL    HW124002   5.901   2.018   4.720
 7701SOL    HW224003   5.793   2.093   4.623
 7702SOL     OW24004   2.331   6.559   6.248
 7702SOL    HW124005   2.262   6.519   6.308
 7702SOL    HW224006   2.294   6.641   6.203
 7703SOL     OW24007   0.287   1.539   6.477
 7703SOL    HW124008   0.224   1.530   6.399
 7703SOL    HW224009   0.379   1.512   6.449
 7704SOL     OW24010   4.599   4.100   0.103
 7704SOL    HW124011   4.521   4.123   0.161
 7704SOL    HW224012   4.601   4.161   0.024
 7705SOL     OW24013   3.129   5.235   5.033
 7705SOL    HW124014   3.165   5.328   5.022
 7705SOL    HW224015   3.095   5.202   4.945
 7706SOL     OW24016   0.019   1.032   4.702
 7706SOL    HW124017   0.070   1.109   4.740
 7706SOL    HW224018   0.077   0.982   4.638
 7707SOL     OW24019   0.438   5.051   6.040
 7707SOL    HW124020   0.410   5.006   6.124
 7707SOL    HW224021   0.440   5.150   6.054
 7708SOL     OW24022   4.282   6.556   4.436
 7708SOL    HW124023   4.185   6.554   4.458
 7708SOL    HW224024   4.309   6.468   4.398
 7709SOL     OW24025   3.727   2.010   2.155
 7709SOL    HW124026   3.654   2.052   2.101
 7709SOL    HW224027   3.809   2.067   2.152
 7710SOL     OW24028   2.253   1.703   6.897
 7710SOL    HW124029   2.227   1.672   6.988
 7710SOL    HW224030   2.183   1.766   6.862
 7711SOL     OW24031   5.717   6.506   6.364
 7711SOL    HW124032   5.810   6.509   6.326
 7711SOL    HW224033   5.684   6.411   6.362
 7712SOL     OW24034   5.191   5.580   1.464
 7712SOL    HW124035   5.186   5.590   1.365
 7712SOL    HW224036   5.099   5.565   1.501
 7713SOL     OW24037   1.579   4.676   6.593
 7713SOL    HW124038   1.587   4.719   6.683
 7713SOL    HW224039   1.547   4.743   6.527
 7714SOL     OW24040   5.542   4.338   3.877
 7714SOL    HW124041   5.451   4.371   3.901
 7714SOL    HW224042   5.611   4.390   3.928
 7715SOL     OW24043   4.625   1.225   0.948
 7715SOL    HW124044   4.685   1.288   0.899
 7715SOL    HW224045   4.564   1.277   1.008
 7716SOL     OW24046   4.504   2.042   3.117
 7716SOL    HW124047   4.543   2.132   3.095
 7716SOL    HW224048   4.576   1.981   3.150
 7717SOL     OW24049   3.168   1.407   6.205
 7717SOL    HW124050   3.193   1.503   6.195
 7717SOL    HW224051   3.219   1.352   6.139
 7718SOL     OW24052   2.975   6.028   4.001
 7718SOL    HW124053   3.061   5.977   3.998
 7718SOL    HW224054   2.966   6.084   3.919
 7719SOL     OW24055   6.459   2.159   4.347
 7719SOL    HW124056   6.366   2.124   4.332
 7719SOL    HW224057   6.469   2.247   4.300
 7720SOL     OW24058   5.700   5.600   1.911
 7720SOL    HW124059   5.695   5.694   1.877
 7720SOL    HW224060   5.741   5.599   2.002
 7721SOL     OW24061   1.839   4.460   2.468
 7721SOL    HW124062   1.848   4.442   2.566
 7721SOL    HW224063   1.793   4.548   2.454
 7722SOL     OW24064   6.819   5.406   4.084
 7722SOL    HW124065   6.899   5.370   4.036
 7722SOL    HW224066   6.846   5.440   4.174
 7723SOL     OW24067   6.487   3.496   0.330
 7723SOL    HW124068   6.473   3.402   0.361
 7723SOL    HW224069   6.494   3.497   0.230
 7724SOL     OW24070   1.945   4.702   1.107
 7724SOL    HW124071   1.853   4.694   1.145
 7724SOL    HW224072   2.001   4.762   1.165
 7725SOL     OW24073   4.862   3.134   4.598
 7725SOL    HW124074   4.903   3.145   4.508
 7725SOL    HW224075   4.876   3.041   4.630
 7726SOL     OW24076   6.705   4.705   3.485
 7726SOL    HW124077   6.653   4.710   3.400
 7726SOL    HW224078   6.769   4.782   3.491
 7727SOL     OW24079   6.622   2.731   1.796
 7727SOL    HW124080   6.685   2.746   1.873
 7727SOL    HW224081   6.583   2.639   1.803
 7728SOL     OW24082   2.884   2.265   2.909
 7728SOL    HW124083   2.917   2.359   2.913
 7728SOL    HW224084   2.819   2.256   2.834
 7729SOL     OW24085   5.479   2.406   0.563
 7729SOL    HW124086   5.527   2.419   0.476
 7729SOL    HW224087   5.449   2.495   0.598
 7730SOL     OW24088   5.454   0.794   2.433
 7730SOL    HW124089   5.357   0.817   2.424
 7730SOL    HW224090   5.506   0.842   2.362
 7731SOL     OW24091   5.994   1.516   6.470
 7731SOL    HW124092   5.903   1.512   6.429
 7731SOL    HW224093   5.993   1.584   6.544
 7732SOL     OW24094   4.415   5.155   0.730
 7732SOL    HW124095   4.502   5.154   0.681
 7732SOL    HW224096   4.344   5.114   0.673
 7733SOL     OW24097   3.210   0.254   2.206
 7733SOL    HW124098   3.210   0.282   2.302
 7733SOL    HW224099   3.120   0.217   2.182
 7734SOL     OW24100   2.095   1.916   3.370
 7734SOL    HW124101   2.173   1.953   3.319
 7734SOL    HW224102   2.079   1.821   3.342
 7735SOL     OW24103   4.880   4.108   0.048
 7735SOL    HW124104   4.920   4.045   0.115
 7735SOL    HW224105   4.783   4.119   0.066
 7736SOL     OW24106   6.515   4.801   6.403
 7736SOL    HW124107   6.507   4.885   6.457
 7736SOL    HW224108   6.493   4.722   6.460
 7737SOL     OW24109   5.003   1.237   0.794
 7737SOL    HW124110   5.004   1.140   0.816
 7737SOL    HW224111   5.008   1.291   0.878
 7738SOL     OW24112   2.937   4.865   6.822
 7738SOL    HW124113   3.003   4.933   6.791
 7738SOL    HW224114   2.845   4.905   6.823
 7739SOL     OW24115   6.152   3.027   1.442
 7739SOL    HW124116   6.059   3.060   1.425
 7739SOL    HW224117   6.171   3.033   1.540
 7740SOL     OW24118   0.343   6.591   3.237
 7740SOL    HW124119   0.327   6.567   3.333
 7740SOL    HW224120   0.410   6.664   3.231
 7741SOL     OW24121   2.297   5.714   4.524
 7741SOL    HW124122   2.250   5.684   4.440
 7741SOL    HW224123   2.257   5.667   4.602
 7742SOL     OW24124   6.536   1.202   3.874
 7742SOL    HW124125   6.554   1.242   3.784
 7742SOL    HW224126   6.490   1.269   3.932
 7743SOL     OW24127   4.283   2.252   3.160
 7743SOL    HW124128   4.304   2.206   3.246
 7743SOL    HW224129   4.194   2.223   3.127
 7744SOL     OW24130   6.787   0.349   4.928
 7744SOL    HW124131   6.817   0.285   4.858
 7744SOL    HW224132   6.849   0.427   4.930
 7745SOL     OW24133   4.647   3.616   5.921
 7745SOL    HW124134   4.668   3.651   5.830
 7745SOL    HW224135   4.732   3.597   5.970
 7746SOL     OW24136   1.635   0.853   0.190
 7746SOL    HW124137   1.674   0.945   0.182
 7746SOL    HW224138   1.705   0.791   0.226
 7747SOL     OW24139   5.582   5.930   1.110
 7747SOL    HW124140   5.576   5.992   1.188
 7747SOL    HW224141   5.639   5.851   1.133
 7748SOL     OW24142   3.158   3.998   6.867
 7748SOL    HW124143   3.172   3.901   6.848
 7748SOL    HW224144   3.060   4.017   6.870
 7749SOL     OW24145   6.191   3.339   6.062
 7749SOL    HW124146   6.131   3.302   5.991
 7749SOL    HW224147   6.273   3.282   6.069
 7750SOL     OW24148   5.861   4.807   2.377
 7750SOL    HW124149   5.830   4.712   2.369
 7750SOL    HW224150   5.900   4.822   2.468
 7751SOL     OW24151   0.610   2.640   2.206
 7751SOL    HW124152   0.703   2.626   2.240
 7751SOL    HW224153   0.561   2.703   2.266
 7752SOL     OW24154   4.951   2.218   3.303
 7752SOL    HW124155   4.871   2.205   3.361
 7752SOL    HW224156   5.032   2.233   3.360
 7753SOL     OW24157   3.388   1.700   4.781
 7753SOL    HW124158   3.309   1.653   4.741
 7753SOL    HW224159   3.385   1.797   4.755
 7754SOL     OW24160   4.988   6.408   2.403
 7754SOL    HW124161   4.946   6.372   2.487
 7754SOL    HW224162   5.028   6.497   2.422
 7755SOL     OW24163   0.482   4.832   4.647
 7755SOL    HW124164   0.459   4.850   4.552
 7755SOL    HW224165   0.408   4.863   4.706
 7756SOL     OW24166   2.979   5.062   2.101
 7756SOL    HW124167   3.007   4.968   2.118
 7756SOL    HW224168   3.038   5.124   2.153
 7757SOL     OW24169   0.181   4.470   2.109
 7757SOL    HW124170   0.151   4.379   2.079
 7757SOL    HW224171   0.151   4.538   2.042
 7758SOL     OW24172   1.511   1.578   5.406
 7758SOL    HW124173   1.558   1.514   5.345
 7758SOL    HW224174   1.445   1.632   5.352
 7759SOL     OW24175   2.659   2.244   0.779
 7759SOL    HW124176   2.571   2.197   0.777
 7759SOL    HW224177   2.644   2.343   0.788
 7760SOL     OW24178   4.686   2.796   0.076
 7760SOL    HW124179   4.593   2.789   0.111
 7760SOL    HW224180   4.751   2.781   0.151
 7761SOL     OW24181   4.887   5.349   4.182
 7761SOL    HW124182   4.947   5.423   4.211
 7761SOL    HW224183   4.854   5.299   4.262
 7762SOL     OW24184   6.197   1.746   2.057
 7762SOL    HW124185   6.125   1.682   2.084
 7762SOL    HW224186   6.282   1.696   2.041
 7763SOL     OW24187   2.392   0.089   4.182
 7763SOL    HW124188   2.321   0.103   4.251
 7763SOL    HW224189   2.377   0.001   4.137
 7764SOL     OW24190   2.389   3.819   6.164
 7764SOL    HW124191   2.386   3.857   6.071
 7764SOL    HW224192   2.450   3.874   6.220
 7765SOL     OW24193   5.718   2.743   5.034
 7765SOL    HW124194   5.710   2.840   5.013
 7765SOL    HW224195   5.632   2.697   5.012
 7766SOL     OW24196   5.889   3.856   6.212
 7766SOL    HW124197   5.829   3.892   6.282
 7766SOL    HW224198   5.846   3.778   6.167
 7767SOL     OW24199   3.190   0.567   3.889
 7767SOL    HW124200   3.211   0.553   3.792
 7767SOL    HW224201   3.242   0.647   3.922
 7768SOL     OW24202   4.404   5.102   3.764
 7768SOL    HW124203   4.464   5.180   3.746
 7768SOL    HW224204   4.350   5.120   3.846
 7769SOL     OW24205   3.892   3.013   5.559
 7769SOL    HW124206   3.901   2.929   5.505
 7769SOL    HW224207   3.904   3.092   5.499
 7770SOL     OW24208   1.764   2.805   4.185
 7770SOL    HW124209   1.807   2.732   4.239
 7770SOL    HW224210   1.796   2.799   4.091
 7771SOL     OW24211   2.664   3.350   6.703
 7771SOL    HW124212   2.616   3.362   6.615
 7771SOL    HW224213   2.640   3.261   6.742
 7772SOL     OW24214   5.596   0.012   1.883
 7772SOL    HW124215   5.616   0.099   1.839
 7772SOL    HW224216   5.516   0.022   1.942
 7773SOL     OW24217   3.252   5.894   0.096
 7773SOL    HW124218   3.207   5.861   0.014
 7773SOL    HW224219   3.256   5.994   0.095
 7774SOL     OW24220   4.646   1.498   2.501
 7774SOL    HW124221   4.567   1.492   2.561
 7774SOL    HW224222   4.730   1.483   2.553
 7775SOL     OW24223   2.561   1.743   1.420
 7775SOL    HW124224   2.487   1.739   1.352
 7775SOL    HW224225   2.532   1.696   1.503
 7776SOL     OW24226   1.583   1.424   4.543
 7776SOL    HW124227   1.496   1.442   4.588
 7776SOL    HW224228   1.607   1.501   4.484
 7777SOL     OW24229   5.944   5.573   4.108
 7777SOL    HW124230   5.856   5.556   4.153
 7777SOL    HW224231   5.979   5.487   4.070
 7778SOL     OW24232   6.961   4.755   2.924
 7778SOL    HW124233   6.910   4.804   2.995
 7778SOL    HW224234   6.997   4.821   2.858
 7779SOL     OW24235   4.664   6.093   1.508
 7779SOL    HW124236   4.642   6.067   1.414
 7779SOL    HW224237   4.641   6.189   1.522
 7780SOL     OW24238   5.893   6.518   4.948
 7780SOL    HW124239   5.985   6.555   4.962
 7780SOL    HW224240   5.849   6.503   5.037
 7781SOL     OW24241   1.507   2.861   0.958
 7781SOL    HW124242   1.509   2.960   0.964
 7781SOL    HW224243   1.530   2.821   1.047
 7782SOL     OW24244   5.219   2.592   4.632
 7782SOL    HW124245   5.143   2.530   4.654
 7782SOL    HW224246   5.214   2.618   4.536
 7783SOL     OW24247   1.692   6.523   4.663
 7783SOL    HW124248   1.726   6.616   4.673
 7783SOL    HW224249   1.736   6.463   4.729
 7784SOL     OW24250   1.420   1.735   1.675
 7784SOL    HW124251   1.501   1.784   1.641
 7784SOL    HW224252   1.338   1.776   1.636
 7785SOL     OW24253   6.926   6.536   3.253
 7785SOL    HW124254   6.983   6.593   3.313
 7785SOL    HW224255   6.861   6.484   3.308
 7786SOL     OW24256   4.198   1.082   5.163
 7786SOL    HW124257   4.248   1.165   5.187
 7786SOL    HW224258   4.262   1.008   5.146
 7787SOL     OW24259   2.657   2.366   2.005
 7787SOL    HW124260   2.612   2.303   1.942
 7787SOL    HW224261   2.751   2.382   1.975
 7788SOL     OW24262   6.757   4.676   1.228
 7788SOL    HW124263   6.833   4.638   1.281
 7788SOL    HW224264   6.690   4.717   1.290
 7789SOL     OW24265   3.221   1.635   6.086
 7789SOL    HW124266   3.292   1.644   6.017
 7789SOL    HW224267   3.131   1.632   6.042
 7790SOL     OW24268   4.241   4.373   1.676
 7790SOL    HW124269   4.171   4.323   1.626
 7790SOL    HW224270   4.307   4.308   1.715
 7791SOL     OW24271   2.915   5.580   2.657
 7791SOL    HW124272   3.002   5.627   2.644
 7791SOL    HW224273   2.882   5.597   2.750
 7792SOL     OW24274   0.389   1.631   3.064
 7792SOL    HW124275   0.354   1.577   3.141
 7792SOL    HW224276   0.349   1.723   3.067
 7793SOL     OW24277   5.220   0.472   0.486
 7793SOL    HW124278   5.248   0.476   0.390
 7793SOL    HW224279   5.157   0.548   0.505
 7794SOL     OW24280   1.060   6.824   3.165
 7794SOL    HW124281   1.114   6.741   3.149
 7794SOL    HW224282   1.017   6.819   3.255
 7795SOL     OW24283   3.090   5.166   0.409
 7795SOL    HW124284   3.185   5.189   0.427
 7795SOL    HW224285   3.085   5.077   0.363
 7796SOL     OW24286   3.181   2.714   0.255
 7796SOL    HW124287   3.152   2.740   0.163
 7796SOL    HW224288   3.134   2.770   0.323
 7797SOL     OW24289   0.602   5.686   3.544
 7797SOL    HW124290   0.630   5.625   3.618
 7797SOL    HW224291   0.527   5.745   3.576
 7798SOL     OW24292   1.525   3.442   0.514
 7798SOL    HW124293   1.578   3.423   0.431
 7798SOL    HW224294   1.585   3.485   0.582
 7799SOL     OW24295   2.982   6.046   3.456
 7799SOL    HW124296   2.882   6.052   3.464
 7799SOL    HW224297   3.016   5.977   3.520
 7800SOL     OW24298   0.390   6.426   2.453
 7800SOL    HW124299   0.365   6.351   2.514
 7800SOL    HW224300   0.483   6.413   2.419
 7801SOL     OW24301   1.488   1.835   2.098
 7801SOL    HW124302   1.456   1.750   2.057
 7801SOL    HW224303   1.423   1.866   2.167
 7802SOL     OW24304   6.823   3.664   4.467
 7802SOL    HW124305   6.797   3.725   4.392
 7802SOL    HW224306   6.900   3.704   4.517
 7803SOL     OW24307   3.177   2.357   5.663
 7803SOL    HW124308   3.202   2.264   5.637
 7803SOL    HW224309   3.150   2.408   5.582
 7804SOL     OW24310   3.639   2.161   5.179
 7804SOL    HW124311   3.648   2.071   5.222
 7804SOL    HW224312   3.608   2.150   5.085
 7805SOL     OW24313   5.200   3.472   0.113
 7805SOL    HW124314   5.298   3.487   0.101
 7805SOL    HW224315   5.167   3.528   0.190
 7806SOL     OW24316   6.985   1.372   5.889
 7806SOL    HW124317   6.934   1.299   5.844
 7806SOL    HW224318   0.040   1.396   5.834
 7807SOL     OW24319   1.980   4.935   6.319
 7807SOL    HW124320   2.014   4.908   6.228
 7807SOL    HW224321   1.886   4.966   6.311
 7808SOL     OW24322   6.899   3.696   3.007
 7808SOL    HW124323   6.846   3.655   3.082
 7808SOL    HW224324   6.975   3.750   3.045
 7809SOL     OW24325   4.940   5.349   2.427
 7809SOL    HW124326   4.964   5.331   2.522
 7809SOL    HW224327   4.856   5.403   2.424
 7810SOL     OW24328   2.804   6.568   6.169
 7810SOL    HW124329   2.784   6.657   6.209
 7810SOL    HW224330   2.847   6.581   6.079
 7811SOL     OW24331   1.458   6.075   3.258
 7811SOL    HW124332   1.436   6.032   3.171
 7811SOL    HW224333   1.401   6.035   3.330
 7812SOL     OW24334   3.002   1.728   6.327
 7812SOL    HW124335   2.957   1.644   6.298
 7812SOL    HW224336   2.993   1.797   6.255
 7813SOL     OW24337   5.422   0.356   0.626
 7813SOL    HW124338   5.420   0.411   0.710
 7813SOL    HW224339   5.349   0.387   0.565
 7814SOL     OW24340   6.828   3.262   2.303
 7814SOL    HW124341   6.861   3.338   2.359
 7814SOL    HW224342   6.858   3.175   2.343
 7815SOL     OW24343   5.906   4.694   5.402
 7815SOL    HW124344   5.998   4.710   5.438
 7815SOL    HW224345   5.854   4.780   5.406
 7816SOL     OW24346   0.821   1.387   5.655
 7816SOL    HW124347   0.829   1.315   5.586
 7816SOL    HW224348   0.724   1.401   5.678
 7817SOL     OW24349   4.042   2.580   0.077
 7817SOL    HW124350   4.067   2.675   0.095
 7817SOL    HW224351   3.968   2.552   0.139
 7818SOL     OW24352   5.964   0.504   3.569
 7818SOL    HW124353   5.913   0.550   3.497
 7818SOL    HW224354   5.928   0.411   3.580
 7819SOL     OW24355   1.573   3.105   4.755
 7819SOL    HW124356   1.554   3.128   4.659
 7819SOL    HW224357   1.550   3.183   4.813
 7820SOL     OW24358   1.055   6.994   5.222
 7820SOL    HW124359   0.977   6.956   5.173
 7820SOL    HW224360   1.026   7.023   5.313
 7821SOL     OW24361   4.208   6.567   0.376
 7821SOL    HW124362   4.207   6.576   0.475
 7821SOL    HW224363   4.169   6.478   0.350
 7822SOL     OW24364   0.131   1.666   5.109
 7822SOL    HW124365   0.094   1.584   5.152
 7822SOL    HW224366   0.216   1.644   5.062
 7823SOL     OW24367   2.471   3.529   5.402
 7823SOL    HW124368   2.491   3.431   5.395
 7823SOL    HW224369   2.372   3.543   5.400
 7824SOL     OW24370   5.536   3.201   3.251
 7824SOL    HW124371   5.536   3.301   3.261
 7824SOL    HW224372   5.502   3.159   3.335
 7825SOL     OW24373   3.741   3.604   2.001
 7825SOL    HW124374   3.797   3.526   1.973
 7825SOL    HW224375   3.645   3.575   2.008
 7826SOL     OW24376   6.681   0.229   1.371
 7826SOL    HW124377   6.637   0.186   1.292
 7826SOL    HW224378   6.699   0.159   1.440
 7827SOL     OW24379   4.502   3.440   0.661
 7827SOL    HW124380   4.489   3.396   0.750
 7827SOL    HW224381   4.512   3.370   0.590
 7828SOL     OW24382   0.610   5.837   0.613
 7828SOL    HW124383   0.613   5.741   0.642
 7828SOL    HW224384   0.697   5.881   0.635
 7829SOL     OW24385   4.041   3.278   2.936
 7829SOL    HW124386   4.098   3.358   2.915
 7829SOL    HW224387   3.951   3.291   2.895
 7830SOL     OW24388   6.158   3.590   0.006
 7830SOL    HW124389   6.159   3.579   0.105
 7830SOL    HW224390   6.249   3.615   6.999
 7831SOL     OW24391   1.995   2.416   6.577
 7831SOL    HW124392   1.940   2.496   6.600
 7831SOL    HW224393   1.943   2.333   6.596
 7832SOL     OW24394   2.635   2.615   5.254
 7832SOL    HW124395   2.613   2.708   5.282
 7832SOL    HW224396   2.681   2.567   5.329
 7833SOL     OW24397   1.504   6.663   0.941
 7833SOL    HW124398   1.423   6.616   0.977
 7833SOL    HW224399   1.477   6.723   0.866
 7834SOL     OW24400   0.081   0.276   1.725
 7834SOL    HW124401   0.076   0.356   1.665
 7834SOL    HW224402   0.064   0.304   1.819
 7835SOL     OW24403   2.728   2.118   4.328
 7835SOL    HW124404   2.770   2.031   4.299
 7835SOL    HW224405   2.651   2.099   4.389
 7836SOL     OW24406   1.870   0.831   6.634
 7836SOL    HW124407   1.887   0.850   6.731
 7836SOL    HW224408   1.883   0.915   6.581
 7837SOL     OW24409   5.274   6.489   3.108
 7837SOL    HW124410   5.278   6.566   3.044
 7837SOL    HW224411   5.178   6.464   3.124
 7838SOL     OW24412   3.326   6.813   4.258
 7838SOL    HW124413   3.389   6.850   4.326
 7838SOL    HW224414   3.252   6.878   4.242
 7839SOL     OW24415   0.234   4.884   4.146
 7839SOL    HW124416   0.334   4.884   4.146
 7839SOL    HW224417   0.200   4.855   4.236
 7840SOL     OW24418   5.226   3.036   5.642
 7840SOL    HW124419   5.214   3.052   5.544
 7840SOL    HW224420   5.320   3.007   5.660
 7841SOL     OW24421   1.323   1.949   6.491
 7841SOL    HW124422   1.254   1.989   6.430
 7841SOL    HW224423   1.406   1.931   6.439
 7842SOL     OW24424   2.744   0.952   2.211
 7842SOL    HW124425   2.811   0.909   2.151
 7842SOL    HW224426   2.673   0.996   2.155
 7843SOL     OW24427   6.556   3.362   1.008
 7843SOL    HW124428   6.564   3.461   0.999
 7843SOL    HW224429   6.465   3.339   1.043
 7844SOL     OW24430   3.928   1.292   4.228
 7844SOL    HW124431   3.836   1.283   4.191
 7844SOL    HW224432   3.977   1.364   4.178
 7845SOL     OW24433   0.947   0.742   4.029
 7845SOL    HW124434   0.960   0.704   3.937
 7845SOL    HW224435   0.874   0.811   4.027
 7846SOL     OW24436   3.593   6.916   1.985
 7846SOL    HW124437   3.543   6.855   2.046
 7846SOL    HW224438   3.679   6.943   2.027
 7847SOL     OW24439   6.840   0.526   0.341
 7847SOL    HW124440   6.817   0.531   0.243
 7847SOL    HW224441   6.939   0.529   0.352
 7848SOL     OW24442   4.493   4.123   0.678
 7848SOL    HW124443   4.437   4.200   0.709
 7848SOL    HW224444   4.535   4.078   0.757
 7849SOL     OW24445   5.904   4.057   4.995
 7849SOL    HW124446   5.899   4.117   4.915
 7849SOL    HW224447   5.983   4.083   5.051
 7850SOL     OW24448   0.881   1.189   4.294
 7850SOL    HW124449   0.884   1.169   4.196
 7850SOL    HW224450   0.900   1.286   4.309
 7851SOL     OW24451   4.660   6.647   0.164
 7851SOL    HW124452   4.563   6.624   0.155
 7851SOL    HW224453   4.702   6.588   0.232
 7852SOL     OW24454   1.880   6.718   0.031
 7852SOL    HW124455   1.789   6.713   7.014
 7852SOL    HW224456   1.946   6.671   6.998
 7853SOL     OW24457   2.266   3.061   0.815
 7853SOL    HW124458   2.280   2.999   0.738
 7853SOL    HW224459   2.322   3.143   0.803
 7854SOL     OW24460   3.346   3.961   2.810
 7854SOL    HW124461   3.421   4.021   2.838
 7854SOL    HW224462   3.287   4.009   2.745
 7855SOL     OW24463   3.521   0.177   5.480
 7855SOL    HW124464   3.598   0.179   5.544
 7855SOL    HW224465   3.439   0.210   5.527
 7856SOL     OW24466   4.435   3.514   6.216
 7856SOL    HW124467   4.518   3.461   6.201
 7856SOL    HW224468   4.359   3.453   6.239
 7857SOL     OW24469   0.739   2.036   4.456
 7857SOL    HW124470   0.799   2.085   4.520
 7857SOL    HW224471   0.757   1.938   4.462
 7858SOL     OW24472   6.117   4.592   3.150
 7858SOL    HW124473   6.172   4.577   3.068
 7858SOL    HW224474   6.127   4.687   3.180
 7859SOL     OW24475   0.759   5.984   6.381
 7859SOL    HW124476   0.674   5.955   6.337
 7859SOL    HW224477   0.748   5.978   6.480
 7860SOL     OW24478   3.630   0.243   1.689
 7860SOL    HW124479   3.623   0.168   1.624
 7860SOL    HW224480   3.680   0.319   1.647
 7861SOL     OW24481   5.392   4.108   0.435
 7861SOL    HW124482   5.340   4.131   0.517
 7861SOL    HW224483   5.472   4.053   0.461
 7862SOL     OW24484   3.335   4.452   1.593
 7862SOL    HW124485   3.285   4.514   1.653
 7862SOL    HW224486   3.274   4.380   1.561
 7863SOL     OW24487   6.020   5.661   2.394
 7863SOL    HW124488   5.955   5.672   2.469
 7863SOL    HW224489   6.047   5.750   2.359
 7864SOL     OW24490   0.614   5.843   4.277
 7864SOL    HW124491   0.707   5.881   4.280
 7864SOL    HW224492   0.569   5.862   4.364
 7865SOL     OW24493   3.272   0.322   2.460
 7865SOL    HW124494   3.369   0.298   2.459
 7865SOL    HW224495   3.263   0.422   2.461
 7866SOL     OW24496   2.353   2.703   4.040
 7866SOL    HW124497   2.315   2.796   4.037
 7866SOL    HW224498   2.287   2.639   4.002
 7867SOL     OW24499   5.622   4.208   2.617
 7867SOL    HW124500   5.586   4.190   2.525
 7867SOL    HW224501   5.552   4.185   2.685
 7868SOL     OW24502   5.245   0.083   0.793
 7868SOL    HW124503   5.219   0.175   0.763
 7868SOL    HW224504   5.268   0.086   0.890
 7869SOL     OW24505   6.928   2.089   3.574
 7869SOL    HW124506   7.023   2.066   3.552
 7869SOL    HW224507   6.886   2.014   3.625
 7870SOL     OW24508   0.139   6.156   3.245
 7870SOL    HW124509   0.196   6.216   3.189
 7870SOL    HW224510   0.129   6.194   3.336
 7871SOL     OW24511   5.898   3.524   4.048
 7871SOL    HW124512   5.902   3.461   4.126
 7871SOL    HW224513   5.887   3.471   3.964
 7872SOL     OW24514   6.393   3.267   3.785
 7872SOL    HW124515   6.353   3.217   3.708
 7872SOL    HW224516   6.492   3.257   3.784
 7873SOL     OW24517   6.559   5.008   5.392
 7873SOL    HW124518   6.588   4.913   5.394
 7873SOL    HW224519   6.519   5.033   5.481
 7874SOL     OW24520   6.353   0.979   0.606
 7874SOL    HW124521   6.287   0.944   0.539
 7874SOL    HW224522   6.445   0.976   0.566
 7875SOL     OW24523   4.640   3.561   6.956
 7875SOL    HW124524   4.540   3.560   6.949
 7875SOL    HW224525   4.676   3.639   6.906
 7876SOL     OW24526   6.363   0.881   4.812
 7876SOL    HW124527   6.427   0.921   4.747
 7876SOL    HW224528   6.275   0.864   4.767
 7877SOL     OW24529   6.547   2.604   2.409
 7877SOL    HW124530   6.526   2.684   2.354
 7877SOL    HW224531   6.601   2.540   2.354
 7878SOL     OW24532   4.668   4.228   1.287
 7878SOL    HW124533   4.662   4.309   1.345
 7878SOL    HW224534   4.616   4.243   1.203
 7879SOL     OW24535   4.999   0.529   5.196
 7879SOL    HW124536   4.924   0.466   5.216
 7879SOL    HW224537   5.086   0.486   5.223
 7880SOL     OW24538   0.904   6.607   6.057
 7880SOL    HW124539   0.949   6.684   6.011
 7880SOL    HW224540   0.970   6.563   6.118
 7881SOL     OW24541   0.630   5.175   4.013
 7881SOL    HW124542   0.540   5.218   4.015
 7881SOL    HW224543   0.690   5.226   3.951
 7882SOL     OW24544   0.647   4.159   2.008
 7882SOL    HW124545   0.616   4.239   1.957
 7882SOL    HW224546   0.735   4.128   1.971
 7883SOL     OW24547   3.497   2.078   3.525
 7883SOL    HW124548   3.560   2.013   3.482
 7883SOL    HW224549   3.548   2.135   3.589
 7884SOL     OW24550   1.063   3.851   4.584
 7884SOL    HW124551   1.085   3.897   4.497
 7884SOL    HW224552   1.072   3.916   4.659
 7885SOL     OW24553   5.490   5.400   3.761
 7885SOL    HW124554   5.482   5.370   3.856
 7885SOL    HW224555   5.587   5.417   3.740
 7886SOL     OW24556   4.896   3.343   3.364
 7886SOL    HW124557   4.866   3.402   3.289
 7886SOL    HW224558   4.944   3.398   3.433
 7887SOL     OW24559   2.050   2.965   1.260
 7887SOL    HW124560   2.041   2.956   1.161
 7887SOL    HW224561   2.143   2.941   1.288
 7888SOL     OW24562   5.888   1.431   4.971
 7888SOL    HW124563   5.886   1.387   5.061
 7888SOL    HW224564   5.978   1.416   4.929
 7889SOL     OW24565   5.769   4.713   7.005
 7889SOL    HW124566   5.705   4.789   6.995
 7889SOL    HW224567   5.861   4.744   6.982
 7890SOL     OW24568   1.774   3.463   4.350
 7890SOL    HW124569   1.815   3.374   4.370
 7890SOL    HW224570   1.736   3.462   4.257
 7891SOL     OW24571   6.738   1.914   4.376
 7891SOL    HW124572   6.749   2.011   4.399
 7891SOL    HW224573   6.646   1.898   4.341
 7892SOL     OW24574   0.837   1.855   5.424
 7892SOL    HW124575   0.804   1.761   5.434
 7892SOL    HW224576   0.932   1.860   5.454
 7893SOL     OW24577   5.618   0.091   0.045
 7893SOL    HW124578   5.685   0.153   0.085
 7893SOL    HW224579   5.652   0.056   6.983
 7894SOL     OW24580   3.842   1.918   6.116
 7894SOL    HW124581   3.784   1.851   6.163
 7894SOL    HW224582   3.792   1.954   6.037
 7895SOL     OW24583   5.676   6.808   2.916
 7895SOL    HW124584   5.666   6.748   2.995
 7895SOL    HW224585   5.611   6.884   2.924
 7896SOL     OW24586   2.359   2.459   1.205
 7896SOL    HW124587   2.279   2.470   1.264
 7896SOL    HW224588   2.330   2.458   1.109
 7897SOL     OW24589   3.912   2.658   0.877
 7897SOL    HW124590   3.889   2.655   0.780
 7897SOL    HW224591   4.007   2.627   0.889
 7898SOL     OW24592   5.456   6.249   3.424
 7898SOL    HW124593   5.365   6.259   3.383
 7898SOL    HW224594   5.503   6.337   3.422
 7899SOL     OW24595   6.690   4.542   3.919
 7899SOL    HW124596   6.668   4.447   3.896
 7899SOL    HW224597   6.778   4.545   3.966
 7900SOL     OW24598   0.640   3.794   1.241
 7900SOL    HW124599   0.654   3.696   1.221
 7900SOL    HW224600   0.611   3.840   1.157
 7901SOL     OW24601   0.266   1.367   6.706
 7901SOL    HW124602   0.233   1.394   6.616
 7901SOL    HW224603   0.318   1.442   6.748
 7902SOL     OW24604   1.223   7.012   2.595
 7902SOL    HW124605   1.304   6.955   2.609
 7902SOL    HW224606   1.192   0.023   2.682
 7903SOL     OW24607   2.750   2.129   5.064
 7903SOL    HW124608   2.846   2.155   5.070
 7903SOL    HW224609   2.726   2.112   4.968
 7904SOL     OW24610   4.895   1.485   2.609
 7904SOL    HW124611   4.923   1.390   2.600
 7904SOL    HW224612   4.969   1.545   2.578
 7905SOL     OW24613   5.161   1.537   0.792
 7905SOL    HW124614   5.243   1.594   0.804
 7905SOL    HW224615   5.159   1.467   0.863
 7906SOL     OW24616   1.359   5.383   0.748
 7906SOL    HW124617   1.266   5.401   0.716
 7906SOL    HW224618   1.376   5.285   0.748
 7907SOL     OW24619   6.182   7.006   2.715
 7907SOL    HW124620   6.114   0.054   2.724
 7907SOL    HW224621   6.164   6.953   2.632
 7908SOL     OW24622   0.642   0.217   6.424
 7908SOL    HW124623   0.705   0.158   6.374
 7908SOL    HW224624   0.573   0.161   6.470
 7909SOL     OW24625   5.765   4.047   2.380
 7909SOL    HW124626   5.666   4.039   2.391
 7909SOL    HW224627   5.786   4.124   2.319
 7910SOL     OW24628   0.659   4.331   6.944
 7910SOL    HW124629   0.748   4.344   6.987
 7910SOL    HW224630   0.656   4.382   6.858
 7911SOL     OW24631   0.088   4.497   6.746
 7911SOL    HW124632   0.022   4.430   6.781
 7911SOL    HW224633   0.064   4.520   6.651
 7912SOL     OW24634   6.344   4.868   0.971
 7912SOL    HW124635   6.422   4.812   1.000
 7912SOL    HW224636   6.377   4.950   0.923
 7913SOL     OW24637   1.332   4.651   1.246
 7913SOL    HW124638   1.393   4.662   1.167
 7913SOL    HW224639   1.237   4.657   1.216
 7914SOL     OW24640   6.690   6.677   5.090
 7914SOL    HW124641   6.695   6.723   5.001
 7914SOL    HW224642   6.603   6.630   5.099
 7915SOL     OW24643   3.877   5.294   2.809
 7915SOL    HW124644   3.908   5.361   2.876
 7915SOL    HW224645   3.955   5.252   2.764
 7916SOL     OW24646   1.006   0.048   4.510
 7916SOL    HW124647   0.919   0.081   4.475
 7916SOL    HW224648   0.993   0.012   4.603
 7917SOL     OW24649   4.105   2.967   1.262
 7917SOL    HW124650   4.137   3.028   1.189
 7917SOL    HW224651   4.162   2.979   1.343
 7918SOL     OW24652   2.085   2.045   3.646
 7918SOL    HW124653   2.076   1.955   3.602
 7918SOL    HW224654   2.171   2.049   3.696
 7919SOL     OW24655   2.107   6.342   4.789
 7919SOL    HW124656   2.125   6.430   4.744
 7919SOL    HW224657   2.192   6.308   4.831
 7920SOL     OW24658   4.935   0.520   1.098
 7920SOL    HW124659   4.836   0.518   1.086
 7920SOL    HW224660   4.973   0.599   1.050
 7921SOL     OW24661   5.717   2.533   0.883
 7921SOL    HW124662   5.681   2.626   0.891
 7921SOL    HW224663   5.673   2.474   0.951
 7922SOL     OW24664   1.723   6.076   1.880
 7922SOL    HW124665   1.625   6.056   1.880
 7922SOL    HW224666   1.773   6.001   1.838
 7923SOL     OW24667   5.565   0.876   0.487
 7923SOL    HW124668   5.591   0.865   0.391
 7923SOL    HW224669   5.550   0.973   0.506
 7924SOL     OW24670   6.634   6.253   0.521
 7924SOL    HW124671   6.615   6.178   0.584
 7924SOL    HW224672   6.728   6.245   0.487
 7925SOL     OW24673   1.468   5.768   6.480
 7925SOL    HW124674   1.541   5.799   6.541
 7925SOL    HW224675   1.451   5.671   6.496
 7926SOL     OW24676   4.872   5.365   0.364
 7926SOL    HW124677   4.943   5.316   0.312
 7926SOL    HW224678   4.784   5.355   0.317
 7927SOL     OW24679   4.167   6.828   2.548
 7927SOL    HW124680   4.239   6.851   2.483
 7927SOL    HW224681   4.196   6.750   2.604
 7928SOL     OW24682   5.516   2.183   3.246
 7928SOL    HW124683   5.608   2.167   3.210
 7928SOL    HW224684   5.458   2.219   3.173
 7929SOL     OW24685   4.227   4.431   6.086
 7929SOL    HW124686   4.191   4.339   6.072
 7929SOL    HW224687   4.308   4.427   6.145
 7930SOL     OW24688   4.239   6.313   6.173
 7930SOL    HW124689   4.288   6.260   6.104
 7930SOL    HW224690   4.159   6.355   6.131
 7931SOL     OW24691   4.149   2.164   1.279
 7931SOL    HW124692   4.080   2.215   1.329
 7931SOL    HW224693   4.130   2.066   1.287
 7932SOL     OW24694   1.728   3.919   2.276
 7932SOL    HW124695   1.646   3.977   2.275
 7932SOL    HW224696   1.701   3.824   2.295
 7933SOL     OW24697   1.081   1.504   0.184
 7933SOL    HW124698   1.119   1.519   0.275
 7933SOL    HW224699   1.025   1.584   0.158
 7934SOL     OW24700   0.895   5.635   1.339
 7934SOL    HW124701   0.982   5.675   1.310
 7934SOL    HW224702   0.862   5.573   1.267
 7935SOL     OW24703   4.787   2.985   3.271
 7935SOL    HW124704   4.772   2.898   3.317
 7935SOL    HW224705   4.778   3.060   3.336
 7936SOL     OW24706   3.266   5.658   3.651
 7936SOL    HW124707   3.223   5.606   3.725
 7936SOL    HW224708   3.363   5.635   3.647
 7937SOL     OW24709   3.329   0.830   6.960
 7937SOL    HW124710   3.351   0.746   7.009
 7937SOL    HW224711   3.386   0.905   6.994
 7938SOL     OW24712   2.857   6.409   4.284
 7938SOL    HW124713   2.856   6.509   4.289
 7938SOL    HW224714   2.840   6.379   4.190
 7939SOL     OW24715   0.328   1.479   4.018
 7939SOL    HW124716   0.399   1.519   4.076
 7939SOL    HW224717   0.267   1.550   3.985
 7940SOL     OW24718   5.520   1.223   3.437
 7940SOL    HW124719   5.505   1.247   3.533
 7940SOL    HW224720   5.586   1.286   3.396
 7941SOL     OW24721   3.593   6.890   1.217
 7941SOL    HW124722   3.548   6.872   1.305
 7941SOL    HW224723   3.648   6.811   1.191
 7942SOL     OW24724   1.475   5.111   0.834
 7942SOL    HW124725   1.451   5.128   0.930
 7942SOL    HW224726   1.570   5.079   0.829
 7943SOL     OW24727   1.750   6.236   6.122
 7943SOL    HW124728   1.709   6.191   6.043
 7943SOL    HW224729   1.772   6.331   6.100
 7944SOL     OW24730   1.324   2.631   1.500
 7944SOL    HW124731   1.334   2.662   1.595
 7944SOL    HW224732   1.372   2.543   1.489
 7945SOL     OW24733   6.389   4.445   3.533
 7945SOL    HW124734   6.319   4.391   3.486
 7945SOL    HW224735   6.347   4.490   3.612
 7946SOL     OW24736   3.564   1.345   6.397
 7946SOL    HW124737   3.474   1.381   6.419
 7946SOL    HW224738   3.578   1.347   6.298
 7947SOL     OW24739   0.679   3.775   6.468
 7947SOL    HW124740   0.601   3.713   6.459
 7947SOL    HW224741   0.678   3.841   6.393
 7948SOL     OW24742   1.757   4.739   2.452
 7948SOL    HW124743   1.766   4.747   2.552
 7948SOL    HW224744   1.835   4.784   2.408
 7949SOL     OW24745   3.462   6.413   6.522
 7949SOL    HW124746   3.442   6.325   6.564
 7949SOL    HW224747   3.397   6.482   6.555
 7950SOL     OW24748   5.761   4.499   5.292
 7950SOL    HW124749   5.754   4.519   5.195
 7950SOL    HW224750   5.812   4.571   5.338
 7951SOL     OW24751   4.160   5.822   2.719
 7951SOL    HW124752   4.166   5.898   2.654
 7951SOL    HW224753   4.139   5.858   2.810
 7952SOL     OW24754   6.224   4.337   6.372
 7952SOL    HW124755   6.243   4.246   6.335
 7952SOL    HW224756   6.288   4.357   6.446
 7953SOL     OW24757   2.192   0.285   0.479
 7953SOL    HW124758   2.128   0.243   0.414
 7953SOL    HW224759   2.179   0.244   0.570
 7954SOL     OW24760   3.945   3.687   6.659
 7954SOL    HW124761   3.916   3.759   6.597
 7954SOL    HW224762   3.865   3.642   6.699
 7955SOL     OW24763   1.781   1.817   6.788
 7955SOL    HW124764   1.804   1.898   6.843
 7955SOL    HW224765   1.687   1.790   6.808
 7956SOL     OW24766   6.376   6.292   0.523
 7956SOL    HW124767   6.332   6.235   0.592
 7956SOL    HW224768   6.474   6.274   0.521
 7957SOL     OW24769   4.756   0.973   5.872
 7957SOL    HW124770   4.854   0.993   5.863
 7957SOL    HW224771   4.716   0.967   5.780
 7958SOL     OW24772   6.233   2.693   0.468
 7958SOL    HW124773   6.268   2.764   0.408
 7958SOL    HW224774   6.171   2.633   0.417
 7959SOL     OW24775   6.286   1.175   6.629
 7959SOL    HW124776   6.211   1.214   6.577
 7959SOL    HW224777   6.373   1.204   6.589
 7960SOL     OW24778   0.675   1.061   5.618
 7960SOL    HW124779   0.730   1.090   5.696
 7960SOL    HW224780   0.629   0.975   5.640
 7961SOL     OW24781   6.504   6.266   0.246
 7961SOL    HW124782   6.441   6.323   0.299
 7961SOL    HW224783   6.524   6.182   0.297
 7962SOL     OW24784   5.840   0.237   5.846
 7962SOL    HW124785   5.869   0.238   5.750
 7962SOL    HW224786   5.912   0.198   5.903
 7963SOL     OW24787   6.788   6.923   4.354
 7963SOL    HW124788   6.765   6.948   4.448
 7963SOL    HW224789   6.857   6.850   4.355
 7964SOL     OW24790   6.834   4.344   1.859
 7964SOL    HW124791   6.886   4.359   1.775
 7964SOL    HW224792   6.834   4.428   1.914
 7965SOL     OW24793   4.157   2.741   6.328
 7965SOL    HW124794   4.142   2.818   6.389
 7965SOL    HW224795   4.244   2.752   6.280
 7966SOL     OW24796   4.919   3.701   4.837
 7966SOL    HW124797   5.014   3.670   4.848
 7966SOL    HW224798   4.863   3.663   4.910
 7967SOL     OW24799   1.849   4.280   1.374
 7967SOL    HW124800   1.867   4.275   1.472
 7967SOL    HW224801   1.924   4.327   1.327
 7968SOL     OW24802   0.190   2.837   4.646
 7968SOL    HW124803   0.158   2.745   4.670
 7968SOL    HW224804   0.203   2.890   4.730
 7969SOL     OW24805   4.224   5.393   6.880
 7969SOL    HW124806   4.308   5.340   6.892
 7969SOL    HW224807   4.243   5.489   6.899
 7970SOL     OW24808   6.277   2.954   2.847
 7970SOL    HW124809   6.346   2.941   2.918
 7970SOL    HW224810   6.249   2.864   2.812
 7971SOL     OW24811   2.445   1.481   0.141
 7971SOL    HW124812   2.368   1.419   0.158
 7971SOL    HW224813   2.445   1.508   0.045
 7972SOL     OW24814   4.022   3.665   3.438
 7972SOL    HW124815   4.091   3.618   3.495
 7972SOL    HW224816   3.931   3.647   3.476
 7973SOL     OW24817   6.476   4.408   2.574
 7973SOL    HW124818   6.486   4.315   2.540
 7973SOL    HW224819   6.539   4.468   2.525
 7974SOL     OW24820   6.979   2.779   6.534
 7974SOL    HW124821   6.945   2.858   6.585
 7974SOL    HW224822   6.914   2.704   6.542
 7975SOL     OW24823   5.606   0.670   1.022
 7975SOL    HW124824   5.509   0.644   1.028
 7975SOL    HW224825   5.613   0.761   0.981
 7976SOL     OW24826   0.558   0.237   0.681
 7976SOL    HW124827   0.542   0.334   0.661
 7976SOL    HW224828   0.474   0.195   0.714
 7977SOL     OW24829   5.314   5.647   3.802
 7977SOL    HW124830   5.327   5.551   3.777
 7977SOL    HW224831   5.403   5.693   3.805
 7978SOL     OW24832   0.122   4.542   1.825
 7978SOL    HW124833   0.160   4.549   1.733
 7978SOL    HW224834   0.092   4.448   1.842
 7979SOL     OW24835   1.637   2.376   4.566
 7979SOL    HW124836   1.559   2.314   4.560
 7979SOL    HW224837   1.664   2.386   4.662
 7980SOL     OW24838   4.091   5.432   0.117
 7980SOL    HW124839   4.096   5.440   0.018
 7980SOL    HW224840   4.183   5.440   0.156
 7981SOL     OW24841   1.808   4.332   3.288
 7981SOL    HW124842   1.804   4.395   3.211
 7981SOL    HW224843   1.755   4.250   3.267
 7982SOL     OW24844   6.313   1.614   5.247
 7982SOL    HW124845   6.251   1.540   5.273
 7982SOL    HW224846   6.399   1.576   5.213
 7983SOL     OW24847   4.594   0.966   1.952
 7983SOL    HW124848   4.640   0.998   2.035
 7983SOL    HW224849   4.539   0.885   1.973
 7984SOL     OW24850   0.533   2.403   3.023
 7984SOL    HW124851   0.518   2.307   3.047
 7984SOL    HW224852   0.456   2.458   3.057
 7985SOL     OW24853   2.717   2.982   5.495
 7985SOL    HW124854   2.770   2.959   5.577
 7985SOL    HW224855   2.701   2.899   5.441
 7986SOL     OW24856   3.723   0.994   3.938
 7986SOL    HW124857   3.720   1.086   3.978
 7986SOL    HW224858   3.722   1.001   3.838
 7987SOL     OW24859   0.744   3.929   0.094
 7987SOL    HW124860   0.772   3.953   0.001
 7987SOL    HW224861   0.823   3.934   0.155
 7988SOL     OW24862   6.431   1.061   2.111
 7988SOL    HW124863   6.461   1.155   2.095
 7988SOL    HW224864   6.470   1.002   2.040
 7989SOL     OW24865   0.315   4.450   0.803
 7989SOL    HW124866   0.313   4.550   0.796
 7989SOL    HW224867   0.247   4.421   0.871
 7990SOL     OW24868   4.289   5.716   5.334
 7990SOL    HW124869   4.301   5.723   5.235
 7990SOL    HW224870   4.376   5.737   5.380
 7991SOL     OW24871   5.847   1.276   5.251
 7991SOL    HW124872   5.883   1.184   5.265
 7991SOL    HW224873   5.747   1.274   5.256
 7992SOL     OW24874   2.625   6.791   6.635
 7992SOL    HW124875   2.693   6.863   6.621
 7992SOL    HW224876   2.625   6.730   6.555
 7993SOL     OW24877   6.370   6.052   1.025
 7993SOL    HW124878   6.319   6.134   1.051
 7993SOL    HW224879   6.463   6.057   1.063
 7994SOL     OW24880   5.898   6.949   3.742
 7994SOL    HW124881   5.896   6.960   3.842
 7994SOL    HW224882   5.991   6.964   3.709
 7995SOL     OW24883   0.598   5.092   1.784
 7995SOL    HW124884   0.675   5.135   1.831
 7995SOL    HW224885   0.600   5.119   1.687
 7996SOL     OW24886   3.142   0.546   3.110
 7996SOL    HW124887   3.046   0.527   3.131
 7996SOL    HW224888   3.159   0.644   3.121
 7997SOL     OW24889   1.563   1.746   6.044
 7997SOL    HW124890   1.627   1.789   5.982
 7997SOL    HW224891   1.592   1.652   6.062
 7998SOL     OW24892   2.224   0.999   0.721
 7998SOL    HW124893   2.172   0.994   0.636
 7998SOL    HW224894   2.265   1.089   0.731
 7999SOL     OW24895   1.074   0.402   4.353
 7999SOL    HW124896   1.163   0.374   4.318
 7999SOL    HW224897   1.002   0.349   4.307
 8000SOL     OW24898   4.197   5.145   0.185
 8000SOL    HW124899   4.203   5.180   0.278
 8000SOL    HW224900   4.101   5.146   0.155
 8001SOL     OW24901   4.189   5.821   1.159
 8001SOL    HW124902   4.132   5.741   1.142
 8001SOL    HW224903   4.133   5.904   1.158
 8002SOL     OW24904   0.876   0.306   5.706
 8002SOL    HW124905   0.821   0.288   5.788
 8002SOL    HW224906   0.902   0.402   5.705
 8003SOL     OW24907   2.414   5.275   2.291
 8003SOL    HW124908   2.496   5.333   2.293
 8003SOL    HW224909   2.353   5.305   2.217
 8004SOL     OW24910   1.457   2.603   4.053
 8004SOL    HW124911   1.384   2.668   4.075
 8004SOL    HW224912   1.505   2.578   4.137
 8005SOL     OW24913   2.275   0.293   3.180
 8005SOL    HW124914   2.352   0.254   3.130
 8005SOL    HW224915   2.309   0.361   3.245
 8006SOL     OW24916   3.828   4.625   5.438
 8006SOL    HW124917   3.824   4.526   5.438
 8006SOL    HW224918   3.849   4.658   5.531
 8007SOL     OW24919   6.525   0.152   0.203
 8007SOL    HW124920   6.499   0.246   0.224
 8007SOL    HW224921   6.453   0.108   0.150
 8008SOL     OW24922   5.654   6.525   0.002
 8008SOL    HW124923   5.669   6.427   0.007
 8008SOL    HW224924   5.721   6.572   0.059
 8009SOL     OW24925   5.500   1.539   6.898
 8009SOL    HW124926   5.503   1.461   6.961
 8009SOL    HW224927   5.472   1.621   6.947
 8010SOL     OW24928   3.262   1.256   5.975
 8010SOL    HW124929   3.338   1.288   5.918
 8010SOL    HW224930   3.223   1.173   5.936
 8011SOL     OW24931   3.757   1.743   3.021
 8011SOL    HW124932   3.705   1.806   2.963
 8011SOL    HW224933   3.824   1.795   3.074
 8012SOL     OW24934   6.490   1.818   4.303
 8012SOL    HW124935   6.465   1.748   4.369
 8012SOL    HW224936   6.410   1.875   4.282
 8013SOL     OW24937   3.207   1.539   2.256
 8013SOL    HW124938   3.120   1.494   2.272
 8013SOL    HW224939   3.208   1.628   2.303
 8014SOL     OW24940   2.296   2.076   2.716
 8014SOL    HW124941   2.200   2.104   2.715
 8014SOL    HW224942   2.332   2.084   2.809
 8015SOL     OW24943   3.632   0.048   5.189
 8015SOL    HW124944   3.649   0.144   5.209
 8015SOL    HW224945   3.643   0.031   5.091
 8016SOL     OW24946   3.479   1.825   5.032
 8016SOL    HW124947   3.447   1.915   5.061
 8016SOL    HW224948   3.444   1.804   4.941
 8017SOL     OW24949   6.681   6.095   0.960
 8017SOL    HW124950   6.751   6.042   0.912
 8017SOL    HW224951   6.647   6.167   0.900
 8018SOL     OW24952   4.225   1.924   7.018
 8018SOL    HW124953   4.228   1.897   6.922
 8018SOL    HW224954   4.170   1.858   0.045
 8019SOL     OW24955   3.096   3.475   1.003
 8019SOL    HW124956   3.108   3.452   0.906
 8019SOL    HW224957   3.013   3.431   1.038
 8020SOL     OW24958   0.238   0.893   5.646
 8020SOL    HW124959   0.290   0.958   5.701
 8020SOL    HW224960   0.271   0.895   5.552
 8021SOL     OW24961   1.318   2.105   1.306
 8021SOL    HW124962   1.325   2.138   1.401
 8021SOL    HW224963   1.223   2.111   1.277
 8022SOL     OW24964   5.157   1.805   1.897
 8022SOL    HW124965   5.105   1.744   1.836
 8022SOL    HW224966   5.246   1.824   1.857
 8023SOL     OW24967   4.850   6.103   1.709
 8023SOL    HW124968   4.830   6.197   1.682
 8023SOL    HW224969   4.774   6.043   1.681
 8024SOL     OW24970   2.693   1.031   6.622
 8024SOL    HW124971   2.637   0.993   6.548
 8024SOL    HW224972   2.670   1.127   6.636
 8025SOL     OW24973   1.440   6.188   2.033
 8025SOL    HW124974   1.394   6.117   1.981
 8025SOL    HW224975   1.454   6.268   1.975
 8026SOL     OW24976   0.511   5.720   6.523
 8026SOL    HW124977   0.414   5.730   6.547
 8026SOL    HW224978   0.541   5.800   6.472
 8027SOL     OW24979   3.380   0.911   6.671
 8027SOL    HW124980   3.330   0.865   6.745
 8027SOL    HW224981   3.363   0.861   6.586
 8028SOL     OW24982   3.211   5.362   5.443
 8028SOL    HW124983   3.137   5.358   5.376
 8028SOL    HW224984   3.237   5.269   5.469
 8029SOL     OW24985   0.704   0.069   0.041
 8029SOL    HW124986   0.651   0.153   0.040
 8029SOL    HW224987   0.794   0.087   0.000
 8030SOL     OW24988   0.580   3.905   1.008
 8030SOL    HW124989   0.585   3.995   0.965
 8030SOL    HW224990   0.639   3.840   0.960
 8031SOL     OW24991   0.215   0.085   3.442
 8031SOL    HW124992   0.167   0.063   3.526
 8031SOL    HW224993   0.219   0.185   3.430
 8032SOL     OW24994   6.716   2.979   1.125
 8032SOL    HW124995   6.622   2.989   1.091
 8032SOL    HW224996   6.757   3.070   1.135
 8033SOL     OW24997   4.464   3.620   1.159
 8033SOL    HW124998   4.454   3.541   1.220
 8033SOL    HW224999   4.561   3.633   1.137
 8034SOL     OW25000   6.323   0.596   5.973
 8034SOL    HW125001   6.336   0.613   6.070
 8034SOL    HW225002   6.405   0.624   5.923
 8035SOL     OW25003   6.070   1.870   3.237
 8035SOL    HW125004   6.098   1.962   3.263
 8035SOL    HW225005   6.128   1.803   3.283
 8036SOL     OW25006   5.790   2.646   3.941
 8036SOL    HW125007   5.707   2.592   3.928
 8036SOL    HW225008   5.788   2.725   3.881
 8037SOL     OW25009   1.767   1.650   5.496
 8037SOL    HW125010   1.795   1.744   5.514
 8037SOL    HW225011   1.670   1.647   5.473
 8038SOL     OW25012   6.994   5.106   2.130
 8038SOL    HW125013   6.930   5.031   2.146
 8038SOL    HW225014   6.944   5.188   2.105
 8039SOL     OW25015   1.120   2.456   5.619
 8039SOL    HW125016   1.165   2.489   5.702
 8039SOL    HW225017   1.089   2.535   5.565
 8040SOL     OW25018   1.696   5.006   6.592
 8040SOL    HW125019   1.768   4.995   6.661
 8040SOL    HW225020   1.737   5.032   6.505
 8041SOL     OW25021   3.399   1.365   2.967
 8041SOL    HW125022   3.441   1.455   2.958
 8041SOL    HW225023   3.347   1.361   3.052
 8042SOL     OW25024   4.111   4.193   5.682
 8042SOL    HW125025   4.015   4.200   5.708
 8042SOL    HW225026   4.166   4.251   5.742
 8043SOL     OW25027   5.060   5.673   6.790
 8043SOL    HW125028   5.082   5.714   6.701
 8043SOL    HW225029   5.003   5.593   6.776
 8044SOL     OW25030   2.698   3.465   1.781
 8044SOL    HW125031   2.613   3.468   1.833
 8044SOL    HW225032   2.754   3.544   1.803
 8045SOL     OW25033   6.680   2.865   3.558
 8045SOL    HW125034   6.726   2.824   3.636
 8045SOL    HW225035   6.735   2.852   3.476
 8046SOL     OW25036   6.874   4.875   2.203
 8046SOL    HW125037   6.789   4.871   2.151
 8046SOL    HW225038   6.927   4.792   2.186
 8047SOL     OW25039   3.183   6.469   6.799
 8047SOL    HW125040   3.240   6.392   6.829
 8047SOL    HW225041   3.144   6.447   6.709
 8048SOL     OW25042   4.102   2.358   5.991
 8048SOL    HW125043   4.034   2.424   5.960
 8048SOL    HW225044   4.186   2.405   6.018
 8049SOL     OW25045   1.779   2.048   0.472
 8049SOL    HW125046   1.812   2.139   0.497
 8049SOL    HW225047   1.679   2.046   0.476
 8050SOL     OW25048   0.715   4.772   5.469
 8050SOL    HW125049   0.752   4.837   5.403
 8050SOL    HW225050   0.786   4.744   5.534
 8051SOL     OW25051   4.397   6.044   3.730
 8051SOL    HW125052   4.410   5.978   3.657
 8051SOL    HW225053   4.445   6.129   3.708
 8052SOL     OW25054   2.776   1.964   2.322
 8052SOL    HW125055   2.817   2.037   2.267
 8052SOL    HW225056   2.821   1.961   2.412
 8053SOL     OW25057   2.126   2.572   6.410
 8053SOL    HW125058   2.076   2.594   6.326
 8053SOL    HW225059   2.072   2.507   6.464
 8054SOL     OW25060   4.664   3.469   5.396
 8054SOL    HW125061   4.642   3.534   5.323
 8054SOL    HW225062   4.651   3.376   5.363
 8055SOL     OW25063   5.804   0.560   6.831
 8055SOL    HW125064   5.810   0.462   6.817
 8055SOL    HW225065   5.830   0.583   6.925
 8056SOL     OW25066   2.380   0.451   4.382
 8056SOL    HW125067   2.450   0.421   4.317
 8056SOL    HW225068   2.397   0.409   4.471
 8057SOL     OW25069   2.757   2.118   1.888
 8057SOL    HW125070   2.817   2.180   1.939
 8057SOL    HW225071   2.765   2.137   1.790
 8058SOL     OW25072   3.371   0.033   2.162
 8058SOL    HW125073   3.294   0.089   2.192
 8058SOL    HW225074   3.417   0.078   2.086
 8059SOL     OW25075   2.991   2.646   6.081
 8059SOL    HW125076   2.959   2.599   5.998
 8059SOL    HW225077   2.925   2.631   6.155
 8060SOL     OW25078   6.098   0.595   6.214
 8060SOL    HW125079   6.112   0.693   6.228
 8060SOL    HW225080   6.052   0.580   6.126
 8061SOL     OW25081   0.104   0.119   2.875
 8061SOL    HW125082   0.116   0.023   2.899
 8061SOL    HW225083   0.163   0.142   2.797
 8062SOL     OW25084   4.143   5.704   5.800
 8062SOL    HW125085   4.220   5.646   5.825
 8062SOL    HW225086   4.059   5.669   5.842
 8063SOL     OW25087   3.489   5.187   3.477
 8063SOL    HW125088   3.548   5.128   3.423
 8063SOL    HW225089   3.415   5.223   3.420
 8064SOL     OW25090   6.434   1.770   0.328
 8064SOL    HW125091   6.350   1.719   0.310
 8064SOL    HW225092   6.503   1.709   0.366
 8065SOL     OW25093   4.140   5.675   6.730
 8065SOL    HW125094   4.067   5.637   6.787
 8065SOL    HW225095   4.105   5.754   6.679
 8066SOL     OW25096   0.367   6.836   5.936
 8066SOL    HW125097   0.353   6.928   5.898
 8066SOL    HW225098   0.397   6.845   6.032
 8067SOL     OW25099   4.805   2.446   3.558
 8067SOL    HW125100   4.881   2.486   3.508
 8067SOL    HW225101   4.840   2.381   3.625
 8068SOL     OW25102   5.761   4.019   1.268
 8068SOL    HW125103   5.804   3.972   1.191
 8068SOL    HW225104   5.701   3.955   1.316
 8069SOL     OW25105   2.433   5.121   3.240
 8069SOL    HW125106   2.441   5.173   3.325
 8069SOL    HW225107   2.343   5.079   3.235
 8070SOL     OW25108   4.404   4.572   0.557
 8070SOL    HW125109   4.453   4.628   0.624
 8070SOL    HW225110   4.466   4.503   0.519
 8071SOL     OW25111   2.516   0.140   6.356
 8071SOL    HW125112   2.601   0.176   6.317
 8071SOL    HW225113   2.488   0.059   6.304
 8072SOL     OW25114   1.839   1.606   5.795
 8072SOL    HW125115   1.842   1.629   5.697
 8072SOL    HW225116   1.754   1.558   5.816
 8073SOL     OW25117   4.412   0.649   6.854
 8073SOL    HW125118   4.347   0.675   6.783
 8073SOL    HW225119   4.380   0.684   6.942
 8074SOL     OW25120   1.478   1.342   6.008
 8074SOL    HW125121   1.514   1.253   6.037
 8074SOL    HW225122   1.433   1.334   5.919
 8075SOL     OW25123   0.121   6.643   0.722
 8075SOL    HW125124   0.112   6.548   0.753
 8075SOL    HW225125   0.068   6.656   0.639
 8076SOL     OW25126   6.947   6.174   0.542
 8076SOL    HW125127   6.994   6.253   0.504
 8076SOL    HW225128   6.985   6.152   0.632
 8077SOL     OW25129   4.820   4.489   0.585
 8077SOL    HW125130   4.736   4.457   0.540
 8077SOL    HW225131   4.864   4.412   0.632
 8078SOL     OW25132   0.734   1.132   2.068
 8078SOL    HW125133   0.681   1.215   2.051
 8078SOL    HW225134   0.686   1.076   2.136
 8079SOL     OW25135   1.280   1.640   6.154
 8079SOL    HW125136   1.342   1.706   6.195
 8079SOL    HW225137   1.296   1.550   6.194
 8080SOL     OW25138   1.332   3.345   2.912
 8080SOL    HW125139   1.267   3.414   2.943
 8080SOL    HW225140   1.418   3.355   2.962
 8081SOL     OW25141   5.753   6.098   5.004
 8081SOL    HW125142   5.761   6.098   5.104
 8081SOL    HW225143   5.658   6.086   4.978
 8082SOL     OW25144   3.882   1.706   2.767
 8082SOL    HW125145   3.858   1.721   2.863
 8082SOL    HW225146   3.963   1.646   2.763
 8083SOL     OW25147   5.710   2.022   4.263
 8083SOL    HW125148   5.622   1.976   4.274
 8083SOL    HW225149   5.778   1.978   4.322
 8084SOL     OW25150   3.796   1.608   5.913
 8084SOL    HW125151   3.699   1.626   5.927
 8084SOL    HW225152   3.810   1.510   5.900
 8085SOL     OW25153   1.597   6.249   4.256
 8085SOL    HW125154   1.643   6.249   4.167
 8085SOL    HW225155   1.498   6.255   4.242
 8086SOL     OW25156   6.598   0.583   2.376
 8086SOL    HW125157   6.662   0.597   2.300
 8086SOL    HW225158   6.571   0.487   2.380
 8087SOL     OW25159   0.798   0.423   0.094
 8087SOL    HW125160   0.892   0.447   0.069
 8087SOL    HW225161   0.798   0.360   0.172
 8088SOL     OW25162   6.426   0.258   4.711
 8088SOL    HW125163   6.473   0.222   4.792
 8088SOL    HW225164   6.476   0.338   4.677
 8089SOL     OW25165   6.603   1.969   5.982
 8089SOL    HW125166   6.637   2.026   6.057
 8089SOL    HW225167   6.547   1.894   6.019
 8090SOL     OW25168   4.381   1.957   4.896
 8090SOL    HW125169   4.316   2.029   4.871
 8090SOL    HW225170   4.379   1.944   4.996
 8091SOL     OW25171   1.880   5.167   4.198
 8091SOL    HW125172   1.960   5.226   4.190
 8091SOL    HW225173   1.899   5.092   4.261
 8092SOL     OW25174   4.677   1.763   5.806
 8092SOL    HW125175   4.769   1.796   5.825
 8092SOL    HW225176   4.659   1.769   5.708
 8093SOL     OW25177   3.643   6.160   2.418
 8093SOL    HW125178   3.563   6.102   2.405
 8093SOL    HW225179   3.662   6.212   2.334
 8094SOL     OW25180   1.868   4.610   4.189
 8094SOL    HW125181   1.861   4.511   4.197
 8094SOL    HW225182   1.845   4.652   4.277
 8095SOL     OW25183   1.432   4.793   5.550
 8095SOL    HW125184   1.404   4.876   5.503
 8095SOL    HW225185   1.531   4.795   5.565
 8096SOL     OW25186   1.406   5.820   1.427
 8096SOL    HW125187   1.346   5.776   1.493
 8096SOL    HW225188   1.435   5.908   1.463
 8097SOL     OW25189   4.564   6.209   5.779
 8097SOL    HW125190   4.539   6.265   5.700
 8097SOL    HW225191   4.591   6.268   5.855
 8098SOL     OW25192   1.553   5.716   5.024
 8098SOL    HW125193   1.514   5.648   4.961
 8098SOL    HW225194   1.487   5.791   5.035
 8099SOL     OW25195   2.528   4.890   2.829
 8099SOL    HW125196   2.544   4.877   2.927
 8099SOL    HW225197   2.616   4.897   2.782
 8100SOL     OW25198   0.566   1.012   6.728
 8100SOL    HW125199   0.491   1.061   6.773
 8100SOL    HW225200   0.529   0.934   6.678
 8101SOL     OW25201   2.702   6.328   1.232
 8101SOL    HW125202   2.640   6.345   1.155
 8101SOL    HW225203   2.742   6.237   1.222
 8102SOL     OW25204   1.727   3.428   4.944
 8102SOL    HW125205   1.642   3.425   4.892
 8102SOL    HW225206   1.805   3.424   4.882
 8103SOL     OW25207   3.353   0.882   1.516
 8103SOL    HW125208   3.383   0.918   1.428
 8103SOL    HW225209   3.308   0.793   1.502
 8104SOL     OW25210   2.211   5.987   0.339
 8104SOL    HW125211   2.167   5.899   0.325
 8104SOL    HW225212   2.253   6.018   0.254
 8105SOL     OW25213   6.923   0.357   3.565
 8105SOL    HW125214   6.905   0.394   3.656
 8105SOL    HW225215   7.020   0.333   3.558
 8106SOL     OW25216   1.930   6.873   5.975
 8106SOL    HW125217   1.977   6.807   6.034
 8106SOL    HW225218   1.893   6.947   6.031
 8107SOL     OW25219   1.977   6.080   6.148
 8107SOL    HW125220   1.907   6.151   6.145
 8107SOL    HW225221   2.067   6.122   6.164
 8108SOL     OW25222   0.569   1.398   6.795
 8108SOL    HW125223   0.665   1.370   6.800
 8108SOL    HW225224   0.527   1.391   6.886
 8109SOL     OW25225   6.329   3.106   0.787
 8109SOL    HW125226   6.410   3.162   0.770
 8109SOL    HW225227   6.289   3.078   0.699
 8110SOL     OW25228   4.006   4.874   1.402
 8110SOL    HW125229   4.023   4.942   1.332
 8110SOL    HW225230   4.025   4.783   1.366
 8111SOL     OW25231   6.454   1.287   2.752
 8111SOL    HW125232   6.380   1.254   2.693
 8111SOL    HW225233   6.507   1.210   2.785
 8112SOL     OW25234   1.400   3.751   6.073
 8112SOL    HW125235   1.477   3.733   6.133
 8112SOL    HW225236   1.341   3.821   6.114
 8113SOL     OW25237   5.712   3.187   5.902
 8113SOL    HW125238   5.783   3.257   5.895
 8113SOL    HW225239   5.741   3.118   5.968
 8114SOL     OW25240   1.987   4.180   1.635
 8114SOL    HW125241   1.973   4.234   1.718
 8114SOL    HW225242   2.084   4.155   1.627
 8115SOL     OW25243   2.413   1.876   6.304
 8115SOL    HW125244   2.365   1.892   6.218
 8115SOL    HW225245   2.478   1.950   6.321
 8116SOL     OW25246   3.960   3.630   0.895
 8116SOL    HW125247   3.939   3.532   0.896
 8116SOL    HW225248   3.900   3.677   0.961
 8117SOL     OW25249   2.494   6.962   3.265
 8117SOL    HW125250   2.493   6.876   3.214
 8117SOL    HW225251   2.488   0.014   3.202
 8118SOL     OW25252   6.426   3.206   0.409
 8118SOL    HW125253   6.382   3.134   0.463
 8118SOL    HW225254   6.516   3.174   0.378
 8119SOL     OW25255   6.053   6.099   0.323
 8119SOL    HW125256   6.130   6.041   0.352
 8119SOL    HW225257   6.087   6.190   0.299
 8120SOL     OW25258   3.028   6.575   1.518
 8120SOL    HW125259   3.069   6.663   1.493
 8120SOL    HW225260   3.033   6.513   1.439
 8121SOL     OW25261   1.152   3.517   3.021
 8121SOL    HW125262   1.168   3.554   3.112
 8121SOL    HW225263   1.069   3.461   3.022
 8122SOL     OW25264   0.772   4.854   1.787
 8122SOL    HW125265   0.712   4.931   1.811
 8122SOL    HW225266   0.718   4.782   1.744
 8123SOL     OW25267   0.655   1.835   6.781
 8123SOL    HW125268   0.734   1.865   6.728
 8123SOL    HW225269   0.634   1.740   6.758
 8124SOL     OW25270   5.261   4.536   4.882
 8124SOL    HW125271   5.192   4.589   4.930
 8124SOL    HW225272   5.301   4.592   4.809
 8125SOL     OW25273   1.728   6.166   3.262
 8125SOL    HW125274   1.770   6.077   3.243
 8125SOL    HW225275   1.630   6.161   3.241
 8126SOL     OW25276   3.695   4.990   4.209
 8126SOL    HW125277   3.601   4.959   4.218
 8126SOL    HW225278   3.720   5.046   4.288
 8127SOL     OW25279   3.358   2.891   0.049
 8127SOL    HW125280   3.424   2.866   7.003
 8127SOL    HW225281   3.273   2.839   0.035
 8128SOL     OW25282   3.620   3.116   1.618
 8128SOL    HW125283   3.553   3.054   1.578
 8128SOL    HW225284   3.580   3.207   1.627
 8129SOL     OW25285   1.865   3.149   2.161
 8129SOL    HW125286   1.897   3.076   2.101
 8129SOL    HW225287   1.900   3.236   2.129
 8130SOL     OW25288   1.520   5.268   6.488
 8130SOL    HW125289   1.594   5.205   6.510
 8130SOL    HW225290   1.503   5.267   6.390
 8131SOL     OW25291   1.780   3.684   6.876
 8131SOL    HW125292   1.705   3.644   6.929
 8131SOL    HW225293   1.842   3.611   6.846
 8132SOL     OW25294   0.206   6.983   5.081
 8132SOL    HW125295   0.180   0.018   5.004
 8132SOL    HW225296   0.126   6.929   5.108
 8133SOL     OW25297   3.866   4.860   0.700
 8133SOL    HW125298   3.823   4.909   0.776
 8133SOL    HW225299   3.800   4.849   0.626
 8134SOL     OW25300   5.575   0.829   6.058
 8134SOL    HW125301   5.507   0.861   5.992
 8134SOL    HW225302   5.563   0.731   6.073
 8135SOL     OW25303   2.220   0.038   1.821
 8135SOL    HW125304   2.246   0.075   1.910
 8135SOL    HW225305   2.120   0.044   1.811
 8136SOL     OW25306   4.613   4.451   2.296
 8136SOL    HW125307   4.633   4.528   2.235
 8136SOL    HW225308   4.612   4.366   2.243
 8137SOL     OW25309   3.963   1.236   4.486
 8137SOL    HW125310   3.899   1.169   4.523
 8137SOL    HW225311   3.954   1.239   4.386
 8138SOL     OW25312   4.714   1.547   1.685
 8138SOL    HW125313   4.746   1.560   1.591
 8138SOL    HW225314   4.691   1.450   1.699
 8139SOL     OW25315   0.920   2.150   3.635
 8139SOL    HW125316   1.014   2.167   3.606
 8139SOL    HW225317   0.857   2.196   3.573
 8140SOL     OW25318   4.086   0.854   3.181
 8140SOL    HW125319   4.037   0.784   3.234
 8140SOL    HW225320   4.020   0.915   3.138
 8141SOL     OW25321   4.598   4.809   4.437
 8141SOL    HW125322   4.544   4.886   4.471
 8141SOL    HW225323   4.538   4.746   4.388
 8142SOL     OW25324   6.530   5.997   0.683
 8142SOL    HW125325   6.610   5.960   0.731
 8142SOL    HW225326   6.461   5.925   0.672
 8143SOL     OW25327   6.193   3.551   4.630
 8143SOL    HW125328   6.258   3.593   4.566
 8143SOL    HW225329   6.211   3.453   4.636
 8144SOL     OW25330   6.135   6.252   6.491
 8144SOL    HW125331   6.038   6.228   6.491
 8144SOL    HW225332   6.145   6.350   6.507
 8145SOL     OW25333   5.860   5.877   2.552
 8145SOL    HW125334   5.784   5.841   2.606
 8145SOL    HW225335   5.933   5.907   2.614
 8146SOL     OW25336   3.110   1.429   4.435
 8146SOL    HW125337   3.189   1.489   4.451
 8146SOL    HW225338   3.087   1.382   4.520
 8147SOL     OW25339   4.893   0.919   3.917
 8147SOL    HW125340   4.838   0.837   3.935
 8147SOL    HW225341   4.951   0.903   3.837
 8148SOL     OW25342   5.662   3.831   3.543
 8148SOL    HW125343   5.733   3.852   3.610
 8148SOL    HW225344   5.580   3.885   3.563
 8149SOL     OW25345   4.400   4.796   3.353
 8149SOL    HW125346   4.496   4.819   3.338
 8149SOL    HW225347   4.350   4.879   3.379
 8150SOL     OW25348   0.642   5.641   1.031
 8150SOL    HW125349   0.550   5.610   1.055
 8150SOL    HW225350   0.709   5.574   1.061
 8151SOL     OW25351   1.324   1.727   5.217
 8151SOL    HW125352   1.236   1.769   5.197
 8151SOL    HW225353   1.397   1.794   5.202
 8152SOL     OW25354   1.161   1.295   3.392
 8152SOL    HW125355   1.173   1.389   3.360
 8152SOL    HW225356   1.103   1.245   3.329
 8153SOL     OW25357   2.261   6.730   0.742
 8153SOL    HW125358   2.233   6.806   0.683
 8153SOL    HW225359   2.180   6.676   0.766
 8154SOL     OW25360   1.974   6.873   3.943
 8154SOL    HW125361   1.939   6.846   3.853
 8154SOL    HW225362   1.914   6.836   4.014
 8155SOL     OW25363   3.123   3.065   3.542
 8155SOL    HW125364   3.067   3.084   3.461
 8155SOL    HW225365   3.067   3.071   3.624
 8156SOL     OW25366   6.401   0.623   6.247
 8156SOL    HW125367   6.423   0.534   6.286
 8156SOL    HW225368   6.319   0.660   6.292
 8157SOL     OW25369   6.369   3.891   6.394
 8157SOL    HW125370   6.309   3.850   6.325
 8157SOL    HW225371   6.388   3.824   6.465
 8158SOL     OW25372   1.870   5.078   2.221
 8158SOL    HW125373   1.918   4.991   2.218
 8158SOL    HW225374   1.796   5.077   2.154
 8159SOL     OW25375   1.855   5.618   2.253
 8159SOL    HW125376   1.877   5.715   2.245
 8159SOL    HW225377   1.768   5.607   2.302
 8160SOL     OW25378   4.354   2.112   2.030
 8160SOL    HW125379   4.264   2.069   2.039
 8160SOL    HW225380   4.404   2.069   1.955
 8161SOL     OW25381   4.871   1.270   0.553
 8161SOL    HW125382   4.912   1.238   0.638
 8161SOL    HW225383   4.864   1.370   0.555
 8162SOL     OW25384   5.566   0.776   2.057
 8162SOL    HW125385   5.489   0.756   1.996
 8162SOL    HW225386   5.645   0.721   2.029
 8163SOL     OW25387   2.514   4.162   5.325
 8163SOL    HW125388   2.506   4.081   5.268
 8163SOL    HW225389   2.429   4.175   5.377
 8164SOL     OW25390   4.144   2.199   1.663
 8164SOL    HW125391   4.147   2.118   1.721
 8164SOL    HW225392   4.227   2.253   1.676
 8165SOL     OW25393   2.312   5.162   1.454
 8165SOL    HW125394   2.333   5.087   1.517
 8165SOL    HW225395   2.339   5.137   1.362
 8166SOL     OW25396   2.643   6.992   1.951
 8166SOL    HW125397   2.617   0.036   1.882
 8166SOL    HW225398   2.568   6.982   2.017
 8167SOL     OW25399   5.133   2.788   3.607
 8167SOL    HW125400   5.222   2.744   3.621
 8167SOL    HW225401   5.073   2.768   3.684
 8168SOL     OW25402   3.114   0.799   2.836
 8168SOL    HW125403   3.207   0.809   2.871
 8168SOL    HW225404   3.108   0.714   2.784
 8169SOL     OW25405   4.878   3.683   6.245
 8169SOL    HW125406   4.946   3.640   6.305
 8169SOL    HW225407   4.915   3.769   6.211
 8170SOL     OW25408   0.577   5.620   4.068
 8170SOL    HW125409   0.566   5.696   4.132
 8170SOL    HW225410   0.546   5.535   4.111
 8171SOL     OW25411   0.740   1.827   5.988
 8171SOL    HW125412   0.752   1.817   5.889
 8171SOL    HW225413   0.698   1.916   6.008
 8172SOL     OW25414   6.712   6.438   0.681
 8172SOL    HW125415   6.643   6.428   0.752
 8172SOL    HW225416   6.677   6.399   0.595
 8173SOL     OW25417   5.422   2.962   6.442
 8173SOL    HW125418   5.513   2.933   6.411
 8173SOL    HW225419   5.359   2.885   6.440
 8174SOL     OW25420   5.654   0.619   2.443
 8174SOL    HW125421   5.583   0.682   2.473
 8174SOL    HW225422   5.618   0.560   2.371
 8175SOL     OW25423   0.985   3.489   6.572
 8175SOL    HW125424   1.002   3.453   6.664
 8175SOL    HW225425   1.069   3.486   6.518
 8176SOL     OW25426   2.458   5.497   2.777
 8176SOL    HW125427   2.468   5.434   2.700
 8176SOL    HW225428   2.548   5.514   2.817
 8177SOL     OW25429   0.822   6.945   6.018
 8177SOL    HW125430   0.910   6.905   5.994
 8177SOL    HW225431   0.749   6.889   5.980
 8178SOL     OW25432   2.088   6.861   6.507
 8178SOL    HW125433   2.053   6.838   6.417
 8178SOL    HW225434   2.159   6.795   6.534
 8179SOL     OW25435   3.062   1.430   0.145
 8179SOL    HW125436   3.037   1.428   0.242
 8179SOL    HW225437   3.142   1.372   0.130
 8180SOL     OW25438   5.121   5.410   5.046
 8180SOL    HW125439   5.218   5.406   5.072
 8180SOL    HW225440   5.065   5.392   5.127
 8181SOL     OW25441   2.497   2.163   2.510
 8181SOL    HW125442   2.426   2.166   2.580
 8181SOL    HW225443   2.456   2.172   2.420
 8182SOL     OW25444   3.878   2.487   5.865
 8182SOL    HW125445   3.859   2.458   5.771
 8182SOL    HW225446   3.795   2.525   5.906
 8183SOL     OW25447   1.509   3.420   4.769
 8183SOL    HW125448   1.477   3.396   4.677
 8183SOL    HW225449   1.508   3.519   4.781
 8184SOL     OW25450   5.955   6.157   5.662
 8184SOL    HW125451   5.966   6.247   5.702
 8184SOL    HW225452   5.904   6.098   5.724
 8185SOL     OW25453   1.407   1.621   3.223
 8185SOL    HW125454   1.363   1.648   3.137
 8185SOL    HW225455   1.498   1.584   3.204
 8186SOL     OW25456   3.592   4.623   6.135
 8186SOL    HW125457   3.684   4.597   6.106
 8186SOL    HW225458   3.564   4.707   6.088
 8187SOL     OW25459   1.236   1.744   5.908
 8187SOL    HW125460   1.247   1.736   6.007
 8187SOL    HW225461   1.272   1.661   5.864
 8188SOL     OW25462   5.749   3.967   2.689
 8188SOL    HW125463   5.668   4.026   2.692
 8188SOL    HW225464   5.795   3.977   2.601
 8189SOL     OW25465   6.103   4.511   2.346
 8189SOL    HW125466   6.097   4.482   2.442
 8189SOL    HW225467   6.015   4.550   2.317
 8190SOL     OW25468   5.224   3.392   2.623
 8190SOL    HW125469   5.217   3.293   2.620
 8190SOL    HW225470   5.312   3.419   2.662
 8191SOL     OW25471   0.662   5.349   2.305
 8191SOL    HW125472   0.648   5.275   2.239
 8191SOL    HW225473   0.755   5.385   2.296
 8192SOL     OW25474   1.648   3.896   1.204
 8192SOL    HW125475   1.696   3.874   1.119
 8192SOL    HW225476   1.551   3.911   1.185
 8193SOL     OW25477   3.488   0.597   6.000
 8193SOL    HW125478   3.400   0.642   5.987
 8193SOL    HW225479   3.554   0.664   6.036
 8194SOL     OW25480   1.629   0.427   0.718
 8194SOL    HW125481   1.627   0.520   0.754
 8194SOL    HW225482   1.709   0.416   0.658
 8195SOL     OW25483   5.855   0.124   1.134
 8195SOL    HW125484   5.871   0.110   1.036
 8195SOL    HW225485   5.840   0.036   1.178
 8196SOL     OW25486   2.727   0.483   6.115
 8196SOL    HW125487   2.705   0.386   6.106
 8196SOL    HW225488   2.742   0.505   6.211
 8197SOL     OW25489   0.991   6.856   0.074
 8197SOL    HW125490   1.056   6.834   0.147
 8197SOL    HW225491   0.957   6.949   0.087
 8198SOL     OW25492   4.101   6.246   2.725
 8198SOL    HW125493   4.147   6.255   2.814
 8198SOL    HW225494   4.099   6.335   2.680
 8199SOL     OW25495   6.115   3.964   0.529
 8199SOL    HW125496   6.062   4.048   0.514
 8199SOL    HW225497   6.073   3.889   0.477
 8200SOL     OW25498   4.912   3.617   1.328
 8200SOL    HW125499   4.877   3.704   1.363
 8200SOL    HW225500   4.883   3.543   1.388
 8201SOL     OW25501   6.465   1.337   4.618
 8201SOL    HW125502   6.471   1.346   4.717
 8201SOL    HW225503   6.491   1.424   4.575
 8202SOL     OW25504   1.968   4.405   3.769
 8202SOL    HW125505   2.006   4.464   3.697
 8202SOL    HW225506   1.900   4.456   3.822
 8203SOL     OW25507   6.102   3.473   1.162
 8203SOL    HW125508   6.097   3.401   1.092
 8203SOL    HW225509   6.174   3.537   1.139
 8204SOL     OW25510   3.605   7.025   0.537
 8204SOL    HW125511   3.571   0.051   0.458
 8204SOL    HW225512   3.705   0.001   0.537
 8205SOL     OW25513   5.809   5.562   2.995
 8205SOL    HW125514   5.831   5.659   2.984
 8205SOL    HW225515   5.785   5.544   3.090
 8206SOL     OW25516   4.484   2.077   3.981
 8206SOL    HW125517   4.439   2.164   3.999
 8206SOL    HW225518   4.505   2.031   4.067
 8207SOL     OW25519   2.915   6.578   0.124
 8207SOL    HW125520   2.839   6.520   0.095
 8207SOL    HW225521   2.976   6.595   0.046
 8208SOL     OW25522   1.546   4.813   6.169
 8208SOL    HW125523   1.536   4.825   6.268
 8208SOL    HW225524   1.639   4.783   6.149
 8209SOL     OW25525   0.763   6.579   5.487
 8209SOL    HW125526   0.674   6.580   5.532
 8209SOL    HW225527   0.750   6.580   5.388
 8210SOL     OW25528   3.244   1.715   0.079
 8210SOL    HW125529   3.289   1.786   0.134
 8210SOL    HW225530   3.145   1.718   0.096
 8211SOL     OW25531   2.982   3.568   4.671
 8211SOL    HW125532   2.963   3.479   4.714
 8211SOL    HW225533   2.963   3.641   4.736
 8212SOL     OW25534   3.638   6.319   1.505
 8212SOL    HW125535   3.648   6.227   1.468
 8212SOL    HW225536   3.725   6.367   1.500
 8213SOL     OW25537   4.377   4.017   1.626
 8213SOL    HW125538   4.290   3.968   1.635
 8213SOL    HW225539   4.384   4.086   1.699
 8214SOL     OW25540   3.791   5.137   4.434
 8214SOL    HW125541   3.871   5.121   4.375
 8214SOL    HW225542   3.821   5.145   4.529
 8215SOL     OW25543   3.356   6.083   6.340
 8215SOL    HW125544   3.414   6.026   6.282
 8215SOL    HW225545   3.283   6.028   6.380
 8216SOL     OW25546   5.976   4.704   1.681
 8216SOL    HW125547   5.928   4.655   1.608
 8216SOL    HW225548   5.986   4.644   1.760
 8217SOL     OW25549   2.344   6.121   3.687
 8217SOL    HW125550   2.327   6.208   3.641
 8217SOL    HW225551   2.320   6.128   3.783
 8218SOL     OW25552   3.011   6.581   5.349
 8218SOL    HW125553   2.966   6.574   5.259
 8218SOL    HW225554   3.091   6.522   5.351
 8219SOL     OW25555   4.004   2.987   1.815
 8219SOL    HW125556   4.074   3.048   1.851
 8219SOL    HW225557   4.037   2.893   1.818
 8220SOL     OW25558   3.152   4.026   4.506
 8220SOL    HW125559   3.162   4.054   4.602
 8220SOL    HW225560   3.122   3.931   4.502
 8221SOL     OW25561   5.783   4.208   3.068
 8221SOL    HW125562   5.738   4.248   3.148
 8221SOL    HW225563   5.820   4.118   3.092
 8222SOL     OW25564   6.712   2.787   0.603
 8222SOL    HW125565   6.730   2.769   0.699
 8222SOL    HW225566   6.629   2.738   0.575
 8223SOL     OW25567   2.090   6.412   6.306
 8223SOL    HW125568   2.039   6.415   6.220
 8223SOL    HW225569   2.179   6.369   6.290
 8224SOL     OW25570   5.235   1.083   0.115
 8224SOL    HW125571   5.196   1.121   0.199
 8224SOL    HW225572   5.273   1.158   0.060
 8225SOL     OW25573   5.961   2.441   0.071
 8225SOL    HW125574   6.025   2.374   0.110
 8225SOL    HW225575   5.882   2.392   0.034
 8226SOL     OW25576   4.005   1.111   0.428
 8226SOL    HW125577   4.068   1.039   0.398
 8226SOL    HW225578   3.987   1.174   0.352
 8227SOL     OW25579   3.687   2.083   2.671
 8227SOL    HW125580   3.700   2.051   2.764
 8227SOL    HW225581   3.730   2.019   2.607
 8228SOL     OW25582   2.612   0.254   4.748
 8228SOL    HW125583   2.554   0.247   4.829
 8228SOL    HW225584   2.683   0.183   4.752
 8229SOL     OW25585   4.590   4.433   0.409
 8229SOL    HW125586   4.627   4.485   0.332
 8229SOL    HW225587   4.514   4.377   0.379
 8230SOL     OW25588   5.746   0.451   6.006
 8230SOL    HW125589   5.810   0.527   6.011
 8230SOL    HW225590   5.790   0.374   5.960
 8231SOL     OW25591   2.868   1.164   2.332
 8231SOL    HW125592   2.800   1.202   2.394
 8231SOL    HW225593   2.825   1.096   2.273
 8232SOL     OW25594   3.396   5.564   3.210
 8232SOL    HW125595   3.469   5.632   3.205
 8232SOL    HW225596   3.325   5.594   3.274
 8233SOL     OW25597   1.446   1.102   6.328
 8233SOL    HW125598   1.472   1.122   6.233
 8233SOL    HW225599   1.349   1.078   6.331
 8234SOL     OW25600   1.349   2.308   0.472
 8234SOL    HW125601   1.255   2.281   0.452
 8234SOL    HW225602   1.359   2.406   0.454
 8235SOL     OW25603   0.598   0.452   1.497
 8235SOL    HW125604   0.653   0.391   1.440
 8235SOL    HW225605   0.543   0.511   1.439
 8236SOL     OW25606   0.995   0.126   1.912
 8236SOL    HW125607   1.042   0.208   1.945
 8236SOL    HW225608   0.925   0.153   1.846
 8237SOL     OW25609   3.939   4.551   6.112
 8237SOL    HW125610   4.012   4.506   6.061
 8237SOL    HW225611   3.964   4.646   6.130
 8238SOL     OW25612   0.761   5.025   0.892
 8238SOL    HW125613   0.764   4.931   0.860
 8238SOL    HW225614   0.826   5.038   0.967
 8239SOL     OW25615   1.882   1.707   6.265
 8239SOL    HW125616   1.901   1.610   6.250
 8239SOL    HW225617   1.833   1.719   6.351
 8240SOL     OW25618   3.707   3.780   4.556
 8240SOL    HW125619   3.755   3.863   4.582
 8240SOL    HW225620   3.773   3.705   4.546
 8241SOL     OW25621   1.744   3.627   5.621
 8241SOL    HW125622   1.783   3.667   5.704
 8241SOL    HW225623   1.817   3.584   5.567
 8242SOL     OW25624   0.904   3.527   2.515
 8242SOL    HW125625   0.812   3.531   2.555
 8242SOL    HW225626   0.969   3.497   2.584
 8243SOL     OW25627   1.355   5.149   3.928
 8243SOL    HW125628   1.407   5.231   3.950
 8243SOL    HW225629   1.274   5.144   3.987
 8244SOL     OW25630   6.840   1.411   3.578
 8244SOL    HW125631   6.796   1.334   3.532
 8244SOL    HW225632   6.886   1.468   3.510
 8245SOL     OW25633   5.679   2.529   2.340
 8245SOL    HW125634   5.639   2.443   2.372
 8245SOL    HW225635   5.631   2.559   2.257
 8246SOL     OW25636   2.030   5.140   6.494
 8246SOL    HW125637   2.045   5.071   6.423
 8246SOL    HW225638   2.023   5.094   6.583
 8247SOL     OW25639   3.122   5.445   2.887
 8247SOL    HW125640   3.188   5.515   2.859
 8247SOL    HW225641   3.170   5.373   2.937
 8248SOL     OW25642   6.384   5.279   3.832
 8248SOL    HW125643   6.391   5.378   3.834
 8248SOL    HW225644   6.408   5.245   3.741
 8249SOL     OW25645   3.208   1.305   6.850
 8249SOL    HW125646   3.129   1.366   6.845
 8249SOL    HW225647   3.177   1.210   6.850
 8250SOL     OW25648   1.096   1.797   6.741
 8250SOL    HW125649   1.150   1.880   6.758
 8250SOL    HW225650   1.003   1.823   6.714
 8251SOL     OW25651   0.837   2.341   4.844
 8251SOL    HW125652   0.762   2.372   4.786
 8251SOL    HW225653   0.890   2.420   4.874
 8252SOL     OW25654   0.863   1.928   6.618
 8252SOL    HW125655   0.883   2.023   6.594
 8252SOL    HW225656   0.890   1.868   6.542
 8253SOL     OW25657   4.253   5.945   6.692
 8253SOL    HW125658   4.232   5.953   6.790
 8253SOL    HW225659   4.173   5.908   6.645
 8254SOL     OW25660   5.888   5.294   0.404
 8254SOL    HW125661   5.880   5.354   0.324
 8254SOL    HW225662   5.882   5.198   0.374
 8255SOL     OW25663   2.225   0.449   5.558
 8255SOL    HW125664   2.202   0.518   5.627
 8255SOL    HW225665   2.245   0.495   5.471
 8256SOL     OW25666   1.146   5.196   5.025
 8256SOL    HW125667   1.238   5.236   5.024
 8256SOL    HW225668   1.094   5.234   5.101
 8257SOL     OW25669   5.248   3.889   3.096
 8257SOL    HW125670   5.180   3.901   3.024
 8257SOL    HW225671   5.256   3.792   3.119
 8258SOL     OW25672   0.713   3.375   2.679
 8258SOL    HW125673   0.625   3.359   2.633
 8258SOL    HW225674   0.696   3.408   2.772
 8259SOL     OW25675   5.527   1.698   4.048
 8259SOL    HW125676   5.565   1.771   3.991
 8259SOL    HW225677   5.434   1.678   4.018
 8260SOL     OW25678   4.902   2.749   1.002
 8260SOL    HW125679   4.854   2.837   1.006
 8260SOL    HW225680   4.836   2.675   0.992
 8261SOL     OW25681   5.403   1.377   2.854
 8261SOL    HW125682   5.337   1.416   2.919
 8261SOL    HW225683   5.354   1.326   2.784
 8262SOL     OW25684   5.367   3.349   2.097
 8262SOL    HW125685   5.301   3.342   2.172
 8262SOL    HW225686   5.437   3.415   2.120
 8263SOL     OW25687   6.484   1.663   5.665
 8263SOL    HW125688   6.556   1.597   5.644
 8263SOL    HW225689   6.525   1.746   5.703
 8264SOL     OW25690   3.597   0.372   2.526
 8264SOL    HW125691   3.557   0.463   2.536
 8264SOL    HW225692   3.594   0.325   2.614
 8265SOL     OW25693   5.005   6.046   0.577
 8265SOL    HW125694   4.964   5.955   0.582
 8265SOL    HW225695   5.044   6.069   0.666
 8266SOL     OW25696   3.092   0.977   4.097
 8266SOL    HW125697   3.045   0.908   4.152
 8266SOL    HW225698   3.139   1.042   4.157
 8267SOL     OW25699   2.157   3.303   2.547
 8267SOL    HW125700   2.164   3.345   2.457
 8267SOL    HW225701   2.142   3.205   2.537
 8268SOL     OW25702   3.245   4.282   6.486
 8268SOL    HW125703   3.297   4.247   6.408
 8268SOL    HW225704   3.148   4.281   6.464
 8269SOL     OW25705   6.435   3.094   4.585
 8269SOL    HW125706   6.490   3.087   4.503
 8269SOL    HW225707   6.495   3.108   4.664
 8270SOL     OW25708   4.007   5.865   6.585
 8270SOL    HW125709   3.908   5.862   6.602
 8270SOL    HW225710   4.029   5.944   6.528
 8271SOL     OW25711   3.591   6.915   5.816
 8271SOL    HW125712   3.647   6.854   5.760
 8271SOL    HW225713   3.590   6.882   5.910
 8272SOL     OW25714   1.122   0.943   1.982
 8272SOL    HW125715   1.057   0.952   1.907
 8272SOL    HW225716   1.085   0.880   2.051
 8273SOL     OW25717   3.902   0.943   0.114
 8273SOL    HW125718   3.883   1.034   0.152
 8273SOL    HW225719   3.824   0.883   0.132
 8274SOL     OW25720   5.247   6.220   5.587
 8274SOL    HW125721   5.208   6.292   5.530
 8274SOL    HW225722   5.335   6.190   5.548
 8275SOL     OW25723   5.496   0.698   4.310
 8275SOL    HW125724   5.449   0.783   4.284
 8275SOL    HW225725   5.551   0.715   4.392
 8276SOL     OW25726   6.815   1.899   6.928
 8276SOL    HW125727   6.729   1.939   6.896
 8276SOL    HW225728   6.872   1.970   6.968
 8277SOL     OW25729   1.429   0.325   0.101
 8277SOL    HW125730   1.389   0.234   0.115
 8277SOL    HW225731   1.420   0.378   0.184
 8278SOL     OW25732   2.699   1.170   0.829
 8278SOL    HW125733   2.611   1.159   0.876
 8278SOL    HW225734   2.757   1.233   0.882
 8279SOL     OW25735   3.908   5.715   5.369
 8279SOL    HW125736   3.819   5.688   5.408
 8279SOL    HW225737   3.975   5.725   5.443
 8280SOL     OW25738   5.395   3.683   6.770
 8280SOL    HW125739   5.456   3.648   6.699
 8280SOL    HW225740   5.310   3.630   6.770
 8281SOL     OW25741   2.964   5.253   6.972
 8281SOL    HW125742   3.014   5.325   7.020
 8281SOL    HW225743   2.891   5.218   0.006
 8282SOL     OW25744   2.797   3.220   1.745
 8282SOL    HW125745   2.734   3.169   1.687
 8282SOL    HW225746   2.760   3.311   1.763
 8283SOL     OW25747   0.480   6.936   3.919
 8283SOL    HW125748   0.394   6.918   3.872
 8283SOL    HW225749   0.555   6.931   3.853
 8284SOL     OW25750   3.648   1.600   2.298
 8284SOL    HW125751   3.646   1.513   2.347
 8284SOL    HW225752   3.569   1.655   2.325
 8285SOL     OW25753   1.927   4.478   6.898
 8285SOL    HW125754   2.025   4.500   6.896
 8285SOL    HW225755   1.879   4.545   6.955
 8286SOL     OW25756   6.129   2.462   5.518
 8286SOL    HW125757   6.163   2.389   5.459
 8286SOL    HW225758   6.029   2.462   5.516
 8287SOL     OW25759   1.753   0.458   3.514
 8287SOL    HW125760   1.827   0.412   3.563
 8287SOL    HW225761   1.730   0.405   3.432
 8288SOL     OW25762   1.814   6.895   2.972
 8288SOL    HW125763   1.778   6.907   3.064
 8288SOL    HW225764   1.910   6.923   2.969
 8289SOL     OW25765   6.174   0.777   6.857
 8289SOL    HW125766   6.135   0.818   6.775
 8289SOL    HW225767   6.264   0.738   6.836
 8290SOL     OW25768   4.559   2.848   1.727
 8290SOL    HW125769   4.567   2.938   1.771
 8290SOL    HW225770   4.592   2.777   1.789
 8291SOL     OW25771   4.850   5.918   6.413
 8291SOL    HW125772   4.887   5.893   6.323
 8291SOL    HW225773   4.793   5.844   6.447
 8292SOL     OW25774   0.720   2.618   4.960
 8292SOL    HW125775   0.689   2.588   4.870
 8292SOL    HW225776   0.760   2.710   4.952
 8293SOL     OW25777   2.883   5.331   3.920
 8293SOL    HW125778   2.916   5.305   3.829
 8293SOL    HW225779   2.870   5.249   3.975
 8294SOL     OW25780   5.179   4.045   5.716
 8294SOL    HW125781   5.151   4.096   5.635
 8294SOL    HW225782   5.279   4.037   5.717
 8295SOL     OW25783   4.984   4.548   2.372
 8295SOL    HW125784   5.015   4.633   2.328
 8295SOL    HW225785   4.913   4.570   2.439
 8296SOL     OW25786   3.750   6.755   2.182
 8296SOL    HW125787   3.769   6.702   2.264
 8296SOL    HW225788   3.674   6.712   2.132
 8297SOL     OW25789   5.686   4.323   3.314
 8297SOL    HW125790   5.758   4.389   3.292
 8297SOL    HW225791   5.673   4.320   3.414
 8298SOL     OW25792   0.099   6.680   6.953
 8298SOL    HW125793   0.081   6.707   0.022
 8298SOL    HW225794   0.167   6.606   6.952
 8299SOL     OW25795   0.477   3.187   0.239
 8299SOL    HW125796   0.486   3.171   0.140
 8299SOL    HW225797   0.451   3.102   0.284
 8300SOL     OW25798   6.076   5.096   3.960
 8300SOL    HW125799   6.134   5.062   3.886
 8300SOL    HW225800   6.081   5.033   4.037
 8301SOL     OW25801   5.700   6.408   0.497
 8301SOL    HW125802   5.629   6.451   0.441
 8301SOL    HW225803   5.664   6.390   0.588
 8302SOL     OW25804   3.550   6.723   5.345
 8302SOL    HW125805   3.548   6.647   5.409
 8302SOL    HW225806   3.645   6.743   5.319
 8303SOL     OW25807   0.171   5.328   2.466
 8303SOL    HW125808   0.174   5.260   2.393
 8303SOL    HW225809   0.210   5.414   2.433
 8304SOL     OW25810   5.943   4.393   3.201
 8304SOL    HW125811   5.947   4.320   3.133
 8304SOL    HW225812   5.991   4.474   3.166
 8305SOL     OW25813   5.383   6.685   6.008
 8305SOL    HW125814   5.479   6.677   6.035
 8305SOL    HW225815   5.369   6.773   5.963
 8306SOL     OW25816   6.420   1.511   3.496
 8306SOL    HW125817   6.491   1.524   3.566
 8306SOL    HW225818   6.361   1.435   3.522
 8307SOL     OW25819   1.875   3.578   2.845
 8307SOL    HW125820   1.963   3.563   2.801
 8307SOL    HW225821   1.887   3.634   2.927
 8308SOL     OW25822   1.144   5.697   0.890
 8308SOL    HW125823   1.162   5.662   0.982
 8308SOL    HW225824   1.048   5.727   0.884
 8309SOL     OW25825   5.999   5.292   4.154
 8309SOL    HW125826   6.018   5.217   4.090
 8309SOL    HW225827   5.964   5.254   4.239
 8310SOL     OW25828   1.847   0.518   1.446
 8310SOL    HW125829   1.831   0.420   1.460
 8310SOL    HW225830   1.904   0.553   1.521
 8311SOL     OW25831   5.023   5.955   3.139
 8311SOL    HW125832   5.051   5.941   3.234
 8311SOL    HW225833   4.934   5.912   3.124
 8312SOL     OW25834   6.353   1.387   0.199
 8312SOL    HW125835   6.442   1.431   0.214
 8312SOL    HW225836   6.282   1.438   0.246
 8313SOL     OW25837   5.568   2.111   5.479
 8313SOL    HW125838   5.534   2.175   5.547
 8313SOL    HW225839   5.604   2.030   5.525
 8314SOL     OW25840   4.650   6.103   4.417
 8314SOL    HW125841   4.597   6.120   4.500
 8314SOL    HW225842   4.702   6.186   4.394
 8315SOL     OW25843   3.731   2.892   4.702
 8315SOL    HW125844   3.822   2.852   4.710
 8315SOL    HW225845   3.709   2.907   4.605
 8316SOL     OW25846   2.272   2.238   5.204
 8316SOL    HW125847   2.257   2.280   5.115
 8316SOL    HW225848   2.370   2.236   5.225
 8317SOL     OW25849   1.452   1.626   4.098
 8317SOL    HW125850   1.378   1.580   4.149
 8317SOL    HW225851   1.439   1.610   4.000
 8318SOL     OW25852   4.003   6.435   6.059
 8318SOL    HW125853   3.922   6.392   6.098
 8318SOL    HW225854   3.979   6.525   6.023
 8319SOL     OW25855   2.215   5.425   6.256
 8319SOL    HW125856   2.148   5.499   6.264
 8319SOL    HW225857   2.169   5.342   6.226
 8320SOL     OW25858   3.722   3.302   5.272
 8320SOL    HW125859   3.636   3.277   5.316
 8320SOL    HW225860   3.702   3.362   5.194
 8321SOL     OW25861   0.074   6.766   0.227
 8321SOL    HW125862   0.076   6.846   0.286
 8321SOL    HW225863   0.166   6.745   0.195
 8322SOL     OW25864   0.925   0.050   0.419
 8322SOL    HW125865   0.878   6.988   0.403
 8322SOL    HW225866   0.883   0.122   0.364
 8323SOL     OW25867   5.723   4.693   0.258
 8323SOL    HW125868   5.749   4.743   0.176
 8323SOL    HW225869   5.633   4.650   0.244
 8324SOL     OW25870   5.412   6.652   0.057
 8324SOL    HW125871   5.494   6.603   0.027
 8324SOL    HW225872   5.331   6.596   0.039
 8325SOL     OW25873   1.551   6.601   5.288
 8325SOL    HW125874   1.462   6.603   5.334
 8325SOL    HW225875   1.624   6.609   5.355
 8326SOL     OW25876   1.849   3.264   6.896
 8326SOL    HW125877   1.821   3.283   6.990
 8326SOL    HW225878   1.928   3.203   6.896
 8327SOL     OW25879   1.060   6.068   4.730
 8327SOL    HW125880   1.056   5.987   4.788
 8327SOL    HW225881   1.115   6.048   4.649
 8328SOL     OW25882   0.961   6.555   0.050
 8328SOL    HW125883   0.951   6.652   0.024
 8328SOL    HW225884   0.887   6.530   0.113
 8329SOL     OW25885   1.046   2.560   4.605
 8329SOL    HW125886   0.967   2.618   4.623
 8329SOL    HW225887   1.033   2.511   4.519
 8330SOL     OW25888   3.049   0.899   0.017
 8330SOL    HW125889   3.016   0.994   0.012
 8330SOL    HW225890   3.148   0.899   0.030
 8331SOL     OW25891   1.682   2.163   6.373
 8331SOL    HW125892   1.708   2.090   6.310
 8331SOL    HW225893   1.676   2.250   6.324
 8332SOL     OW25894   6.744   4.083   1.771
 8332SOL    HW125895   6.789   4.172   1.773
 8332SOL    HW225896   6.659   4.091   1.718
 8333SOL     OW25897   1.861   3.851   0.040
 8333SOL    HW125898   1.837   3.796   6.984
 8333SOL    HW225899   1.959   3.873   0.037
 8334SOL     OW25900   3.268   1.865   5.337
 8334SOL    HW125901   3.363   1.877   5.364
 8334SOL    HW225902   3.248   1.924   5.258
 8335SOL     OW25903   5.429   4.728   6.063
 8335SOL    HW125904   5.503   4.662   6.073
 8335SOL    HW225905   5.464   4.812   6.020
 8336SOL     OW25906   1.208   4.245   3.713
 8336SOL    HW125907   1.288   4.237   3.773
 8336SOL    HW225908   1.219   4.183   3.636
 8337SOL     OW25909   6.763   1.090   4.028
 8337SOL    HW125910   6.839   1.155   4.034
 8337SOL    HW225911   6.686   1.134   3.981
 8338SOL     OW25912   2.995   5.395   0.827
 8338SOL    HW125913   3.016   5.320   0.890
 8338SOL    HW225914   2.983   5.480   0.879
 8339SOL     OW25915   5.658   0.662   1.511
 8339SOL    HW125916   5.716   0.701   1.440
 8339SOL    HW225917   5.642   0.730   1.583
 8340SOL     OW25918   6.355   1.953   6.756
 8340SOL    HW125919   6.370   1.876   6.694
 8340SOL    HW225920   6.272   1.937   6.809
 8341SOL     OW25921   3.691   1.337   0.585
 8341SOL    HW125922   3.690   1.417   0.525
 8341SOL    HW225923   3.614   1.342   0.648
 8342SOL     OW25924   4.824   0.757   6.711
 8342SOL    HW125925   4.798   0.662   6.693
 8342SOL    HW225926   4.862   0.764   6.803
 8343SOL     OW25927   5.941   4.818   3.713
 8343SOL    HW125928   5.879   4.847   3.786
 8343SOL    HW225929   6.027   4.868   3.720
 8344SOL     OW25930   1.463   4.896   6.459
 8344SOL    HW125931   1.375   4.942   6.467
 8344SOL    HW225932   1.534   4.949   6.504
 8345SOL     OW25933   5.278   6.980   3.735
 8345SOL    HW125934   5.336   6.917   3.785
 8345SOL    HW225935   5.183   6.970   3.765
 8346SOL     OW25936   5.950   2.633   4.481
 8346SOL    HW125937   5.900   2.614   4.566
 8346SOL    HW225938   5.911   2.578   4.407
 8347SOL     OW25939   2.355   2.095   6.732
 8347SOL    HW125940   2.412   2.117   6.653
 8347SOL    HW225941   2.318   2.180   6.771
 8348SOL     OW25942   2.639   6.136   2.315
 8348SOL    HW125943   2.587   6.212   2.276
 8348SOL    HW225944   2.715   6.173   2.369
 8349SOL     OW25945   5.720   6.230   2.211
 8349SOL    HW125946   5.762   6.250   2.122
 8349SOL    HW225947   5.740   6.135   2.236
 8350SOL     OW25948   1.966   1.629   6.840
 8350SOL    HW125949   2.012   1.656   6.925
 8350SOL    HW225950   1.907   1.703   6.809
 8351SOL     OW25951   0.270   3.063   2.837
 8351SOL    HW125952   0.243   2.995   2.905
 8351SOL    HW225953   0.360   3.038   2.799
 8352SOL     OW25954   3.095   5.710   0.625
 8352SOL    HW125955   3.159   5.633   0.627
 8352SOL    HW225956   3.003   5.676   0.607
 8353SOL     OW25957   0.994   5.407   1.731
 8353SOL    HW125958   0.977   5.309   1.734
 8353SOL    HW225959   0.962   5.450   1.815
 8354SOL     OW25960   3.471   0.985   3.676
 8354SOL    HW125961   3.467   1.051   3.751
 8354SOL    HW225962   3.380   0.973   3.636
 8355SOL     OW25963   3.308   5.763   6.787
 8355SOL    HW125964   3.368   5.788   6.864
 8355SOL    HW225965   3.222   5.728   6.822
 8356SOL     OW25966   2.365   5.056   0.338
 8356SOL    HW125967   2.429   4.981   0.354
 8356SOL    HW225968   2.404   5.120   0.272
 8357SOL     OW25969   4.939   6.552   5.400
 8357SOL    HW125970   4.943   6.651   5.414
 8357SOL    HW225971   5.032   6.514   5.401
 8358SOL     OW25972   1.364   0.856   5.115
 8358SOL    HW125973   1.409   0.860   5.204
 8358SOL    HW225974   1.274   0.901   5.121
 8359SOL     OW25975   4.386   2.033   6.160
 8359SOL    HW125976   4.423   2.016   6.069
 8359SOL    HW225977   4.287   2.042   6.154
 8360SOL     OW25978   4.176   0.212   0.709
 8360SOL    HW125979   4.234   0.292   0.727
 8360SOL    HW225980   4.204   0.171   0.622
 8361SOL     OW25981   4.233   1.613   6.853
 8361SOL    HW125982   4.188   1.524   6.842
 8361SOL    HW225983   4.324   1.599   6.890
 8362SOL     OW25984   0.152   3.908   1.485
 8362SOL    HW125985   0.076   3.888   1.547
 8362SOL    HW225986   0.183   4.002   1.500
 8363SOL     OW25987   1.804   3.097   1.085
 8363SOL    HW125988   1.778   3.102   1.181
 8363SOL    HW225989   1.898   3.065   1.077
 8364SOL     OW25990   0.139   2.589   4.077
 8364SOL    HW125991   0.218   2.619   4.130
 8364SOL    HW225992   0.137   2.489   4.074
 8365SOL     OW25993   1.560   2.205   2.244
 8365SOL    HW125994   1.614   2.122   2.259
 8365SOL    HW225995   1.490   2.212   2.315
 8366SOL     OW25996   5.219   4.854   2.401
 8366SOL    HW125997   5.260   4.945   2.392
 8366SOL    HW225998   5.292   4.785   2.400
 8367SOL     OW25999   2.354   4.857   4.203
 8367SOL    HW126000   2.399   4.889   4.120
 8367SOL    HW226001   2.296   4.778   4.182
 8368SOL     OW26002   6.208   6.572   5.802
 8368SOL    HW126003   6.257   6.569   5.715
 8368SOL    HW226004   6.135   6.504   5.801
 8369SOL     OW26005   2.668   6.386   0.660
 8369SOL    HW126006   2.637   6.337   0.578
 8369SOL    HW226007   2.608   6.465   0.675
 8370SOL     OW26008   2.962   3.887   6.670
 8370SOL    HW126009   3.040   3.883   6.608
 8370SOL    HW226010   2.889   3.942   6.628
 8371SOL     OW26011   2.379   4.404   5.631
 8371SOL    HW126012   2.477   4.423   5.637
 8371SOL    HW226013   2.330   4.467   5.691
 8372SOL     OW26014   2.157   6.934   1.011
 8372SOL    HW126015   2.104   7.005   1.057
 8372SOL    HW226016   2.098   6.857   0.989
 8373SOL     OW26017   6.130   1.599   4.091
 8373SOL    HW126018   6.039   1.634   4.069
 8373SOL    HW226019   6.172   1.562   4.008
 8374SOL     OW26020   6.801   0.988   4.286
 8374SOL    HW126021   6.817   1.081   4.320
 8374SOL    HW226022   6.767   0.992   4.192
 8375SOL     OW26023   2.673   1.600   5.113
 8375SOL    HW126024   2.630   1.535   5.177
 8375SOL    HW226025   2.638   1.692   5.132
 8376SOL     OW26026   0.580   1.700   3.478
 8376SOL    HW126027   0.595   1.670   3.384
 8376SOL    HW226028   0.566   1.799   3.479
 8377SOL     OW26029   4.518   4.815   0.212
 8377SOL    HW126030   4.555   4.742   0.155
 8377SOL    HW226031   4.434   4.784   0.256
 8378SOL     OW26032   4.894   5.942   4.385
 8378SOL    HW126033   4.821   5.991   4.337
 8378SOL    HW226034   4.920   5.861   4.332
 8379SOL     OW26035   6.101   1.964   1.548
 8379SOL    HW126036   6.070   2.041   1.603
 8379SOL    HW226037   6.200   1.959   1.551
 8380SOL     OW26038   0.116   6.235   1.027
 8380SOL    HW126039   0.167   6.303   0.975
 8380SOL    HW226040   0.119   6.258   1.124
 8381SOL     OW26041   0.171   1.402   2.923
 8381SOL    HW126042   0.180   1.490   2.878
 8381SOL    HW226043   0.196   1.329   2.859
 8382SOL     OW26044   1.440   0.474   1.187
 8382SOL    HW126045   1.522   0.517   1.224
 8382SOL    HW226046   1.465   0.391   1.137
 8383SOL     OW26047   3.012   0.285   6.214
 8383SOL    HW126048   3.014   0.348   6.137
 8383SOL    HW226049   3.103   0.276   6.253
 8384SOL     OW26050   0.982   3.861   3.027
 8384SOL    HW126051   0.889   3.825   3.041
 8384SOL    HW226052   1.026   3.811   2.952
 8385SOL     OW26053   4.342   3.037   1.141
 8385SOL    HW126054   4.341   3.006   1.237
 8385SOL    HW226055   4.308   2.964   1.082
 8386SOL     OW26056   2.193   5.872   1.527
 8386SOL    HW126057   2.190   5.819   1.611
 8386SOL    HW226058   2.223   5.965   1.547
 8387SOL     OW26059   0.871   1.526   3.192
 8387SOL    HW126060   0.919   1.568   3.116
 8387SOL    HW226061   0.936   1.493   3.260
 8388SOL     OW26062   4.406   5.710   0.427
 8388SOL    HW126063   4.327   5.657   0.457
 8388SOL    HW226064   4.486   5.650   0.419
 8389SOL     OW26065   0.450   2.928   3.669
 8389SOL    HW126066   0.369   2.979   3.639
 8389SOL    HW226067   0.450   2.837   3.628
 8390SOL     OW26068   2.671   6.987   6.055
 8390SOL    HW126069   2.678   6.995   5.956
 8390SOL    HW226070   2.574   6.977   6.080
 8391SOL     OW26071   5.687   6.060   0.748
 8391SOL    HW126072   5.695   6.056   0.649
 8391SOL    HW226073   5.778   6.066   0.789
 8392SOL     OW26074   5.373   6.499   5.750
 8392SOL    HW126075   5.408   6.486   5.657
 8392SOL    HW226076   5.440   6.549   5.804
 8393SOL     OW26077   0.075   5.466   2.683
 8393SOL    HW126078   0.101   5.422   2.597
 8393SOL    HW226079   0.156   5.505   2.726
 8394SOL     OW26080   0.232   1.865   3.066
 8394SOL    HW126081   0.242   1.961   3.042
 8394SOL    HW226082   0.139   1.835   3.047
 8395SOL     OW26083   0.927   6.132   5.542
 8395SOL    HW126084   0.973   6.086   5.466
 8395SOL    HW226085   0.829   6.133   5.526
 8396SOL     OW26086   4.265   3.419   0.891
 8396SOL    HW126087   4.232   3.383   0.978
 8396SOL    HW226088   4.241   3.516   0.884
 8397SOL     OW26089   1.917   5.091   3.410
 8397SOL    HW126090   1.833   5.039   3.427
 8397SOL    HW226091   1.894   5.176   3.362
 8398SOL     OW26092   5.128   1.525   0.400
 8398SOL    HW126093   5.115   1.426   0.396
 8398SOL    HW226094   5.070   1.569   0.331
 8399SOL     OW26095   5.864   5.648   0.199
 8399SOL    HW126096   5.954   5.676   0.166
 8399SOL    HW226097   5.845   5.691   0.287
 8400SOL     OW26098   6.018   0.278   4.502
 8400SOL    HW126099   6.111   0.316   4.502
 8400SOL    HW226100   5.971   0.307   4.586
 8401SOL     OW26101   3.001   4.593   6.315
 8401SOL    HW126102   3.051   4.599   6.228
 8401SOL    HW226103   2.954   4.680   6.332
 8402SOL     OW26104   4.604   1.354   0.031
 8402SOL    HW126105   4.556   1.282   7.006
 8402SOL    HW226106   4.593   1.441   7.006
 8403SOL     OW26107   1.128   2.191   4.455
 8403SOL    HW126108   1.103   2.183   4.551
 8403SOL    HW226109   1.175   2.108   4.425
 8404SOL     OW26110   4.150   5.233   5.445
 8404SOL    HW126111   4.093   5.171   5.500
 8404SOL    HW226112   4.225   5.268   5.501
 8405SOL     OW26113   1.118   2.425   5.188
 8405SOL    HW126114   1.166   2.423   5.101
 8405SOL    HW226115   1.024   2.454   5.174
 8406SOL     OW26116   5.133   3.533   0.877
 8406SOL    HW126117   5.051   3.511   0.824
 8406SOL    HW226118   5.141   3.468   0.953
 8407SOL     OW26119   4.943   3.456   2.618
 8407SOL    HW126120   5.038   3.433   2.598
 8407SOL    HW226121   4.901   3.497   2.537
 8408SOL     OW26122   4.784   2.860   3.644
 8408SOL    HW126123   4.752   2.829   3.554
 8408SOL    HW226124   4.827   2.949   3.635
 8409SOL     OW26125   1.252   2.043   3.982
 8409SOL    HW126126   1.312   1.997   4.047
 8409SOL    HW226127   1.290   2.036   3.890
 8410SOL     OW26128   2.914   6.631   2.287
 8410SOL    HW126129   2.827   6.590   2.314
 8410SOL    HW226130   2.936   6.603   2.194
 8411SOL     OW26131   1.771   3.227   3.478
 8411SOL    HW126132   1.862   3.226   3.519
 8411SOL    HW226133   1.780   3.214   3.379
 8412SOL     OW26134   6.437   3.119   2.289
 8412SOL    HW126135   6.430   3.110   2.190
 8412SOL    HW226136   6.346   3.140   2.326
 8413SOL     OW26137   2.524   4.420   1.417
 8413SOL    HW126138   2.611   4.445   1.459
 8413SOL    HW226139   2.512   4.321   1.422
 8414SOL     OW26140   5.114   6.835   2.375
 8414SOL    HW126141   5.085   6.873   2.287
 8414SOL    HW226142   5.037   6.835   2.439
 8415SOL     OW26143   6.730   3.483   1.968
 8415SOL    HW126144   6.817   3.468   2.015
 8415SOL    HW226145   6.687   3.566   2.003
 8416SOL     OW26146   5.105   3.862   2.405
 8416SOL    HW126147   5.088   3.864   2.306
 8416SOL    HW226148   5.018   3.860   2.454
 8417SOL     OW26149   2.434   5.855   6.412
 8417SOL    HW126150   2.429   5.780   6.346
 8417SOL    HW226151   2.517   5.845   6.466
 8418SOL     OW26152   5.728   5.255   2.381
 8418SOL    HW126153   5.645   5.224   2.427
 8418SOL    HW226154   5.782   5.311   2.444
 8419SOL     OW26155   3.971   6.855   3.568
 8419SOL    HW126156   3.955   6.761   3.599
 8419SOL    HW226157   3.900   6.915   3.606
 8420SOL     OW26158   3.794   1.984   5.779
 8420SOL    HW126159   3.774   2.022   5.689
 8420SOL    HW226160   3.892   1.968   5.787
 8421SOL     OW26161   1.672   6.734   1.806
 8421SOL    HW126162   1.735   6.693   1.741
 8421SOL    HW226163   1.612   6.798   1.759
 8422SOL     OW26164   3.984   6.521   1.271
 8422SOL    HW126165   3.905   6.523   1.210
 8422SOL    HW226166   3.956   6.486   1.360
 8423SOL     OW26167   2.095   4.111   1.161
 8423SOL    HW126168   1.999   4.104   1.189
 8423SOL    HW226169   2.121   4.207   1.153
 8424SOL     OW26170   2.920   2.162   2.531
 8424SOL    HW126171   2.897   2.239   2.591
 8424SOL    HW226172   2.976   2.196   2.454
 8425SOL     OW26173   6.098   4.825   0.192
 8425SOL    HW126174   6.096   4.729   0.221
 8425SOL    HW226175   6.092   4.830   0.092
 8426SOL     OW26176   3.979   3.586   2.278
 8426SOL    HW126177   4.017   3.518   2.216
 8426SOL    HW226178   3.916   3.645   2.227
 8427SOL     OW26179   2.306   3.256   6.281
 8427SOL    HW126180   2.318   3.245   6.182
 8427SOL    HW226181   2.209   3.268   6.302
 8428SOL     OW26182   5.926   4.511   1.890
 8428SOL    HW126183   5.841   4.461   1.871
 8428SOL    HW226184   5.917   4.559   1.978
 8429SOL     OW26185   2.268   6.775   3.117
 8429SOL    HW126186   2.199   6.708   3.089
 8429SOL    HW226187   2.354   6.757   3.069
 8430SOL     OW26188   4.861   4.041   3.097
 8430SOL    HW126189   4.900   3.962   3.144
 8430SOL    HW226190   4.895   4.044   3.004
 8431SOL     OW26191   3.086   3.980   1.442
 8431SOL    HW126192   3.128   3.919   1.375
 8431SOL    HW226193   2.996   3.944   1.468
 8432SOL     OW26194   4.993   6.561   6.948
 8432SOL    HW126195   5.042   6.482   6.912
 8432SOL    HW226196   5.008   6.568   0.022
 8433SOL     OW26197   1.155   1.067   5.193
 8433SOL    HW126198   1.236   1.127   5.195
 8433SOL    HW226199   1.084   1.108   5.136
 8434SOL     OW26200   5.769   6.288   6.102
 8434SOL    HW126201   5.833   6.211   6.088
 8434SOL    HW226202   5.709   6.295   6.023
 8435SOL     OW26203   4.870   2.481   1.263
 8435SOL    HW126204   4.966   2.452   1.260
 8435SOL    HW226205   4.836   2.475   1.356
 8436SOL     OW26206   3.725   4.505   1.328
 8436SOL    HW126207   3.687   4.491   1.419
 8436SOL    HW226208   3.731   4.416   1.281
 8437SOL     OW26209   6.846   1.929   1.393
 8437SOL    HW126210   6.795   2.007   1.427
 8437SOL    HW226211   6.933   1.960   1.354
 8438SOL     OW26212   2.028   6.626   1.741
 8438SOL    HW126213   2.092   6.597   1.670
 8438SOL    HW226214   1.940   6.649   1.700
 8439SOL     OW26215   6.105   6.495   2.125
 8439SOL    HW126216   6.030   6.560   2.140
 8439SOL    HW226217   6.084   6.409   2.171
 8440SOL     OW26218   0.216   1.709   3.325
 8440SOL    HW126219   0.182   1.779   3.262
 8440SOL    HW226220   0.267   1.753   3.399
 8441SOL     OW26221   4.636   4.770   1.351
 8441SOL    HW126222   4.563   4.810   1.407
 8441SOL    HW226223   4.601   4.690   1.302
 8442SOL     OW26224   1.596   3.645   0.082
 8442SOL    HW126225   1.518   3.606   0.130
 8442SOL    HW226226   1.574   3.739   0.054
 8443SOL     OW26227   1.204   1.607   2.490
 8443SOL    HW126228   1.192   1.584   2.587
 8443SOL    HW226229   1.115   1.620   2.447
 8444SOL     OW26230   4.110   0.082   3.074
 8444SOL    HW126231   4.175   0.153   3.099
 8444SOL    HW226232   4.103   0.015   3.148
 8445SOL     OW26233   3.844   5.469   2.183
 8445SOL    HW126234   3.924   5.456   2.241
 8445SOL    HW226235   3.834   5.391   2.122
 8446SOL     OW26236   6.908   5.046   3.734
 8446SOL    HW126237   6.916   5.143   3.712
 8446SOL    HW226238   6.820   5.030   3.780
 8447SOL     OW26239   4.823   2.871   1.425
 8447SOL    HW126240   4.839   2.968   1.446
 8447SOL    HW226241   4.899   2.816   1.459
 8448SOL     OW26242   0.865   2.831   6.520
 8448SOL    HW126243   0.829   2.737   6.524
 8448SOL    HW226244   0.793   2.894   6.550
 8449SOL     OW26245   1.480   1.943   5.192
 8449SOL    HW126246   1.452   2.027   5.147
 8449SOL    HW226247   1.580   1.939   5.197
 8450SOL     OW26248   2.570   5.086   2.375
 8450SOL    HW126249   2.504   5.146   2.330
 8450SOL    HW226250   2.663   5.115   2.352
 8451SOL     OW26251   4.138   3.131   0.464
 8451SOL    HW126252   4.203   3.084   0.405
 8451SOL    HW226253   4.170   3.224   0.482
 8452SOL     OW26254   6.760   5.893   0.790
 8452SOL    HW126255   6.797   5.806   0.824
 8452SOL    HW226256   6.836   5.952   0.762
 8453SOL     OW26257   0.808   4.955   5.295
 8453SOL    HW126258   0.886   4.895   5.275
 8453SOL    HW226259   0.838   5.051   5.292
 8454SOL     OW26260   1.860   6.755   4.439
 8454SOL    HW126261   1.959   6.750   4.452
 8454SOL    HW226262   1.819   6.807   4.514
 8455SOL     OW26263   6.315   2.145   1.166
 8455SOL    HW126264   6.367   2.085   1.106
 8455SOL    HW226265   6.271   2.217   1.112
 8456SOL     OW26266   5.579   5.519   3.237
 8456SOL    HW126267   5.567   5.594   3.303
 8456SOL    HW226268   5.536   5.544   3.150
 8457SOL     OW26269   6.730   6.387   6.522
 8457SOL    HW126270   6.648   6.408   6.468
 8457SOL    HW226271   6.749   6.463   6.584
 8458SOL     OW26272   1.152   1.435   1.633
 8458SOL    HW126273   1.245   1.407   1.608
 8458SOL    HW226274   1.105   1.359   1.677
 8459SOL     OW26275   3.039   5.599   2.276
 8459SOL    HW126276   3.071   5.546   2.197
 8459SOL    HW226277   2.983   5.540   2.335
 8460SOL     OW26278   3.959   1.229   0.145
 8460SOL    HW126279   4.044   1.231   0.092
 8460SOL    HW226280   3.885   1.268   0.090
 8461SOL     OW26281   5.340   4.027   2.713
 8461SOL    HW126282   5.415   4.039   2.778
 8461SOL    HW226283   5.262   3.986   2.760
 8462SOL     OW26284   2.681   4.374   0.135
 8462SOL    HW126285   2.767   4.357   0.086
 8462SOL    HW226286   2.699   4.377   0.233
 8463SOL     OW26287   6.764   0.843   6.803
 8463SOL    HW126288   6.820   0.765   6.775
 8463SOL    HW226289   6.717   0.820   6.889
 8464SOL     OW26290   0.026   3.701   6.262
 8464SOL    HW126291   0.123   3.681   6.247
 8464SOL    HW226292   7.012   3.743   6.180
 8465SOL     OW26293   4.901   3.204   0.837
 8465SOL    HW126294   4.982   3.168   0.883
 8465SOL    HW226295   4.927   3.247   0.751
 8466SOL     OW26296   6.096   1.379   5.587
 8466SOL    HW126297   6.112   1.301   5.526
 8466SOL    HW226298   6.043   1.350   5.666
 8467SOL     OW26299   3.142   1.451   0.740
 8467SOL    HW126300   3.175   1.358   0.758
 8467SOL    HW226301   3.122   1.497   0.827
 8468SOL     OW26302   6.309   3.128   0.105
 8468SOL    HW126303   6.241   3.191   0.068
 8468SOL    HW226304   6.401   3.162   0.086
 8469SOL     OW26305   4.383   3.325   5.971
 8469SOL    HW126306   4.452   3.330   6.044
 8469SOL    HW226307   4.292   3.317   6.012
 8470SOL     OW26308   1.292   5.160   1.548
 8470SOL    HW126309   1.375   5.106   1.535
 8470SOL    HW226310   1.212   5.104   1.524
 8471SOL     OW26311   3.498   1.984   4.440
 8471SOL    HW126312   3.514   1.886   4.432
 8471SOL    HW226313   3.585   2.032   4.450
 8472SOL     OW26314   5.943   1.661   5.730
 8472SOL    HW126315   5.877   1.687   5.801
 8472SOL    HW226316   6.004   1.591   5.765
 8473SOL     OW26317   4.873   4.221   6.707
 8473SOL    HW126318   4.930   4.142   6.727
 8473SOL    HW226319   4.777   4.193   6.702
 8474SOL     OW26320   4.030   3.853   3.224
 8474SOL    HW126321   4.070   3.793   3.154
 8474SOL    HW226322   4.023   3.802   3.310
 8475SOL     OW26323   0.310   2.898   2.528
 8475SOL    HW126324   0.235   2.850   2.572
 8475SOL    HW226325   0.368   2.941   2.598
 8476SOL     OW26326   6.101   0.941   1.502
 8476SOL    HW126327   6.199   0.950   1.483
 8476SOL    HW226328   6.057   0.890   1.428
 8477SOL     OW26329   5.402   6.754   1.767
 8477SOL    HW126330   5.493   6.753   1.725
 8477SOL    HW226331   5.409   6.790   1.861
 8478SOL     OW26332   6.621   1.000   5.941
 8478SOL    HW126333   6.623   0.907   5.979
 8478SOL    HW226334   6.618   1.067   6.015
 8479SOL     OW26335   0.958   2.441   0.737
 8479SOL    HW126336   1.009   2.357   0.755
 8479SOL    HW226337   1.018   2.510   0.698
 8480SOL     OW26338   4.013   4.022   6.939
 8480SOL    HW126339   4.074   3.948   6.913
 8480SOL    HW226340   3.964   3.998   7.022
 8481SOL     OW26341   4.632   1.783   3.119
 8481SOL    HW126342   4.572   1.777   3.199
 8481SOL    HW226343   4.586   1.743   3.039
 8482SOL     OW26344   4.403   0.792   0.919
 8482SOL    HW126345   4.406   0.784   1.019
 8482SOL    HW226346   4.357   0.877   0.894
 8483SOL     OW26347   3.491   5.078   2.854
 8483SOL    HW126348   3.534   5.121   2.775
 8483SOL    HW226349   3.391   5.079   2.842
 8484SOL     OW26350   5.417   5.550   4.704
 8484SOL    HW126351   5.434   5.629   4.644
 8484SOL    HW226352   5.330   5.563   4.752
 8485SOL     OW26353   3.490   2.402   0.071
 8485SOL    HW126354   3.498   2.318   0.018
 8485SOL    HW226355   3.576   2.421   0.118
 8486SOL     OW26356   6.840   2.459   3.117
 8486SOL    HW126357   6.827   2.438   3.213
 8486SOL    HW226358   6.769   2.415   3.062
 8487SOL     OW26359   6.760   1.642   5.727
 8487SOL    HW126360   6.858   1.654   5.744
 8487SOL    HW226361   6.745   1.624   5.630
 8488SOL     OW26362   4.375   4.844   1.827
 8488SOL    HW126363   4.370   4.780   1.750
 8488SOL    HW226364   4.348   4.935   1.795
 8489SOL     OW26365   5.593   2.391   1.498
 8489SOL    HW126366   5.530   2.461   1.462
 8489SOL    HW226367   5.542   2.306   1.512
 8490SOL     OW26368   3.431   0.708   6.461
 8490SOL    HW126369   3.360   0.769   6.427
 8490SOL    HW226370   3.435   0.625   6.405
 8491SOL     OW26371   2.858   5.846   2.041
 8491SOL    HW126372   2.790   5.908   2.003
 8491SOL    HW226373   2.835   5.826   2.137
 8492SOL     OW26374   6.296   6.289   4.371
 8492SOL    HW126375   6.252   6.223   4.431
 8492SOL    HW226376   6.296   6.256   4.277
 8493SOL     OW26377   4.904   1.604   0.025
 8493SOL    HW126378   4.840   1.609   0.102
 8493SOL    HW226379   4.863   1.645   6.969
 8494SOL     OW26380   6.572   4.811   2.268
 8494SOL    HW126381   6.558   4.719   2.305
 8494SOL    HW226382   6.623   4.866   2.333
 8495SOL     OW26383   6.237   5.396   6.334
 8495SOL    HW126384   6.268   5.442   6.417
 8495SOL    HW226385   6.138   5.398   6.329
 8496SOL     OW26386   5.432   2.899   2.154
 8496SOL    HW126387   5.515   2.845   2.166
 8496SOL    HW226388   5.379   2.899   2.239
 8497SOL     OW26389   6.597   0.580   3.538
 8497SOL    HW126390   6.564   0.491   3.569
 8497SOL    HW226391   6.520   0.633   3.501
 8498SOL     OW26392   4.619   6.850   4.174
 8498SOL    HW126393   4.684   6.918   4.207
 8498SOL    HW226394   4.531   6.863   4.218
 8499SOL     OW26395   5.754   6.525   5.621
 8499SOL    HW126396   5.786   6.562   5.534
 8499SOL    HW226397   5.729   6.429   5.609
 8500SOL     OW26398   0.870   0.825   5.656
 8500SOL    HW126399   0.772   0.809   5.667
 8500SOL    HW226400   0.886   0.921   5.635
 8501SOL     OW26401   1.262   2.006   6.759
 8501SOL    HW126402   1.293   1.998   6.664
 8501SOL    HW226403   1.342   2.021   6.818
 8502SOL     OW26404   0.373   4.587   6.997
 8502SOL    HW126405   0.396   4.566   6.902
 8502SOL    HW226406   0.282   4.553   7.018
 8503SOL     OW26407   5.213   0.667   4.472
 8503SOL    HW126408   5.190   0.604   4.398
 8503SOL    HW226409   5.250   0.752   4.433
 8504SOL     OW26410   1.152   0.327   2.057
 8504SOL    HW126411   1.065   0.363   2.093
 8504SOL    HW226412   1.199   0.399   2.006
 8505SOL     OW26413   5.189   3.124   2.605
 8505SOL    HW126414   5.268   3.079   2.647
 8505SOL    HW226415   5.153   3.067   2.532
 8506SOL     OW26416   1.603   0.824   6.007
 8506SOL    HW126417   1.665   0.758   5.966
 8506SOL    HW226418   1.585   0.799   6.102
 8507SOL     OW26419   3.506   5.953   5.506
 8507SOL    HW126420   3.565   5.919   5.579
 8507SOL    HW226421   3.480   6.048   5.526
 8508SOL     OW26422   3.047   1.706   6.777
 8508SOL    HW126423   2.972   1.765   6.808
 8508SOL    HW226424   3.066   1.637   6.846
 8509SOL     OW26425   5.572   2.061   2.718
 8509SOL    HW126426   5.512   2.120   2.772
 8509SOL    HW226427   5.544   1.965   2.731
 8510SOL     OW26428   0.011   2.091   4.283
 8510SOL    HW126429   7.008   2.024   4.214
 8510SOL    HW226430   0.043   2.044   4.365
 8511SOL     OW26431   5.268   2.549   2.537
 8511SOL    HW126432   5.367   2.539   2.541
 8511SOL    HW226433   5.226   2.458   2.536
 8512SOL     OW26434   1.922   6.443   6.064
 8512SOL    HW126435   1.968   6.375   6.008
 8512SOL    HW226436   1.842   6.477   6.015
 8513SOL     OW26437   5.087   0.039   6.467
 8513SOL    HW126438   5.172   0.063   6.514
 8513SOL    HW226439   5.099   6.977   6.419
 8514SOL     OW26440   3.012   5.992   4.267
 8514SOL    HW126441   3.027   5.909   4.320
 8514SOL    HW226442   3.009   5.969   4.169
 8515SOL     OW26443   5.859   1.706   0.511
 8515SOL    HW126444   5.846   1.789   0.456
 8515SOL    HW226445   5.882   1.629   0.451
 8516SOL     OW26446   0.389   2.030   2.333
 8516SOL    HW126447   0.304   2.047   2.282
 8516SOL    HW226448   0.407   1.932   2.337
 8517SOL     OW26449   0.885   3.937   0.674
 8517SOL    HW126450   0.983   3.934   0.690
 8517SOL    HW226451   0.838   3.889   0.749
 8518SOL     OW26452   3.182   5.453   0.621
 8518SOL    HW126453   3.111   5.425   0.686
 8518SOL    HW226454   3.271   5.452   0.667
 8519SOL     OW26455   1.686   5.060   2.619
 8519SOL    HW126456   1.694   4.962   2.631
 8519SOL    HW226457   1.764   5.094   2.567
 8520SOL     OW26458   3.251   0.226   6.748
 8520SOL    HW126459   3.307   0.165   6.805
 8520SOL    HW226460   3.262   0.200   6.652
 8521SOL     OW26461   0.969   0.170   6.993
 8521SOL    HW126462   0.999   0.217   0.051
 8521SOL    HW226463   1.002   0.219   6.913
 8522SOL     OW26464   1.895   6.227   4.638
 8522SOL    HW126465   1.855   6.277   4.561
 8522SOL    HW226466   1.951   6.290   4.692
 8523SOL     OW26467   1.390   6.807   0.197
 8523SOL    HW126468   1.321   6.843   0.259
 8523SOL    HW226469   1.357   6.812   0.103
 8524SOL     OW26470   1.668   2.431   6.300
 8524SOL    HW126471   1.661   2.503   6.231
 8524SOL    HW226472   1.710   2.467   6.383
 8525SOL     OW26473   5.188   3.170   3.328
 8525SOL    HW126474   5.178   3.104   3.402
 8525SOL    HW226475   5.278   3.214   3.335
 8526SOL     OW26476   1.998   3.228   1.776
 8526SOL    HW126477   1.963   3.293   1.844
 8526SOL    HW226478   2.093   3.206   1.796
 8527SOL     OW26479   4.175   6.762   4.117
 8527SOL    HW126480   4.242   6.782   4.188
 8527SOL    HW226481   4.106   6.835   4.115
 8528SOL     OW26482   4.898   2.871   6.925
 8528SOL    HW126483   4.835   2.814   6.977
 8528SOL    HW226484   4.959   2.813   6.870
 8529SOL     OW26485   0.126   5.196   6.826
 8529SOL    HW126486   0.160   5.290   6.828
 8529SOL    HW226487   0.165   5.145   6.903
 8530SOL     OW26488   1.306   3.330   5.718
 8530SOL    HW126489   1.369   3.391   5.670
 8530SOL    HW226490   1.329   3.328   5.815
 8531SOL     OW26491   3.948   4.826   2.035
 8531SOL    HW126492   3.902   4.852   2.120
 8531SOL    HW226493   4.035   4.781   2.055
 8532SOL     OW26494   1.821   4.393   6.667
 8532SOL    HW126495   1.846   4.412   6.762
 8532SOL    HW226496   1.727   4.359   6.664
 8533SOL     OW26497   4.130   0.629   5.792
 8533SOL    HW126498   4.184   0.714   5.784
 8533SOL    HW226499   4.047   0.637   5.737
 8534SOL     OW26500   2.276   2.860   2.989
 8534SOL    HW126501   2.268   2.860   2.889
 8534SOL    HW226502   2.280   2.954   3.022
 8535SOL     OW26503   6.515   3.311   4.260
 8535SOL    HW126504   6.478   3.380   4.323
 8535SOL    HW226505   6.440   3.258   4.221
 8536SOL     OW26506   0.236   0.816   4.251
 8536SOL    HW126507   0.279   0.727   4.239
 8536SOL    HW226508   0.138   0.809   4.232
 8537SOL     OW26509   5.872   6.912   2.763
 8537SOL    HW126510   5.913   6.830   2.723
 8537SOL    HW226511   5.796   6.886   2.822
 8538SOL     OW26512   5.675   0.730   5.091
 8538SOL    HW126513   5.618   0.689   5.020
 8538SOL    HW226514   5.733   0.660   5.132
 8539SOL     OW26515   0.216   3.273   3.005
 8539SOL    HW126516   0.258   3.200   2.951
 8539SOL    HW226517   0.125   3.292   2.969
 8540SOL     OW26518   4.056   0.558   0.086
 8540SOL    HW126519   4.055   0.602   7.022
 8540SOL    HW226520   4.113   0.476   0.083
 8541SOL     OW26521   3.337   6.733   5.171
 8541SOL    HW126522   3.287   6.669   5.111
 8541SOL    HW226523   3.358   6.687   5.257
 8542SOL     OW26524   1.371   6.077   6.078
 8542SOL    HW126525   1.278   6.097   6.110
 8542SOL    HW226526   1.431   6.064   6.156
 8543SOL     OW26527   2.665   2.831   5.745
 8543SOL    HW126528   2.746   2.785   5.708
 8543SOL    HW226529   2.585   2.807   5.691
 8544SOL     OW26530   5.438   4.849   5.613
 8544SOL    HW126531   5.437   4.945   5.585
 8544SOL    HW226532   5.518   4.832   5.670
 8545SOL     OW26533   2.843   6.990   6.587
 8545SOL    HW126534   2.881   0.032   6.652
 8545SOL    HW226535   2.879   7.008   6.496
 8546SOL     OW26536   4.682   0.893   3.004
 8546SOL    HW126537   4.601   0.946   2.978
 8546SOL    HW226538   4.704   0.829   2.930
 8547SOL     OW26539   6.144   6.387   6.079
 8547SOL    HW126540   6.192   6.318   6.133
 8547SOL    HW226541   6.207   6.460   6.054
 8548SOL     OW26542   0.962   3.614   4.716
 8548SOL    HW126543   1.004   3.684   4.658
 8548SOL    HW226544   1.033   3.562   4.763
 8549SOL     OW26545   1.568   0.145   4.113
 8549SOL    HW126546   1.651   0.120   4.162
 8549SOL    HW226547   1.529   0.229   4.153
 8550SOL     OW26548   6.602   5.376   6.020
 8550SOL    HW126549   6.519   5.416   6.060
 8550SOL    HW226550   6.602   5.277   6.035
 8551SOL     OW26551   2.313   0.386   6.073
 8551SOL    HW126552   2.358   0.411   6.159
 8551SOL    HW226553   2.289   0.469   6.022
 8552SOL     OW26554   2.984   1.448   2.339
 8552SOL    HW126555   2.926   1.498   2.275
 8552SOL    HW226556   2.926   1.400   2.406
 8553SOL     OW26557   5.401   3.819   0.196
 8553SOL    HW126558   5.337   3.825   0.119
 8553SOL    HW226559   5.350   3.821   0.281
 8554SOL     OW26560   2.098   1.068   0.486
 8554SOL    HW126561   2.187   1.074   0.440
 8554SOL    HW226562   2.035   1.134   0.444
 8555SOL     OW26563   3.497   1.870   4.112
 8555SOL    HW126564   3.461   1.963   4.104
 8555SOL    HW226565   3.594   1.874   4.133
 8556SOL     OW26566   0.972   5.703   6.137
 8556SOL    HW126567   1.059   5.748   6.116
 8556SOL    HW226568   0.945   5.645   6.061
 8557SOL     OW26569   6.688   1.080   6.693
 8557SOL    HW126570   6.654   1.057   6.602
 8557SOL    HW226571   6.745   1.004   6.726
 8558SOL     OW26572   2.755   6.119   4.149
 8558SOL    HW126573   2.825   6.057   4.113
 8558SOL    HW226574   2.772   6.211   4.115
 8559SOL     OW26575   2.080   4.563   2.793
 8559SOL    HW126576   2.178   4.575   2.775
 8559SOL    HW226577   2.036   4.653   2.792
 8560SOL     OW26578   2.541   4.665   0.682
 8560SOL    HW126579   2.492   4.632   0.601
 8560SOL    HW226580   2.526   4.602   0.759
 8561SOL     OW26581   3.700   0.430   3.167
 8561SOL    HW126582   3.730   0.445   3.262
 8561SOL    HW226583   3.704   0.516   3.117
 8562SOL     OW26584   5.595   2.440   0.307
 8562SOL    HW126585   5.653   2.512   0.269
 8562SOL    HW226586   5.521   2.419   0.244
 8563SOL     OW26587   2.853   5.185   2.499
 8563SOL    HW126588   2.799   5.104   2.520
 8563SOL    HW226589   2.922   5.198   2.570
 8564SOL     OW26590   4.146   0.062   0.041
 8564SOL    HW126591   4.077   0.022   7.006
 8564SOL    HW226592   4.232   0.011   0.031
 8565SOL     OW26593   1.887   4.649   1.426
 8565SOL    HW126594   1.878   4.730   1.369
 8565SOL    HW226595   1.826   4.577   1.393
 8566SOL     OW26596   2.940   0.883   2.031
 8566SOL    HW126597   2.939   0.964   1.972
 8566SOL    HW226598   3.032   0.870   2.068
 8567SOL     OW26599   1.831   3.023   2.405
 8567SOL    HW126600   1.799   2.931   2.383
 8567SOL    HW226601   1.844   3.076   2.321
 8568SOL     OW26602   6.208   0.340   6.142
 8568SOL    HW126603   6.284   0.323   6.205
 8568SOL    HW226604   6.171   0.432   6.159
 8569SOL     OW26605   4.391   2.277   0.465
 8569SOL    HW126606   4.350   2.188   0.488
 8569SOL    HW226607   4.337   2.320   0.393
 8570SOL     OW26608   1.993   2.540   1.847
 8570SOL    HW126609   1.921   2.538   1.916
 8570SOL    HW226610   2.070   2.485   1.878
 8571SOL     OW26611   1.673   0.506   3.164
 8571SOL    HW126612   1.612   0.585   3.162
 8571SOL    HW226613   1.641   0.440   3.232
 8572SOL     OW26614   2.639   4.118   5.636
 8572SOL    HW126615   2.542   4.096   5.639
 8572SOL    HW226616   2.652   4.209   5.597
 8573SOL     OW26617   3.298   6.615   0.468
 8573SOL    HW126618   3.262   6.708   0.462
 8573SOL    HW226619   3.383   6.616   0.521
 8574SOL     OW26620   4.619   0.629   5.333
 8574SOL    HW126621   4.673   0.668   5.407
 8574SOL    HW226622   4.529   0.602   5.368
 8575SOL     OW26623   3.307   5.947   3.443
 8575SOL    HW126624   3.268   6.037   3.419
 8575SOL    HW226625   3.323   5.943   3.541
 8576SOL     OW26626   1.790   4.723   4.447
 8576SOL    HW126627   1.818   4.649   4.508
 8576SOL    HW226628   1.691   4.720   4.433
 8577SOL     OW26629   1.915   1.320   0.939
 8577SOL    HW126630   1.920   1.224   0.912
 8577SOL    HW226631   1.978   1.374   0.883
 8578SOL     OW26632   0.284   0.130   6.381
 8578SOL    HW126633   0.353   0.116   6.311
 8578SOL    HW226634   0.261   0.227   6.388
 8579SOL     OW26635   2.679   6.548   2.467
 8579SOL    HW126636   2.622   6.547   2.385
 8579SOL    HW226637   2.631   6.597   2.540
 8580SOL     OW26638   1.665   0.391   1.688
 8580SOL    HW126639   1.640   0.315   1.747
 8580SOL    HW226640   1.701   0.466   1.744
 8581SOL     OW26641   3.183   5.021   1.228
 8581SOL    HW126642   3.222   5.112   1.243
 8581SOL    HW226643   3.145   4.986   1.313
 8582SOL     OW26644   3.846   5.412   5.716
 8582SOL    HW126645   3.905   5.334   5.737
 8582SOL    HW226646   3.829   5.415   5.617
 8583SOL     OW26647   3.760   6.994   2.375
 8583SOL    HW126648   3.774   6.903   2.335
 8583SOL    HW226649   3.842   7.021   2.425
 8584SOL     OW26650   6.320   1.765   4.590
 8584SOL    HW126651   6.340   1.858   4.619
 8584SOL    HW226652   6.224   1.759   4.560
 8585SOL     OW26653   5.310   2.691   2.939
 8585SOL    HW126654   5.294   2.789   2.948
 8585SOL    HW226655   5.228   2.647   2.904
 8586SOL     OW26656   6.761   6.563   0.383
 8586SOL    HW126657   6.799   6.529   0.297
 8586SOL    HW226658   6.661   6.550   0.382
 8587SOL     OW26659   0.263   2.023   0.272
 8587SOL    HW126660   0.242   2.002   0.368
 8587SOL    HW226661   0.196   2.089   0.237
 8588SOL     OW26662   2.698   1.243   5.974
 8588SOL    HW126663   2.626   1.220   6.039
 8588SOL    HW226664   2.787   1.221   6.014
 8589SOL     OW26665   6.435   3.639   6.522
 8589SOL    HW126666   6.502   3.605   6.456
 8589SOL    HW226667   6.367   3.569   6.540
 8590SOL     OW26668   0.699   0.691   4.214
 8590SOL    HW126669   0.694   0.781   4.172
 8590SOL    HW226670   0.770   0.691   4.284
 8591SOL     OW26671   6.745   4.579   6.614
 8591SOL    HW126672   6.690   4.564   6.532
 8591SOL    HW226673   6.815   4.508   6.621
 8592SOL     OW26674   0.398   1.793   4.799
 8592SOL    HW126675   0.301   1.771   4.787
 8592SOL    HW226676   0.423   1.780   4.895
 8593SOL     OW26677   5.183   1.570   6.973
 8593SOL    HW126678   5.095   1.578   7.021
 8593SOL    HW226679   5.184   1.632   6.894
 8594SOL     OW26680   6.510   3.348   5.857
 8594SOL    HW126681   6.544   3.424   5.911
 8594SOL    HW226682   6.419   3.370   5.823
 8595SOL     OW26683   6.275   6.309   2.939
 8595SOL    HW126684   6.284   6.378   3.011
 8595SOL    HW226685   6.242   6.224   2.979
 8596SOL     OW26686   0.537   1.591   4.158
 8596SOL    HW126687   0.598   1.621   4.084
 8596SOL    HW226688   0.563   1.637   4.243
 8597SOL     OW26689   6.253   3.388   5.733
 8597SOL    HW126690   6.228   3.476   5.692
 8597SOL    HW226691   6.173   3.350   5.779
 8598SOL     OW26692   6.270   6.903   4.914
 8598SOL    HW126693   6.314   6.913   4.825
 8598SOL    HW226694   6.337   6.917   4.986
 8599SOL     OW26695   0.179   3.833   3.957
 8599SOL    HW126696   0.128   3.770   3.898
 8599SOL    HW226697   0.167   3.806   4.052
 8600SOL     OW26698   4.896   2.074   0.652
 8600SOL    HW126699   4.828   2.024   0.598
 8600SOL    HW226700   4.979   2.019   0.661
 8601SOL     OW26701   6.918   6.007   3.540
 8601SOL    HW126702   6.969   6.092   3.543
 8601SOL    HW226703   6.968   5.936   3.591
 8602SOL     OW26704   2.007   5.883   5.946
 8602SOL    HW126705   1.936   5.819   5.918
 8602SOL    HW226706   1.982   5.926   6.032
 8603SOL     OW26707   0.514   0.361   0.074
 8603SOL    HW126708   0.563   0.347   7.013
 8603SOL    HW226709   0.488   0.272   0.111
 8604SOL     OW26710   0.929   4.528   6.471
 8604SOL    HW126711   0.913   4.465   6.547
 8604SOL    HW226712   0.997   4.597   6.498
 8605SOL     OW26713   6.976   4.474   4.521
 8605SOL    HW126714   0.049   4.459   4.510
 8605SOL    HW226715   6.953   4.567   4.493
 8606SOL     OW26716   1.650   2.510   0.491
 8606SOL    HW126717   1.683   2.533   0.400
 8606SOL    HW226718   1.704   2.434   0.527
 8607SOL     OW26719   2.050   3.836   1.614
 8607SOL    HW126720   1.976   3.864   1.553
 8607SOL    HW226721   2.017   3.836   1.708
 8608SOL     OW26722   1.638   5.290   2.804
 8608SOL    HW126723   1.629   5.223   2.730
 8608SOL    HW226724   1.734   5.296   2.832
 8609SOL     OW26725   3.971   1.785   4.536
 8609SOL    HW126726   4.058   1.758   4.576
 8609SOL    HW226727   3.903   1.714   4.552
 8610SOL     OW26728   6.688   6.291   3.177
 8610SOL    HW126729   6.770   6.236   3.159
 8610SOL    HW226730   6.608   6.247   3.136
 8611SOL     OW26731   2.760   0.875   5.009
 8611SOL    HW126732   2.680   0.829   4.972
 8611SOL    HW226733   2.735   0.968   5.038
 8612SOL     OW26734   3.059   3.224   4.369
 8612SOL    HW126735   3.044   3.130   4.398
 8612SOL    HW226736   3.152   3.234   4.335
 8613SOL     OW26737   4.064   3.415   2.519
 8613SOL    HW126738   4.061   3.317   2.497
 8613SOL    HW226739   4.049   3.468   2.436
 8614SOL     OW26740   1.384   2.413   3.263
 8614SOL    HW126741   1.324   2.409   3.342
 8614SOL    HW226742   1.337   2.378   3.183
 8615SOL     OW26743   3.632   1.194   4.869
 8615SOL    HW126744   3.630   1.294   4.875
 8615SOL    HW226745   3.546   1.161   4.832
 8616SOL     OW26746   5.765   4.488   3.948
 8616SOL    HW126747   5.782   4.571   4.001
 8616SOL    HW226748   5.796   4.502   3.854
 8617SOL     OW26749   2.410   0.200   3.483
 8617SOL    HW126750   2.447   0.292   3.464
 8617SOL    HW226751   2.323   0.189   3.435
 8618SOL     OW26752   5.588   3.809   1.302
 8618SOL    HW126753   5.532   3.732   1.273
 8618SOL    HW226754   5.679   3.777   1.328
 8619SOL     OW26755   4.707   4.879   0.406
 8619SOL    HW126756   4.629   4.878   0.342
 8619SOL    HW226757   4.676   4.910   0.496
 8620SOL     OW26758   2.391   0.261   4.588
 8620SOL    HW126759   2.311   0.205   4.608
 8620SOL    HW226760   2.457   0.253   4.663
 8621SOL     OW26761   5.554   3.078   1.702
 8621SOL    HW126762   5.611   3.024   1.640
 8621SOL    HW226763   5.466   3.032   1.714
 8622SOL     OW26764   6.922   5.194   2.434
 8622SOL    HW126765   6.912   5.220   2.530
 8622SOL    HW226766   7.017   5.171   2.415
 8623SOL     OW26767   1.138   3.249   4.631
 8623SOL    HW126768   1.152   3.253   4.533
 8623SOL    HW226769   1.189   3.172   4.670
 8624SOL     OW26770   3.122   4.007   4.789
 8624SOL    HW126771   3.085   4.098   4.809
 8624SOL    HW226772   3.056   3.937   4.817
 8625SOL     OW26773   3.910   2.826   5.374
 8625SOL    HW126774   3.885   2.894   5.306
 8625SOL    HW226775   3.875   2.736   5.346
 8626SOL     OW26776   3.964   3.132   0.954
 8626SOL    HW126777   3.874   3.092   0.937
 8626SOL    HW226778   4.019   3.126   0.870
 8627SOL     OW26779   1.858   1.282   2.664
 8627SOL    HW126780   1.806   1.350   2.612
 8627SOL    HW226781   1.955   1.289   2.641
 8628SOL     OW26782   0.588   6.175   0.752
 8628SOL    HW126783   0.501   6.142   0.786
 8628SOL    HW226784   0.579   6.201   0.655
 8629SOL     OW26785   6.874   6.714   5.292
 8629SOL    HW126786   6.795   6.695   5.235
 8629SOL    HW226787   6.883   6.643   5.362
 8630SOL     OW26788   4.745   2.859   2.227
 8630SOL    HW126789   4.741   2.912   2.312
 8630SOL    HW226790   4.745   2.921   2.149
 8631SOL     OW26791   2.523   6.367   6.434
 8631SOL    HW126792   2.614   6.335   6.460
 8631SOL    HW226793   2.516   6.367   6.334
 8632SOL     OW26794   5.438   5.286   4.776
 8632SOL    HW126795   5.345   5.250   4.771
 8632SOL    HW226796   5.442   5.375   4.730
 8633SOL     OW26797   5.927   4.274   5.376
 8633SOL    HW126798   6.026   4.291   5.381
 8633SOL    HW226799   5.881   4.356   5.344
 8634SOL     OW26800   4.501   2.898   6.845
 8634SOL    HW126801   4.549   2.922   6.761
 8634SOL    HW226802   4.542   2.816   6.885
 8635SOL     OW26803   5.307   2.628   6.140
 8635SOL    HW126804   5.377   2.605   6.072
 8635SOL    HW226805   5.218   2.635   6.094
 8636SOL     OW26806   4.681   6.641   1.680
 8636SOL    HW126807   4.737   6.691   1.613
 8636SOL    HW226808   4.587   6.673   1.675
 8637SOL     OW26809   2.252   2.243   6.347
 8637SOL    HW126810   2.153   2.242   6.333
 8637SOL    HW226811   2.272   2.227   6.444
 8638SOL     OW26812   4.732   2.748   3.387
 8638SOL    HW126813   4.825   2.712   3.378
 8638SOL    HW226814   4.666   2.676   3.365
 8639SOL     OW26815   3.741   3.750   0.259
 8639SOL    HW126816   3.700   3.777   0.346
 8639SOL    HW226817   3.791   3.828   0.220
 8640SOL     OW26818   3.150   3.035   0.590
 8640SOL    HW126819   3.108   2.993   0.509
 8640SOL    HW226820   3.091   3.107   0.625
 8641SOL     OW26821   4.410   5.135   2.023
 8641SOL    HW126822   4.385   5.229   2.046
 8641SOL    HW226823   4.425   5.128   1.924
 8642SOL     OW26824   1.010   5.409   3.100
 8642SOL    HW126825   0.991   5.429   3.004
 8642SOL    HW226826   1.000   5.311   3.116
 8643SOL     OW26827   4.060   6.316   1.092
 8643SOL    HW126828   4.027   6.385   1.156
 8643SOL    HW226829   3.992   6.302   1.020
 8644SOL     OW26830   6.043   2.062   6.057
 8644SOL    HW126831   5.983   2.053   6.136
 8644SOL    HW226832   6.097   1.978   6.048
 8645SOL     OW26833   5.993   4.794   2.606
 8645SOL    HW126834   6.066   4.829   2.547
 8645SOL    HW226835   6.032   4.748   2.685
 8646SOL     OW26836   6.668   2.230   5.014
 8646SOL    HW126837   6.577   2.191   5.011
 8646SOL    HW226838   6.703   2.244   4.922
 8647SOL     OW26839   2.097   5.420   1.779
 8647SOL    HW126840   2.194   5.394   1.779
 8647SOL    HW226841   2.084   5.500   1.837
 8648SOL     OW26842   4.924   4.724   0.708
 8648SOL    HW126843   4.984   4.751   0.634
 8648SOL    HW226844   4.887   4.633   0.690
 8649SOL     OW26845   5.061   0.698   0.769
 8649SOL    HW126846   5.100   0.749   0.692
 8649SOL    HW226847   4.970   0.732   0.789
 8650SOL     OW26848   2.349   6.863   5.720
 8650SOL    HW126849   2.260   6.891   5.756
 8650SOL    HW226850   2.356   6.763   5.724
 8651SOL     OW26851   4.394   2.305   1.711
 8651SOL    HW126852   4.432   2.349   1.792
 8651SOL    HW226853   4.438   2.341   1.629
 8652SOL     OW26854   1.258   2.840   3.798
 8652SOL    HW126855   1.171   2.847   3.748
 8652SOL    HW226856   1.241   2.803   3.889
 8653SOL     OW26857   6.339   1.688   6.679
 8653SOL    HW126858   6.385   1.693   6.768
 8653SOL    HW226859   6.399   1.644   6.613
 8654SOL     OW26860   0.262   4.868   2.138
 8654SOL    HW126861   0.309   4.813   2.207
 8654SOL    HW226862   0.294   4.962   2.143
 8655SOL     OW26863   0.221   0.917   4.521
 8655SOL    HW126864   0.265   0.853   4.584
 8655SOL    HW226865   0.228   0.881   4.428
 8656SOL     OW26866   4.845   0.061   1.218
 8656SOL    HW126867   4.750   0.030   1.226
 8656SOL    HW226868   4.854   0.152   1.258
 8657SOL     OW26869   3.898   0.988   2.843
 8657SOL    HW126870   3.825   1.025   2.786
 8657SOL    HW226871   3.973   0.957   2.786
 8658SOL     OW26872   5.705   4.227   0.851
 8658SOL    HW126873   5.641   4.156   0.880
 8658SOL    HW226874   5.696   4.242   0.752
 8659SOL     OW26875   3.000   0.849   2.480
 8659SOL    HW126876   3.020   0.946   2.493
 8659SOL    HW226877   2.914   0.826   2.524
 8660SOL     OW26878   0.658   4.426   1.624
 8660SOL    HW126879   0.702   4.430   1.714
 8660SOL    HW226880   0.708   4.361   1.566
 8661SOL     OW26881   6.590   4.044   2.181
 8661SOL    HW126882   6.684   4.012   2.165
 8661SOL    HW226883   6.555   4.087   2.098
 8662SOL     OW26884   1.974   4.053   3.529
 8662SOL    HW126885   1.999   4.140   3.486
 8662SOL    HW226886   1.958   4.068   3.627
 8663SOL     OW26887   4.339   5.524   2.620
 8663SOL    HW126888   4.251   5.547   2.663
 8663SOL    HW226889   4.371   5.602   2.566
 8664SOL     OW26890   3.882   6.226   3.428
 8664SOL    HW126891   3.853   6.285   3.504
 8664SOL    HW226892   3.971   6.186   3.449
 8665SOL     OW26893   5.589   3.474   6.930
 8665SOL    HW126894   5.680   3.431   6.929
 8665SOL    HW226895   5.521   3.408   6.898
 8666SOL     OW26896   4.573   7.023   2.149
 8666SOL    HW126897   4.515   0.051   2.210
 8666SOL    HW226898   4.528   7.011   2.061
 8667SOL     OW26899   4.884   2.269   2.787
 8667SOL    HW126900   4.925   2.343   2.733
 8667SOL    HW226901   4.815   2.222   2.732
 8668SOL     OW26902   5.017   2.485   5.025
 8668SOL    HW126903   4.967   2.398   5.018
 8668SOL    HW226904   5.005   2.524   5.116
 8669SOL     OW26905   6.483   6.542   6.408
 8669SOL    HW126906   6.515   6.587   6.492
 8669SOL    HW226907   6.389   6.509   6.422
 8670SOL     OW26908   6.409   4.580   5.782
 8670SOL    HW126909   6.465   4.633   5.847
 8670SOL    HW226910   6.317   4.568   5.820
 8671SOL     OW26911   0.807   3.353   3.273
 8671SOL    HW126912   0.867   3.274   3.270
 8671SOL    HW226913   0.797   3.385   3.367
 8672SOL     OW26914   0.376   0.947   2.612
 8672SOL    HW126915   0.327   0.953   2.699
 8672SOL    HW226916   0.456   1.008   2.615
 8673SOL     OW26917   0.701   2.127   1.347
 8673SOL    HW126918   0.793   2.088   1.345
 8673SOL    HW226919   0.707   2.225   1.367
 8674SOL     OW26920   0.189   3.928   3.491
 8674SOL    HW126921   0.134   3.847   3.471
 8674SOL    HW226922   0.132   4.010   3.483
 8675SOL     OW26923   4.147   2.132   4.885
 8675SOL    HW126924   4.104   2.150   4.797
 8675SOL    HW226925   4.078   2.102   4.951
 8676SOL     OW26926   5.606   1.362   0.982
 8676SOL    HW126927   5.555   1.318   0.908
 8676SOL    HW226928   5.595   1.309   1.066
 8677SOL     OW26929   2.236   6.868   6.221
 8677SOL    HW126930   2.222   6.820   6.308
 8677SOL    HW226931   2.149   6.875   6.172
 8678SOL     OW26932   1.155   2.078   0.476
 8678SOL    HW126933   1.086   2.005   0.471
 8678SOL    HW226934   1.157   2.128   0.390
 8679SOL     OW26935   1.605   2.104   5.947
 8679SOL    HW126936   1.521   2.137   5.904
 8679SOL    HW226937   1.684   2.152   5.908
 8680SOL     OW26938   6.648   0.754   0.007
 8680SOL    HW126939   6.704   0.802   0.074
 8680SOL    HW226940   6.553   0.752   0.039
 8681SOL     OW26941   5.565   6.491   1.456
 8681SOL    HW126942   5.492   6.545   1.498
 8681SOL    HW226943   5.543   6.475   1.359
 8682SOL     OW26944   1.896   0.747   1.995
 8682SOL    HW126945   1.969   0.810   1.969
 8682SOL    HW226946   1.906   0.721   2.091
 8683SOL     OW26947   2.264   4.713   4.725
 8683SOL    HW126948   2.342   4.651   4.718
 8683SOL    HW226949   2.292   4.805   4.699
 8684SOL     OW26950   2.414   4.453   4.382
 8684SOL    HW126951   2.422   4.410   4.472
 8684SOL    HW226952   2.343   4.408   4.329
 8685SOL     OW26953   4.607   2.663   4.524
 8685SOL    HW126954   4.606   2.727   4.600
 8685SOL    HW226955   4.553   2.582   4.548
 8686SOL     OW26956   1.101   5.062   3.383
 8686SOL    HW126957   1.043   4.987   3.415
 8686SOL    HW226958   1.071   5.092   3.293
 8687SOL     OW26959   5.261   4.533   5.905
 8687SOL    HW126960   5.274   4.546   5.807
 8687SOL    HW226961   5.330   4.587   5.955
 8688SOL     OW26962   1.183   3.883   4.926
 8688SOL    HW126963   1.245   3.916   4.998
 8688SOL    HW226964   1.153   3.961   4.870
 8689SOL     OW26965   3.752   3.371   6.659
 8689SOL    HW126966   3.725   3.464   6.685
 8689SOL    HW226967   3.670   3.317   6.643
 8690SOL     OW26968   1.538   2.689   2.920
 8690SOL    HW126969   1.558   2.786   2.922
 8690SOL    HW226970   1.442   2.674   2.943
 8691SOL     OW26971   3.488   2.575   5.670
 8691SOL    HW126972   3.502   2.571   5.769
 8691SOL    HW226973   3.513   2.487   5.630
 8692SOL     OW26974   4.522   1.745   5.216
 8692SOL    HW126975   4.443   1.791   5.176
 8692SOL    HW226976   4.606   1.782   5.178
 8693SOL     OW26977   6.520   0.196   6.171
 8693SOL    HW126978   6.560   0.128   6.233
 8693SOL    HW226979   6.460   0.256   6.223
 8694SOL     OW26980   5.234   3.079   5.319
 8694SOL    HW126981   5.226   3.107   5.223
 8694SOL    HW226982   5.258   2.982   5.323
 8695SOL     OW26983   3.651   4.639   6.741
 8695SOL    HW126984   3.655   4.591   6.654
 8695SOL    HW226985   3.559   4.678   6.753
 8696SOL     OW26986   2.864   5.416   5.697
 8696SOL    HW126987   2.939   5.445   5.756
 8696SOL    HW226988   2.777   5.435   5.742
 8697SOL     OW26989   2.155   3.591   5.851
 8697SOL    HW126990   2.106   3.678   5.858
 8697SOL    HW226991   2.124   3.542   5.769
 8698SOL     OW26992   4.760   5.491   6.197
 8698SOL    HW126993   4.747   5.444   6.110
 8698SOL    HW226994   4.829   5.563   6.185
 8699SOL     OW26995   1.787   2.840   6.967
 8699SOL    HW126996   1.764   2.918   6.907
 8699SOL    HW226997   1.884   2.820   6.958
 8700SOL     OW26998   1.228   0.769   3.762
 8700SOL    HW126999   1.157   0.840   3.762
 8700SOL    HW227000   1.240   0.735   3.856
 8701SOL     OW27001   1.508   2.393   6.878
 8701SOL    HW127002   1.423   2.359   6.837
 8701SOL    HW227003   1.519   2.490   6.858
 8702SOL     OW27004   5.200   4.629   1.074
 8702SOL    HW127005   5.125   4.669   1.022
 8702SOL    HW227006   5.259   4.701   1.109
 8703SOL     OW27007   2.499   5.804   0.514
 8703SOL    HW127008   2.548   5.890   0.498
 8703SOL    HW227009   2.556   5.742   0.567
 8704SOL     OW27010   0.942   1.184   5.051
 8704SOL    HW127011   0.951   1.283   5.062
 8704SOL    HW227012   0.848   1.156   5.071
 8705SOL     OW27013   4.151   2.127   6.787
 8705SOL    HW127014   4.172   2.030   6.800
 8705SOL    HW227015   4.213   2.183   6.842
 8706SOL     OW27016   4.913   3.291   6.094
 8706SOL    HW127017   4.886   3.379   6.135
 8706SOL    HW227018   4.868   3.216   6.143
 8707SOL     OW27019   2.200   1.738   4.723
 8707SOL    HW127020   2.268   1.808   4.745
 8707SOL    HW227021   2.122   1.747   4.785
 8708SOL     OW27022   5.428   3.014   0.098
 8708SOL    HW127023   5.498   3.030   0.167
 8708SOL    HW227024   5.378   3.099   0.081
 8709SOL     OW27025   5.902   0.057   5.580
 8709SOL    HW127026   5.944   0.147   5.590
 8709SOL    HW227027   5.828   0.063   5.512
 8710SOL     OW27028   2.144   1.414   3.627
 8710SOL    HW127029   2.162   1.344   3.696
 8710SOL    HW227030   2.113   1.371   3.543
 8711SOL     OW27031   1.500   1.506   1.771
 8711SOL    HW127032   1.496   1.604   1.750
 8711SOL    HW227033   1.453   1.455   1.699
 8712SOL     OW27034   1.192   4.059   5.475
 8712SOL    HW127035   1.118   4.016   5.527
 8712SOL    HW227036   1.237   3.989   5.418
 8713SOL     OW27037   6.932   3.609   1.053
 8713SOL    HW127038   6.917   3.628   1.150
 8713SOL    HW227039   6.930   3.510   1.037
 8714SOL     OW27040   6.634   5.645   6.999
 8714SOL    HW127041   6.663   5.731   0.017
 8714SOL    HW227042   6.640   5.654   6.900
 8715SOL     OW27043   1.810   3.656   1.944
 8715SOL    HW127044   1.894   3.664   1.998
 8715SOL    HW227045   1.832   3.618   1.854
 8716SOL     OW27046   6.428   0.248   1.935
 8716SOL    HW127047   6.391   0.162   1.900
 8716SOL    HW227048   6.424   0.318   1.862
 8717SOL     OW27049   2.867   3.035   0.215
 8717SOL    HW127050   2.809   3.022   0.295
 8717SOL    HW227051   2.947   3.088   0.240
 8718SOL     OW27052   2.648   4.994   6.237
 8718SOL    HW127053   2.577   5.012   6.306
 8718SOL    HW227054   2.663   5.077   6.183
 8719SOL     OW27055   3.397   1.087   4.783
 8719SOL    HW127056   3.454   1.013   4.749
 8719SOL    HW227057   3.323   1.050   4.840
 8720SOL     OW27058   6.924   4.924   4.741
 8720SOL    HW127059   6.910   4.966   4.831
 8720SOL    HW227060   6.971   4.837   4.752
 8721SOL     OW27061   0.355   0.072   6.673
 8721SOL    HW127062   0.330   0.075   6.577
 8721SOL    HW227063   0.389   7.005   6.696
 8722SOL     OW27064   2.989   1.161   0.671
 8722SOL    HW127065   2.905   1.135   0.719
 8722SOL    HW227066   3.065   1.164   0.737
 8723SOL     OW27067   3.940   0.253   2.676
 8723SOL    HW127068   3.911   0.180   2.614
 8723SOL    HW227069   3.987   0.324   2.625
 8724SOL     OW27070   3.850   1.602   4.238
 8724SOL    HW127071   3.826   1.519   4.288
 8724SOL    HW227072   3.949   1.608   4.228
 8725SOL     OW27073   6.883   6.659   3.699
 8725SOL    HW127074   6.874   6.756   3.678
 8725SOL    HW227075   6.792   6.621   3.718
 8726SOL     OW27076   0.198   1.099   0.932
 8726SOL    HW127077   0.278   1.055   0.973
 8726SOL    HW227078   0.170   1.048   0.851
 8727SOL     OW27079   5.142   6.528   6.063
 8727SOL    HW127080   5.227   6.581   6.063
 8727SOL    HW227081   5.102   6.529   6.154
 8728SOL     OW27082   6.599   0.441   4.571
 8728SOL    HW127083   6.531   0.501   4.530
 8728SOL    HW227084   6.681   0.494   4.594
 8729SOL     OW27085   5.234   5.961   6.430
 8729SOL    HW127086   5.173   6.007   6.366
 8729SOL    HW227087   5.186   5.885   6.473
 8730SOL     OW27088   4.792   5.215   1.408
 8730SOL    HW127089   4.866   5.219   1.476
 8730SOL    HW227090   4.809   5.281   1.336
 8731SOL     OW27091   6.495   1.702   3.879
 8731SOL    HW127092   6.433   1.626   3.860
 8731SOL    HW227093   6.557   1.677   3.954
 8732SOL     OW27094   5.959   6.717   6.958
 8732SOL    HW127095   5.877   6.770   6.938
 8732SOL    HW227096   5.952   6.677   0.025
 8733SOL     OW27097   6.634   4.451   3.004
 8733SOL    HW127098   6.672   4.410   3.087
 8733SOL    HW227099   6.563   4.392   2.967
 8734SOL     OW27100   0.474   3.973   2.062
 8734SOL    HW127101   0.533   4.049   2.036
 8734SOL    HW227102   0.520   3.917   2.132
 8735SOL     OW27103   6.880   2.996   5.036
 8735SOL    HW127104   6.874   2.995   4.936
 8735SOL    HW227105   6.937   2.920   5.067
 8736SOL     OW27106   1.184   6.125   3.643
 8736SOL    HW127107   1.254   6.136   3.713
 8736SOL    HW227108   1.153   6.029   3.641
 8737SOL     OW27109   1.196   5.701   0.455
 8737SOL    HW127110   1.268   5.656   0.402
 8737SOL    HW227111   1.148   5.766   0.398
 8738SOL     OW27112   1.486   3.083   3.149
 8738SOL    HW127113   1.473   3.004   3.090
 8738SOL    HW227114   1.494   3.166   3.094
 8739SOL     OW27115   5.683   4.632   5.061
 8739SOL    HW127116   5.746   4.708   5.072
 8739SOL    HW227117   5.593   4.658   5.097
 8740SOL     OW27118   3.182   0.600   4.662
 8740SOL    HW127119   3.102   0.637   4.615
 8740SOL    HW227120   3.203   0.656   4.742
 8741SOL     OW27121   1.048   1.108   3.207
 8741SOL    HW127122   1.099   1.162   3.140
 8741SOL    HW227123   1.105   1.033   3.239
 8742SOL     OW27124   2.753   1.853   1.837
 8742SOL    HW127125   2.764   1.948   1.865
 8742SOL    HW227126   2.687   1.847   1.762
 8743SOL     OW27127   0.719   2.712   1.629
 8743SOL    HW127128   0.669   2.626   1.623
 8743SOL    HW227129   0.747   2.727   1.724
 8744SOL     OW27130   3.382   4.207   5.738
 8744SOL    HW127131   3.325   4.131   5.768
 8744SOL    HW227132   3.468   4.173   5.701
 8745SOL     OW27133   6.143   1.546   6.043
 8745SOL    HW127134   6.193   1.537   6.130
 8745SOL    HW227135   6.160   1.465   5.987
 8746SOL     OW27136   4.198   4.865   5.584
 8746SOL    HW127137   4.228   4.805   5.658
 8746SOL    HW227138   4.277   4.896   5.532
 8747SOL     OW27139   0.712   0.243   2.823
 8747SOL    HW127140   0.721   0.342   2.836
 8747SOL    HW227141   0.803   0.203   2.810
 8748SOL     OW27142   5.940   1.866   4.131
 8748SOL    HW127143   5.887   1.941   4.168
 8748SOL    HW227144   5.939   1.871   4.031
 8749SOL     OW27145   2.343   1.089   3.975
 8749SOL    HW127146   2.421   1.115   3.919
 8749SOL    HW227147   2.361   1.111   4.070
 8750SOL     OW27148   3.586   3.799   0.493
 8750SOL    HW127149   3.647   3.840   0.560
 8750SOL    HW227150   3.559   3.708   0.523
 8751SOL     OW27151   2.546   6.595   0.784
 8751SOL    HW127152   2.469   6.657   0.802
 8751SOL    HW227153   2.568   6.544   0.867
 8752SOL     OW27154   6.660   2.912   5.416
 8752SOL    HW127155   6.661   2.876   5.509
 8752SOL    HW227156   6.567   2.938   5.391
 8753SOL     OW27157   2.611   2.513   0.825
 8753SOL    HW127158   2.530   2.571   0.817
 8753SOL    HW227159   2.684   2.565   0.871
 8754SOL     OW27160   1.623   5.170   6.910
 8754SOL    HW127161   1.530   5.175   6.946
 8754SOL    HW227162   1.622   5.126   6.821
 8755SOL     OW27163   0.715   2.988   1.962
 8755SOL    HW127164   0.777   3.020   1.890
 8755SOL    HW227165   0.642   3.055   1.976
 8756SOL     OW27166   1.574   1.579   2.199
 8756SOL    HW127167   1.661   1.535   2.174
 8756SOL    HW227168   1.588   1.677   2.207
 8757SOL     OW27169   4.730   6.017   5.501
 8757SOL    HW127170   4.734   5.964   5.586
 8757SOL    HW227171   4.816   6.066   5.489
 8758SOL     OW27172   3.959   5.618   5.125
 8758SOL    HW127173   4.027   5.549   5.150
 8758SOL    HW227174   3.936   5.672   5.205
 8759SOL     OW27175   6.002   0.815   0.639
 8759SOL    HW127176   5.979   0.748   0.709
 8759SOL    HW227177   6.069   0.777   0.575
 8760SOL     OW27178   2.445   2.580   4.351
 8760SOL    HW127179   2.523   2.537   4.306
 8760SOL    HW227180   2.388   2.625   4.282
 8761SOL     OW27181   5.137   1.689   2.809
 8761SOL    HW127182   5.052   1.740   2.793
 8761SOL    HW227183   5.121   1.619   2.879
 8762SOL     OW27184   3.257   4.909   3.362
 8762SOL    HW127185   3.302   4.875   3.444
 8762SOL    HW227186   3.325   4.938   3.295
 8763SOL     OW27187   0.445   0.809   6.542
 8763SOL    HW127188   0.398   0.725   6.568
 8763SOL    HW227189   0.539   0.788   6.515
 8764SOL     OW27190   2.800   5.224   5.259
 8764SOL    HW127191   2.806   5.152   5.190
 8764SOL    HW227192   2.722   5.282   5.239
 8765SOL     OW27193   4.004   6.530   4.458
 8765SOL    HW127194   3.923   6.512   4.515
 8765SOL    HW227195   3.984   6.504   4.364
 8766SOL     OW27196   4.659   6.685   6.088
 8766SOL    HW127197   4.730   6.648   6.027
 8766SOL    HW227198   4.641   6.620   6.161
 8767SOL     OW27199   1.839   0.945   3.981
 8767SOL    HW127200   1.837   0.959   3.882
 8767SOL    HW227201   1.783   1.015   4.025
 8768SOL     OW27202   6.823   1.875   6.547
 8768SOL    HW127203   6.741   1.860   6.602
 8768SOL    HW227204   6.890   1.929   6.599
 8769SOL     OW27205   6.278   7.020   0.296
 8769SOL    HW127206   6.280   0.007   0.197
 8769SOL    HW227207   6.202   6.961   0.321
 8770SOL     OW27208   5.106   2.735   0.311
 8770SOL    HW127209   5.144   2.650   0.275
 8770SOL    HW227210   5.180   2.801   0.325
 8771SOL     OW27211   0.508   2.580   0.109
 8771SOL    HW127212   0.534   2.660   0.055
 8771SOL    HW227213   0.473   2.509   0.048
 8772SOL     OW27214   0.093   0.159   4.666
 8772SOL    HW127215   0.185   0.130   4.637
 8772SOL    HW227216   0.042   0.190   4.586
 8773SOL     OW27217   0.541   0.986   4.759
 8773SOL    HW127218   0.639   1.007   4.761
 8773SOL    HW227219   0.529   0.887   4.751
 8774SOL     OW27220   0.990   1.261   0.086
 8774SOL    HW127221   1.023   1.339   0.139
 8774SOL    HW227222   0.902   1.231   0.123
 8775SOL     OW27223   5.951   2.679   3.468
 8775SOL    HW127224   6.038   2.675   3.518
 8775SOL    HW227225   5.899   2.595   3.485
 8776SOL     OW27226   4.563   2.675   0.403
 8776SOL    HW127227   4.638   2.608   0.407
 8776SOL    HW227228   4.545   2.711   0.494
 8777SOL     OW27229   6.759   2.163   2.761
 8777SOL    HW127230   6.819   2.241   2.744
 8777SOL    HW227231   6.792   2.112   2.840
 8778SOL     OW27232   3.201   4.741   0.033
 8778SOL    HW127233   3.108   4.759   0.001
 8778SOL    HW227234   3.237   4.822   0.079
 8779SOL     OW27235   4.247   4.974   2.885
 8779SOL    HW127236   4.183   4.995   2.959
 8779SOL    HW227237   4.228   4.882   2.850
 8780SOL     OW27238   0.368   4.581   3.773
 8780SOL    HW127239   0.323   4.493   3.791
 8780SOL    HW227240   0.451   4.588   3.828
 8781SOL     OW27241   3.004   0.852   1.714
 8781SOL    HW127242   2.998   0.948   1.744
 8781SOL    HW227243   2.952   0.841   1.630
 8782SOL     OW27244   5.326   2.182   0.601
 8782SOL    HW127245   5.392   2.107   0.596
 8782SOL    HW227246   5.375   2.269   0.605
 8783SOL     OW27247   5.212   3.665   4.799
 8783SOL    HW127248   5.298   3.657   4.849
 8783SOL    HW227249   5.200   3.584   4.741
 8784SOL     OW27250   4.740   0.813   0.398
 8784SOL    HW127251   4.791   0.897   0.379
 8784SOL    HW227252   4.702   0.818   0.491
 8785SOL     OW27253   7.015   5.500   5.355
 8785SOL    HW127254   0.090   5.497   5.359
 8785SOL    HW227255   6.985   5.589   5.320
 8786SOL     OW27256   4.924   1.625   2.219
 8786SOL    HW127257   4.955   1.531   2.209
 8786SOL    HW227258   4.911   1.666   2.129
 8787SOL     OW27259   3.793   6.029   0.979
 8787SOL    HW127260   3.818   5.970   0.902
 8787SOL    HW227261   3.863   6.024   1.049
 8788SOL     OW27262   0.274   6.904   3.775
 8788SOL    HW127263   0.217   6.984   3.792
 8788SOL    HW227264   0.216   6.826   3.752
 8789SOL     OW27265   0.753   2.568   6.061
 8789SOL    HW127266   0.831   2.629   6.069
 8789SOL    HW227267   0.753   2.525   5.971
 8790SOL     OW27268   4.496   2.911   5.335
 8790SOL    HW127269   4.430   2.983   5.355
 8790SOL    HW227270   4.448   2.828   5.305
 8791SOL     OW27271   3.104   6.257   4.675
 8791SOL    HW127272   3.012   6.293   4.688
 8791SOL    HW227273   3.142   6.293   4.590
 8792SOL     OW27274   5.212   4.301   1.713
 8792SOL    HW127275   5.204   4.394   1.678
 8792SOL    HW227276   5.136   4.282   1.774
 8793SOL     OW27277   6.820   5.972   5.027
 8793SOL    HW127278   6.747   5.904   5.021
 8793SOL    HW227279   6.885   5.958   4.952
 8794SOL     OW27280   6.321   1.187   2.511
 8794SOL    HW127281   6.384   1.113   2.490
 8794SOL    HW227282   6.231   1.168   2.471
 8795SOL     OW27283   1.630   6.126   6.781
 8795SOL    HW127284   1.691   6.059   6.823
 8795SOL    HW227285   1.636   6.213   6.830
 8796SOL     OW27286   6.434   3.497   4.420
 8796SOL    HW127287   6.362   3.528   4.358
 8796SOL    HW227288   6.447   3.566   4.492
 8797SOL     OW27289   4.721   6.309   3.802
 8797SOL    HW127290   4.776   6.391   3.785
 8797SOL    HW227291   4.668   6.322   3.885
 8798SOL     OW27292   3.161   6.677   5.577
 8798SOL    HW127293   3.145   6.711   5.669
 8798SOL    HW227294   3.073   6.653   5.534
 8799SOL     OW27295   1.547   5.710   2.012
 8799SOL    HW127296   1.515   5.733   1.920
 8799SOL    HW227297   1.542   5.791   2.070
 8800SOL     OW27298   6.647   5.933   5.373
 8800SOL    HW127299   6.622   5.839   5.350
 8800SOL    HW227300   6.742   5.950   5.349
 8801SOL     OW27301   6.191   3.654   5.610
 8801SOL    HW127302   6.157   3.717   5.540
 8801SOL    HW227303   6.194   3.702   5.698
 8802SOL     OW27304   1.288   6.096   6.548
 8802SOL    HW127305   1.287   6.110   6.647
 8802SOL    HW227306   1.296   6.184   6.502
 8803SOL     OW27307   6.553   6.424   5.708
 8803SOL    HW127308   6.484   6.352   5.702
 8803SOL    HW227309   6.552   6.464   5.800
 8804SOL     OW27310   2.008   6.217   2.464
 8804SOL    HW127311   2.030   6.121   2.481
 8804SOL    HW227312   1.985   6.229   2.368
 8805SOL     OW27313   5.516   4.936   3.444
 8805SOL    HW127314   5.525   4.954   3.346
 8805SOL    HW227315   5.440   4.989   3.481
 8806SOL     OW27316   1.471   0.158   1.363
 8806SOL    HW127317   1.404   0.224   1.396
 8806SOL    HW227318   1.433   0.107   1.285
 8807SOL     OW27319   5.371   2.940   1.064
 8807SOL    HW127320   5.287   2.889   1.083
 8807SOL    HW227321   5.361   2.988   0.977
 8808SOL     OW27322   1.477   2.094   6.881
 8808SOL    HW127323   1.521   2.124   6.797
 8808SOL    HW227324   1.535   2.027   6.927
 8809SOL     OW27325   0.746   3.772   3.069
 8809SOL    HW127326   0.753   3.673   3.082
 8809SOL    HW227327   0.671   3.809   3.124
 8810SOL     OW27328   0.869   1.115   5.836
 8810SOL    HW127329   0.823   1.064   5.908
 8810SOL    HW227330   0.842   1.211   5.840
 8811SOL     OW27331   4.296   4.674   2.522
 8811SOL    HW127332   4.326   4.759   2.564
 8811SOL    HW227333   4.369   4.606   2.528
 8812SOL     OW27334   4.901   1.240   6.624
 8812SOL    HW127335   4.939   1.300   6.695
 8812SOL    HW227336   4.924   1.276   6.534
 8813SOL     OW27337   2.253   3.938   3.467
 8813SOL    HW127338   2.175   3.916   3.525
 8813SOL    HW227339   2.224   3.941   3.371
 8814SOL     OW27340   4.701   6.815   5.135
 8814SOL    HW127341   4.646   6.758   5.195
 8814SOL    HW227342   4.749   6.885   5.189
 8815SOL     OW27343   5.335   0.941   0.858
 8815SOL    HW127344   5.238   0.965   0.868
 8815SOL    HW227345   5.347   0.883   0.778
 8816SOL     OW27346   0.786   6.031   4.685
 8816SOL    HW127347   0.833   6.027   4.596
 8816SOL    HW227348   0.854   6.024   4.758
 8817SOL     OW27349   1.343   3.071   3.641
 8817SOL    HW127350   1.300   2.992   3.684
 8817SOL    HW227351   1.393   3.041   3.559
 8818SOL     OW27352   0.725   0.228   5.926
 8818SOL    HW127353   0.658   0.255   5.995
 8818SOL    HW227354   0.696   0.142   5.884
 8819SOL     OW27355   4.981   4.941   6.683
 8819SOL    HW127356   5.037   5.018   6.652
 8819SOL    HW227357   4.901   4.976   6.731
 8820SOL     OW27358   3.904   6.771   5.700
 8820SOL    HW127359   3.898   6.730   5.791
 8820SOL    HW227360   3.981   6.835   5.698
 8821SOL     OW27361   0.065   4.464   6.107
 8821SOL    HW127362   0.013   4.478   6.023
 8821SOL    HW227363   0.161   4.445   6.084
 8822SOL     OW27364   6.236   0.455   4.933
 8822SOL    HW127365   6.318   0.499   4.969
 8822SOL    HW227366   6.262   0.373   4.881
 8823SOL     OW27367   3.716   1.054   3.281
 8823SOL    HW127368   3.691   1.090   3.191
 8823SOL    HW227369   3.813   1.073   3.299
 8824SOL     OW27370   1.532   0.413   2.579
 8824SOL    HW127371   1.471   0.478   2.534
 8824SOL    HW227372   1.480   0.356   2.642
 8825SOL     OW27373   0.349   6.744   0.278
 8825SOL    HW127374   0.332   6.779   0.371
 8825SOL    HW227375   0.427   6.793   0.238
 8826SOL     OW27376   1.108   4.385   0.841
 8826SOL    HW127377   1.096   4.310   0.906
 8826SOL    HW227378   1.203   4.389   0.812
 8827SOL     OW27379   4.507   6.873   3.077
 8827SOL    HW127380   4.452   6.937   3.130
 8827SOL    HW227381   4.459   6.849   2.993
 8828SOL     OW27382   5.063   2.714   6.048
 8828SOL    HW127383   4.969   2.689   6.025
 8828SOL    HW227384   5.063   2.775   6.127
 8829SOL     OW27385   6.729   1.276   1.793
 8829SOL    HW127386   6.825   1.251   1.795
 8829SOL    HW227387   6.680   1.214   1.731
 8830SOL     OW27388   3.202   0.962   3.545
 8830SOL    HW127389   3.125   0.972   3.608
 8830SOL    HW227390   3.174   0.909   3.466
 8831SOL     OW27391   0.350   3.056   2.091
 8831SOL    HW127392   0.352   3.127   2.162
 8831SOL    HW227393   0.338   2.967   2.134
 8832SOL     OW27394   5.420   0.585   5.237
 8832SOL    HW127395   5.384   0.675   5.261
 8832SOL    HW227396   5.420   0.573   5.138
 8833SOL     OW27397   5.373   2.423   1.881
 8833SOL    HW127398   5.338   2.336   1.916
 8833SOL    HW227399   5.308   2.496   1.902
 8834SOL     OW27400   6.128   4.021   5.344
 8834SOL    HW127401   6.070   3.940   5.348
 8834SOL    HW227402   6.070   4.103   5.350
 8835SOL     OW27403   6.656   0.865   5.530
 8835SOL    HW127404   6.625   0.945   5.582
 8835SOL    HW227405   6.589   0.792   5.537
 8836SOL     OW27406   4.403   1.528   1.591
 8836SOL    HW127407   4.386   1.567   1.682
 8836SOL    HW227408   4.465   1.450   1.600
 8837SOL     OW27409   3.522   6.515   0.603
 8837SOL    HW127410   3.607   6.476   0.569
 8837SOL    HW227411   3.452   6.444   0.611
 8838SOL     OW27412   1.681   4.023   3.796
 8838SOL    HW127413   1.645   3.943   3.844
 8838SOL    HW227414   1.781   4.020   3.796
 8839SOL     OW27415   5.374   5.615   2.438
 8839SOL    HW127416   5.435   5.662   2.374
 8839SOL    HW227417   5.281   5.614   2.402
 8840SOL     OW27418   6.582   0.414   1.040
 8840SOL    HW127419   6.666   0.459   1.009
 8840SOL    HW227420   6.538   0.470   1.110
 8841SOL     OW27421   3.564   0.567   0.904
 8841SOL    HW127422   3.478   0.537   0.945
 8841SOL    HW227423   3.637   0.505   0.930
 8842SOL     OW27424   3.934   4.023   4.340
 8842SOL    HW127425   3.890   4.012   4.250
 8842SOL    HW227426   4.010   3.957   4.347
 8843SOL     OW27427   2.969   6.110   6.711
 8843SOL    HW127428   2.898   6.174   6.684
 8843SOL    HW227429   2.927   6.026   6.746
 8844SOL     OW27430   3.609   2.427   6.320
 8844SOL    HW127431   3.660   2.509   6.295
 8844SOL    HW227432   3.527   2.453   6.372
 8845SOL     OW27433   6.845   3.949   2.163
 8845SOL    HW127434   6.915   3.878   2.152
 8845SOL    HW227435   6.874   4.032   2.115
 8846SOL     OW27436   5.361   3.787   4.530
 8846SOL    HW127437   5.455   3.773   4.562
 8846SOL    HW227438   5.317   3.857   4.586
 8847SOL     OW27439   1.783   1.907   3.799
 8847SOL    HW127440   1.737   1.821   3.777
 8847SOL    HW227441   1.861   1.889   3.859
 8848SOL     OW27442   5.356   1.290   0.285
 8848SOL    HW127443   5.262   1.267   0.308
 8848SOL    HW227444   5.359   1.332   0.194
 8849SOL     OW27445   2.977   4.825   4.560
 8849SOL    HW127446   3.075   4.832   4.578
 8849SOL    HW227447   2.931   4.789   4.641
 8850SOL     OW27448   3.247   1.243   1.186
 8850SOL    HW127449   3.204   1.163   1.145
 8850SOL    HW227450   3.199   1.268   1.270
 8851SOL     OW27451   6.490   4.619   1.960
 8851SOL    HW127452   6.540   4.688   1.908
 8851SOL    HW227453   6.434   4.564   1.898
 8852SOL     OW27454   4.620   2.735   4.814
 8852SOL    HW127455   4.683   2.745   4.891
 8852SOL    HW227456   4.526   2.738   4.846
 8853SOL     OW27457   4.149   1.638   5.529
 8853SOL    HW127458   4.057   1.664   5.555
 8853SOL    HW227459   4.146   1.568   5.457
 8854SOL     OW27460   1.517   1.804   6.900
 8854SOL    HW127461   1.439   1.745   6.879
 8854SOL    HW227462   1.497   1.858   6.982
 8855SOL     OW27463   6.356   4.763   0.209
 8855SOL    HW127464   6.377   4.743   0.113
 8855SOL    HW227465   6.258   4.782   0.217
 8856SOL     OW27466   5.524   1.115   4.523
 8856SOL    HW127467   5.522   1.061   4.440
 8856SOL    HW227468   5.523   1.055   4.603
 8857SOL     OW27469   0.145   2.579   4.713
 8857SOL    HW127470   0.091   2.501   4.679
 8857SOL    HW227471   0.208   2.547   4.784
 8858SOL     OW27472   0.080   4.239   6.289
 8858SOL    HW127473   0.066   4.308   6.219
 8858SOL    HW227474   0.147   4.271   6.356
 8859SOL     OW27475   2.793   5.019   5.032
 8859SOL    HW127476   2.757   5.050   4.944
 8859SOL    HW227477   2.892   5.007   5.025
 8860SOL     OW27478   1.460   2.636   1.770
 8860SOL    HW127479   1.550   2.614   1.734
 8860SOL    HW227480   1.448   2.593   1.859
 8861SOL     OW27481   2.842   2.717   0.600
 8861SOL    HW127482   2.917   2.653   0.584
 8861SOL    HW227483   2.859   2.769   0.684
 8862SOL     OW27484   6.685   2.161   4.512
 8862SOL    HW127485   6.715   2.256   4.501
 8862SOL    HW227486   6.606   2.144   4.454
 8863SOL     OW27487   1.468   5.478   4.927
 8863SOL    HW127488   1.532   5.445   4.997
 8863SOL    HW227489   1.501   5.451   4.837
 8864SOL     OW27490   1.066   3.084   6.235
 8864SOL    HW127491   0.966   3.082   6.231
 8864SOL    HW227492   1.095   3.112   6.327
 8865SOL     OW27493   2.305   2.251   5.890
 8865SOL    HW127494   2.364   2.276   5.813
 8865SOL    HW227495   2.339   2.295   5.973
 8866SOL     OW27496   3.953   6.596   5.486
 8866SOL    HW127497   3.945   6.678   5.544
 8866SOL    HW227498   3.915   6.616   5.396
 8867SOL     OW27499   6.805   2.291   3.720
 8867SOL    HW127500   6.848   2.215   3.671
 8867SOL    HW227501   6.712   2.304   3.685
 8868SOL     OW27502   4.357   3.879   1.201
 8868SOL    HW127503   4.429   3.910   1.263
 8868SOL    HW227504   4.365   3.781   1.186
 8869SOL     OW27505   5.148   3.037   3.546
 8869SOL    HW127506   5.127   2.942   3.570
 8869SOL    HW227507   5.079   3.098   3.586
 8870SOL     OW27508   3.981   1.499   0.780
 8870SOL    HW127509   3.889   1.485   0.818
 8870SOL    HW227510   4.004   1.422   0.720
 8871SOL     OW27511   1.518   2.220   4.259
 8871SOL    HW127512   1.540   2.139   4.205
 8871SOL    HW227513   1.467   2.193   4.341
 8872SOL     OW27514   2.036   3.289   3.600
 8872SOL    HW127515   2.085   3.246   3.677
 8872SOL    HW227516   2.060   3.386   3.595
 8873SOL     OW27517   6.424   6.432   4.759
 8873SOL    HW127518   6.451   6.337   4.774
 8873SOL    HW227519   6.504   6.491   4.768
 8874SOL     OW27520   1.382   1.414   0.298
 8874SOL    HW127521   1.428   1.382   0.215
 8874SOL    HW227522   1.371   1.337   0.361
 8875SOL     OW27523   1.623   1.366   4.055
 8875SOL    HW127524   1.561   1.370   3.976
 8875SOL    HW227525   1.677   1.450   4.058
 8876SOL     OW27526   2.177   0.182   4.344
 8876SOL    HW127527   2.220   0.272   4.353
 8876SOL    HW227528   2.162   0.163   4.247
 8877SOL     OW27529   3.206   6.546   5.013
 8877SOL    HW127530   3.242   6.504   4.930
 8877SOL    HW227531   3.158   6.477   5.067
 8878SOL     OW27532   5.916   4.714   6.404
 8878SOL    HW127533   5.986   4.741   6.470
 8878SOL    HW227534   5.920   4.616   6.388
 8879SOL     OW27535   4.604   5.531   4.812
 8879SOL    HW127536   4.574   5.560   4.903
 8879SOL    HW227537   4.700   5.553   4.800
 8880SOL     OW27538   6.977   5.260   5.262
 8880SOL    HW127539   0.032   5.222   5.216
 8880SOL    HW227540   7.003   5.344   5.310
 8881SOL     OW27541   6.763   0.640   2.165
 8881SOL    HW127542   6.842   0.691   2.132
 8881SOL    HW227543   6.721   0.590   2.089
 8882SOL     OW27544   5.923   1.993   6.319
 8882SOL    HW127545   6.011   1.945   6.321
 8882SOL    HW227546   5.865   1.960   6.393
 8883SOL     OW27547   6.573   1.156   5.230
 8883SOL    HW127548   6.549   1.143   5.134
 8883SOL    HW227549   6.494   1.193   5.279
 8884SOL     OW27550   6.476   0.665   5.514
 8884SOL    HW127551   6.456   0.573   5.547
 8884SOL    HW227552   6.391   0.713   5.495
 8885SOL     OW27553   4.803   3.433   1.538
 8885SOL    HW127554   4.728   3.374   1.507
 8885SOL    HW227555   4.779   3.474   1.626
 8886SOL     OW27556   3.487   6.925   6.392
 8886SOL    HW127557   3.408   6.873   6.360
 8886SOL    HW227558   3.544   6.867   6.450
 8887SOL     OW27559   2.128   0.626   1.092
 8887SOL    HW127560   2.187   0.704   1.111
 8887SOL    HW227561   2.152   0.588   1.002
 8888SOL     OW27562   3.222   1.070   3.185
 8888SOL    HW127563   3.305   1.102   3.231
 8888SOL    HW227564   3.236   0.977   3.152
 8889SOL     OW27565   3.647   6.756   5.031
 8889SOL    HW127566   3.586   6.693   5.078
 8889SOL    HW227567   3.612   6.775   4.939
 8890SOL     OW27568   1.491   5.057   4.579
 8890SOL    HW127569   1.510   4.959   4.570
 8890SOL    HW227570   1.454   5.076   4.670
 8891SOL     OW27571   2.404   2.050   0.039
 8891SOL    HW127572   2.464   1.985   0.086
 8891SOL    HW227573   2.354   2.002   6.992
 8892SOL     OW27574   1.235   6.726   2.472
 8892SOL    HW127575   1.326   6.768   2.472
 8892SOL    HW227576   1.174   6.780   2.414
 8893SOL     OW27577   0.784   1.419   1.645
 8893SOL    HW127578   0.834   1.370   1.716
 8893SOL    HW227579   0.821   1.512   1.636
 8894SOL     OW27580   3.804   3.494   6.412
 8894SOL    HW127581   3.839   3.474   6.503
 8894SOL    HW227582   3.809   3.592   6.395
 8895SOL     OW27583   0.632   6.949   2.098
 8895SOL    HW127584   0.603   6.855   2.115
 8895SOL    HW227585   0.561   7.012   2.129
 8896SOL     OW27586   2.096   4.043   5.165
 8896SOL    HW127587   2.189   4.057   5.131
 8896SOL    HW227588   2.061   3.955   5.132
 8897SOL     OW27589   1.469   2.202   1.578
 8897SOL    HW127590   1.391   2.183   1.638
 8897SOL    HW227591   1.544   2.240   1.632
 8898SOL     OW27592   6.586   3.130   4.806
 8898SOL    HW127593   6.561   3.127   4.902
 8898SOL    HW227594   6.670   3.078   4.791
 8899SOL     OW27595   2.516   4.155   0.044
 8899SOL    HW127596   2.511   4.082   0.113
 8899SOL    HW227597   2.589   4.219   0.069
 8900SOL     OW27598   5.808   2.127   3.098
 8900SOL    HW127599   5.750   2.196   3.054
 8900SOL    HW227600   5.769   2.036   3.083
 8901SOL     OW27601   2.173   6.408   2.563
 8901SOL    HW127602   2.251   6.421   2.503
 8901SOL    HW227603   2.106   6.348   2.518
 8902SOL     OW27604   1.743   5.321   6.189
 8902SOL    HW127605   1.799   5.401   6.169
 8902SOL    HW227606   1.659   5.324   6.133
 8903SOL     OW27607   1.012   1.820   3.599
 8903SOL    HW127608   0.955   1.871   3.663
 8903SOL    HW227609   1.037   1.880   3.523
 8904SOL     OW27610   0.834   5.267   3.484
 8904SOL    HW127611   0.839   5.206   3.405
 8904SOL    HW227612   0.797   5.217   3.562
 8905SOL     OW27613   2.788   4.100   5.320
 8905SOL    HW127614   2.794   4.025   5.254
 8905SOL    HW227615   2.692   4.126   5.333
 8906SOL     OW27616   1.426   5.207   5.079
 8906SOL    HW127617   1.417   5.129   5.017
 8906SOL    HW227618   1.519   5.243   5.073
 8907SOL     OW27619   3.541   2.868   5.423
 8907SOL    HW127620   3.514   2.956   5.383
 8907SOL    HW227621   3.583   2.811   5.353
 8908SOL     OW27622   0.240   2.948   1.412
 8908SOL    HW127623   0.228   3.040   1.449
 8908SOL    HW227624   0.269   2.954   1.317
 8909SOL     OW27625   3.060   6.858   5.875
 8909SOL    HW127626   2.991   6.786   5.876
 8909SOL    HW227627   3.058   6.906   5.788
 8910SOL     OW27628   3.852   3.906   6.497
 8910SOL    HW127629   3.796   3.844   6.442
 8910SOL    HW227630   3.925   3.944   6.441
 8911SOL     OW27631   3.456   2.139   4.086
 8911SOL    HW127632   3.396   2.158   4.008
 8911SOL    HW227633   3.409   2.163   4.170
 8912SOL     OW27634   5.036   2.409   5.919
 8912SOL    HW127635   5.089   2.394   6.003
 8912SOL    HW227636   4.939   2.401   5.939
 8913SOL     OW27637   5.001   3.788   0.903
 8913SOL    HW127638   5.043   3.698   0.890
 8913SOL    HW227639   4.902   3.778   0.913
 8914SOL     OW27640   4.025   1.917   3.414
 8914SOL    HW127641   3.982   1.979   3.481
 8914SOL    HW227642   4.031   1.963   3.326
 8915SOL     OW27643   1.208   5.032   1.853
 8915SOL    HW127644   1.201   4.940   1.814
 8915SOL    HW227645   1.266   5.029   1.934
 8916SOL     OW27646   6.959   3.879   1.690
 8916SOL    HW127647   6.902   3.797   1.694
 8916SOL    HW227648   6.901   3.959   1.704
 8917SOL     OW27649   5.991   5.630   5.959
 8917SOL    HW127650   6.001   5.534   5.986
 8917SOL    HW227651   5.980   5.635   5.860
 8918SOL     OW27652   4.466   4.415   6.269
 8918SOL    HW127653   4.540   4.399   6.334
 8918SOL    HW227654   4.503   4.456   6.185
 8919SOL     OW27655   2.358   4.007   1.158
 8919SOL    HW127656   2.360   3.918   1.202
 8919SOL    HW227657   2.265   4.042   1.156
 8920SOL     OW27658   6.168   6.129   5.949
 8920SOL    HW127659   6.181   6.075   5.865
 8920SOL    HW227660   6.096   6.088   6.004
 8921SOL     OW27661   1.392   6.350   3.574
 8921SOL    HW127662   1.303   6.378   3.537
 8921SOL    HW227663   1.460   6.421   3.555
 8922SOL     OW27664   6.240   4.343   0.355
 8922SOL    HW127665   6.306   4.415   0.375
 8922SOL    HW227666   6.287   4.263   0.318
 8923SOL     OW27667   1.863   4.189   5.513
 8923SOL    HW127668   1.906   4.126   5.448
 8923SOL    HW227669   1.816   4.261   5.463
 8924SOL     OW27670   2.511   5.883   5.212
 8924SOL    HW127671   2.446   5.874   5.136
 8924SOL    HW227672   2.596   5.926   5.178
 8925SOL     OW27673   5.983   6.739   1.876
 8925SOL    HW127674   6.082   6.754   1.877
 8925SOL    HW227675   5.954   6.701   1.964
 8926SOL     OW27676   5.921   1.481   0.347
 8926SOL    HW127677   5.960   1.391   0.326
 8926SOL    HW227678   5.894   1.526   0.263
 8927SOL     OW27679   2.851   1.980   5.359
 8927SOL    HW127680   2.856   1.897   5.303
 8927SOL    HW227681   2.842   2.060   5.299
 8928SOL     OW27682   0.311   0.106   5.284
 8928SOL    HW127683   0.280   0.058   5.202
 8928SOL    HW227684   0.328   0.039   5.356
 8929SOL     OW27685   6.023   3.230   4.536
 8929SOL    HW127686   5.973   3.284   4.604
 8929SOL    HW227687   6.120   3.250   4.542
 8930SOL     OW27688   1.163   4.785   4.952
 8930SOL    HW127689   1.188   4.713   4.887
 8930SOL    HW227690   1.097   4.846   4.909
 8931SOL     OW27691   5.439   0.922   1.118
 8931SOL    HW127692   5.408   0.938   1.024
 8931SOL    HW227693   5.442   0.823   1.135
 8932SOL     OW27694   6.878   0.650   6.658
 8932SOL    HW127695   6.940   0.583   6.700
 8932SOL    HW227696   6.929   0.708   6.596
 8933SOL     OW27697   1.817   6.677   5.793
 8933SOL    HW127698   1.840   6.759   5.845
 8933SOL    HW227699   1.764   6.703   5.712
 8934SOL     OW27700   4.771   6.774   3.059
 8934SOL    HW127701   4.766   6.723   2.974
 8934SOL    HW227702   4.680   6.806   3.085
 8935SOL     OW27703   5.461   2.790   3.438
 8935SOL    HW127704   5.385   2.826   3.384
 8935SOL    HW227705   5.513   2.725   3.383
 8936SOL     OW27706   1.820   4.460   2.845
 8936SOL    HW127707   1.904   4.480   2.794
 8936SOL    HW227708   1.741   4.489   2.791
 8937SOL     OW27709   5.066   6.781   5.777
 8937SOL    HW127710   5.087   6.858   5.836
 8937SOL    HW227711   5.148   6.725   5.764
 8938SOL     OW27712   5.634   6.885   2.244
 8938SOL    HW127713   5.654   6.866   2.340
 8938SOL    HW227714   5.552   6.942   2.237
 8939SOL     OW27715   0.439   2.690   3.482
 8939SOL    HW127716   0.470   2.639   3.402
 8939SOL    HW227717   0.361   2.642   3.523
 8940SOL     OW27718   6.454   3.001   1.024
 8940SOL    HW127719   6.384   2.982   1.092
 8940SOL    HW227720   6.410   3.034   0.940
 8941SOL     OW27721   4.472   2.454   1.920
 8941SOL    HW127722   4.421   2.513   1.858
 8941SOL    HW227723   4.563   2.435   1.882
 8942SOL     OW27724   5.992   3.841   4.542
 8942SOL    HW127725   5.911   3.898   4.559
 8942SOL    HW227726   6.001   3.825   4.444
 8943SOL     OW27727   4.699   3.754   0.902
 8943SOL    HW127728   4.699   3.689   0.978
 8943SOL    HW227729   4.613   3.805   0.902
 8944SOL     OW27730   5.387   5.053   5.152
 8944SOL    HW127731   5.406   4.988   5.079
 8944SOL    HW227732   5.385   5.146   5.114
 8945SOL     OW27733   5.227   4.000   3.359
 8945SOL    HW127734   5.262   3.982   3.267
 8945SOL    HW227735   5.264   3.932   3.422
 8946SOL     OW27736   5.093   1.072   5.294
 8946SOL    HW127737   5.011   1.049   5.241
 8946SOL    HW227738   5.097   1.171   5.306
 8947SOL     OW27739   2.366   4.850   6.477
 8947SOL    HW127740   2.400   4.840   6.571
 8947SOL    HW227741   2.271   4.820   6.473
 8948SOL     OW27742   4.983   1.202   2.722
 8948SOL    HW127743   5.071   1.157   2.739
 8948SOL    HW227744   4.962   1.196   2.625
 8949SOL     OW27745   4.006   6.040   1.158
 8949SOL    HW127746   4.056   6.121   1.127
 8949SOL    HW227747   4.002   6.041   1.258
 8950SOL     OW27748   4.106   3.621   1.326
 8950SOL    HW127749   4.173   3.588   1.260
 8950SOL    HW227750   4.152   3.680   1.393
 8951SOL     OW27751   1.553   0.783   4.643
 8951SOL    HW127752   1.535   0.769   4.741
 8951SOL    HW227753   1.504   0.864   4.611
 8952SOL     OW27754   1.914   4.858   4.093
 8952SOL    HW127755   1.879   4.766   4.113
 8952SOL    HW227756   1.930   4.907   4.179
 8953SOL     OW27757   1.029   5.157   1.226
 8953SOL    HW127758   0.971   5.188   1.302
 8953SOL    HW227759   1.099   5.226   1.208
 8954SOL     OW27760   2.670   4.112   5.934
 8954SOL    HW127761   2.720   4.112   5.848
 8954SOL    HW227762   2.641   4.206   5.955
 8955SOL     OW27763   5.258   2.456   4.912
 8955SOL    HW127764   5.259   2.549   4.876
 8955SOL    HW227765   5.166   2.433   4.944
 8956SOL     OW27766   0.853   6.203   0.009
 8956SOL    HW127767   0.771   6.216   0.065
 8956SOL    HW227768   0.862   6.106   7.010
 8957SOL     OW27769   6.967   6.255   2.801
 8957SOL    HW127770   6.937   6.323   2.734
 8957SOL    HW227771   0.027   6.286   2.844
 8958SOL     OW27772   1.791   2.960   4.850
 8958SOL    HW127773   1.710   2.999   4.808
 8958SOL    HW227774   1.771   2.933   4.944
 8959SOL     OW27775   6.311   2.446   3.434
 8959SOL    HW127776   6.246   2.491   3.373
 8959SOL    HW227777   6.343   2.361   3.392
 8960SOL     OW27778   5.451   4.663   2.962
 8960SOL    HW127779   5.418   4.757   2.958
 8960SOL    HW227780   5.465   4.637   3.058
 8961SOL     OW27781   2.467   1.206   4.997
 8961SOL    HW127782   2.461   1.153   4.912
 8961SOL    HW227783   2.424   1.296   4.983
 8962SOL     OW27784   6.478   5.809   2.037
 8962SOL    HW127785   6.524   5.825   2.125
 8962SOL    HW227786   6.420   5.888   2.015
 8963SOL     OW27787   4.590   6.362   5.995
 8963SOL    HW127788   4.683   6.398   5.989
 8963SOL    HW227789   4.542   6.405   6.072
 8964SOL     OW27790   1.866   2.587   4.655
 8964SOL    HW127791   1.861   2.498   4.700
 8964SOL    HW227792   1.918   2.651   4.713
 8965SOL     OW27793   3.712   5.892   6.670
 8965SOL    HW127794   3.635   5.863   6.614
 8965SOL    HW227795   3.692   5.981   6.711
 8966SOL     OW27796   4.259   5.907   4.438
 8966SOL    HW127797   4.209   5.836   4.488
 8966SOL    HW227798   4.251   5.994   4.487
 8967SOL     OW27799   3.254   0.381   3.376
 8967SOL    HW127800   3.253   0.360   3.278
 8967SOL    HW227801   3.330   0.442   3.396
 8968SOL     OW27802   3.227   4.962   2.344
 8968SOL    HW127803   3.274   4.928   2.262
 8968SOL    HW227804   3.186   5.051   2.325
 8969SOL     OW27805   0.971   1.005   2.403
 8969SOL    HW127806   1.054   0.950   2.408
 8969SOL    HW227807   0.909   0.979   2.477
 8970SOL     OW27808   1.960   0.317   3.662
 8970SOL    HW127809   1.966   0.369   3.747
 8970SOL    HW227810   1.926   0.225   3.681
 8971SOL     OW27811   3.143   4.495   0.133
 8971SOL    HW127812   3.155   4.589   0.099
 8971SOL    HW227813   3.084   4.497   0.214
 8972SOL     OW27814   5.857   4.087   6.930
 8972SOL    HW127815   5.886   4.158   6.993
 8972SOL    HW227816   5.900   4.000   6.954
 8973SOL     OW27817   1.600   2.765   3.365
 8973SOL    HW127818   1.605   2.666   3.372
 8973SOL    HW227819   1.692   2.804   3.370
 8974SOL     OW27820   2.499   4.548   4.783
 8974SOL    HW127821   2.489   4.533   4.881
 8974SOL    HW227822   2.502   4.460   4.735
 8975SOL     OW27823   0.262   5.157   5.526
 8975SOL    HW127824   0.249   5.130   5.622
 8975SOL    HW227825   0.336   5.103   5.486
 8976SOL     OW27826   5.868   0.269   2.546
 8976SOL    HW127827   5.851   0.367   2.561
 8976SOL    HW227828   5.913   0.231   2.627
 8977SOL     OW27829   6.494   4.343   6.537
 8977SOL    HW127830   6.571   4.371   6.480
 8977SOL    HW227831   6.518   4.260   6.586
 8978SOL     OW27832   6.348   6.109   0.039
 8978SOL    HW127833   6.385   6.131   0.129
 8978SOL    HW227834   6.310   6.191   7.022
 8979SOL     OW27835   1.382   5.357   4.458
 8979SOL    HW127836   1.426   5.268   4.472
 8979SOL    HW227837   1.452   5.428   4.450
 8980SOL     OW27838   3.599   0.541   7.023
 8980SOL    HW127839   3.530   0.528   0.070
 8980SOL    HW227840   3.584   0.473   6.951
 8981SOL     OW27841   4.423   3.648   6.455
 8981SOL    HW127842   4.448   3.612   6.365
 8981SOL    HW227843   4.502   3.693   6.497
 8982SOL     OW27844   0.331   2.245   2.023
 8982SOL    HW127845   0.420   2.262   1.981
 8982SOL    HW227846   0.286   2.333   2.041
 8983SOL     OW27847   2.003   6.396   1.907
 8983SOL    HW127848   1.970   6.415   2.000
 8983SOL    HW227849   2.036   6.481   1.866
 8984SOL     OW27850   6.998   0.772   4.245
 8984SOL    HW127851   6.924   0.837   4.264
 8984SOL    HW227852   6.994   0.698   4.312
 8985SOL     OW27853   4.642   1.801   1.686
 8985SOL    HW127854   4.629   1.817   1.588
 8985SOL    HW227855   4.683   1.710   1.699
 8986SOL     OW27856   6.888   4.954   0.082
 8986SOL    HW127857   6.869   4.877   0.143
 8986SOL    HW227858   6.978   4.991   0.102
 8987SOL     OW27859   2.191   6.119   1.685
 8987SOL    HW127860   2.228   6.134   1.776
 8987SOL    HW227861   2.110   6.061   1.691
 8988SOL     OW27862   2.390   6.973   0.886
 8988SOL    HW127863   2.294   6.948   0.902
 8988SOL    HW227864   2.426   6.919   0.810
 8989SOL     OW27865   5.338   1.503   3.118
 8989SOL    HW127866   5.347   1.420   3.172
 8989SOL    HW227867   5.242   1.514   3.090
 8990SOL     OW27868   2.782   0.389   2.469
 8990SOL    HW127869   2.872   0.386   2.511
 8990SOL    HW227870   2.777   0.468   2.408
 8991SOL     OW27871   0.888   1.681   0.759
 8991SOL    HW127872   0.899   1.774   0.794
 8991SOL    HW227873   0.834   1.627   0.823
 8992SOL     OW27874   0.461   4.064   6.361
 8992SOL    HW127875   0.430   4.065   6.456
 8992SOL    HW227876   0.399   4.010   6.305
 8993SOL     OW27877   5.445   3.728   4.966
 8993SOL    HW127878   5.420   3.686   5.054
 8993SOL    HW227879   5.506   3.805   4.982
 8994SOL     OW27880   1.161   5.618   2.813
 8994SOL    HW127881   1.115   5.640   2.899
 8994SOL    HW227882   1.199   5.526   2.818
 8995SOL     OW27883   2.091   3.818   5.007
 8995SOL    HW127884   2.097   3.873   4.923
 8995SOL    HW227885   2.039   3.735   4.987
 8996SOL     OW27886   1.510   4.048   2.152
 8996SOL    HW127887   1.425   4.035   2.202
 8996SOL    HW227888   1.501   4.010   2.060
 8997SOL     OW27889   4.343   1.931   5.156
 8997SOL    HW127890   4.288   1.901   5.234
 8997SOL    HW227891   4.387   2.018   5.179
 8998SOL     OW27892   0.973   1.533   6.288
 8998SOL    HW127893   1.073   1.523   6.287
 8998SOL    HW227894   0.942   1.559   6.196
 8999SOL     OW27895   4.914   1.206   4.878
 8999SOL    HW127896   4.829   1.221   4.928
 8999SOL    HW227897   4.895   1.154   4.794
 9000SOL     OW27898   2.376   4.343   0.235
 9000SOL    HW127899   2.402   4.275   0.166
 9000SOL    HW227900   2.458   4.377   0.280
 9001SOL     OW27901   2.032   4.602   3.587
 9001SOL    HW127902   2.093   4.677   3.565
 9001SOL    HW227903   1.947   4.610   3.534
 9002SOL     OW27904   5.173   4.399   5.571
 9002SOL    HW127905   5.267   4.430   5.587
 9002SOL    HW227906   5.175   4.311   5.524
 9003SOL     OW27907   6.490   3.334   6.384
 9003SOL    HW127908   6.473   3.286   6.297
 9003SOL    HW227909   6.402   3.352   6.429
 9004SOL     OW27910   4.613   5.581   0.684
 9004SOL    HW127911   4.633   5.534   0.770
 9004SOL    HW227912   4.604   5.679   0.701
 9005SOL     OW27913   4.304   1.974   2.921
 9005SOL    HW127914   4.296   2.024   2.834
 9005SOL    HW227915   4.389   2.001   2.967
 9006SOL     OW27916   1.955   6.737   0.996
 9006SOL    HW127917   1.875   6.760   1.051
 9006SOL    HW227918   1.928   6.675   0.921
 9007SOL     OW27919   2.345   6.423   4.062
 9007SOL    HW127920   2.382   6.353   4.123
 9007SOL    HW227921   2.245   6.416   4.059
 9008SOL     OW27922   6.783   4.769   2.701
 9008SOL    HW127923   6.834   4.803   2.622
 9008SOL    HW227924   6.847   4.749   2.776
 9009SOL     OW27925   4.276   5.955   0.733
 9009SOL    HW127926   4.311   5.869   0.769
 9009SOL    HW227927   4.281   6.025   0.804
 9010SOL     OW27928   0.856   5.497   5.019
 9010SOL    HW127929   0.871   5.448   4.934
 9010SOL    HW227930   0.757   5.510   5.033
 9011SOL     OW27931   4.104   1.983   1.844
 9011SOL    HW127932   4.022   2.036   1.863
 9011SOL    HW227933   4.091   1.889   1.877
 9012SOL     OW27934   5.791   5.458   1.672
 9012SOL    HW127935   5.746   5.518   1.739
 9012SOL    HW227936   5.775   5.363   1.698
 9013SOL     OW27937   4.755   6.052   2.851
 9013SOL    HW127938   4.744   5.958   2.885
 9013SOL    HW227939   4.692   6.067   2.775
 9014SOL     OW27940   2.602   0.842   0.585
 9014SOL    HW127941   2.555   0.928   0.567
 9014SOL    HW227942   2.680   0.858   0.645
 9015SOL     OW27943   6.765   1.309   4.756
 9015SOL    HW127944   6.680   1.325   4.806
 9015SOL    HW227945   6.805   1.222   4.786
 9016SOL     OW27946   6.670   5.823   6.446
 9016SOL    HW127947   6.725   5.824   6.530
 9016SOL    HW227948   6.623   5.911   6.436
 9017SOL     OW27949   0.212   4.071   3.790
 9017SOL    HW127950   0.180   3.983   3.825
 9017SOL    HW227951   0.282   4.055   3.720
 9018SOL     OW27952   3.557   1.664   6.026
 9018SOL    HW127953   3.515   1.748   6.060
 9018SOL    HW227954   3.498   1.624   5.956
 9019SOL     OW27955   1.652   5.880   0.399
 9019SOL    HW127956   1.699   5.886   0.487
 9019SOL    HW227957   1.661   5.788   0.362
 9020SOL     OW27958   0.284   4.727   2.626
 9020SOL    HW127959   0.315   4.753   2.717
 9020SOL    HW227960   0.247   4.634   2.629
 9021SOL     OW27961   6.417   6.056   5.192
 9021SOL    HW127962   6.428   6.044   5.093
 9021SOL    HW227963   6.506   6.043   5.237
 9022SOL     OW27964   3.304   1.427   6.468
 9022SOL    HW127965   3.288   1.510   6.522
 9022SOL    HW227966   3.263   1.439   6.377
 9023SOL     OW27967   3.337   2.994   2.926
 9023SOL    HW127968   3.285   2.988   3.012
 9023SOL    HW227969   3.419   3.048   2.941
 9024SOL     OW27970   1.648   0.558   6.375
 9024SOL    HW127971   1.595   0.511   6.446
 9024SOL    HW227972   1.745   0.557   6.400
 9025SOL     OW27973   0.163   4.303   0.966
 9025SOL    HW127974   0.082   4.304   1.024
 9025SOL    HW227975   0.201   4.210   0.963
 9026SOL     OW27976   2.894   3.169   5.384
 9026SOL    HW127977   2.950   3.114   5.446
 9026SOL    HW227978   2.799   3.141   5.391
 9027SOL     OW27979   2.477   2.493   2.776
 9027SOL    HW127980   2.386   2.529   2.796
 9027SOL    HW227981   2.540   2.516   2.850
 9028SOL     OW27982   2.240   4.945   5.249
 9028SOL    HW127983   2.286   4.905   5.328
 9028SOL    HW227984   2.269   4.898   5.165
 9029SOL     OW27985   4.793   5.310   3.145
 9029SOL    HW127986   4.858   5.334   3.073
 9029SOL    HW227987   4.801   5.374   3.221
 9030SOL     OW27988   3.073   1.870   1.670
 9030SOL    HW127989   3.146   1.816   1.710
 9030SOL    HW227990   2.986   1.846   1.713
 9031SOL     OW27991   1.613   1.254   1.179
 9031SOL    HW127992   1.582   1.313   1.104
 9031SOL    HW227993   1.636   1.311   1.258
 9032SOL     OW27994   1.075   2.098   2.754
 9032SOL    HW127995   1.038   2.174   2.700
 9032SOL    HW227996   1.053   2.011   2.710
 9033SOL     OW27997   1.630   3.846   2.868
 9033SOL    HW127998   1.595   3.763   2.912
 9033SOL    HW227999   1.697   3.820   2.798
 9034SOL     OW28000   1.388   0.121   5.833
 9034SOL    HW128001   1.409   0.042   5.891
 9034SOL    HW228002   1.323   0.180   5.879
 9035SOL     OW28003   6.947   0.541   4.374
 9035SOL    HW128004   6.893   0.530   4.290
 9035SOL    HW228005   6.887   0.576   4.446
 9036SOL     OW28006   1.275   1.450   5.118
 9036SOL    HW128007   1.292   1.542   5.154
 9036SOL    HW228008   1.322   1.382   5.174
 9037SOL     OW28009   2.872   3.712   5.836
 9037SOL    HW128010   2.912   3.794   5.877
 9037SOL    HW228011   2.810   3.739   5.763
 9038SOL     OW28012   5.569   6.769   5.620
 9038SOL    HW128013   5.630   6.690   5.610
 9038SOL    HW228014   5.602   6.828   5.694
 9039SOL     OW28015   2.489   5.099   6.455
 9039SOL    HW128016   2.438   5.016   6.476
 9039SOL    HW228017   2.560   5.113   6.524
 9040SOL     OW28018   2.573   1.727   2.010
 9040SOL    HW128019   2.658   1.732   1.956
 9040SOL    HW228020   2.544   1.820   2.034
 9041SOL     OW28021   1.656   3.108   0.185
 9041SOL    HW128022   1.749   3.128   0.154
 9041SOL    HW228023   1.640   3.009   0.180
 9042SOL     OW28024   2.498   5.222   3.501
 9042SOL    HW128025   2.471   5.132   3.536
 9042SOL    HW228026   2.585   5.250   3.542
 9043SOL     OW28027   6.819   2.403   0.927
 9043SOL    HW128028   6.772   2.401   0.839
 9043SOL    HW228029   6.797   2.321   0.979
 9044SOL     OW28030   6.588   4.845   0.479
 9044SOL    HW128031   6.613   4.759   0.525
 9044SOL    HW228032   6.489   4.855   0.477
 9045SOL     OW28033   3.180   5.863   3.988
 9045SOL    HW128034   3.200   5.850   4.085
 9045SOL    HW228035   3.251   5.818   3.934
 9046SOL     OW28036   3.387   4.359   6.039
 9046SOL    HW128037   3.436   4.371   5.953
 9046SOL    HW228038   3.446   4.390   6.114
 9047SOL     OW28039   1.208   4.500   4.858
 9047SOL    HW128040   1.141   4.446   4.808
 9047SOL    HW228041   1.202   4.478   4.956
 9048SOL     OW28042   1.509   2.226   5.102
 9048SOL    HW128043   1.605   2.208   5.082
 9048SOL    HW228044   1.502   2.301   5.169
 9049SOL     OW28045   5.065   6.107   6.230
 9049SOL    HW128046   5.043   6.091   6.134
 9049SOL    HW228047   4.990   6.158   6.274
 9050SOL     OW28048   0.095   5.964   5.336
 9050SOL    HW128049   0.097   5.904   5.417
 9050SOL    HW228050   0.159   6.040   5.349
 9051SOL     OW28051   5.437   6.515   6.260
 9051SOL    HW128052   5.437   6.479   6.166
 9051SOL    HW228053   5.530   6.516   6.295
 9052SOL     OW28054   1.716   5.410   5.046
 9052SOL    HW128055   1.726   5.312   5.063
 9052SOL    HW228056   1.760   5.461   5.121
 9053SOL     OW28057   2.775   1.619   3.827
 9053SOL    HW128058   2.870   1.614   3.797
 9053SOL    HW228059   2.773   1.640   3.925
 9054SOL     OW28060   3.815   0.146   0.953
 9054SOL    HW128061   3.877   0.076   0.989
 9054SOL    HW228062   3.850   0.177   0.864
 9055SOL     OW28063   0.619   1.365   4.510
 9055SOL    HW128064   0.576   1.332   4.426
 9055SOL    HW228065   0.718   1.369   4.497
 9056SOL     OW28066   5.409   1.703   2.479
 9056SOL    HW128067   5.318   1.740   2.457
 9056SOL    HW228068   5.430   1.720   2.575
 9057SOL     OW28069   4.371   6.684   6.979
 9057SOL    HW128070   4.393   6.587   6.966
 9057SOL    HW228071   4.282   6.692   0.000
 9058SOL     OW28072   2.096   2.370   4.455
 9058SOL    HW128073   2.152   2.288   4.448
 9058SOL    HW228074   2.113   2.415   4.543
 9059SOL     OW28075   6.393   0.672   3.031
 9059SOL    HW128076   6.381   0.620   2.947
 9059SOL    HW228077   6.408   0.608   3.107
 9060SOL     OW28078   0.975   5.793   2.082
 9060SOL    HW128079   1.069   5.812   2.110
 9060SOL    HW228080   0.956   5.843   1.997
 9061SOL     OW28081   5.931   3.931   2.904
 9061SOL    HW128082   5.909   3.834   2.914
 9061SOL    HW228083   5.869   3.972   2.837
 9062SOL     OW28084   0.254   6.060   2.847
 9062SOL    HW128085   0.322   5.992   2.872
 9062SOL    HW228086   0.207   6.030   2.764
 9063SOL     OW28087   4.443   1.987   1.799
 9063SOL    HW128088   4.385   2.040   1.738
 9063SOL    HW228089   4.509   1.933   1.746
 9064SOL     OW28090   0.596   5.861   3.123
 9064SOL    HW128091   0.592   5.961   3.113
 9064SOL    HW228092   0.690   5.831   3.109
 9065SOL     OW28093   3.076   4.376   5.763
 9065SOL    HW128094   3.089   4.305   5.693
 9065SOL    HW228095   3.147   4.446   5.754
 9066SOL     OW28096   4.709   4.584   4.548
 9066SOL    HW128097   4.671   4.670   4.515
 9066SOL    HW228098   4.701   4.514   4.476
 9067SOL     OW28099   0.871   6.274   4.443
 9067SOL    HW128100   0.843   6.210   4.371
 9067SOL    HW228101   0.971   6.276   4.449
 9068SOL     OW28102   4.601   0.169   6.159
 9068SOL    HW128103   4.558   0.212   6.080
 9068SOL    HW228104   4.683   0.220   6.184
 9069SOL     OW28105   5.166   2.204   0.843
 9069SOL    HW128106   5.099   2.274   0.815
 9069SOL    HW228107   5.223   2.179   0.765
 9070SOL     OW28108   2.098   1.531   5.941
 9070SOL    HW128109   2.162   1.526   5.864
 9070SOL    HW228110   2.010   1.565   5.909
 9071SOL     OW28111   5.269   2.734   6.397
 9071SOL    HW128112   5.286   2.648   6.447
 9071SOL    HW228113   5.264   2.716   6.299
 9072SOL     OW28114   4.918   0.601   3.060
 9072SOL    HW128115   4.997   0.653   3.027
 9072SOL    HW228116   4.889   0.537   2.989
 9073SOL     OW28117   4.591   2.128   5.166
 9073SOL    HW128118   4.630   2.167   5.082
 9073SOL    HW228119   4.619   2.032   5.174
 9074SOL     OW28120   1.690   0.866   2.291
 9074SOL    HW128121   1.612   0.907   2.339
 9074SOL    HW228122   1.658   0.823   2.206
 9075SOL     OW28123   6.069   6.132   0.612
 9075SOL    HW128124   6.156   6.128   0.660
 9075SOL    HW228125   6.071   6.207   0.546
 9076SOL     OW28126   6.414   0.173   2.603
 9076SOL    HW128127   6.485   0.224   2.652
 9076SOL    HW228128   6.366   0.113   2.667
 9077SOL     OW28129   6.622   1.438   6.325
 9077SOL    HW128130   6.719   1.444   6.344
 9077SOL    HW228131   6.607   1.428   6.226
 9078SOL     OW28132   5.232   6.399   0.079
 9078SOL    HW128133   5.258   6.309   0.116
 9078SOL    HW228134   5.186   6.452   0.150
 9079SOL     OW28135   1.274   1.674   0.047
 9079SOL    HW128136   1.233   1.765   0.052
 9079SOL    HW228137   1.237   1.617   0.121
 9080SOL     OW28138   6.159   3.298   2.024
 9080SOL    HW128139   6.226   3.343   1.964
 9080SOL    HW228140   6.074   3.350   2.024
 9081SOL     OW28141   5.274   1.019   0.475
 9081SOL    HW128142   5.226   1.099   0.513
 9081SOL    HW228143   5.358   1.049   0.430
 9082SOL     OW28144   3.288   5.776   6.146
 9082SOL    HW128145   3.326   5.811   6.060
 9082SOL    HW228146   3.191   5.758   6.135
 9083SOL     OW28147   4.413   5.203   0.003
 9083SOL    HW128148   4.468   5.234   0.081
 9083SOL    HW228149   4.323   5.174   0.036
 9084SOL     OW28150   0.124   2.634   6.128
 9084SOL    HW128151   0.034   2.601   6.098
 9084SOL    HW228152   0.111   2.710   6.191
 9085SOL     OW28153   2.206   4.834   6.936
 9085SOL    HW128154   2.262   4.844   7.018
 9085SOL    HW228155   2.117   4.876   6.952
 9086SOL     OW28156   0.476   4.730   1.003
 9086SOL    HW128157   0.406   4.683   1.055
 9086SOL    HW228158   0.458   4.719   0.905
 9087SOL     OW28159   5.614   1.048   1.430
 9087SOL    HW128160   5.640   1.128   1.377
 9087SOL    HW228161   5.516   1.052   1.450
 9088SOL     OW28162   6.285   6.465   0.796
 9088SOL    HW128163   6.193   6.429   0.781
 9088SOL    HW228164   6.286   6.563   0.777
 9089SOL     OW28165   5.105   5.194   3.796
 9089SOL    HW128166   5.168   5.128   3.837
 9089SOL    HW228167   5.138   5.219   3.706
 9090SOL     OW28168   4.904   6.230   5.449
 9090SOL    HW128169   4.975   6.228   5.378
 9090SOL    HW228170   4.814   6.216   5.407
 9091SOL     OW28171   2.242   1.512   1.819
 9091SOL    HW128172   2.209   1.557   1.902
 9091SOL    HW228173   2.311   1.444   1.843
 9092SOL     OW28174   2.019   1.168   5.556
 9092SOL    HW128175   1.960   1.219   5.493
 9092SOL    HW228176   1.976   1.081   5.578
 9093SOL     OW28177   2.133   4.034   0.740
 9093SOL    HW128178   2.078   3.953   0.720
 9093SOL    HW228179   2.072   4.111   0.760
 9094SOL     OW28180   6.656   4.388   1.524
 9094SOL    HW128181   6.651   4.322   1.449
 9094SOL    HW228182   6.749   4.389   1.561
 9095SOL     OW28183   3.233   2.576   6.878
 9095SOL    HW128184   3.297   2.499   6.881
 9095SOL    HW228185   3.252   2.632   6.797
 9096SOL     OW28186   5.204   2.981   2.957
 9096SOL    HW128187   5.293   3.027   2.961
 9096SOL    HW228188   5.157   2.993   3.044
 9097SOL     OW28189   0.913   5.253   6.583
 9097SOL    HW128190   0.864   5.340   6.584
 9097SOL    HW228191   0.847   5.178   6.570
 9098SOL     OW28192   4.116   3.653   3.013
 9098SOL    HW128193   4.159   3.595   2.944
 9098SOL    HW228194   4.017   3.652   2.999
 9099SOL     OW28195   2.240   3.512   0.744
 9099SOL    HW128196   2.295   3.596   0.749
 9099SOL    HW228197   2.179   3.507   0.823
 9100SOL     OW28198   0.516   3.322   1.410
 9100SOL    HW128199   0.565   3.407   1.391
 9100SOL    HW228200   0.532   3.294   1.505
 9101SOL     OW28201   1.876   2.679   1.281
 9101SOL    HW128202   1.970   2.649   1.296
 9101SOL    HW228203   1.866   2.774   1.311
 9102SOL     OW28204   3.748   5.298   2.409
 9102SOL    HW128205   3.741   5.328   2.314
 9102SOL    HW228206   3.658   5.306   2.453
 9103SOL     OW28207   0.343   4.021   0.059
 9103SOL    HW128208   0.287   4.001   7.003
 9103SOL    HW228209   0.288   4.005   0.142
 9104SOL     OW28210   4.682   6.730   1.182
 9104SOL    HW128211   4.590   6.698   1.160
 9104SOL    HW228212   4.690   6.827   1.159
 9105SOL     OW28213   1.912   2.038   5.689
 9105SOL    HW128214   1.864   2.121   5.718
 9105SOL    HW228215   2.011   2.053   5.693
 9106SOL     OW28216   6.715   5.239   1.043
 9106SOL    HW128217   6.625   5.218   1.004
 9106SOL    HW228218   6.704   5.297   1.124
 9107SOL     OW28219   4.215   0.471   1.682
 9107SOL    HW128220   4.241   0.375   1.672
 9107SOL    HW228221   4.126   0.478   1.726
 9108SOL     OW28222   4.691   5.316   5.985
 9108SOL    HW128223   4.773   5.287   5.937
 9108SOL    HW228224   4.665   5.248   6.053
 9109SOL     OW28225   2.829   1.969   3.869
 9109SOL    HW128226   2.813   2.067   3.860
 9109SOL    HW228227   2.742   1.920   3.870
 9110SOL     OW28228   1.956   4.124   3.796
 9110SOL    HW128229   1.963   4.223   3.799
 9110SOL    HW228230   2.023   4.083   3.858
 9111SOL     OW28231   3.718   4.209   1.531
 9111SOL    HW128232   3.709   4.163   1.619
 9111SOL    HW228233   3.631   4.203   1.481
 9112SOL     OW28234   0.014   4.733   2.049
 9112SOL    HW128235   0.072   4.814   2.063
 9112SOL    HW228236   0.010   4.711   1.952
 9113SOL     OW28237   4.427   6.893   0.291
 9113SOL    HW128238   4.351   6.912   0.353
 9113SOL    HW228239   4.491   6.831   0.336
 9114SOL     OW28240   2.700   4.466   1.653
 9114SOL    HW128241   2.778   4.432   1.706
 9114SOL    HW228242   2.670   4.554   1.690
 9115SOL     OW28243   1.425   4.707   5.252
 9115SOL    HW128244   1.375   4.791   5.230
 9115SOL    HW228245   1.362   4.639   5.289
 9116SOL     OW28246   0.429   1.281   5.937
 9116SOL    HW128247   0.486   1.251   6.013
 9116SOL    HW228248   0.374   1.360   5.965
 9117SOL     OW28249   6.490   2.151   0.005
 9117SOL    HW128250   6.516   2.145   6.933
 9117SOL    HW228251   6.567   2.121   0.061
 9118SOL     OW28252   6.242   6.789   1.923
 9118SOL    HW128253   6.310   6.797   1.996
 9118SOL    HW228254   6.270   6.718   1.859
 9119SOL     OW28255   6.608   0.489   1.503
 9119SOL    HW128256   6.671   0.532   1.568
 9119SOL    HW228257   6.648   0.404   1.469
 9120SOL     OW28258   5.358   1.199   6.231
 9120SOL    HW128259   5.341   1.261   6.155
 9120SOL    HW228260   5.278   1.195   6.291
 9121SOL     OW28261   0.838   0.982   6.312
 9121SOL    HW128262   0.834   1.082   6.319
 9121SOL    HW228263   0.921   0.949   6.358
 9122SOL     OW28264   1.596   2.642   2.476
 9122SOL    HW128265   1.685   2.687   2.464
 9122SOL    HW228266   1.523   2.712   2.473
 9123SOL     OW28267   2.245   5.672   6.836
 9123SOL    HW128268   2.322   5.614   6.808
 9123SOL    HW228269   2.166   5.652   6.778
 9124SOL     OW28270   6.379   5.591   5.336
 9124SOL    HW128271   6.388   5.492   5.321
 9124SOL    HW228272   6.291   5.610   5.380
 9125SOL     OW28273   5.179   4.131   3.740
 9125SOL    HW128274   5.090   4.099   3.707
 9125SOL    HW228275   5.169   4.217   3.789
 9126SOL     OW28276   5.989   0.809   1.261
 9126SOL    HW128277   6.000   0.849   1.170
 9126SOL    HW228278   5.891   0.792   1.278
 9127SOL     OW28279   5.329   0.690   0.247
 9127SOL    HW128280   5.323   0.657   0.153
 9127SOL    HW228281   5.394   0.766   0.253
 9128SOL     OW28282   3.940   2.015   5.053
 9128SOL    HW128283   3.939   1.917   5.070
 9128SOL    HW228284   3.852   2.044   5.015
 9129SOL     OW28285   2.123   1.980   6.804
 9129SOL    HW128286   2.206   2.021   6.766
 9129SOL    HW228287   2.048   2.046   6.801
 9130SOL     OW28288   5.929   4.588   0.769
 9130SOL    HW128289   5.910   4.538   0.853
 9130SOL    HW228290   5.938   4.686   0.789
 9131SOL     OW28291   1.215   4.216   4.500
 9131SOL    HW128292   1.256   4.294   4.454
 9131SOL    HW228293   1.205   4.141   4.435
 9132SOL     OW28294   0.135   3.421   4.283
 9132SOL    HW128295   0.054   3.448   4.333
 9132SOL    HW228296   0.147   3.322   4.289
 9133SOL     OW28297   2.604   4.069   1.043
 9133SOL    HW128298   2.680   4.089   1.104
 9133SOL    HW228299   2.524   4.042   1.096
 9134SOL     OW28300   2.996   5.958   6.474
 9134SOL    HW128301   2.982   5.984   6.379
 9134SOL    HW228302   2.953   6.026   6.534
 9135SOL     OW28303   6.371   5.753   4.062
 9135SOL    HW128304   6.459   5.801   4.061
 9135SOL    HW228305   6.348   5.728   4.156
 9136SOL     OW28306   4.678   5.215   5.685
 9136SOL    HW128307   4.751   5.213   5.753
 9136SOL    HW228308   4.699   5.149   5.612
 9137SOL     OW28309   4.241   1.198   1.600
 9137SOL    HW128310   4.181   1.277   1.601
 9137SOL    HW228311   4.312   1.208   1.669
 9138SOL     OW28312   4.940   5.297   6.289
 9138SOL    HW128313   4.864   5.362   6.284
 9138SOL    HW228314   4.916   5.223   6.353
 9139SOL     OW28315   3.190   1.430   5.389
 9139SOL    HW128316   3.266   1.456   5.449
 9139SOL    HW228317   3.124   1.376   5.441
 9140SOL     OW28318   6.921   2.400   2.744
 9140SOL    HW128319   6.880   2.478   2.791
 9140SOL    HW228320   7.019   2.415   2.733
 9141SOL     OW28321   5.275   0.073   5.619
 9141SOL    HW128322   5.334   0.153   5.604
 9141SOL    HW228323   5.182   0.104   5.639
 9142SOL     OW28324   0.362   3.007   6.317
 9142SOL    HW128325   0.312   3.018   6.230
 9142SOL    HW228326   0.301   2.966   6.385
 9143SOL     OW28327   4.544   2.993   0.549
 9143SOL    HW128328   4.622   3.020   0.604
 9143SOL    HW228329   4.525   2.896   0.562
 9144SOL     OW28330   2.368   5.573   5.647
 9144SOL    HW128331   2.291   5.511   5.663
 9144SOL    HW228332   2.375   5.594   5.550
 9145SOL     OW28333   0.110   4.766   6.855
 9145SOL    HW128334   0.142   4.756   6.949
 9145SOL    HW228335   0.063   4.683   6.826
 9146SOL     OW28336   6.053   2.743   1.157
 9146SOL    HW128337   5.974   2.801   1.178
 9146SOL    HW228338   6.033   2.687   1.077
 9147SOL     OW28339   4.474   5.568   4.582
 9147SOL    HW128340   4.525   5.544   4.665
 9147SOL    HW228341   4.510   5.653   4.544
 9148SOL     OW28342   4.883   5.536   3.299
 9148SOL    HW128343   4.845   5.592   3.225
 9148SOL    HW228344   4.983   5.538   3.295
 9149SOL     OW28345   5.211   2.958   4.494
 9149SOL    HW128346   5.174   2.891   4.429
 9149SOL    HW228347   5.136   3.012   4.532
 9150SOL     OW28348   4.697   0.197   3.170
 9150SOL    HW128349   4.643   0.267   3.217
 9150SOL    HW228350   4.668   0.191   3.075
 9151SOL     OW28351   1.704   4.231   2.141
 9151SOL    HW128352   1.634   4.163   2.163
 9151SOL    HW228353   1.660   4.320   2.127
 9152SOL     OW28354   2.433   5.997   3.454
 9152SOL    HW128355   2.474   6.076   3.409
 9152SOL    HW228356   2.403   6.022   3.546
 9153SOL     OW28357   1.831   2.790   6.296
 9153SOL    HW128358   1.870   2.713   6.245
 9153SOL    HW228359   1.763   2.837   6.240
 9154SOL     OW28360   2.839   5.910   6.877
 9154SOL    HW128361   2.802   5.999   6.905
 9154SOL    HW228362   2.764   5.844   6.872
 9155SOL     OW28363   1.891   4.263   6.440
 9155SOL    HW128364   1.841   4.179   6.458
 9155SOL    HW228365   1.858   4.335   6.501
 9156SOL     OW28366   4.482   2.488   1.519
 9156SOL    HW128367   4.535   2.427   1.460
 9156SOL    HW228368   4.503   2.583   1.496
 9157SOL     OW28369   5.715   3.901   5.500
 9157SOL    HW128370   5.696   3.851   5.415
 9157SOL    HW228371   5.673   3.853   5.576
 9158SOL     OW28372   0.715   3.461   4.208
 9158SOL    HW128373   0.778   3.481   4.283
 9158SOL    HW228374   0.626   3.502   4.228
 9159SOL     OW28375   6.434   5.439   2.316
 9159SOL    HW128376   6.505   5.461   2.383
 9159SOL    HW228377   6.452   5.487   2.230
 9160SOL     OW28378   0.767   0.016   6.286
 9160SOL    HW128379   0.766   6.962   6.348
 9160SOL    HW228380   0.778   7.008   6.192
 9161SOL     OW28381   4.896   3.362   4.717
 9161SOL    HW128382   4.826   3.416   4.763
 9161SOL    HW228383   4.857   3.274   4.689
 9162SOL     OW28384   4.510   2.555   2.545
 9162SOL    HW128385   4.472   2.507   2.466
 9162SOL    HW228386   4.599   2.594   2.521
 9163SOL     OW28387   3.036   2.262   3.517
 9163SOL    HW128388   3.078   2.340   3.564
 9163SOL    HW228389   3.106   2.196   3.493
 9164SOL     OW28390   2.915   0.713   6.378
 9164SOL    HW128391   2.983   0.714   6.304
 9164SOL    HW228392   2.891   0.619   6.400
 9165SOL     OW28393   5.383   0.768   6.803
 9165SOL    HW128394   5.408   0.707   6.728
 9165SOL    HW228395   5.433   0.854   6.795
 9166SOL     OW28396   3.506   5.205   0.974
 9166SOL    HW128397   3.453   5.284   0.941
 9166SOL    HW228398   3.573   5.237   1.041
 9167SOL     OW28399   1.336   3.747   5.822
 9167SOL    HW128400   1.238   3.755   5.808
 9167SOL    HW228401   1.356   3.740   5.920
 9168SOL     OW28402   2.483   0.179   5.909
 9168SOL    HW128403   2.418   0.213   5.841
 9168SOL    HW228404   2.476   0.234   5.992
 9169SOL     OW28405   0.770   0.939   4.060
 9169SOL    HW128406   0.679   0.937   4.019
 9169SOL    HW228407   0.807   1.032   4.055
 9170SOL     OW28408   6.938   5.456   0.421
 9170SOL    HW128409   6.895   5.519   0.356
 9170SOL    HW228410   6.868   5.411   0.475
 9171SOL     OW28411   3.080   5.692   6.903
 9171SOL    HW128412   3.046   5.598   6.894
 9171SOL    HW228413   3.018   5.744   6.963
 9172SOL     OW28414   3.404   1.356   4.201
 9172SOL    HW128415   3.353   1.441   4.195
 9172SOL    HW228416   3.496   1.369   4.164
 9173SOL     OW28417   6.675   4.965   5.010
 9173SOL    HW128418   6.673   4.931   4.915
 9173SOL    HW228419   6.584   4.999   5.034
 9174SOL     OW28420   0.134   4.953   6.684
 9174SOL    HW128421   0.111   5.043   6.719
 9174SOL    HW228422   0.123   4.885   6.757
 9175SOL     OW28423   2.291   5.807   6.033
 9175SOL    HW128424   2.207   5.855   6.007
 9175SOL    HW228425   2.341   5.780   5.951
 9176SOL     OW28426   2.114   0.756   5.652
 9176SOL    HW128427   2.016   0.757   5.633
 9176SOL    HW228428   2.163   0.801   5.577
 9177SOL     OW28429   1.385   4.409   4.072
 9177SOL    HW128430   1.424   4.485   4.124
 9177SOL    HW228431   1.288   4.425   4.057
 9178SOL     OW28432   2.339   5.346   0.687
 9178SOL    HW128433   2.289   5.391   0.761
 9178SOL    HW228434   2.404   5.281   0.727
 9179SOL     OW28435   3.165   5.003   3.856
 9179SOL    HW128436   3.099   4.941   3.899
 9179SOL    HW228437   3.198   5.069   3.924
 9180SOL     OW28438   5.708   2.360   3.686
 9180SOL    HW128439   5.800   2.389   3.713
 9180SOL    HW228440   5.675   2.290   3.749
 9181SOL     OW28441   4.311   2.091   2.380
 9181SOL    HW128442   4.371   2.171   2.376
 9181SOL    HW228443   4.244   2.095   2.306
 9182SOL     OW28444   1.334   6.404   2.177
 9182SOL    HW128445   1.409   6.441   2.232
 9182SOL    HW228446   1.357   6.312   2.147
 9183SOL     OW28447   4.944   6.260   1.042
 9183SOL    HW128448   5.016   6.232   1.105
 9183SOL    HW228449   4.859   6.274   1.093
 9184SOL     OW28450   4.936   0.056   0.829
 9184SOL    HW128451   5.008   0.010   0.882
 9184SOL    HW228452   4.876   0.106   0.892
 9185SOL     OW28453   3.519   0.850   5.160
 9185SOL    HW128454   3.490   0.782   5.092
 9185SOL    HW228455   3.586   0.808   5.222
 9186SOL     OW28456   6.149   1.174   5.399
 9186SOL    HW128457   6.245   1.156   5.421
 9186SOL    HW228458   6.100   1.087   5.389
 9187SOL     OW28459   2.324   6.196   2.185
 9187SOL    HW128460   2.257   6.269   2.179
 9187SOL    HW228461   2.311   6.145   2.270
 9188SOL     OW28462   3.138   6.858   0.938
 9188SOL    HW128463   3.164   6.788   1.004
 9188SOL    HW228464   3.039   6.875   0.944
 9189SOL     OW28465   5.477   5.634   2.996
 9189SOL    HW128466   5.441   5.659   2.906
 9189SOL    HW228467   5.525   5.711   3.037
 9190SOL     OW28468   1.851   5.699   0.787
 9190SOL    HW128469   1.799   5.663   0.864
 9190SOL    HW228470   1.936   5.738   0.820
 9191SOL     OW28471   6.484   0.383   5.591
 9191SOL    HW128472   6.582   0.381   5.573
 9191SOL    HW228473   6.468   0.406   5.687
 9192SOL     OW28474   0.577   4.093   4.388
 9192SOL    HW128475   0.504   4.048   4.336
 9192SOL    HW228476   0.611   4.030   4.458
 9193SOL     OW28477   3.195   3.091   6.640
 9193SOL    HW128478   3.207   3.047   6.551
 9193SOL    HW228479   3.208   3.190   6.630
 9194SOL     OW28480   3.016   0.648   3.546
 9194SOL    HW128481   2.988   0.666   3.640
 9194SOL    HW228482   2.979   0.560   3.516
 9195SOL     OW28483   2.215   2.049   4.086
 9195SOL    HW128484   2.135   2.105   4.065
 9195SOL    HW228485   2.287   2.106   4.126
 9196SOL     OW28486   4.764   1.471   5.008
 9196SOL    HW128487   4.721   1.520   4.932
 9196SOL    HW228488   4.843   1.421   4.975
 9197SOL     OW28489   2.320   3.880   1.713
 9197SOL    HW128490   2.230   3.908   1.746
 9197SOL    HW228491   2.381   3.959   1.712
 9198SOL     OW28492   6.294   5.775   5.582
 9198SOL    HW128493   6.248   5.689   5.605
 9198SOL    HW228494   6.257   5.811   5.496
 9199SOL     OW28495   6.942   4.248   5.076
 9199SOL    HW128496   6.927   4.177   5.006
 9199SOL    HW228497   6.964   4.205   5.163
 9200SOL     OW28498   3.457   0.608   0.634
 9200SOL    HW128499   3.399   0.687   0.651
 9200SOL    HW228500   3.505   0.582   0.717
 9201SOL     OW28501   1.305   3.892   0.002
 9201SOL    HW128502   1.376   3.961   7.019
 9201SOL    HW228503   1.258   3.882   6.939
 9202SOL     OW28504   1.557   6.557   3.484
 9202SOL    HW128505   1.603   6.504   3.414
 9202SOL    HW228506   1.611   6.639   3.505
 9203SOL     OW28507   6.963   5.412   0.701
 9203SOL    HW128508   6.892   5.388   0.635
 9203SOL    HW228509   7.019   5.331   0.720
 9204SOL     OW28510   4.958   1.238   6.339
 9204SOL    HW128511   4.981   1.141   6.339
 9204SOL    HW228512   4.921   1.264   6.250
 9205SOL     OW28513   6.842   3.908   2.855
 9205SOL    HW128514   6.857   3.828   2.914
 9205SOL    HW228515   6.747   3.936   2.862
 9206SOL     OW28516   4.104   5.984   0.415
 9206SOL    HW128517   4.075   5.999   0.321
 9206SOL    HW228518   4.204   5.981   0.419
 9207SOL     OW28519   4.683   5.560   0.430
 9207SOL    HW128520   4.756   5.491   0.429
 9207SOL    HW228521   4.648   5.571   0.523
 9208SOL     OW28522   0.239   4.015   4.685
 9208SOL    HW128523   0.171   4.087   4.671
 9208SOL    HW228524   0.272   4.018   4.779
 9209SOL     OW28525   2.588   1.354   6.625
 9209SOL    HW128526   2.665   1.345   6.688
 9209SOL    HW228527   2.597   1.439   6.573
 9210SOL     OW28528   6.617   1.263   3.046
 9210SOL    HW128529   6.554   1.192   3.014
 9210SOL    HW228530   6.710   1.226   3.048
 9211SOL     OW28531   0.284   1.796   3.816
 9211SOL    HW128532   0.210   1.782   3.882
 9211SOL    HW228533   0.365   1.745   3.846
 9212SOL     OW28534   2.956   5.287   4.804
 9212SOL    HW128535   2.891   5.281   4.728
 9212SOL    HW228536   2.931   5.364   4.863
 9213SOL     OW28537   5.933   3.617   5.845
 9213SOL    HW128538   5.907   3.707   5.809
 9213SOL    HW228539   5.962   3.558   5.769
 9214SOL     OW28540   0.408   5.934   0.829
 9214SOL    HW128541   0.381   5.843   0.797
 9214SOL    HW228542   0.434   5.929   0.926
 9215SOL     OW28543   1.259   0.663   0.416
 9215SOL    HW128544   1.297   0.704   0.499
 9215SOL    HW228545   1.276   0.725   0.339
 9216SOL     OW28546   2.278   6.627   2.695
 9216SOL    HW128547   2.248   6.630   2.791
 9216SOL    HW228548   2.225   6.557   2.647
 9217SOL     OW28549   0.350   1.970   6.476
 9217SOL    HW128550   0.320   1.900   6.411
 9217SOL    HW228551   0.355   1.930   6.567
 9218SOL     OW28552   3.377   0.188   0.690
 9218SOL    HW128553   3.474   0.180   0.669
 9218SOL    HW228554   3.359   0.149   0.780
 9219SOL     OW28555   1.275   2.491   0.909
 9219SOL    HW128556   1.323   2.405   0.888
 9219SOL    HW228557   1.251   2.537   0.824
 9220SOL     OW28558   3.489   6.781   1.441
 9220SOL    HW128559   3.498   6.689   1.402
 9220SOL    HW228560   3.509   6.777   1.539
 9221SOL     OW28561   2.931   6.177   3.755
 9221SOL    HW128562   2.907   6.273   3.739
 9221SOL    HW228563   3.027   6.162   3.730
 9222SOL     OW28564   2.172   1.507   6.631
 9222SOL    HW128565   2.171   1.561   6.715
 9222SOL    HW228566   2.248   1.537   6.573
 9223SOL     OW28567   1.989   2.780   5.370
 9223SOL    HW128568   1.963   2.809   5.462
 9223SOL    HW228569   2.016   2.860   5.316
 9224SOL     OW28570   1.995   5.507   4.304
 9224SOL    HW128571   1.994   5.450   4.386
 9224SOL    HW228572   2.007   5.448   4.223
 9225SOL     OW28573   3.222   6.193   6.844
 9225SOL    HW128574   3.199   6.204   6.940
 9225SOL    HW228575   3.146   6.150   6.796
 9226SOL     OW28576   5.025   6.167   1.312
 9226SOL    HW128577   4.927   6.170   1.334
 9226SOL    HW228578   5.067   6.092   1.363
 9227SOL     OW28579   1.242   5.389   2.443
 9227SOL    HW128580   1.324   5.337   2.467
 9227SOL    HW228581   1.171   5.326   2.412
 9228SOL     OW28582   1.580   0.890   6.464
 9228SOL    HW128583   1.677   0.885   6.443
 9228SOL    HW228584   1.540   0.969   6.418
 9229SOL     OW28585   1.317   5.942   3.952
 9229SOL    HW128586   1.239   5.990   3.992
 9229SOL    HW228587   1.296   5.845   3.944
 9230SOL     OW28588   5.673   0.395   3.867
 9230SOL    HW128589   5.644   0.446   3.948
 9230SOL    HW228590   5.760   0.349   3.886
 9231SOL     OW28591   1.266   2.406   4.144
 9231SOL    HW128592   1.277   2.504   4.160
 9231SOL    HW228593   1.353   2.368   4.111
 9232SOL     OW28594   3.418   5.673   0.820
 9232SOL    HW128595   3.399   5.770   0.803
 9232SOL    HW228596   3.440   5.628   0.733
 9233SOL     OW28597   5.735   4.789   1.197
 9233SOL    HW128598   5.790   4.873   1.192
 9233SOL    HW228599   5.656   4.805   1.257
 9234SOL     OW28600   2.992   5.299   3.686
 9234SOL    HW128601   3.012   5.224   3.624
 9234SOL    HW228602   3.070   5.362   3.688
 9235SOL     OW28603   0.780   1.928   3.091
 9235SOL    HW128604   0.788   1.851   3.155
 9235SOL    HW228605   0.697   1.917   3.036
 9236SOL     OW28606   3.041   3.490   4.961
 9236SOL    HW128607   3.080   3.430   4.891
 9236SOL    HW228608   2.989   3.435   5.026
 9237SOL     OW28609   1.536   3.989   4.378
 9237SOL    HW128610   1.635   3.998   4.363
 9237SOL    HW228611   1.519   3.983   4.477
 9238SOL     OW28612   4.539   3.127   6.474
 9238SOL    HW128613   4.511   3.187   6.549
 9238SOL    HW228614   4.499   3.037   6.486
 9239SOL     OW28615   1.105   3.749   0.994
 9239SOL    HW128616   1.144   3.722   0.906
 9239SOL    HW228617   1.046   3.676   1.029
 9240SOL     OW28618   4.634   1.820   1.423
 9240SOL    HW128619   4.691   1.888   1.377
 9240SOL    HW228620   4.543   1.818   1.380
 9241SOL     OW28621   6.907   5.441   6.886
 9241SOL    HW128622   6.872   5.349   6.869
 9241SOL    HW228623   6.858   5.507   6.829
 9242SOL     OW28624   6.530   6.209   1.810
 9242SOL    HW128625   6.457   6.196   1.878
 9242SOL    HW228626   6.491   6.252   1.728
 9243SOL     OW28627   6.499   6.176   4.672
 9243SOL    HW128628   6.473   6.100   4.612
 9243SOL    HW228629   6.591   6.206   4.649
 9244SOL     OW28630   4.011   5.174   6.857
 9244SOL    HW128631   4.063   5.101   6.813
 9244SOL    HW228632   4.059   5.261   6.845
 9245SOL     OW28633   0.590   5.738   1.931
 9245SOL    HW128634   0.596   5.663   1.865
 9245SOL    HW228635   0.604   5.702   2.024
 9246SOL     OW28636   6.164   5.192   3.565
 9246SOL    HW128637   6.090   5.259   3.562
 9246SOL    HW228638   6.250   5.238   3.584
 9247SOL     OW28639   0.997   6.491   2.829
 9247SOL    HW128640   1.001   6.557   2.753
 9247SOL    HW228641   1.046   6.408   2.803
 9248SOL     OW28642   2.764   2.271   5.786
 9248SOL    HW128643   2.832   2.202   5.764
 9248SOL    HW228644   2.808   2.360   5.796
 9249SOL     OW28645   4.947   1.149   4.059
 9249SOL    HW128646   4.931   1.059   4.018
 9249SOL    HW228647   5.028   1.190   4.017
 9250SOL     OW28648   4.906   3.826   3.763
 9250SOL    HW128649   4.894   3.925   3.750
 9250SOL    HW228650   4.917   3.807   3.861
 9251SOL     OW28651   3.470   1.674   3.048
 9251SOL    HW128652   3.560   1.708   3.019
 9251SOL    HW228653   3.450   1.706   3.140
 9252SOL     OW28654   0.119   6.735   4.883
 9252SOL    HW128655   0.063   6.667   4.836
 9252SOL    HW228656   0.062   6.788   4.946
 9253SOL     OW28657   2.086   6.986   5.770
 9253SOL    HW128658   2.028   6.952   5.844
 9253SOL    HW228659   2.114   0.055   5.792
 9254SOL     OW28660   5.625   3.671   1.732
 9254SOL    HW128661   5.615   3.759   1.778
 9254SOL    HW228662   5.549   3.611   1.760
 9255SOL     OW28663   5.388   3.651   0.803
 9255SOL    HW128664   5.312   3.589   0.822
 9255SOL    HW228665   5.464   3.599   0.763
 9256SOL     OW28666   4.268   4.724   2.068
 9256SOL    HW128667   4.317   4.639   2.090
 9256SOL    HW228668   4.317   4.772   1.995
 9257SOL     OW28669   1.049   4.172   2.061
 9257SOL    HW128670   1.008   4.112   2.130
 9257SOL    HW228671   1.001   4.159   1.974
 9258SOL     OW28672   3.392   3.009   3.844
 9258SOL    HW128673   3.465   2.952   3.806
 9258SOL    HW228674   3.378   3.088   3.784
 9259SOL     OW28675   0.932   2.192   1.891
 9259SOL    HW128676   0.863   2.244   1.942
 9259SOL    HW228677   0.906   2.190   1.794
 9260SOL     OW28678   5.291   3.249   6.289
 9260SOL    HW128679   5.335   3.215   6.372
 9260SOL    HW228680   5.359   3.256   6.215
 9261SOL     OW28681   4.105   0.516   6.744
 9261SOL    HW128682   4.152   0.491   6.659
 9261SOL    HW228683   4.121   0.612   6.764
 9262SOL     OW28684   5.355   0.989   5.222
 9262SOL    HW128685   5.261   0.968   5.250
 9262SOL    HW228686   5.355   1.023   5.128
 9263SOL     OW28687   5.382   3.934   1.148
 9263SOL    HW128688   5.292   3.894   1.159
 9263SOL    HW228689   5.445   3.895   1.215
 9264SOL     OW28690   6.175   3.812   6.213
 9264SOL    HW128691   6.147   3.746   6.143
 9264SOL    HW228692   6.097   3.837   6.269
 9265SOL     OW28693   2.838   1.680   0.491
 9265SOL    HW128694   2.745   1.715   0.502
 9265SOL    HW228695   2.868   1.637   0.576
 9266SOL     OW28696   2.197   6.361   2.821
 9266SOL    HW128697   2.179   6.267   2.852
 9266SOL    HW228698   2.190   6.365   2.721
 9267SOL     OW28699   0.912   4.267   4.522
 9267SOL    HW128700   1.003   4.235   4.495
 9267SOL    HW228701   0.864   4.302   4.441
 9268SOL     OW28702   0.346   6.724   2.884
 9268SOL    HW128703   0.250   6.706   2.903
 9268SOL    HW228704   0.402   6.657   2.933
 9269SOL     OW28705   3.269   2.159   6.979
 9269SOL    HW128706   3.243   2.150   0.051
 9269SOL    HW228707   3.218   2.093   6.925
 9270SOL     OW28708   6.751   6.818   6.237
 9270SOL    HW128709   6.814   6.805   6.160
 9270SOL    HW228710   6.799   6.796   6.322
 9271SOL     OW28711   1.673   6.405   0.974
 9271SOL    HW128712   1.634   6.489   1.009
 9271SOL    HW228713   1.668   6.404   0.874
 9272SOL     OW28714   2.462   4.323   6.471
 9272SOL    HW128715   2.386   4.257   6.478
 9272SOL    HW228716   2.535   4.284   6.415
 9273SOL     OW28717   4.375   4.924   4.110
 9273SOL    HW128718   4.401   4.881   4.023
 9273SOL    HW228719   4.349   4.853   4.175
 9274SOL     OW28720   5.476   2.391   6.187
 9274SOL    HW128721   5.407   2.460   6.208
 9274SOL    HW228722   5.546   2.430   6.128
 9275SOL     OW28723   1.087   0.604   6.068
 9275SOL    HW128724   1.021   0.557   6.126
 9275SOL    HW228725   1.142   0.536   6.018
 9276SOL     OW28726   3.705   5.693   4.748
 9276SOL    HW128727   3.697   5.678   4.649
 9276SOL    HW228728   3.737   5.786   4.765
 9277SOL     OW28729   3.493   3.266   6.620
 9277SOL    HW128730   3.422   3.310   6.675
 9277SOL    HW228731   3.466   3.266   6.524
 9278SOL     OW28732   1.342   2.007   3.734
 9278SOL    HW128733   1.275   2.055   3.677
 9278SOL    HW228734   1.433   2.044   3.716
 9279SOL     OW28735   2.870   0.622   2.328
 9279SOL    HW128736   2.909   0.688   2.392
 9279SOL    HW228737   2.898   0.645   2.234
 9280SOL     OW28738   1.628   0.174   3.685
 9280SOL    HW128739   1.696   0.171   3.758
 9280SOL    HW228740   1.564   0.249   3.702
 9281SOL     OW28741   1.894   2.729   1.006
 9281SOL    HW128742   1.958   2.653   0.997
 9281SOL    HW228743   1.867   2.739   1.102
 9282SOL     OW28744   4.136   1.383   4.644
 9282SOL    HW128745   4.089   1.316   4.586
 9282SOL    HW228746   4.176   1.336   4.723
 9283SOL     OW28747   5.932   2.445   2.461
 9283SOL    HW128748   5.848   2.481   2.420
 9283SOL    HW228749   5.998   2.519   2.472
 9284SOL     OW28750   3.775   3.754   1.055
 9284SOL    HW128751   3.689   3.785   1.014
 9284SOL    HW228752   3.759   3.734   1.152
 9285SOL     OW28753   6.820   2.592   6.810
 9285SOL    HW128754   6.845   2.673   6.863
 9285SOL    HW228755   6.761   2.533   6.865
 9286SOL     OW28756   5.456   0.014   5.204
 9286SOL    HW128757   5.517   0.046   5.132
 9286SOL    HW228758   5.394   0.088   5.231
 9287SOL     OW28759   2.745   5.824   1.036
 9287SOL    HW128760   2.650   5.799   1.054
 9287SOL    HW228761   2.801   5.741   1.032
 9288SOL     OW28762   4.104   1.927   5.725
 9288SOL    HW128763   4.121   2.023   5.745
 9288SOL    HW228764   4.148   1.869   5.794
 9289SOL     OW28765   4.762   2.125   2.601
 9289SOL    HW128766   4.662   2.114   2.598
 9289SOL    HW228767   4.792   2.178   2.522
 9290SOL     OW28768   4.710   1.672   4.832
 9290SOL    HW128769   4.696   1.730   4.913
 9290SOL    HW228770   4.640   1.693   4.764
 9291SOL     OW28771   1.508   0.493   5.061
 9291SOL    HW128772   1.566   0.477   5.140
 9291SOL    HW228773   1.472   0.405   5.027
 9292SOL     OW28774   0.240   3.270   6.126
 9292SOL    HW128775   0.293   3.307   6.049
 9292SOL    HW228776   0.232   3.171   6.117
 9293SOL     OW28777   5.073   4.444   0.419
 9293SOL    HW128778   5.024   4.531   0.415
 9293SOL    HW228779   5.040   4.391   0.497
 9294SOL     OW28780   5.551   5.881   0.146
 9294SOL    HW128781   5.470   5.879   0.087
 9294SOL    HW228782   5.551   5.966   0.199
 9295SOL     OW28783   4.544   1.484   3.298
 9295SOL    HW128784   4.618   1.492   3.231
 9295SOL    HW228785   4.501   1.394   3.289
 9296SOL     OW28786   6.336   6.238   5.704
 9296SOL    HW128787   6.258   6.256   5.764
 9296SOL    HW228788   6.304   6.194   5.620
 9297SOL     OW28789   0.508   0.517   1.002
 9297SOL    HW128790   0.513   0.526   1.102
 9297SOL    HW228791   0.412   0.516   0.974
 9298SOL     OW28792   1.912   6.183   5.608
 9298SOL    HW128793   1.877   6.116   5.543
 9298SOL    HW228794   1.844   6.256   5.622
 9299SOL     OW28795   1.129   3.620   4.279
 9299SOL    HW128796   1.212   3.625   4.336
 9299SOL    HW228797   1.155   3.609   4.183
 9300SOL     OW28798   5.619   4.536   4.659
 9300SOL    HW128799   5.680   4.502   4.731
 9300SOL    HW228800   5.590   4.629   4.681
 9301SOL     OW28801   5.169   4.299   2.706
 9301SOL    HW128802   5.106   4.327   2.778
 9301SOL    HW228803   5.134   4.216   2.662
 9302SOL     OW28804   2.452   2.343   3.120
 9302SOL    HW128805   2.392   2.338   3.200
 9302SOL    HW228806   2.441   2.431   3.075
 9303SOL     OW28807   3.842   6.143   0.064
 9303SOL    HW128808   3.787   6.165   7.008
 9303SOL    HW228809   3.796   6.176   0.146
 9304SOL     OW28810   3.312   3.734   0.608
 9304SOL    HW128811   3.385   3.667   0.596
 9304SOL    HW228812   3.352   3.822   0.636
 9305SOL     OW28813   6.303   2.577   2.137
 9305SOL    HW128814   6.335   2.483   2.120
 9305SOL    HW228815   6.337   2.637   2.065
 9306SOL     OW28816   6.984   4.653   3.823
 9306SOL    HW128817   0.013   4.569   3.832
 9306SOL    HW228818   7.015   4.720   3.890
 9307SOL     OW28819   1.515   2.050   0.841
 9307SOL    HW128820   1.474   2.081   0.927
 9307SOL    HW228821   1.445   2.006   0.785
 9308SOL     OW28822   0.562   3.129   0.968
 9308SOL    HW128823   0.478   3.182   0.963
 9308SOL    HW228824   0.579   3.085   0.880
 9309SOL     OW28825   4.282   3.991   5.657
 9309SOL    HW128826   4.304   3.968   5.751
 9309SOL    HW228827   4.210   4.059   5.655
 9310SOL     OW28828   4.140   6.058   6.331
 9310SOL    HW128829   4.049   6.082   6.366
 9310SOL    HW228830   4.198   6.140   6.331
 9311SOL     OW28831   5.618   3.999   0.570
 9311SOL    HW128832   5.638   4.095   0.550
 9311SOL    HW228833   5.607   3.987   0.668
 9312SOL     OW28834   1.555   4.287   6.698
 9312SOL    HW128835   1.480   4.352   6.685
 9312SOL    HW228836   1.566   4.267   6.796
 9313SOL     OW28837   0.222   6.911   2.613
 9313SOL    HW128838   0.144   6.848   2.623
 9313SOL    HW228839   0.237   6.929   2.516
 9314SOL     OW28840   4.400   5.665   6.810
 9314SOL    HW128841   4.316   5.718   6.794
 9314SOL    HW228842   4.469   5.692   6.743
 9315SOL     OW28843   6.882   0.552   5.695
 9315SOL    HW128844   6.912   0.635   5.741
 9315SOL    HW228845   6.802   0.515   5.741
 9316SOL     OW28846   3.662   5.903   3.586
 9316SOL    HW128847   3.641   5.841   3.510
 9316SOL    HW228848   3.730   5.861   3.646
 9317SOL     OW28849   6.510   4.972   3.329
 9317SOL    HW128850   6.500   4.884   3.375
 9317SOL    HW228851   6.439   4.983   3.260
 9318SOL     OW28852   0.069   0.950   6.672
 9318SOL    HW128853   0.147   0.903   6.714
 9318SOL    HW228854   0.054   1.037   6.718
 9319SOL     OW28855   0.983   3.169   6.741
 9319SOL    HW128856   0.983   3.247   6.802
 9319SOL    HW228857   0.969   3.200   6.647
 9320SOL     OW28858   4.619   2.642   5.843
 9320SOL    HW128859   4.602   2.566   5.780
 9320SOL    HW228860   4.555   2.716   5.825
 9321SOL     OW28861   6.573   6.095   2.687
 9321SOL    HW128862   6.483   6.066   2.721
 9321SOL    HW228863   6.565   6.117   2.590
 9322SOL     OW28864   0.647   6.319   5.639
 9322SOL    HW128865   0.581   6.393   5.654
 9322SOL    HW228866   0.740   6.354   5.648
 9323SOL     OW28867   0.666   1.565   6.591
 9323SOL    HW128868   0.604   1.514   6.651
 9323SOL    HW228869   0.759   1.529   6.602
 9324SOL     OW28870   1.562   5.387   0.487
 9324SOL    HW128871   1.659   5.376   0.466
 9324SOL    HW228872   1.551   5.398   0.586
 9325SOL     OW28873   5.599   1.879   0.949
 9325SOL    HW128874   5.658   1.942   0.998
 9325SOL    HW228875   5.615   1.888   0.850
 9326SOL     OW28876   1.694   0.040   1.228
 9326SOL    HW128877   1.720   0.135   1.217
 9326SOL    HW228878   1.594   0.033   1.230
 9327SOL     OW28879   4.647   6.952   2.638
 9327SOL    HW128880   4.620   0.023   2.650
 9327SOL    HW228881   4.742   6.948   2.607
 9328SOL     OW28882   3.376   1.622   0.357
 9328SOL    HW128883   3.383   1.720   0.374
 9328SOL    HW228884   3.432   1.598   0.277
 9329SOL     OW28885   0.729   3.833   2.482
 9329SOL    HW128886   0.794   3.785   2.541
 9329SOL    HW228887   0.759   3.927   2.467
 9330SOL     OW28888   6.093   0.298   1.031
 9330SOL    HW128889   6.170   0.253   0.986
 9330SOL    HW228890   6.094   0.275   1.129
 9331SOL     OW28891   0.428   0.684   6.958
 9331SOL    HW128892   0.419   0.596   6.913
 9331SOL    HW228893   0.518   0.690   7.003
 9332SOL     OW28894   3.088   3.625   4.284
 9332SOL    HW128895   3.183   3.595   4.297
 9332SOL    HW228896   3.027   3.546   4.292
 9333SOL     OW28897   6.347   4.551   1.157
 9333SOL    HW128898   6.341   4.527   1.060
 9333SOL    HW228899   6.260   4.588   1.188
 9334SOL     OW28900   2.558   0.315   4.168
 9334SOL    HW128901   2.578   0.323   4.071
 9334SOL    HW228902   2.504   0.233   4.185
 9335SOL     OW28903   1.777   1.085   6.861
 9335SOL    HW128904   1.845   1.121   6.797
 9335SOL    HW228905   1.693   1.063   6.810
 9336SOL     OW28906   3.086   6.474   5.972
 9336SOL    HW128907   3.007   6.518   5.928
 9336SOL    HW228908   3.170   6.512   5.934
 9337SOL     OW28909   4.844   0.711   2.159
 9337SOL    HW128910   4.873   0.776   2.229
 9337SOL    HW228911   4.925   0.670   2.117
 9338SOL     OW28912   3.528   0.373   2.965
 9338SOL    HW128913   3.595   0.385   3.038
 9338SOL    HW228914   3.573   0.333   2.885
 9339SOL     OW28915   4.786   6.342   1.363
 9339SOL    HW128916   4.738   6.353   1.450
 9339SOL    HW228917   4.727   6.369   1.288
 9340SOL     OW28918   6.143   3.600   6.022
 9340SOL    HW128919   6.064   3.588   5.963
 9340SOL    HW228920   6.173   3.511   6.056
 9341SOL     OW28921   0.776   5.484   6.489
 9341SOL    HW128922   0.701   5.484   6.556
 9341SOL    HW228923   0.740   5.463   6.398
 9342SOL     OW28924   1.143   0.241   5.868
 9342SOL    HW128925   1.114   0.205   5.779
 9342SOL    HW228926   1.072   0.223   5.936
 9343SOL     OW28927   6.166   5.604   4.996
 9343SOL    HW128928   6.154   5.700   5.018
 9343SOL    HW228929   6.107   5.549   5.055
 9344SOL     OW28930   5.315   6.655   1.363
 9344SOL    HW128931   5.254   6.591   1.316
 9344SOL    HW228932   5.260   6.721   1.415
 9345SOL     OW28933   0.001   2.744   0.641
 9345SOL    HW128934   0.082   2.689   0.661
 9345SOL    HW228935   7.011   2.811   0.714
 9346SOL     OW28936   5.983   0.434   1.317
 9346SOL    HW128937   6.070   0.399   1.282
 9346SOL    HW228938   5.930   0.474   1.241
 9347SOL     OW28939   1.817   6.642   1.577
 9347SOL    HW128940   1.826   6.588   1.494
 9347SOL    HW228941   1.816   6.739   1.554
 9348SOL     OW28942   3.093   4.989   0.104
 9348SOL    HW128943   3.001   5.020   0.078
 9348SOL    HW228944   3.145   5.067   0.141
 9349SOL     OW28945   1.328   6.497   2.625
 9349SOL    HW128946   1.253   6.431   2.626
 9349SOL    HW228947   1.312   6.564   2.553
 9350SOL     OW28948   0.585   2.650   5.557
 9350SOL    HW128949   0.574   2.721   5.627
 9350SOL    HW228950   0.542   2.565   5.589
 9351SOL     OW28951   3.873   2.172   6.870
 9351SOL    HW128952   3.955   2.121   6.845
 9351SOL    HW228953   3.854   2.159   6.967
 9352SOL     OW28954   2.604   4.537   6.557
 9352SOL    HW128955   2.549   4.477   6.499
 9352SOL    HW228956   2.601   4.630   6.521
 9353SOL     OW28957   6.633   6.511   1.404
 9353SOL    HW128958   6.620   6.562   1.319
 9353SOL    HW228959   6.639   6.413   1.384
 9354SOL     OW28960   6.551   2.398   6.601
 9354SOL    HW128961   6.527   2.468   6.534
 9354SOL    HW228962   6.582   2.442   6.686
 9355SOL     OW28963   0.529   1.730   5.183
 9355SOL    HW128964   0.546   1.774   5.094
 9355SOL    HW228965   0.566   1.637   5.182
 9356SOL     OW28966   4.315   6.842   2.225
 9356SOL    HW128967   4.392   6.851   2.287
 9356SOL    HW228968   4.340   6.780   2.150
 9357SOL     OW28969   0.790   2.102   6.867
 9357SOL    HW128970   0.775   2.201   6.862
 9357SOL    HW228971   0.730   2.056   6.801
 9358SOL     OW28972   1.406   3.444   2.397
 9358SOL    HW128973   1.502   3.457   2.423
 9358SOL    HW228974   1.402   3.400   2.308
 9359SOL     OW28975   1.453   7.006   6.464
 9359SOL    HW128976   1.384   0.049   6.487
 9359SOL    HW228977   1.473   6.951   6.546
 9360SOL     OW28978   0.693   0.741   6.444
 9360SOL    HW128979   0.688   0.650   6.403
 9360SOL    HW228980   0.733   0.805   6.378
 9361SOL     OW28981   2.087   6.019   4.630
 9361SOL    HW128982   2.040   5.936   4.600
 9361SOL    HW228983   2.020   6.088   4.656
 9362SOL     OW28984   1.722   0.171   2.257
 9362SOL    HW128985   1.719   0.268   2.233
 9362SOL    HW228986   1.785   0.124   2.196
 9363SOL     OW28987   3.063   5.224   2.674
 9363SOL    HW128988   3.046   5.281   2.754
 9363SOL    HW228989   3.126   5.151   2.697
 9364SOL     OW28990   1.189   2.374   1.156
 9364SOL    HW128991   1.240   2.446   1.203
 9364SOL    HW228992   1.167   2.404   1.063
 9365SOL     OW28993   3.136   2.099   4.799
 9365SOL    HW128994   3.162   2.159   4.875
 9365SOL    HW228995   3.108   2.154   4.721
 9366SOL     OW28996   3.578   5.897   0.436
 9366SOL    HW128997   3.661   5.851   0.403
 9366SOL    HW228998   3.509   5.828   0.459
 9367SOL     OW28999   6.350   0.925   1.396
 9367SOL    HW129000   6.448   0.934   1.413
 9367SOL    HW229001   6.335   0.853   1.328
 9368SOL     OW29002   3.480   0.613   2.532
 9368SOL    HW129003   3.392   0.632   2.488
 9368SOL    HW229004   3.547   0.680   2.500
 9369SOL     OW29005   2.338   5.303   6.741
 9369SOL    HW129006   2.396   5.365   6.795
 9369SOL    HW229007   2.334   5.336   6.646
 9370SOL     OW29008   4.282   1.849   4.208
 9370SOL    HW129009   4.315   1.808   4.123
 9370SOL    HW229010   4.338   1.929   4.230
 9371SOL     OW29011   4.483   5.453   1.472
 9371SOL    HW129012   4.419   5.528   1.484
 9371SOL    HW229013   4.514   5.450   1.377
 9372SOL     OW29014   4.862   6.589   1.310
 9372SOL    HW129015   4.779   6.635   1.277
 9372SOL    HW229016   4.848   6.490   1.310
 9373SOL     OW29017   6.658   1.644   0.486
 9373SOL    HW129018   6.633   1.565   0.541
 9373SOL    HW229019   6.627   1.728   0.531
 9374SOL     OW29020   0.297   5.463   5.838
 9374SOL    HW129021   0.306   5.373   5.794
 9374SOL    HW229022   0.222   5.459   5.905
 9375SOL     OW29023   0.256   0.855   6.850
 9375SOL    HW129024   0.316   0.787   6.893
 9375SOL    HW229025   0.286   0.947   6.875
 9376SOL     OW29026   2.072   3.947   1.875
 9376SOL    HW129027   2.004   4.019   1.888
 9376SOL    HW229028   2.149   3.962   1.937
 9377SOL     OW29029   2.113   0.244   3.425
 9377SOL    HW129030   2.107   0.161   3.370
 9377SOL    HW229031   2.022   0.269   3.459
 9378SOL     OW29032   3.115   0.515   4.224
 9378SOL    HW129033   3.039   0.495   4.161
 9378SOL    HW229034   3.198   0.532   4.171
 9379SOL     OW29035   4.083   5.923   5.183
 9379SOL    HW129036   4.014   5.884   5.244
 9379SOL    HW229037   4.127   5.850   5.132
 9380SOL     OW29038   5.203   5.606   0.191
 9380SOL    HW129039   5.180   5.583   0.286
 9380SOL    HW229040   5.298   5.581   0.173
 9381SOL     OW29041   5.462   1.539   4.628
 9381SOL    HW129042   5.371   1.539   4.587
 9381SOL    HW229043   5.454   1.548   4.727
 9382SOL     OW29044   3.057   6.957   4.621
 9382SOL    HW129045   3.130   6.977   4.556
 9382SOL    HW229046   2.982   6.911   4.574
 9383SOL     OW29047   5.495   4.003   3.086
 9383SOL    HW129048   5.411   3.949   3.084
 9383SOL    HW229049   5.503   4.049   3.174
 9384SOL     OW29050   2.516   0.232   2.258
 9384SOL    HW129051   2.503   0.307   2.322
 9384SOL    HW229052   2.458   0.245   2.178
 9385SOL     OW29053   3.829   1.502   3.141
 9385SOL    HW129054   3.825   1.591   3.094
 9385SOL    HW229055   3.816   1.429   3.075
 9386SOL     OW29056   4.830   6.229   6.343
 9386SOL    HW129057   4.818   6.130   6.343
 9386SOL    HW229058   4.746   6.273   6.374
 9387SOL     OW29059   2.438   2.306   0.590
 9387SOL    HW129060   2.511   2.371   0.571
 9387SOL    HW229061   2.458   2.219   0.545
 9388SOL     OW29062   2.432   6.503   4.938
 9388SOL    HW129063   2.344   6.539   4.969
 9388SOL    HW229064   2.419   6.410   4.904
 9389SOL     OW29065   2.616   4.754   1.735
 9389SOL    HW129066   2.594   4.848   1.708
 9389SOL    HW229067   2.714   4.739   1.724
 9390SOL     OW29068   5.188   5.219   4.708
 9390SOL    HW129069   5.183   5.175   4.798
 9390SOL    HW229070   5.100   5.261   4.687
 9391SOL     OW29071   1.589   5.520   4.353
 9391SOL    HW129072   1.600   5.452   4.282
 9391SOL    HW229073   1.666   5.516   4.416
 9392SOL     OW29074   5.415   3.571   2.788
 9392SOL    HW129075   5.495   3.620   2.751
 9392SOL    HW229076   5.342   3.637   2.807
 9393SOL     OW29077   2.983   0.006   6.353
 9393SOL    HW129078   3.053   0.058   6.401
 9393SOL    HW229079   3.009   7.020   6.257
 9394SOL     OW29080   3.881   0.349   0.125
 9394SOL    HW129081   3.893   0.316   0.031
 9394SOL    HW229082   3.918   0.442   0.132
 9395SOL     OW29083   1.857   1.673   0.881
 9395SOL    HW129084   1.767   1.707   0.907
 9395SOL    HW229085   1.897   1.734   0.813
 9396SOL     OW29086   0.757   6.545   6.554
 9396SOL    HW129087   0.803   6.479   6.494
 9396SOL    HW229088   0.680   6.500   6.600
 9397SOL     OW29089   3.420   0.797   5.674
 9397SOL    HW129090   3.330   0.753   5.665
 9397SOL    HW229091   3.425   0.845   5.761
 9398SOL     OW29092   0.817   1.491   0.344
 9398SOL    HW129093   0.732   1.513   0.391
 9398SOL    HW229094   0.882   1.452   0.409
 9399SOL     OW29095   1.868   2.772   3.938
 9399SOL    HW129096   1.801   2.818   3.881
 9399SOL    HW229097   1.875   2.676   3.911
 9400SOL     OW29098   5.428   1.416   0.526
 9400SOL    HW129099   5.466   1.353   0.593
 9400SOL    HW229100   5.431   1.373   0.435
 9401SOL     OW29101   6.880   2.325   3.405
 9401SOL    HW129102   6.873   2.420   3.435
 9401SOL    HW229103   6.888   2.265   3.484
 9402SOL     OW29104   1.836   6.561   4.058
 9402SOL    HW129105   1.927   6.521   4.071
 9402SOL    HW229106   1.806   6.545   3.964
 9403SOL     OW29107   6.205   2.688   2.366
 9403SOL    HW129108   6.259   2.630   2.305
 9403SOL    HW229109   6.157   2.757   2.312
 9404SOL     OW29110   2.083   3.016   1.001
 9404SOL    HW129111   2.167   3.041   0.953
 9404SOL    HW229112   2.031   2.951   0.945
 9405SOL     OW29113   0.264   5.595   5.405
 9405SOL    HW129114   0.267   5.630   5.499
 9405SOL    HW229115   0.301   5.664   5.343
 9406SOL     OW29116   0.260   2.902   0.228
 9406SOL    HW129117   0.162   2.920   0.233
 9406SOL    HW229118   0.277   2.804   0.241
 9407SOL     OW29119   1.138   5.453   5.675
 9407SOL    HW129120   1.121   5.549   5.694
 9407SOL    HW229121   1.126   5.400   5.760
 9408SOL     OW29122   0.672   3.911   4.569
 9408SOL    HW129123   0.763   3.884   4.602
 9408SOL    HW229124   0.616   3.829   4.554
 9409SOL     OW29125   6.519   5.286   2.700
 9409SOL    HW129126   6.573   5.202   2.699
 9409SOL    HW229127   6.574   5.361   2.663
 9410SOL     OW29128   3.501   0.966   0.796
 9410SOL    HW129129   3.427   0.903   0.773
 9410SOL    HW229130   3.517   1.027   0.719
 9411SOL     OW29131   2.992   3.184   3.311
 9411SOL    HW129132   2.960   3.268   3.356
 9411SOL    HW229133   3.006   3.202   3.214
 9412SOL     OW29134   6.023   6.432   0.725
 9412SOL    HW129135   6.051   6.420   0.630
 9412SOL    HW229136   5.952   6.365   0.747
 9413SOL     OW29137   5.115   3.920   2.830
 9413SOL    HW129138   5.062   3.838   2.810
 9413SOL    HW229139   5.058   4.001   2.815
 9414SOL     OW29140   1.637   1.842   3.234
 9414SOL    HW129141   1.675   1.755   3.263
 9414SOL    HW229142   1.606   1.894   3.314
 9415SOL     OW29143   3.871   1.248   2.114
 9415SOL    HW129144   3.818   1.193   2.179
 9415SOL    HW229145   3.831   1.340   2.108
 9416SOL     OW29146   5.519   5.169   5.740
 9416SOL    HW129147   5.528   5.151   5.642
 9416SOL    HW229148   5.545   5.264   5.759
 9417SOL     OW29149   3.591   5.277   2.142
 9417SOL    HW129150   3.540   5.336   2.205
 9417SOL    HW229151   3.567   5.299   2.048
 9418SOL     OW29152   3.655   1.863   5.251
 9418SOL    HW129153   3.707   1.781   5.278
 9418SOL    HW229154   3.604   1.843   5.167
 9419SOL     OW29155   2.034   3.143   6.193
 9419SOL    HW129156   1.938   3.137   6.163
 9419SOL    HW229157   2.088   3.187   6.122
 9420SOL     OW29158   6.614   4.222   6.212
 9420SOL    HW129159   6.625   4.240   6.115
 9420SOL    HW229160   6.654   4.133   6.234
 9421SOL     OW29161   3.744   6.359   6.156
 9421SOL    HW129162   3.735   6.260   6.163
 9421SOL    HW229163   3.678   6.394   6.089
 9422SOL     OW29164   2.183   6.119   5.535
 9422SOL    HW129165   2.212   6.044   5.594
 9422SOL    HW229166   2.097   6.157   5.570
 9423SOL     OW29167   5.032   4.673   3.172
 9423SOL    HW129168   5.039   4.574   3.165
 9423SOL    HW229169   4.940   4.698   3.199
 9424SOL     OW29170   6.225   6.936   4.058
 9424SOL    HW129171   6.242   6.923   4.156
 9424SOL    HW229172   6.206   6.847   4.016
 9425SOL     OW29173   6.743   5.053   1.241
 9425SOL    HW129174   6.695   5.119   1.183
 9425SOL    HW229175   6.737   5.081   1.337
 9426SOL     OW29176   0.024   2.293   6.119
 9426SOL    HW129177   0.031   2.193   6.121
 9426SOL    HW229178   0.089   2.333   6.183
 9427SOL     OW29179   4.717   4.313   2.538
 9427SOL    HW129180   4.682   4.351   2.453
 9427SOL    HW229181   4.787   4.245   2.518
 9428SOL     OW29182   0.297   6.346   5.567
 9428SOL    HW129183   0.263   6.415   5.504
 9428SOL    HW229184   0.349   6.389   5.640
 9429SOL     OW29185   2.621   2.364   4.227
 9429SOL    HW129186   2.617   2.417   4.143
 9429SOL    HW229187   2.716   2.350   4.253
 9430SOL     OW29188   1.258   1.813   4.731
 9430SOL    HW129189   1.187   1.749   4.763
 9430SOL    HW229190   1.342   1.798   4.782
 9431SOL     OW29191   1.001   4.929   5.641
 9431SOL    HW129192   1.060   4.849   5.643
 9431SOL    HW229193   1.020   4.984   5.560
 9432SOL     OW29194   6.898   1.320   3.301
 9432SOL    HW129195   6.974   1.258   3.323
 9432SOL    HW229196   6.813   1.283   3.340
 9433SOL     OW29197   4.717   5.526   2.404
 9433SOL    HW129198   4.741   5.623   2.400
 9433SOL    HW229199   4.668   5.501   2.320
 9434SOL     OW29200   4.621   5.273   3.899
 9434SOL    HW129201   4.689   5.202   3.882
 9434SOL    HW229202   4.603   5.279   3.998
 9435SOL     OW29203   0.485   3.614   1.444
 9435SOL    HW129204   0.485   3.651   1.537
 9435SOL    HW229205   0.529   3.679   1.382
 9436SOL     OW29206   1.889   0.502   2.762
 9436SOL    HW129207   1.826   0.443   2.813
 9436SOL    HW229208   1.873   0.491   2.664
 9437SOL     OW29209   5.183   6.773   4.781
 9437SOL    HW129210   5.264   6.828   4.801
 9437SOL    HW229211   5.190   6.736   4.688
 9438SOL     OW29212   4.773   6.830   2.041
 9438SOL    HW129213   4.709   6.886   2.094
 9438SOL    HW229214   4.785   6.741   2.085
 9439SOL     OW29215   2.061   3.521   0.945
 9439SOL    HW129216   1.962   3.534   0.943
 9439SOL    HW229217   2.083   3.435   0.990
 9440SOL     OW29218   2.290   5.360   3.395
 9440SOL    HW129219   2.358   5.298   3.434
 9440SOL    HW229220   2.213   5.369   3.459
 9441SOL     OW29221   0.198   6.863   4.298
 9441SOL    HW129222   0.297   6.851   4.311
 9441SOL    HW229223   0.152   6.856   4.386
 9442SOL     OW29224   5.193   3.172   0.356
 9442SOL    HW129225   5.252   3.098   0.389
 9442SOL    HW229226   5.197   3.176   0.257
 9443SOL     OW29227   2.358   4.484   2.790
 9443SOL    HW129228   2.396   4.506   2.879
 9443SOL    HW229229   2.412   4.527   2.718
 9444SOL     OW29230   0.974   4.300   5.751
 9444SOL    HW129231   0.935   4.359   5.822
 9444SOL    HW229232   0.965   4.344   5.662
 9445SOL     OW29233   0.867   1.182   4.002
 9445SOL    HW129234   0.956   1.222   3.980
 9445SOL    HW229235   0.796   1.251   3.992
 9446SOL     OW29236   6.660   4.440   3.578
 9446SOL    HW129237   6.566   4.427   3.545
 9446SOL    HW229238   6.690   4.533   3.557
 9447SOL     OW29239   4.740   4.074   1.864
 9447SOL    HW129240   4.665   4.139   1.873
 9447SOL    HW229241   4.820   4.120   1.826
 9448SOL     OW29242   6.800   1.020   5.363
 9448SOL    HW129243   6.746   1.043   5.282
 9448SOL    HW229244   6.750   0.955   5.419
 9449SOL     OW29245   5.242   0.630   1.678
 9449SOL    HW129246   5.244   0.640   1.579
 9449SOL    HW229247   5.290   0.546   1.704
 9450SOL     OW29248   0.915   5.909   2.834
 9450SOL    HW129249   0.995   5.912   2.894
 9450SOL    HW229250   0.849   5.842   2.868
 9451SOL     OW29251   3.296   4.955   6.366
 9451SOL    HW129252   3.213   5.007   6.345
 9451SOL    HW229253   3.271   4.863   6.396
 9452SOL     OW29254   6.120   4.115   6.632
 9452SOL    HW129255   6.043   4.153   6.581
 9452SOL    HW229256   6.112   4.016   6.636
 9453SOL     OW29257   4.967   5.332   1.824
 9453SOL    HW129258   5.004   5.240   1.824
 9453SOL    HW229259   4.940   5.358   1.917
 9454SOL     OW29260   5.771   4.426   0.413
 9454SOL    HW129261   5.730   4.406   0.323
 9454SOL    HW229262   5.740   4.516   0.443
 9455SOL     OW29263   3.548   1.176   2.018
 9455SOL    HW129264   3.466   1.172   2.076
 9455SOL    HW229265   3.564   1.271   1.990
 9456SOL     OW29266   0.476   3.333   2.515
 9456SOL    HW129267   0.435   3.266   2.454
 9456SOL    HW229268   0.406   3.370   2.576
 9457SOL     OW29269   6.258   6.502   4.977
 9457SOL    HW129270   6.204   6.581   4.948
 9457SOL    HW229271   6.305   6.463   4.897
 9458SOL     OW29272   6.839   4.046   6.831
 9458SOL    HW129273   6.904   4.011   6.763
 9458SOL    HW229274   6.803   3.970   6.885
 9459SOL     OW29275   4.734   4.701   5.523
 9459SOL    HW129276   4.819   4.693   5.471
 9459SOL    HW229277   4.752   4.685   5.620
 9460SOL     OW29278   1.300   2.893   2.815
 9460SOL    HW129279   1.253   2.826   2.873
 9460SOL    HW229280   1.399   2.888   2.831
 9461SOL     OW29281   1.755   1.894   2.065
 9461SOL    HW129282   1.669   1.895   2.116
 9461SOL    HW229283   1.832   1.889   2.129
 9462SOL     OW29284   0.364   1.050   4.201
 9462SOL    HW129285   0.461   1.036   4.219
 9462SOL    HW229286   0.310   0.991   4.260
 9463SOL     OW29287   5.835   4.556   1.520
 9463SOL    HW129288   5.839   4.551   1.421
 9463SOL    HW229289   5.780   4.479   1.554
 9464SOL     OW29290   1.181   1.288   1.911
 9464SOL    HW129291   1.132   1.260   1.994
 9464SOL    HW229292   1.258   1.347   1.935
 9465SOL     OW29293   6.769   4.916   0.980
 9465SOL    HW129294   6.793   4.997   1.034
 9465SOL    HW229295   6.784   4.834   1.034
 9466SOL     OW29296   3.705   4.401   5.578
 9466SOL    HW129297   3.746   4.357   5.499
 9466SOL    HW229298   3.767   4.393   5.656
 9467SOL     OW29299   2.013   3.752   0.755
 9467SOL    HW129300   2.038   3.734   0.851
 9467SOL    HW229301   2.014   3.666   0.704
 9468SOL     OW29302   6.358   1.539   0.527
 9468SOL    HW129303   6.393   1.471   0.591
 9468SOL    HW229304   6.343   1.626   0.575
 9469SOL     OW29305   0.416   6.548   1.229
 9469SOL    HW129306   0.424   6.477   1.159
 9469SOL    HW229307   0.410   6.638   1.185
 9470SOL     OW29308   3.497   3.549   0.570
 9470SOL    HW129309   3.502   3.495   0.654
 9470SOL    HW229310   3.461   3.492   0.496
 9471SOL     OW29311   6.655   2.696   4.654
 9471SOL    HW129312   6.631   2.698   4.751
 9471SOL    HW229313   6.676   2.789   4.623
 9472SOL     OW29314   1.645   3.413   6.231
 9472SOL    HW129315   1.620   3.477   6.304
 9472SOL    HW229316   1.601   3.325   6.247
 9473SOL     OW29317   2.711   3.947   1.275
 9473SOL    HW129318   2.791   3.993   1.236
 9473SOL    HW229319   2.733   3.852   1.295
 9474SOL     OW29320   6.226   3.558   0.630
 9474SOL    HW129321   6.277   3.640   0.656
 9474SOL    HW229322   6.129   3.572   0.650
 9475SOL     OW29323   5.127   4.327   6.247
 9475SOL    HW129324   5.177   4.386   6.310
 9475SOL    HW229325   5.074   4.259   6.298
 9476SOL     OW29326   3.859   3.988   0.143
 9476SOL    HW129327   3.941   3.969   0.197
 9476SOL    HW229328   3.812   4.068   0.180
 9477SOL     OW29329   1.888   4.473   0.464
 9477SOL    HW129330   1.899   4.487   0.366
 9477SOL    HW229331   1.860   4.378   0.481
 9478SOL     OW29332   5.390   3.263   6.855
 9478SOL    HW129333   5.319   3.211   6.902
 9478SOL    HW229334   5.474   3.209   6.851
 9479SOL     OW29335   3.827   0.474   2.406
 9479SOL    HW129336   3.896   0.411   2.373
 9479SOL    HW229337   3.752   0.422   2.448
 9480SOL     OW29338   6.818   0.953   0.851
 9480SOL    HW129339   6.816   0.988   0.758
 9480SOL    HW229340   6.896   0.892   0.863
 9481SOL     OW29341   3.968   6.622   3.691
 9481SOL    HW129342   4.066   6.631   3.672
 9481SOL    HW229343   3.952   6.536   3.740
 9482SOL     OW29344   6.654   6.316   0.018
 9482SOL    HW129345   6.606   6.304   0.106
 9482SOL    HW229346   6.696   6.229   7.017
 9483SOL     OW29347   6.369   7.015   0.558
 9483SOL    HW129348   6.348   6.992   0.463
 9483SOL    HW229349   6.458   0.035   0.562
 9484SOL     OW29350   4.002   5.452   4.810
 9484SOL    HW129351   3.961   5.542   4.794
 9484SOL    HW229352   4.089   5.463   4.858
 9485SOL     OW29353   0.367   1.151   6.858
 9485SOL    HW129354   0.344   1.220   6.790
 9485SOL    HW229355   0.404   1.196   6.940
 9486SOL     OW29356   5.445   5.569   0.063
 9486SOL    HW129357   5.536   5.609   0.069
 9486SOL    HW229358   5.393   5.615   7.016
 9487SOL     OW29359   3.662   3.157   3.233
 9487SOL    HW129360   3.702   3.247   3.217
 9487SOL    HW229361   3.734   3.091   3.252
 9488SOL     OW29362   1.687   0.274   1.097
 9488SOL    HW129363   1.660   0.266   1.001
 9488SOL    HW229364   1.766   0.335   1.105
 9489SOL     OW29365   5.628   3.127   6.847
 9489SOL    HW129366   5.727   3.139   6.844
 9489SOL    HW229367   5.606   3.032   6.868
 9490SOL     OW29368   5.558   3.471   4.503
 9490SOL    HW129369   5.593   3.378   4.494
 9490SOL    HW229370   5.632   3.536   4.486
 9491SOL     OW29371   5.264   6.139   2.732
 9491SOL    HW129372   5.177   6.188   2.725
 9491SOL    HW229373   5.330   6.195   2.783
 9492SOL     OW29374   4.836   3.141   3.558
 9492SOL    HW129375   4.863   3.171   3.649
 9492SOL    HW229376   4.854   3.214   3.492
 9493SOL     OW29377   4.251   6.322   1.416
 9493SOL    HW129378   4.264   6.226   1.441
 9493SOL    HW229379   4.180   6.328   1.346
 9494SOL     OW29380   6.003   2.199   1.660
 9494SOL    HW129381   6.080   2.260   1.680
 9494SOL    HW229382   5.918   2.252   1.660
 9495SOL     OW29383   0.236   2.261   1.362
 9495SOL    HW129384   0.222   2.269   1.461
 9495SOL    HW229385   0.291   2.337   1.330
 9496SOL     OW29386   5.507   2.091   1.800
 9496SOL    HW129387   5.553   2.179   1.796
 9496SOL    HW229388   5.566   2.024   1.845
 9497SOL     OW29389   4.603   4.431   4.939
 9497SOL    HW129390   4.646   4.502   4.993
 9497SOL    HW229391   4.527   4.470   4.887
 9498SOL     OW29392   0.405   5.629   4.403
 9498SOL    HW129393   0.423   5.542   4.359
 9498SOL    HW229394   0.324   5.671   4.362
 9499SOL     OW29395   6.352   6.057   4.919
 9499SOL    HW129396   6.389   6.065   4.827
 9499SOL    HW229397   6.285   6.130   4.935
 9500SOL     OW29398   3.740   1.834   0.673
 9500SOL    HW129399   3.713   1.898   0.745
 9500SOL    HW229400   3.693   1.747   0.687
 9501SOL     OW29401   1.996   3.376   5.249
 9501SOL    HW129402   1.934   3.313   5.204
 9501SOL    HW229403   2.090   3.342   5.242
 9502SOL     OW29404   5.114   4.432   4.215
 9502SOL    HW129405   5.195   4.453   4.271
 9502SOL    HW229406   5.113   4.334   4.194
 9503SOL     OW29407   6.965   1.752   0.063
 9503SOL    HW129408   6.945   1.745   0.161
 9503SOL    HW229409   6.883   1.782   0.014
 9504SOL     OW29410   5.767   5.342   2.085
 9504SOL    HW129411   5.699   5.285   2.039
 9504SOL    HW229412   5.744   5.350   2.182
 9505SOL     OW29413   4.264   5.148   5.897
 9505SOL    HW129414   4.281   5.199   5.982
 9505SOL    HW229415   4.272   5.050   5.914
 9506SOL     OW29416   2.917   1.008   0.975
 9506SOL    HW129417   2.872   0.957   1.048
 9506SOL    HW229418   2.901   0.962   0.888
 9507SOL     OW29419   5.146   0.336   2.005
 9507SOL    HW129420   5.060   0.312   1.959
 9507SOL    HW229421   5.216   0.359   1.937
 9508SOL     OW29422   4.857   1.843   2.855
 9508SOL    HW129423   4.911   1.927   2.855
 9508SOL    HW229424   4.877   1.789   2.937
 9509SOL     OW29425   5.505   0.444   3.411
 9509SOL    HW129426   5.448   0.515   3.452
 9509SOL    HW229427   5.526   0.374   3.479
 9510SOL     OW29428   1.035   2.874   3.670
 9510SOL    HW129429   1.022   2.968   3.702
 9510SOL    HW229430   0.955   2.819   3.694
 9511SOL     OW29431   0.605   1.889   1.073
 9511SOL    HW129432   0.574   1.836   1.152
 9511SOL    HW229433   0.534   1.889   1.002
 9512SOL     OW29434   6.382   2.196   1.458
 9512SOL    HW129435   6.310   2.211   1.391
 9512SOL    HW229436   6.384   2.100   1.485
 9513SOL     OW29437   4.489   4.461   5.679
 9513SOL    HW129438   4.526   4.373   5.649
 9513SOL    HW229439   4.561   4.516   5.721
 9514SOL     OW29440   3.613   2.804   6.502
 9514SOL    HW129441   3.623   2.904   6.497
 9514SOL    HW229442   3.690   2.765   6.551
 9515SOL     OW29443   0.862   5.759   3.151
 9515SOL    HW129444   0.943   5.784   3.099
 9515SOL    HW229445   0.854   5.660   3.155
 9516SOL     OW29446   0.368   4.577   6.689
 9516SOL    HW129447   0.391   4.667   6.653
 9516SOL    HW229448   0.269   4.567   6.692
 9517SOL     OW29449   0.736   5.417   1.186
 9517SOL    HW129450   0.640   5.426   1.213
 9517SOL    HW229451   0.770   5.327   1.214
 9518SOL     OW29452   1.115   1.129   0.748
 9518SOL    HW129453   1.081   1.153   0.839
 9518SOL    HW229454   1.196   1.071   0.756
 9519SOL     OW29455   1.290   3.168   5.496
 9519SOL    HW129456   1.307   3.204   5.587
 9519SOL    HW229457   1.295   3.243   5.429
 9520SOL     OW29458   4.444   6.784   1.658
 9520SOL    HW129459   4.384   6.735   1.720
 9520SOL    HW229460   4.506   6.843   1.711
 9521SOL     OW29461   5.307   5.020   3.877
 9521SOL    HW129462   5.359   4.948   3.830
 9521SOL    HW229463   5.297   4.996   3.974
 9522SOL     OW29464   3.372   6.082   1.133
 9522SOL    HW129465   3.452   6.025   1.113
 9522SOL    HW229466   3.327   6.048   1.216
 9523SOL     OW29467   3.281   5.841   5.386
 9523SOL    HW129468   3.318   5.793   5.307
 9523SOL    HW229469   3.349   5.905   5.421
 9524SOL     OW29470   4.521   2.492   1.075
 9524SOL    HW129471   4.500   2.397   1.095
 9524SOL    HW229472   4.491   2.550   1.151
 9525SOL     OW29473   3.790   0.147   5.630
 9525SOL    HW129474   3.744   0.169   5.715
 9525SOL    HW229475   3.828   0.230   5.589
 9526SOL     OW29476   5.155   5.351   2.120
 9526SOL    HW129477   5.119   5.261   2.147
 9526SOL    HW229478   5.079   5.415   2.110
 9527SOL     OW29479   6.099   1.970   1.152
 9527SOL    HW129480   6.078   1.892   1.211
 9527SOL    HW229481   6.124   2.049   1.208
 9528SOL     OW29482   6.027   0.408   1.997
 9528SOL    HW129483   6.009   0.348   2.075
 9528SOL    HW229484   5.964   0.387   1.923
 9529SOL     OW29485   0.848   3.340   4.644
 9529SOL    HW129486   0.935   3.306   4.610
 9529SOL    HW229487   0.849   3.440   4.644
 9530SOL     OW29488   1.889   1.964   4.342
 9530SOL    HW129489   1.872   2.060   4.362
 9530SOL    HW229490   1.976   1.936   4.384
 9531SOL     OW29491   2.648   6.167   3.358
 9531SOL    HW129492   2.700   6.108   3.295
 9531SOL    HW229493   2.664   6.138   3.452
 9532SOL     OW29494   2.953   1.222   1.306
 9532SOL    HW129495   2.902   1.146   1.266
 9532SOL    HW229496   2.998   1.192   1.390
 9533SOL     OW29497   1.671   0.514   5.340
 9533SOL    HW129498   1.583   0.475   5.366
 9533SOL    HW229499   1.742   0.443   5.345
 9534SOL     OW29500   4.757   1.914   4.177
 9534SOL    HW129501   4.793   1.997   4.134
 9534SOL    HW229502   4.728   1.850   4.106
 9535SOL     OW29503   2.252   2.247   5.488
 9535SOL    HW129504   2.221   2.278   5.398
 9535SOL    HW229505   2.352   2.239   5.487
 9536SOL     OW29506   3.322   0.119   6.503
 9536SOL    HW129507   3.311   0.154   6.410
 9536SOL    HW229508   3.375   0.034   6.500
 9537SOL     OW29509   2.882   6.882   0.983
 9537SOL    HW129510   2.838   6.905   0.896
 9537SOL    HW229511   2.813   6.850   1.048
 9538SOL     OW29512   5.937   3.195   4.073
 9538SOL    HW129513   5.935   3.147   4.160
 9538SOL    HW229514   6.024   3.180   4.028
 9539SOL     OW29515   0.077   5.395   1.056
 9539SOL    HW129516   0.013   5.391   1.132
 9539SOL    HW229517   0.108   5.303   1.032
 9540SOL     OW29518   5.392   3.635   5.242
 9540SOL    HW129519   5.441   3.549   5.231
 9540SOL    HW229520   5.311   3.620   5.298
 9541SOL     OW29521   0.524   1.978   3.420
 9541SOL    HW129522   0.507   2.025   3.506
 9541SOL    HW229523   0.439   1.937   3.388
 9542SOL     OW29524   5.085   3.867   4.180
 9542SOL    HW129525   5.034   3.854   4.265
 9542SOL    HW229526   5.181   3.844   4.195
 9543SOL     OW29527   5.265   2.159   1.923
 9543SOL    HW129528   5.353   2.118   1.898
 9543SOL    HW229529   5.231   2.116   2.006
 9544SOL     OW29530   3.199   1.613   1.991
 9544SOL    HW129531   3.260   1.601   1.913
 9544SOL    HW229532   3.240   1.573   2.073
 9545SOL     OW29533   0.341   0.092   4.587
 9545SOL    HW129534   0.328   0.011   4.644
 9545SOL    HW229535   0.439   0.108   4.575
 9546SOL     OW29536   2.507   4.357   1.831
 9546SOL    HW129537   2.588   4.379   1.777
 9546SOL    HW229538   2.441   4.432   1.823
 9547SOL     OW29539   6.339   5.903   2.403
 9547SOL    HW129540   6.246   5.927   2.377
 9547SOL    HW229541   6.339   5.815   2.451
 9548SOL     OW29542   4.991   6.470   3.066
 9548SOL    HW129543   4.977   6.542   2.998
 9548SOL    HW229544   4.977   6.381   3.024
 9549SOL     OW29545   2.902   5.414   0.226
 9549SOL    HW129546   2.990   5.456   0.202
 9549SOL    HW229547   2.904   5.388   0.323
 9550SOL     OW29548   1.310   1.790   0.470
 9550SOL    HW129549   1.325   1.808   0.567
 9550SOL    HW229550   1.302   1.876   0.420
 9551SOL     OW29551   2.189   5.895   5.724
 9551SOL    HW129552   2.273   5.871   5.773
 9551SOL    HW229553   2.112   5.896   5.789
 9552SOL     OW29554   0.657   5.568   3.774
 9552SOL    HW129555   0.630   5.601   3.864
 9552SOL    HW229556   0.719   5.490   3.783
 9553SOL     OW29557   5.195   4.875   5.531
 9553SOL    HW129558   5.292   4.855   5.547
 9553SOL    HW229559   5.168   4.954   5.585
 9554SOL     OW29560   2.178   1.027   2.164
 9554SOL    HW129561   2.234   1.108   2.178
 9554SOL    HW229562   2.081   1.051   2.171
 9555SOL     OW29563   6.606   2.146   6.507
 9555SOL    HW129564   6.541   2.121   6.436
 9555SOL    HW229565   6.575   2.229   6.553
 9556SOL     OW29566   6.849   2.166   1.128
 9556SOL    HW129567   6.845   2.109   1.046
 9556SOL    HW229568   6.898   2.118   1.200
 9557SOL     OW29569   5.628   2.360   1.868
 9557SOL    HW129570   5.687   2.441   1.864
 9557SOL    HW229571   5.533   2.389   1.862
 9558SOL     OW29572   6.313   4.565   1.739
 9558SOL    HW129573   6.254   4.508   1.682
 9558SOL    HW229574   6.259   4.641   1.777
 9559SOL     OW29575   6.829   3.131   2.724
 9559SOL    HW129576   6.812   3.046   2.674
 9559SOL    HW229577   6.785   3.207   2.676
 9560SOL     OW29578   3.662   1.465   4.425
 9560SOL    HW129579   3.694   1.478   4.519
 9560SOL    HW229580   3.631   1.370   4.413
 9561SOL     OW29581   4.251   6.874   0.496
 9561SOL    HW129582   4.311   6.875   0.576
 9561SOL    HW229583   4.177   6.808   0.510
 9562SOL     OW29584   5.585   5.310   3.473
 9562SOL    HW129585   5.622   5.386   3.420
 9562SOL    HW229586   5.529   5.346   3.548
 9563SOL     OW29587   0.008   5.955   7.017
 9563SOL    HW129588   6.959   5.890   7.005
 9563SOL    HW229589   7.015   6.011   0.073
 9564SOL     OW29590   2.256   0.209   6.405
 9564SOL    HW129591   2.211   0.225   6.317
 9564SOL    HW229592   2.355   0.213   6.394
 9565SOL     OW29593   3.783   5.861   4.002
 9565SOL    HW129594   3.709   5.837   4.065
 9565SOL    HW229595   3.871   5.845   4.046
 9566SOL     OW29596   3.014   4.909   5.432
 9566SOL    HW129597   3.008   4.922   5.333
 9566SOL    HW229598   2.985   4.816   5.454
 9567SOL     OW29599   6.134   5.928   5.772
 9567SOL    HW129600   6.050   5.883   5.744
 9567SOL    HW229601   6.206   5.908   5.705
 9568SOL     OW29602   5.459   3.608   5.966
 9568SOL    HW129603   5.378   3.651   6.006
 9568SOL    HW229604   5.459   3.624   5.867
 9569SOL     OW29605   5.324   6.603   2.117
 9569SOL    HW129606   5.288   6.514   2.088
 9569SOL    HW229607   5.421   6.609   2.092
 9570SOL     OW29608   0.809   0.512   6.809
 9570SOL    HW129609   0.745   0.557   6.871
 9570SOL    HW229610   0.835   0.575   6.736
 9571SOL     OW29611   2.319   2.827   6.992
 9571SOL    HW129612   2.223   2.847   6.972
 9571SOL    HW229613   2.372   2.830   6.907
 9572SOL     OW29614   0.570   4.364   0.904
 9572SOL    HW129615   0.606   4.442   0.955
 9572SOL    HW229616   0.471   4.376   0.890
 9573SOL     OW29617   6.581   1.822   1.709
 9573SOL    HW129618   6.560   1.803   1.805
 9573SOL    HW229619   6.680   1.817   1.695
 9574SOL     OW29620   2.424   2.156   4.235
 9574SOL    HW129621   2.495   2.227   4.236
 9574SOL    HW229622   2.442   2.090   4.308
 9575SOL     OW29623   4.756   0.975   2.615
 9575SOL    HW129624   4.825   0.991   2.686
 9575SOL    HW229625   4.673   1.026   2.638
 9576SOL     OW29626   3.919   1.992   5.360
 9576SOL    HW129627   3.888   1.989   5.265
 9576SOL    HW229628   3.965   1.907   5.383
 9577SOL     OW29629   0.588   6.118   3.064
 9577SOL    HW129630   0.495   6.145   3.039
 9577SOL    HW229631   0.648   6.130   2.985
 9578SOL     OW29632   6.382   3.950   1.950
 9578SOL    HW129633   6.383   3.915   2.043
 9578SOL    HW229634   6.386   4.050   1.951
 9579SOL     OW29635   1.589   6.178   2.948
 9579SOL    HW129636   1.556   6.144   2.860
 9579SOL    HW229637   1.537   6.259   2.974
 9580SOL     OW29638   4.399   3.542   5.796
 9580SOL    HW129639   4.397   3.459   5.851
 9580SOL    HW229640   4.477   3.599   5.824
 9581SOL     OW29641   1.448   4.922   5.925
 9581SOL    HW129642   1.495   4.887   6.006
 9581SOL    HW229643   1.366   4.971   5.952
 9582SOL     OW29644   4.591   4.678   3.727
 9582SOL    HW129645   4.519   4.718   3.783
 9582SOL    HW229646   4.613   4.587   3.761
 9583SOL     OW29647   2.373   4.724   1.866
 9583SOL    HW129648   2.368   4.744   1.964
 9583SOL    HW229649   2.467   4.735   1.835
 9584SOL     OW29650   5.693   5.293   6.947
 9584SOL    HW129651   5.738   5.340   7.023
 9584SOL    HW229652   5.598   5.273   6.972
 9585SOL     OW29653   0.368   0.035   3.219
 9585SOL    HW129654   0.416   0.121   3.201
 9585SOL    HW229655   0.296   0.051   3.286
 9586SOL     OW29656   5.322   2.923   2.408
 9586SOL    HW129657   5.386   2.852   2.438
 9586SOL    HW229658   5.371   3.009   2.397
 9587SOL     OW29659   4.707   6.698   2.487
 9587SOL    HW129660   4.626   6.713   2.430
 9587SOL    HW229661   4.706   6.605   2.523
 9588SOL     OW29662   6.980   0.033   3.179
 9588SOL    HW129663   0.011   0.116   3.173
 9588SOL    HW229664   0.007   6.980   3.143
 9589SOL     OW29665   2.660   1.628   5.516
 9589SOL    HW129666   2.669   1.727   5.508
 9589SOL    HW229667   2.602   1.605   5.595
 9590SOL     OW29668   0.169   4.827   4.499
 9590SOL    HW129669   0.185   4.884   4.580
 9590SOL    HW229670   0.256   4.811   4.453
 9591SOL     OW29671   1.325   4.749   2.664
 9591SOL    HW129672   1.227   4.765   2.675
 9591SOL    HW229673   1.364   4.824   2.610
 9592SOL     OW29674   4.590   6.099   1.953
 9592SOL    HW129675   4.574   6.032   2.027
 9592SOL    HW229676   4.685   6.092   1.922
 9593SOL     OW29677   1.718   3.132   3.953
 9593SOL    HW129678   1.621   3.158   3.959
 9593SOL    HW229679   1.745   3.125   3.857
 9594SOL     OW29680   6.118   0.012   1.854
 9594SOL    HW129681   6.026   0.004   1.816
 9594SOL    HW229682   6.149   6.947   1.885
 9595SOL     OW29683   1.239   4.440   4.313
 9595SOL    HW129684   1.187   4.460   4.230
 9595SOL    HW229685   1.260   4.525   4.361
 9596SOL     OW29686   5.103   5.446   2.767
 9596SOL    HW129687   5.088   5.442   2.865
 9596SOL    HW229688   5.134   5.357   2.734
 9597SOL     OW29689   1.655   4.437   0.977
 9597SOL    HW129690   1.704   4.503   1.033
 9597SOL    HW229691   1.615   4.366   1.037
 9598SOL     OW29692   1.341   6.009   5.374
 9598SOL    HW129693   1.428   5.999   5.327
 9598SOL    HW229694   1.357   6.025   5.471
 9599SOL     OW29695   4.460   1.747   4.024
 9599SOL    HW129696   4.551   1.751   3.984
 9599SOL    HW229697   4.425   1.653   4.018
 9600SOL     OW29698   1.600   5.853   6.824
 9600SOL    HW129699   1.664   5.911   6.874
 9600SOL    HW229700   1.648   5.806   6.750
 9601SOL     OW29701   0.769   6.794   6.398
 9601SOL    HW129702   0.722   6.770   6.314
 9601SOL    HW229703   0.773   6.715   6.458
 9602SOL     OW29704   1.059   5.892   0.199
 9602SOL    HW129705   1.054   5.984   0.237
 9602SOL    HW229706   1.004   5.887   0.116
 9603SOL     OW29707   0.930   4.907   3.563
 9603SOL    HW129708   0.853   4.959   3.525
 9603SOL    HW229709   0.902   4.813   3.580
 9604SOL     OW29710   6.645   0.109   0.570
 9604SOL    HW129711   6.671   0.073   0.660
 9604SOL    HW229712   6.677   0.203   0.561
 9605SOL     OW29713   2.611   5.753   6.929
 9605SOL    HW129714   2.590   5.737   0.000
 9605SOL    HW229715   2.531   5.795   6.884
 9606SOL     OW29716   6.174   0.389   5.255
 9606SOL    HW129717   6.138   0.315   5.198
 9606SOL    HW229718   6.261   0.421   5.217
 9607SOL     OW29719   0.523   2.641   2.782
 9607SOL    HW129720   0.442   2.584   2.769
 9607SOL    HW229721   0.594   2.614   2.717
 9608SOL     OW29722   6.133   0.385   2.805
 9608SOL    HW129723   6.095   0.305   2.760
 9608SOL    HW229724   6.084   0.467   2.773
 9609SOL     OW29725   1.767   2.600   3.577
 9609SOL    HW129726   1.698   2.547   3.528
 9609SOL    HW229727   1.858   2.578   3.541
 9610SOL     OW29728   3.642   1.418   6.132
 9610SOL    HW129729   3.662   1.333   6.082
 9610SOL    HW229730   3.626   1.491   6.066
 9611SOL     OW29731   6.191   5.835   0.785
 9611SOL    HW129732   6.117   5.784   0.830
 9611SOL    HW229733   6.278   5.790   0.805
 9612SOL     OW29734   4.950   3.312   2.863
 9612SOL    HW129735   4.946   3.357   2.774
 9612SOL    HW229736   4.882   3.239   2.867
 9613SOL     OW29737   5.754   6.795   5.127
 9613SOL    HW129738   5.765   6.886   5.086
 9613SOL    HW229739   5.725   6.730   5.057
 9614SOL     OW29740   3.538   2.969   1.964
 9614SOL    HW129741   3.478   2.904   1.920
 9614SOL    HW229742   3.495   3.059   1.966
 9615SOL     OW29743   0.504   6.363   3.905
 9615SOL    HW129744   0.487   6.379   4.002
 9615SOL    HW229745   0.513   6.265   3.889
 9616SOL     OW29746   1.967   3.224   1.342
 9616SOL    HW129747   1.884   3.243   1.395
 9616SOL    HW229748   2.005   3.137   1.370
 9617SOL     OW29749   0.671   3.015   2.294
 9617SOL    HW129750   0.748   2.961   2.260
 9617SOL    HW229751   0.691   3.048   2.387
 9618SOL     OW29752   3.973   4.601   0.476
 9618SOL    HW129753   4.029   4.530   0.433
 9618SOL    HW229754   3.958   4.577   0.572
 9619SOL     OW29755   1.427   6.991   1.153
 9619SOL    HW129756   1.339   6.970   1.194
 9619SOL    HW229757   1.417   6.999   1.054
 9620SOL     OW29758   3.610   1.880   6.852
 9620SOL    HW129759   3.689   1.920   6.806
 9620SOL    HW229760   3.535   1.872   6.787
 9621SOL     OW29761   0.594   1.722   2.485
 9621SOL    HW129762   0.592   1.623   2.474
 9621SOL    HW229763   0.665   1.747   2.551
 9622SOL     OW29764   0.181   5.858   5.955
 9622SOL    HW129765   0.160   5.952   5.980
 9622SOL    HW229766   0.280   5.848   5.945
 9623SOL     OW29767   4.357   6.670   5.995
 9623SOL    HW129768   4.455   6.675   5.980
 9623SOL    HW229769   4.336   6.602   6.065
 9624SOL     OW29770   4.859   5.195   4.708
 9624SOL    HW129771   4.773   5.161   4.746
 9624SOL    HW229772   4.868   5.293   4.728
 9625SOL     OW29773   5.240   3.906   6.054
 9625SOL    HW129774   5.176   3.978   6.031
 9625SOL    HW229775   5.218   3.869   6.144
 9626SOL     OW29776   2.576   2.637   6.968
 9626SOL    HW129777   2.586   2.550   6.920
 9626SOL    HW229778   2.546   2.707   6.904
 9627SOL     OW29779   0.505   5.214   0.148
 9627SOL    HW129780   0.603   5.214   0.129
 9627SOL    HW229781   0.482   5.293   0.204
 9628SOL     OW29782   6.442   1.407   6.756
 9628SOL    HW129783   6.481   1.463   6.683
 9628SOL    HW229784   6.342   1.418   6.757
 9629SOL     OW29785   7.021   5.814   3.730
 9629SOL    HW129786   7.019   5.876   3.808
 9629SOL    HW229787   0.051   5.734   3.753
 9630SOL     OW29788   6.248   0.775   5.478
 9630SOL    HW129789   6.170   0.745   5.533
 9630SOL    HW229790   6.216   0.811   5.391
 9631SOL     OW29791   3.844   6.565   0.722
 9631SOL    HW129792   3.767   6.528   0.774
 9631SOL    HW229793   3.910   6.606   0.786
 9632SOL     OW29794   2.930   5.611   2.954
 9632SOL    HW129795   2.959   5.672   3.027
 9632SOL    HW229796   3.004   5.548   2.931
 9633SOL     OW29797   3.778   3.382   3.170
 9633SOL    HW129798   3.749   3.472   3.203
 9633SOL    HW229799   3.858   3.392   3.111
 9634SOL     OW29800   5.511   4.985   3.153
 9634SOL    HW129801   5.462   5.062   3.195
 9634SOL    HW229802   5.449   4.935   3.092
 9635SOL     OW29803   0.831   5.338   3.832
 9635SOL    HW129804   0.873   5.395   3.902
 9635SOL    HW229805   0.900   5.311   3.765
 9636SOL     OW29806   5.178   3.611   3.981
 9636SOL    HW129807   5.137   3.605   3.890
 9636SOL    HW229808   5.253   3.678   3.979
 9637SOL     OW29809   1.227   3.547   7.023
 9637SOL    HW129810   1.290   3.543   0.076
 9637SOL    HW229811   1.143   3.594   0.026
 9638SOL     OW29812   5.828   5.817   6.042
 9638SOL    HW129813   5.735   5.785   6.022
 9638SOL    HW229814   5.893   5.742   6.027
 9639SOL     OW29815   4.352   1.764   1.333
 9639SOL    HW129816   4.342   1.769   1.234
 9639SOL    HW229817   4.356   1.668   1.362
 9640SOL     OW29818   4.097   0.458   3.579
 9640SOL    HW129819   4.102   0.368   3.534
 9640SOL    HW229820   4.169   0.464   3.648
 9641SOL     OW29821   6.575   3.255   3.299
 9641SOL    HW129822   6.506   3.189   3.327
 9641SOL    HW229823   6.637   3.274   3.376
 9642SOL     OW29824   0.714   0.756   4.922
 9642SOL    HW129825   0.664   0.795   4.999
 9642SOL    HW229826   0.768   0.677   4.953
 9643SOL     OW29827   4.672   4.996   3.964
 9643SOL    HW129828   4.635   5.048   4.040
 9643SOL    HW229829   4.600   4.982   3.895
 9644SOL     OW29830   0.803   5.541   4.312
 9644SOL    HW129831   0.854   5.546   4.227
 9644SOL    HW229832   0.727   5.605   4.310
 9645SOL     OW29833   1.011   4.905   6.327
 9645SOL    HW129834   1.098   4.871   6.292
 9645SOL    HW229835   1.012   5.005   6.328
 9646SOL     OW29836   4.469   5.224   6.714
 9646SOL    HW129837   4.407   5.195   6.641
 9646SOL    HW229838   4.463   5.159   6.790
 9647SOL     OW29839   6.184   6.632   2.872
 9647SOL    HW129840   6.236   6.559   2.916
 9647SOL    HW229841   6.247   6.696   2.828
 9648SOL     OW29842   3.890   1.854   1.013
 9648SOL    HW129843   3.941   1.802   1.081
 9648SOL    HW229844   3.889   1.806   0.926
 9649SOL     OW29845   0.651   5.762   0.359
 9649SOL    HW129846   0.745   5.727   0.364
 9649SOL    HW229847   0.621   5.790   0.450
 9650SOL     OW29848   7.023   4.798   4.038
 9650SOL    HW129849   0.086   4.833   4.070
 9650SOL    HW229850   6.950   4.857   4.072
 9651SOL     OW29851   4.428   1.632   0.201
 9651SOL    HW129852   4.343   1.672   0.170
 9651SOL    HW229853   4.475   1.588   0.124
 9652SOL     OW29854   0.557   4.094   0.831
 9652SOL    HW129855   0.523   4.082   0.738
 9652SOL    HW229856   0.580   4.190   0.847
 9653SOL     OW29857   4.864   3.974   6.128
 9653SOL    HW129858   4.785   3.962   6.068
 9653SOL    HW229859   4.929   4.037   6.085
 9654SOL     OW29860   3.405   3.470   2.981
 9654SOL    HW129861   3.356   3.397   3.029
 9654SOL    HW229862   3.364   3.559   3.006
 9655SOL     OW29863   4.768   1.429   0.842
 9655SOL    HW129864   4.847   1.461   0.790
 9655SOL    HW229865   4.686   1.439   0.787
 9656SOL     OW29866   5.713   3.961   6.417
 9656SOL    HW129867   5.653   4.034   6.384
 9656SOL    HW229868   5.736   3.977   6.512
 9657SOL     OW29869   5.945   3.926   4.266
 9657SOL    HW129870   5.940   3.850   4.202
 9657SOL    HW229871   6.033   3.974   4.254
 9658SOL     OW29872   4.665   1.473   2.036
 9658SOL    HW129873   4.603   1.552   2.040
 9658SOL    HW229874   4.652   1.425   1.949
 9659SOL     OW29875   2.552   3.106   6.792
 9659SOL    HW129876   2.588   3.082   6.882
 9659SOL    HW229877   2.452   3.115   6.798
 9660SOL     OW29878   1.754   6.342   1.773
 9660SOL    HW129879   1.735   6.261   1.829
 9660SOL    HW229880   1.840   6.384   1.801
 9661SOL     OW29881   4.870   4.029   1.292
 9661SOL    HW129882   4.800   4.100   1.289
 9661SOL    HW229883   4.903   4.010   1.199
 9662SOL     OW29884   5.487   6.013   6.540
 9662SOL    HW129885   5.388   6.003   6.537
 9662SOL    HW229886   5.511   6.109   6.524
 9663SOL     OW29887   0.899   5.428   2.182
 9663SOL    HW129888   0.861   5.466   2.098
 9663SOL    HW229889   0.998   5.412   2.170
 9664SOL     OW29890   4.644   4.686   2.143
 9664SOL    HW129891   4.622   4.734   2.228
 9664SOL    HW229892   4.559   4.654   2.101
 9665SOL     OW29893   0.007   5.558   6.312
 9665SOL    HW129894   6.941   5.529   6.281
 9665SOL    HW229895   0.038   5.634   6.254
 9666SOL     OW29896   5.631   3.978   0.011
 9666SOL    HW129897   5.561   4.027   0.064
 9666SOL    HW229898   5.698   4.043   7.000
 9667SOL     OW29899   5.779   6.119   6.750
 9667SOL    HW129900   5.708   6.112   6.821
 9667SOL    HW229901   5.847   6.048   6.765
 9668SOL     OW29902   1.195   1.122   6.010
 9668SOL    HW129903   1.179   1.024   6.005
 9668SOL    HW229904   1.267   1.147   5.945
 9669SOL     OW29905   3.258   0.406   0.589
 9669SOL    HW129906   3.278   0.315   0.624
 9669SOL    HW229907   3.327   0.470   0.623
 9670SOL     OW29908   0.395   0.075   0.014
 9670SOL    HW129909   0.305   0.079   6.997
 9670SOL    HW229910   0.458   0.027   6.977
 9671SOL     OW29911   0.960   5.185   6.311
 9671SOL    HW129912   0.871   5.190   6.265
 9671SOL    HW229913   0.953   5.227   6.402
 9672SOL     OW29914   0.741   3.835   4.249
 9672SOL    HW129915   0.651   3.801   4.276
 9672SOL    HW229916   0.756   3.815   4.152
 9673SOL     OW29917   1.797   3.475   0.098
 9673SOL    HW129918   1.729   3.547   0.087
 9673SOL    HW229919   1.761   3.404   0.159
 9674SOL     OW29920   2.079   6.382   4.085
 9674SOL    HW129921   2.074   6.331   4.000
 9674SOL    HW229922   2.048   6.324   4.161
 9675SOL     OW29923   6.600   3.558   5.996
 9675SOL    HW129924   6.628   3.546   6.091
 9675SOL    HW229925   6.524   3.623   5.991
 9676SOL     OW29926   0.788   2.618   6.777
 9676SOL    HW129927   0.821   2.620   6.683
 9676SOL    HW229928   0.689   2.605   6.777
 9677SOL     OW29929   6.741   5.391   1.893
 9677SOL    HW129930   6.798   5.335   1.833
 9677SOL    HW229931   6.645   5.367   1.879
 9678SOL     OW29932   3.472   3.539   5.303
 9678SOL    HW129933   3.383   3.581   5.323
 9678SOL    HW229934   3.482   3.455   5.356
 9679SOL     OW29935   1.893   1.621   4.435
 9679SOL    HW129936   1.877   1.568   4.352
 9679SOL    HW229937   1.977   1.675   4.424
 9680SOL     OW29938   4.402   6.668   2.039
 9680SOL    HW129939   4.336   6.724   1.990
 9680SOL    HW229940   4.436   6.595   1.978
 9681SOL     OW29941   1.238   1.844   2.224
 9681SOL    HW129942   1.190   1.884   2.302
 9681SOL    HW229943   1.196   1.757   2.200
 9682SOL     OW29944   4.921   6.312   5.755
 9682SOL    HW129945   5.015   6.343   5.769
 9682SOL    HW229946   4.908   6.291   5.658
 9683SOL     OW29947   3.365   6.366   3.166
 9683SOL    HW129948   3.315   6.419   3.235
 9683SOL    HW229949   3.300   6.321   3.105
 9684SOL     OW29950   0.124   3.509   5.472
 9684SOL    HW129951   0.198   3.492   5.406
 9684SOL    HW229952   0.044   3.543   5.423
 9685SOL     OW29953   3.380   4.271   1.174
 9685SOL    HW129954   3.478   4.251   1.172
 9685SOL    HW229955   3.336   4.228   1.095
 9686SOL     OW29956   6.103   1.419   5.285
 9686SOL    HW129957   6.004   1.406   5.293
 9686SOL    HW229958   6.149   1.332   5.304
 9687SOL     OW29959   5.916   0.951   3.196
 9687SOL    HW129960   5.972   0.995   3.267
 9687SOL    HW229961   5.869   1.021   3.142
 9688SOL     OW29962   0.816   5.202   1.374
 9688SOL    HW129963   0.740   5.144   1.402
 9688SOL    HW229964   0.823   5.279   1.438
 9689SOL     OW29965   2.380   5.968   0.923
 9689SOL    HW129966   2.430   5.902   0.979
 9689SOL    HW229967   2.357   5.927   0.835
 9690SOL     OW29968   6.789   4.647   4.777
 9690SOL    HW129969   6.868   4.676   4.831
 9690SOL    HW229970   6.806   4.554   4.742
 9691SOL     OW29971   2.876   3.696   1.833
 9691SOL    HW129972   2.895   3.725   1.739
 9691SOL    HW229973   2.928   3.753   1.897
 9692SOL     OW29974   4.992   4.359   0.965
 9692SOL    HW129975   5.078   4.384   0.923
 9692SOL    HW229976   4.950   4.440   1.006
 9693SOL     OW29977   4.851   3.161   5.162
 9693SOL    HW129978   4.903   3.246   5.174
 9693SOL    HW229979   4.780   3.156   5.233
 9694SOL     OW29980   2.614   0.116   1.729
 9694SOL    HW129981   2.571   0.205   1.714
 9694SOL    HW229982   2.640   0.076   1.642
 9695SOL     OW29983   1.192   2.878   3.400
 9695SOL    HW129984   1.193   2.962   3.346
 9695SOL    HW229985   1.286   2.846   3.412
 9696SOL     OW29986   5.497   3.059   3.475
 9696SOL    HW129987   5.519   2.962   3.468
 9696SOL    HW229988   5.414   3.071   3.529
 9697SOL     OW29989   0.357   6.678   0.922
 9697SOL    HW129990   0.377   6.748   0.852
 9697SOL    HW229991   0.259   6.678   0.942
 9698SOL     OW29992   6.360   3.593   1.699
 9698SOL    HW129993   6.425   3.669   1.694
 9698SOL    HW229994   6.402   3.517   1.747
 9699SOL     OW29995   1.620   6.169   1.124
 9699SOL    HW129996   1.646   6.250   1.072
 9699SOL    HW229997   1.533   6.133   1.089
 9700SOL     OW29998   5.494   0.239   5.570
 9700SOL    HW129999   5.499   0.308   5.498
 9700SOL    HW230000   5.573   0.178   5.564
 9701SOL     OW30001   4.639   3.903   6.810
 9701SOL    HW130002   4.656   3.991   6.767
 9701SOL    HW230003   4.714   3.841   6.790
 9702SOL     OW30004   3.660   3.956   2.036
 9702SOL    HW130005   3.720   3.913   2.103
 9702SOL    HW230006   3.601   4.023   2.081
 9703SOL     OW30007   5.849   4.307   4.213
 9703SOL    HW130008   5.828   4.209   4.213
 9703SOL    HW230009   5.783   4.355   4.156
 9704SOL     OW30010   1.605   4.562   2.705
 9704SOL    HW130011   1.535   4.628   2.677
 9704SOL    HW230012   1.562   4.473   2.721
 9705SOL     OW30013   0.026   2.823   5.160
 9705SOL    HW130014   0.095   2.767   5.116
 9705SOL    HW230015   7.016   2.775   5.241
 9706SOL     OW30016   0.584   1.438   2.621
 9706SOL    HW130017   0.544   1.349   2.645
 9706SOL    HW230018   0.545   1.509   2.679
 9707SOL     OW30019   1.307   4.648   2.039
 9707SOL    HW130020   1.286   4.616   2.131
 9707SOL    HW230021   1.226   4.638   1.981
 9708SOL     OW30022   2.466   0.718   2.188
 9708SOL    HW130023   2.461   0.794   2.123
 9708SOL    HW230024   2.478   0.633   2.137
 9709SOL     OW30025   5.826   2.408   1.645
 9709SOL    HW130026   5.737   2.404   1.599
 9709SOL    HW230027   5.813   2.436   1.740
 9710SOL     OW30028   6.235   5.421   4.283
 9710SOL    HW130029   6.289   5.444   4.202
 9710SOL    HW230030   6.145   5.389   4.255
 9711SOL     OW30031   3.550   0.636   0.398
 9711SOL    HW130032   3.532   0.626   0.496
 9711SOL    HW230033   3.465   0.661   0.351
 9712SOL     OW30034   5.759   1.555   6.772
 9712SOL    HW130035   5.691   1.553   6.845
 9712SOL    HW230036   5.835   1.495   6.796
 9713SOL     OW30037   1.617   6.446   2.611
 9713SOL    HW130038   1.676   6.495   2.676
 9713SOL    HW230039   1.531   6.423   2.655
 9714SOL     OW30040   2.367   4.331   4.599
 9714SOL    HW130041   2.369   4.233   4.621
 9714SOL    HW230042   2.274   4.366   4.613
 9715SOL     OW30043   6.601   3.759   6.693
 9715SOL    HW130044   6.530   3.725   6.631
 9715SOL    HW230045   6.680   3.788   6.639
 9716SOL     OW30046   2.636   5.547   0.291
 9716SOL    HW130047   2.580   5.477   0.335
 9716SOL    HW230048   2.703   5.503   0.232
 9717SOL     OW30049   4.166   2.307   5.538
 9717SOL    HW130050   4.176   2.364   5.619
 9717SOL    HW230051   4.122   2.221   5.563
 9718SOL     OW30052   4.310   2.518   6.061
 9718SOL    HW130053   4.313   2.612   6.028
 9718SOL    HW230054   4.381   2.505   6.131
 9719SOL     OW30055   4.845   6.459   5.980
 9719SOL    HW130056   4.868   6.438   5.884
 9719SOL    HW230057   4.919   6.514   6.020
 9720SOL     OW30058   1.965   3.302   3.147
 9720SOL    HW130059   1.885   3.261   3.191
 9720SOL    HW230060   1.945   3.316   3.050
 9721SOL     OW30061   0.981   1.115   0.539
 9721SOL    HW130062   0.905   1.179   0.554
 9721SOL    HW230063   1.044   1.120   0.616
 9722SOL     OW30064   3.887   2.531   5.309
 9722SOL    HW130065   3.974   2.569   5.278
 9722SOL    HW230066   3.880   2.436   5.278
 9723SOL     OW30067   6.554   0.191   4.968
 9723SOL    HW130068   6.550   0.132   5.048
 9723SOL    HW230069   6.644   0.235   4.964
 9724SOL     OW30070   1.793   4.971   0.565
 9724SOL    HW130071   1.778   5.021   0.481
 9724SOL    HW230072   1.790   4.872   0.547
 9725SOL     OW30073   3.990   4.921   4.900
 9725SOL    HW130074   4.089   4.923   4.892
 9725SOL    HW230075   3.964   4.886   4.990
 9726SOL     OW30076   0.280   0.810   3.255
 9726SOL    HW130077   0.375   0.825   3.280
 9726SOL    HW230078   0.238   0.897   3.231
 9727SOL     OW30079   6.724   1.668   1.440
 9727SOL    HW130080   6.624   1.662   1.443
 9727SOL    HW230081   6.751   1.762   1.421
 9728SOL     OW30082   4.506   1.978   4.307
 9728SOL    HW130083   4.521   2.012   4.400
 9728SOL    HW230084   4.594   1.963   4.262
 9729SOL     OW30085   0.107   5.108   2.885
 9729SOL    HW130086   0.078   5.035   2.824
 9729SOL    HW230087   0.155   5.178   2.833
 9730SOL     OW30088   1.048   4.753   2.875
 9730SOL    HW130089   0.954   4.763   2.909
 9730SOL    HW230090   1.096   4.840   2.884
 9731SOL     OW30091   5.639   3.450   1.998
 9731SOL    HW130092   5.674   3.394   1.924
 9731SOL    HW230093   5.676   3.418   2.085
 9732SOL     OW30094   1.603   3.590   3.011
 9732SOL    HW130095   1.557   3.569   3.097
 9732SOL    HW230096   1.680   3.650   3.029
 9733SOL     OW30097   5.761   4.666   2.107
 9733SOL    HW130098   5.672   4.700   2.137
 9733SOL    HW230099   5.792   4.593   2.169
 9734SOL     OW30100   5.159   5.718   6.535
 9734SOL    HW130101   5.228   5.646   6.526
 9734SOL    HW230102   5.099   5.718   6.455
 9735SOL     OW30103   0.777   2.227   1.108
 9735SOL    HW130104   0.759   2.325   1.115
 9735SOL    HW230105   0.714   2.177   1.167
 9736SOL     OW30106   4.951   1.950   4.622
 9736SOL    HW130107   4.892   1.950   4.703
 9736SOL    HW230108   5.016   2.026   4.628
 9737SOL     OW30109   6.440   3.462   2.859
 9737SOL    HW130110   6.457   3.461   2.958
 9737SOL    HW230111   6.357   3.410   2.839
 9738SOL     OW30112   2.470   6.863   1.475
 9738SOL    HW130113   2.559   6.908   1.463
 9738SOL    HW230114   2.400   6.932   1.495
 9739SOL     OW30115   5.904   0.019   0.625
 9739SOL    HW130116   5.889   6.990   0.542
 9739SOL    HW230117   5.826   0.007   0.687
 9740SOL     OW30118   6.182   1.111   2.931
 9740SOL    HW130119   6.150   1.072   2.844
 9740SOL    HW230120   6.201   1.038   2.996
 9741SOL     OW30121   2.525   2.019   4.462
 9741SOL    HW130122   2.542   1.923   4.439
 9741SOL    HW230123   2.444   2.025   4.520
 9742SOL     OW30124   3.599   2.167   6.256
 9742SOL    HW130125   3.611   2.263   6.281
 9742SOL    HW230126   3.601   2.158   6.157
 9743SOL     OW30127   5.346   3.756   4.234
 9743SOL    HW130128   5.419   3.808   4.189
 9743SOL    HW230129   5.370   3.741   4.330
 9744SOL     OW30130   1.823   1.832   3.015
 9744SOL    HW130131   1.863   1.916   2.978
 9744SOL    HW230132   1.774   1.853   3.100
 9745SOL     OW30133   7.011   0.653   6.163
 9745SOL    HW130134   7.017   0.748   6.195
 9745SOL    HW230135   7.009   0.591   6.241
 9746SOL     OW30136   4.315   4.883   5.984
 9746SOL    HW130137   4.257   4.806   5.957
 9746SOL    HW230138   4.409   4.866   5.952
 9747SOL     OW30139   2.634   1.353   2.873
 9747SOL    HW130140   2.544   1.310   2.864
 9747SOL    HW230141   2.703   1.294   2.831
 9748SOL     OW30142   1.177   0.846   3.336
 9748SOL    HW130143   1.227   0.839   3.422
 9748SOL    HW230144   1.234   0.810   3.262
 9749SOL     OW30145   6.914   0.652   2.422
 9749SOL    HW130146   6.957   0.664   2.332
 9749SOL    HW230147   6.825   0.697   2.423
 9750SOL     OW30148   6.019   3.091   4.305
 9750SOL    HW130149   6.022   3.140   4.392
 9750SOL    HW230150   5.971   3.004   4.317
 9751SOL     OW30151   4.047   6.969   1.648
 9751SOL    HW130152   4.005   0.033   1.666
 9751SOL    HW230153   4.122   6.954   1.712
 9752SOL     OW30154   3.280   3.377   0.113
 9752SOL    HW130155   3.265   3.299   0.051
 9752SOL    HW230156   3.242   3.460   0.073
 9753SOL     OW30157   6.760   6.329   5.326
 9753SOL    HW130158   6.807   6.243   5.310
 9753SOL    HW230159   6.668   6.324   5.287
 9754SOL     OW30160   3.082   0.604   1.750
 9754SOL    HW130161   2.989   0.568   1.746
 9754SOL    HW230162   3.081   0.701   1.725
 9755SOL     OW30163   2.718   3.547   0.484
 9755SOL    HW130164   2.702   3.580   0.391
 9755SOL    HW230165   2.755   3.621   0.540
 9756SOL     OW30166   5.576   0.422   5.768
 9756SOL    HW130167   5.657   0.376   5.804
 9756SOL    HW230168   5.534   0.367   5.696
 9757SOL     OW30169   5.407   4.066   3.952
 9757SOL    HW130170   5.458   4.149   3.928
 9757SOL    HW230171   5.370   4.075   4.044
 9758SOL     OW30172   1.879   0.661   2.265
 9758SOL    HW130173   1.969   0.668   2.308
 9758SOL    HW230174   1.816   0.726   2.308
 9759SOL     OW30175   6.954   1.304   1.449
 9759SOL    HW130176   6.908   1.358   1.519
 9759SOL    HW230177   7.014   1.363   1.395
 9760SOL     OW30178   4.891   1.015   6.929
 9760SOL    HW130179   4.824   1.048   6.861
 9760SOL    HW230180   4.971   0.979   6.882
 9761SOL     OW30181   1.526   2.364   1.100
 9761SOL    HW130182   1.447   2.422   1.121
 9761SOL    HW230183   1.605   2.394   1.154
 9762SOL     OW30184   2.932   1.589   5.556
 9762SOL    HW130185   2.835   1.586   5.532
 9762SOL    HW230186   2.955   1.680   5.589
 9763SOL     OW30187   6.323   1.309   1.082
 9763SOL    HW130188   6.302   1.220   1.041
 9763SOL    HW230189   6.240   1.347   1.123
 9764SOL     OW30190   0.040   1.958   2.838
 9764SOL    HW130191   0.029   1.974   2.740
 9764SOL    HW230192   6.976   1.967   2.883
 9765SOL     OW30193   6.829   0.021   2.169
 9765SOL    HW130194   6.856   0.074   2.250
 9765SOL    HW230195   6.795   6.956   2.197
 9766SOL     OW30196   1.639   2.036   3.982
 9766SOL    HW130197   1.693   1.972   3.927
 9766SOL    HW230198   1.672   2.129   3.965
 9767SOL     OW30199   2.377   1.872   5.555
 9767SOL    HW130200   2.468   1.914   5.550
 9767SOL    HW230201   2.352   1.859   5.651
 9768SOL     OW30202   5.628   3.078   0.489
 9768SOL    HW130203   5.604   3.143   0.561
 9768SOL    HW230204   5.619   3.122   0.400
 9769SOL     OW30205   3.976   1.714   5.256
 9769SOL    HW130206   3.893   1.658   5.261
 9769SOL    HW230207   4.057   1.656   5.253
 9770SOL     OW30208   2.396   2.595   6.324
 9770SOL    HW130209   2.412   2.693   6.325
 9770SOL    HW230210   2.302   2.577   6.353
 9771SOL     OW30211   3.018   0.131   2.042
 9771SOL    HW130212   3.055   0.045   2.007
 9771SOL    HW230213   2.959   0.173   1.973
 9772SOL     OW30214   0.830   0.646   1.266
 9772SOL    HW130215   0.813   0.562   1.214
 9772SOL    HW230216   0.823   0.725   1.205
 9773SOL     OW30217   5.578   5.096   1.977
 9773SOL    HW130218   5.654   5.052   2.024
 9773SOL    HW230219   5.498   5.097   2.037
 9774SOL     OW30220   1.370   4.464   5.528
 9774SOL    HW130221   1.420   4.542   5.565
 9774SOL    HW230222   1.307   4.429   5.597
 9775SOL     OW30223   2.570   1.416   3.721
 9775SOL    HW130224   2.651   1.443   3.772
 9775SOL    HW230225   2.597   1.375   3.634
 9776SOL     OW30226   2.456   5.216   0.156
 9776SOL    HW130227   2.398   5.283   0.108
 9776SOL    HW230228   2.550   5.224   0.124
 9777SOL     OW30229   4.345   0.943   5.572
 9777SOL    HW130230   4.434   0.985   5.589
 9777SOL    HW230231   4.311   0.902   5.656
 9778SOL     OW30232   0.466   4.032   3.650
 9778SOL    HW130233   0.562   4.053   3.634
 9778SOL    HW230234   0.409   4.084   3.586
 9779SOL     OW30235   2.307   0.885   3.657
 9779SOL    HW130236   2.337   0.947   3.730
 9779SOL    HW230237   2.212   0.904   3.634
 9780SOL     OW30238   1.212   2.696   2.155
 9780SOL    HW130239   1.154   2.615   2.153
 9780SOL    HW230240   1.173   2.767   2.096
 9781SOL     OW30241   1.999   2.035   2.885
 9781SOL    HW130242   1.978   2.077   2.796
 9781SOL    HW230243   2.025   2.106   2.950
 9782SOL     OW30244   0.252   2.526   1.038
 9782SOL    HW130245   0.154   2.541   1.035
 9782SOL    HW230246   0.283   2.521   1.133
 9783SOL     OW30247   3.948   1.085   3.107
 9783SOL    HW130248   3.959   1.063   3.010
 9783SOL    HW230249   3.983   1.177   3.125
 9784SOL     OW30250   1.259   1.419   6.306
 9784SOL    HW130251   1.311   1.456   6.383
 9784SOL    HW230252   1.223   1.329   6.331
 9785SOL     OW30253   0.105   3.756   4.269
 9785SOL    HW130254   0.144   3.667   4.244
 9785SOL    HW230255   0.127   3.776   4.365
 9786SOL     OW30256   2.240   3.941   0.276
 9786SOL    HW130257   2.231   3.911   0.181
 9786SOL    HW230258   2.240   3.861   0.336
 9787SOL     OW30259   3.257   3.699   3.001
 9787SOL    HW130260   3.314   3.765   3.050
 9787SOL    HW230261   3.160   3.721   3.016
 9788SOL     OW30262   4.052   0.362   2.257
 9788SOL    HW130263   4.071   0.296   2.185
 9788SOL    HW230264   4.020   0.448   2.217
 9789SOL     OW30265   3.467   1.500   0.088
 9789SOL    HW130266   3.387   1.559   0.077
 9789SOL    HW230267   3.548   1.546   0.050
 9790SOL     OW30268   6.774   5.111   4.108
 9790SOL    HW130269   6.805   5.206   4.102
 9790SOL    HW230270   6.681   5.108   4.145
 9791SOL     OW30271   0.969   6.529   1.607
 9791SOL    HW130272   0.980   6.618   1.651
 9791SOL    HW230273   0.940   6.461   1.675
 9792SOL     OW30274   3.794   5.544   1.061
 9792SOL    HW130275   3.892   5.530   1.074
 9792SOL    HW230276   3.767   5.513   0.970
 9793SOL     OW30277   5.702   0.787   3.569
 9793SOL    HW130278   5.671   0.756   3.659
 9793SOL    HW230279   5.623   0.814   3.514
 9794SOL     OW30280   4.594   4.389   4.338
 9794SOL    HW130281   4.602   4.289   4.346
 9794SOL    HW230282   4.596   4.414   4.241
 9795SOL     OW30283   1.835   3.662   3.151
 9795SOL    HW130284   1.935   3.663   3.150
 9795SOL    HW230285   1.803   3.620   3.236
 9796SOL     OW30286   3.909   3.870   3.797
 9796SOL    HW130287   3.948   3.783   3.766
 9796SOL    HW230288   3.895   3.930   3.718
 9797SOL     OW30289   2.733   5.047   6.812
 9797SOL    HW130290   2.780   5.132   6.789
 9797SOL    HW230291   2.636   5.056   6.789
 9798SOL     OW30292   0.227   3.846   6.838
 9798SOL    HW130293   0.291   3.769   6.845
 9798SOL    HW230294   0.151   3.831   6.901
 9799SOL     OW30295   2.910   0.430   6.444
 9799SOL    HW130296   2.961   0.407   6.360
 9799SOL    HW230297   2.942   0.371   6.519
 9800SOL     OW30298   6.705   3.577   4.711
 9800SOL    HW130299   6.768   3.586   4.788
 9800SOL    HW230300   6.743   3.624   4.632
 9801SOL     OW30301   6.535   6.495   6.861
 9801SOL    HW130302   6.486   6.545   6.933
 9801SOL    HW230303   6.568   6.408   6.898
 9802SOL     OW30304   3.835   4.715   0.288
 9802SOL    HW130305   3.891   4.682   0.364
 9802SOL    HW230306   3.739   4.714   0.315
 9803SOL     OW30307   0.804   4.018   6.857
 9803SOL    HW130308   0.790   4.078   6.779
 9803SOL    HW230309   0.894   4.034   6.897
 9804SOL     OW30310   0.096   5.937   2.658
 9804SOL    HW130311   0.044   5.895   2.733
 9804SOL    HW230312   0.035   5.994   2.603
 9805SOL     OW30313   0.746   5.965   4.018
 9805SOL    HW130314   0.654   5.988   3.987
 9805SOL    HW230315   0.805   5.947   3.940
 9806SOL     OW30316   3.877   1.689   0.248
 9806SOL    HW130317   3.825   1.696   0.163
 9806SOL    HW230318   3.837   1.749   0.317
 9807SOL     OW30319   3.677   3.217   2.159
 9807SOL    HW130320   3.587   3.225   2.117
 9807SOL    HW230321   3.705   3.121   2.161
 9808SOL     OW30322   4.060   5.557   2.706
 9808SOL    HW130323   4.052   5.655   2.688
 9808SOL    HW230324   4.015   5.534   2.792
 9809SOL     OW30325   7.008   3.155   0.768
 9809SOL    HW130326   0.054   3.118   0.708
 9809SOL    HW230327   6.923   3.104   0.756
 9810SOL     OW30328   2.909   2.020   0.484
 9810SOL    HW130329   2.980   1.982   0.425
 9810SOL    HW230330   2.860   2.092   0.435
 9811SOL     OW30331   5.927   3.354   4.776
 9811SOL    HW130332   5.857   3.350   4.848
 9811SOL    HW230333   5.938   3.448   4.745
 9812SOL     OW30334   3.874   6.359   5.609
 9812SOL    HW130335   3.939   6.308   5.665
 9812SOL    HW230336   3.914   6.446   5.581
 9813SOL     OW30337   5.237   1.388   1.603
 9813SOL    HW130338   5.230   1.486   1.622
 9813SOL    HW230339   5.145   1.348   1.606
 9814SOL     OW30340   5.574   1.400   0.131
 9814SOL    HW130341   5.643   1.467   0.106
 9814SOL    HW230342   5.607   1.345   0.208
 9815SOL     OW30343   4.400   2.439   4.426
 9815SOL    HW130344   4.306   2.406   4.420
 9815SOL    HW230345   4.424   2.487   4.342
 9816SOL     OW30346   2.351   0.127   0.119
 9816SOL    HW130347   2.446   0.140   0.088
 9816SOL    HW230348   2.291   0.190   0.070
 9817SOL     OW30349   6.649   6.820   2.769
 9817SOL    HW130350   6.655   6.832   2.670
 9817SOL    HW230351   6.597   6.738   2.790
 9818SOL     OW30352   6.213   2.795   4.454
 9818SOL    HW130353   6.263   2.824   4.535
 9818SOL    HW230354   6.119   2.772   4.479
 9819SOL     OW30355   4.168   0.474   2.835
 9819SOL    HW130356   4.098   0.427   2.888
 9819SOL    HW230357   4.258   0.458   2.876
 9820SOL     OW30358   4.605   3.251   5.696
 9820SOL    HW130359   4.519   3.300   5.712
 9820SOL    HW230360   4.609   3.171   5.756
 9821SOL     OW30361   6.428   5.390   0.440
 9821SOL    HW130362   6.394   5.300   0.466
 9821SOL    HW230363   6.351   5.452   0.423
 9822SOL     OW30364   0.589   6.888   2.510
 9822SOL    HW130365   0.572   6.814   2.575
 9822SOL    HW230366   0.548   6.973   2.545
 9823SOL     OW30367   3.302   1.093   1.717
 9823SOL    HW130368   3.345   1.016   1.669
 9823SOL    HW230369   3.366   1.169   1.722
 9824SOL     OW30370   1.245   3.966   6.115
 9824SOL    HW130371   1.249   4.024   6.033
 9824SOL    HW230372   1.162   3.987   6.166
 9825SOL     OW30373   3.877   4.833   5.206
 9825SOL    HW130374   3.822   4.902   5.159
 9825SOL    HW230375   3.823   4.749   5.218
 9826SOL     OW30376   4.523   0.677   5.661
 9826SOL    HW130377   4.511   0.730   5.745
 9826SOL    HW230378   4.614   0.694   5.623
 9827SOL     OW30379   1.430   4.007   4.634
 9827SOL    HW130380   1.399   3.916   4.661
 9827SOL    HW230381   1.418   4.070   4.710
 9828SOL     OW30382   3.434   2.626   6.438
 9828SOL    HW130383   3.408   2.573   6.520
 9828SOL    HW230384   3.497   2.698   6.464
 9829SOL     OW30385   2.923   4.901   0.360
 9829SOL    HW130386   2.866   4.882   0.439
 9829SOL    HW230387   3.017   4.873   0.379
 9830SOL     OW30388   5.747   1.077   1.092
 9830SOL    HW130389   5.813   1.072   1.017
 9830SOL    HW230390   5.664   1.026   1.067
 9831SOL     OW30391   6.019   6.472   1.415
 9831SOL    HW130392   5.997   6.377   1.436
 9831SOL    HW230393   6.022   6.525   1.500
 9832SOL     OW30394   4.584   4.994   1.183
 9832SOL    HW130395   4.502   4.978   1.127
 9832SOL    HW230396   4.610   4.910   1.229
 9833SOL     OW30397   3.753   3.715   4.965
 9833SOL    HW130398   3.676   3.747   5.021
 9833SOL    HW230399   3.789   3.792   4.912
 9834SOL     OW30400   0.563   3.512   4.549
 9834SOL    HW130401   0.663   3.510   4.554
 9834SOL    HW230402   0.528   3.586   4.606
 9835SOL     OW30403   4.890   2.127   4.044
 9835SOL    HW130404   4.916   2.096   3.953
 9835SOL    HW230405   4.822   2.200   4.037
 9836SOL     OW30406   4.981   5.474   3.007
 9836SOL    HW130407   5.021   5.528   3.082
 9836SOL    HW230408   4.942   5.536   2.939
 9837SOL     OW30409   2.459   6.215   4.219
 9837SOL    HW130410   2.555   6.244   4.223
 9837SOL    HW230411   2.419   6.218   4.310
 9838SOL     OW30412   1.211   5.854   5.942
 9838SOL    HW130413   1.174   5.943   5.917
 9838SOL    HW230414   1.158   5.782   5.896
 9839SOL     OW30415   0.064   1.997   1.766
 9839SOL    HW130416   7.007   1.940   1.765
 9839SOL    HW230417   0.094   2.012   1.860
 9840SOL     OW30418   6.460   0.538   1.269
 9840SOL    HW130419   6.506   0.530   1.357
 9840SOL    HW230420   6.378   0.594   1.279
 9841SOL     OW30421   1.456   3.473   4.476
 9841SOL    HW130422   1.381   3.535   4.497
 9841SOL    HW230423   1.524   3.520   4.419
 9842SOL     OW30424   3.051   3.057   2.193
 9842SOL    HW130425   3.013   3.128   2.253
 9842SOL    HW230426   3.109   2.996   2.247
 9843SOL     OW30427   6.793   2.560   2.160
 9843SOL    HW130428   6.748   2.471   2.156
 9843SOL    HW230429   6.806   2.595   2.068
 9844SOL     OW30430   5.135   0.315   2.437
 9844SOL    HW130431   5.135   0.406   2.479
 9844SOL    HW230432   5.041   0.281   2.430
 9845SOL     OW30433   1.506   1.999   3.437
 9845SOL    HW130434   1.550   2.021   3.525
 9845SOL    HW230435   1.442   1.924   3.450
 9846SOL     OW30436   2.939   3.229   2.826
 9846SOL    HW130437   2.945   3.323   2.860
 9846SOL    HW230438   2.871   3.225   2.752
 9847SOL     OW30439   2.100   3.858   5.899
 9847SOL    HW130440   2.088   3.956   5.879
 9847SOL    HW230441   2.184   3.846   5.953
 9848SOL     OW30442   4.739   3.055   6.796
 9848SOL    HW130443   4.747   3.142   6.844
 9848SOL    HW230444   4.776   2.981   6.853
 9849SOL     OW30445   6.915   6.766   6.462
 9849SOL    HW130446   6.944   6.671   6.454
 9849SOL    HW230447   6.995   6.826   6.454
 9850SOL     OW30448   3.708   5.963   2.764
 9850SOL    HW130449   3.725   5.884   2.705
 9850SOL    HW230450   3.782   6.029   2.754
 9851SOL     OW30451   5.361   1.433   5.221
 9851SOL    HW130452   5.430   1.373   5.179
 9851SOL    HW230453   5.282   1.441   5.159
 9852SOL     OW30454   4.932   1.863   3.653
 9852SOL    HW130455   4.921   1.767   3.680
 9852SOL    HW230456   4.844   1.900   3.625
 9853SOL     OW30457   6.138   4.004   2.728
 9853SOL    HW130458   6.073   4.017   2.803
 9853SOL    HW230459   6.092   4.024   2.641
 9854SOL     OW30460   5.416   5.265   4.005
 9854SOL    HW130461   5.366   5.277   4.091
 9854SOL    HW230462   5.419   5.167   3.982
 9855SOL     OW30463   1.438   3.518   1.675
 9855SOL    HW130464   1.356   3.571   1.696
 9855SOL    HW230465   1.464   3.532   1.580
 9856SOL     OW30466   3.903   3.035   0.518
 9856SOL    HW130467   3.845   3.081   0.450
 9856SOL    HW230468   3.999   3.058   0.500
 9857SOL     OW30469   5.987   3.239   3.142
 9857SOL    HW130470   5.919   3.188   3.194
 9857SOL    HW230471   5.972   3.223   3.044
 9858SOL     OW30472   5.371   0.821   1.845
 9858SOL    HW130473   5.460   0.829   1.799
 9858SOL    HW230474   5.322   0.741   1.810
 9859SOL     OW30475   6.204   0.508   2.400
 9859SOL    HW130476   6.263   0.588   2.405
 9859SOL    HW230477   6.250   0.436   2.347
 9860SOL     OW30478   0.412   1.228   2.261
 9860SOL    HW130479   0.468   1.222   2.344
 9860SOL    HW230480   0.449   1.299   2.201
 9861SOL     OW30481   3.922   5.839   4.375
 9861SOL    HW130482   3.846   5.781   4.404
 9861SOL    HW230483   3.902   5.934   4.400
 9862SOL     OW30484   1.447   2.325   0.731
 9862SOL    HW130485   1.396   2.331   0.645
 9862SOL    HW230486   1.497   2.239   0.734
 9863SOL     OW30487   3.675   0.250   2.748
 9863SOL    HW130488   3.774   0.248   2.737
 9863SOL    HW230489   3.639   0.157   2.745
 9864SOL     OW30490   5.012   5.991   2.554
 9864SOL    HW130491   4.993   5.893   2.545
 9864SOL    HW230492   5.083   6.017   2.489
 9865SOL     OW30493   0.392   0.335   3.862
 9865SOL    HW130494   0.390   0.434   3.847
 9865SOL    HW230495   0.445   0.292   3.788
 9866SOL     OW30496   4.856   3.868   4.045
 9866SOL    HW130497   4.823   3.956   4.010
 9866SOL    HW230498   4.953   3.875   4.065
 9867SOL     OW30499   4.872   1.057   0.382
 9867SOL    HW130500   4.865   1.134   0.445
 9867SOL    HW230501   4.857   1.089   0.289
 9868SOL     OW30502   6.691   4.677   6.994
 9868SOL    HW130503   6.742   4.620   6.930
 9868SOL    HW230504   6.664   4.763   6.949
 9869SOL     OW30505   1.812   4.203   2.968
 9869SOL    HW130506   1.829   4.300   2.949
 9869SOL    HW230507   1.719   4.179   2.938
 9870SOL     OW30508   4.903   4.951   2.752
 9870SOL    HW130509   4.854   5.038   2.757
 9870SOL    HW230510   4.837   4.876   2.758
 9871SOL     OW30511   2.289   0.853   5.819
 9871SOL    HW130512   2.245   0.799   5.748
 9871SOL    HW230513   2.366   0.904   5.780
 9872SOL     OW30514   2.996   4.859   3.363
 9872SOL    HW130515   2.970   4.841   3.458
 9872SOL    HW230516   3.095   4.865   3.356
 9873SOL     OW30517   1.363   3.084   0.417
 9873SOL    HW130518   1.273   3.061   0.454
 9873SOL    HW230519   1.353   3.159   0.351
 9874SOL     OW30520   0.815   3.185   3.555
 9874SOL    HW130521   0.870   3.139   3.625
 9874SOL    HW230522   0.796   3.121   3.481
 9875SOL     OW30523   0.455   0.678   2.626
 9875SOL    HW130524   0.396   0.759   2.626
 9875SOL    HW230525   0.405   0.601   2.586
 9876SOL     OW30526   6.673   6.808   2.478
 9876SOL    HW130527   6.721   6.810   2.391
 9876SOL    HW230528   6.598   6.742   2.475
 9877SOL     OW30529   3.235   6.663   2.903
 9877SOL    HW130530   3.264   6.753   2.934
 9877SOL    HW230531   3.205   6.669   2.808
 9878SOL     OW30532   1.371   5.974   5.685
 9878SOL    HW130533   1.426   6.026   5.749
 9878SOL    HW230534   1.323   5.901   5.733
 9879SOL     OW30535   4.098   5.464   5.313
 9879SOL    HW130536   4.123   5.373   5.347
 9879SOL    HW230537   4.178   5.523   5.314
 9880SOL     OW30538   1.032   1.956   5.851
 9880SOL    HW130539   1.067   1.902   5.774
 9880SOL    HW230540   1.107   2.004   5.896
 9881SOL     OW30541   0.747   2.444   5.825
 9881SOL    HW130542   0.654   2.453   5.791
 9881SOL    HW230543   0.805   2.404   5.754
 9882SOL     OW30544   1.071   2.227   4.046
 9882SOL    HW130545   1.132   2.288   4.096
 9882SOL    HW230546   1.124   2.153   4.004
 9883SOL     OW30547   1.629   0.712   2.072
 9883SOL    HW130548   1.716   0.731   2.027
 9883SOL    HW230549   1.555   0.714   2.004
 9884SOL     OW30550   4.016   0.491   4.091
 9884SOL    HW130551   3.951   0.555   4.132
 9884SOL    HW230552   4.082   0.462   4.160
 9885SOL     OW30553   5.651   4.857   4.621
 9885SOL    HW130554   5.746   4.829   4.604
 9885SOL    HW230555   5.650   4.952   4.651
 9886SOL     OW30556   1.174   5.008   2.878
 9886SOL    HW130557   1.265   5.016   2.836
 9886SOL    HW230558   1.104   5.023   2.809
 9887SOL     OW30559   3.334   1.277   0.181
 9887SOL    HW130560   3.385   1.351   0.137
 9887SOL    HW230561   3.315   1.301   0.276
 9888SOL     OW30562   6.937   4.189   0.340
 9888SOL    HW130563   6.975   4.105   0.379
 9888SOL    HW230564   6.971   4.268   0.391
 9889SOL     OW30565   6.109   4.636   0.536
 9889SOL    HW130566   6.084   4.613   0.442
 9889SOL    HW230567   6.050   4.587   0.600
 9890SOL     OW30568   1.244   2.896   1.405
 9890SOL    HW130569   1.182   2.914   1.328
 9890SOL    HW230570   1.266   2.798   1.407
 9891SOL     OW30571   5.616   2.591   0.026
 9891SOL    HW130572   5.542   2.654   0.046
 9891SOL    HW230573   5.692   2.640   7.008
 9892SOL     OW30574   6.661   4.619   0.237
 9892SOL    HW130575   6.640   4.693   0.301
 9892SOL    HW230576   6.674   4.657   0.145
 9893SOL     OW30577   2.088   1.204   1.197
 9893SOL    HW130578   2.075   1.267   1.273
 9893SOL    HW230579   2.065   1.251   1.111
 9894SOL     OW30580   0.834   1.879   0.493
 9894SOL    HW130581   0.869   1.828   0.572
 9894SOL    HW230582   0.766   1.945   0.524
 9895SOL     OW30583   5.502   3.389   5.222
 9895SOL    HW130584   5.557   3.324   5.170
 9895SOL    HW230585   5.487   3.354   5.314
 9896SOL     OW30586   6.945   0.109   0.102
 9896SOL    HW130587   6.858   0.120   0.053
 9896SOL    HW230588   6.927   0.105   0.200
 9897SOL     OW30589   5.749   5.104   3.086
 9897SOL    HW130590   5.777   5.061   3.001
 9897SOL    HW230591   5.660   5.068   3.114
 9898SOL     OW30592   3.174   5.771   5.780
 9898SOL    HW130593   3.265   5.783   5.819
 9898SOL    HW230594   3.182   5.721   5.693
 9899SOL     OW30595   0.369   5.425   0.309
 9899SOL    HW130596   0.287   5.371   0.287
 9899SOL    HW230597   0.365   5.456   0.404
 9900SOL     OW30598   2.057   4.316   3.404
 9900SOL    HW130599   1.986   4.307   3.334
 9900SOL    HW230600   2.050   4.406   3.447
 9901SOL     OW30601   2.736   2.523   5.498
 9901SOL    HW130602   2.768   2.429   5.502
 9901SOL    HW230603   2.644   2.529   5.537
 9902SOL     OW30604   2.321   4.503   6.641
 9902SOL    HW130605   2.250   4.454   6.591
 9902SOL    HW230606   2.406   4.499   6.590
 9903SOL     OW30607   5.268   1.506   3.412
 9903SOL    HW130608   5.287   1.451   3.330
 9903SOL    HW230609   5.343   1.570   3.427
 9904SOL     OW30610   6.969   3.669   6.925
 9904SOL    HW130611   7.019   3.640   6.843
 9904SOL    HW230612   7.023   3.649   7.006
 9905SOL     OW30613   4.272   1.420   0.527
 9905SOL    HW130614   4.261   1.497   0.591
 9905SOL    HW230615   4.230   1.444   0.439
 9906SOL     OW30616   3.716   2.968   2.828
 9906SOL    HW130617   3.814   2.988   2.827
 9906SOL    HW230618   3.680   2.975   2.735
 9907SOL     OW30619   7.015   0.751   2.171
 9907SOL    HW130620   0.034   0.829   2.125
 9907SOL    HW230621   0.056   0.675   2.176
 9908SOL     OW30622   4.709   2.635   3.069
 9908SOL    HW130623   4.678   2.593   2.984
 9908SOL    HW230624   4.780   2.704   3.049
 9909SOL     OW30625   2.816   6.355   4.024
 9909SOL    HW130626   2.742   6.342   3.959
 9909SOL    HW230627   2.878   6.426   3.991
 9910SOL     OW30628   0.973   5.016   2.667
 9910SOL    HW130629   1.021   4.961   2.598
 9910SOL    HW230630   0.907   4.958   2.715
 9911SOL     OW30631   3.929   6.679   1.931
 9911SOL    HW130632   3.908   6.686   2.029
 9911SOL    HW230633   3.877   6.748   1.881
 9912SOL     OW30634   4.923   1.894   0.248
 9912SOL    HW130635   4.945   1.798   0.263
 9912SOL    HW230636   4.984   1.932   0.178
 9913SOL     OW30637   5.840   2.814   7.004
 9913SOL    HW130638   5.936   2.837   7.012
 9913SOL    HW230639   5.791   2.846   0.060
 9914SOL     OW30640   0.631   2.488   4.701
 9914SOL    HW130641   0.619   2.450   4.609
 9914SOL    HW230642   0.591   2.579   4.705
 9915SOL     OW30643   4.929   1.104   3.534
 9915SOL    HW130644   4.881   1.128   3.618
 9915SOL    HW230645   4.923   1.005   3.519
 9916SOL     OW30646   2.243   2.611   2.131
 9916SOL    HW130647   2.201   2.700   2.148
 9916SOL    HW230648   2.337   2.625   2.099
 9917SOL     OW30649   6.952   4.512   5.886
 9917SOL    HW130650   7.012   4.495   5.808
 9917SOL    HW230651   6.872   4.564   5.856
 9918SOL     OW30652   4.104   1.296   3.149
 9918SOL    HW130653   4.143   1.342   3.070
 9918SOL    HW230654   4.174   1.282   3.219
 9919SOL     OW30655   6.079   6.628   1.647
 9919SOL    HW130656   6.039   6.654   1.734
 9919SOL    HW230657   6.093   6.710   1.591
 9920SOL     OW30658   4.739   1.579   2.804
 9920SOL    HW130659   4.755   1.673   2.835
 9920SOL    HW230660   4.809   1.555   2.736
 9921SOL     OW30661   4.277   5.267   6.136
 9921SOL    HW130662   4.186   5.307   6.138
 9921SOL    HW230663   4.330   5.299   6.214
 9922SOL     OW30664   0.942   5.828   0.591
 9922SOL    HW130665   0.955   5.772   0.509
 9922SOL    HW230666   1.000   5.910   0.585
 9923SOL     OW30667   4.687   5.027   0.108
 9923SOL    HW130668   4.622   4.957   0.140
 9923SOL    HW230669   4.780   4.991   0.115
 9924SOL     OW30670   0.176   3.100   4.886
 9924SOL    HW130671   0.099   3.155   4.852
 9924SOL    HW230672   0.181   3.108   4.985
 9925SOL     OW30673   5.094   2.540   4.153
 9925SOL    HW130674   5.059   2.525   4.245
 9925SOL    HW230675   5.131   2.633   4.146
 9926SOL     OW30676   2.267   3.868   0.006
 9926SOL    HW130677   2.265   3.774   6.998
 9926SOL    HW230678   2.196   3.921   6.985
 9927SOL     OW30679   5.964   0.138   2.772
 9927SOL    HW130680   5.944   0.041   2.756
 9927SOL    HW230681   5.919   0.167   2.857
 9928SOL     OW30682   5.141   4.859   1.348
 9928SOL    HW130683   5.207   4.916   1.300
 9928SOL    HW230684   5.114   4.903   1.433
 9929SOL     OW30685   1.996   5.616   5.152
 9929SOL    HW130686   2.055   5.542   5.183
 9929SOL    HW230687   1.972   5.602   5.056
 9930SOL     OW30688   6.856   0.123   4.763
 9930SOL    HW130689   6.772   0.097   4.716
 9930SOL    HW230690   6.935   0.100   4.705
 9931SOL     OW30691   1.342   3.977   5.119
 9931SOL    HW130692   1.398   4.040   5.172
 9931SOL    HW230693   1.340   3.888   5.165
 9932SOL     OW30694   1.123   6.543   6.436
 9932SOL    HW130695   1.143   6.503   6.525
 9932SOL    HW230696   1.088   6.636   6.449
 9933SOL     OW30697   1.612   5.638   2.425
 9933SOL    HW130698   1.557   5.705   2.375
 9933SOL    HW230699   1.573   5.625   2.516
 9934SOL     OW30700   6.012   2.014   5.414
 9934SOL    HW130701   6.011   1.927   5.366
 9934SOL    HW230702   5.954   2.079   5.366
 9935SOL     OW30703   2.321   1.045   6.889
 9935SOL    HW130704   2.415   1.030   6.919
 9935SOL    HW230705   2.320   1.098   6.804
 9936SOL     OW30706   0.662   4.638   4.661
 9936SOL    HW130707   0.760   4.651   4.649
 9936SOL    HW230708   0.615   4.726   4.651
 9937SOL     OW30709   6.655   1.902   5.740
 9937SOL    HW130710   6.627   1.935   5.830
 9937SOL    HW230711   6.691   1.809   5.749
 9938SOL     OW30712   6.827   6.018   2.747
 9938SOL    HW130713   6.736   6.042   2.714
 9938SOL    HW230714   6.879   6.101   2.767
 9939SOL     OW30715   3.390   2.749   1.229
 9939SOL    HW130716   3.433   2.662   1.250
 9939SOL    HW230717   3.293   2.735   1.210
 9940SOL     OW30718   6.731   0.737   1.261
 9940SOL    HW130719   6.730   0.643   1.228
 9940SOL    HW230720   6.823   0.761   1.293
 9941SOL     OW30721   2.996   4.042   5.661
 9941SOL    HW130722   3.005   3.949   5.628
 9941SOL    HW230723   2.917   4.086   5.617
 9942SOL     OW30724   2.224   5.544   2.553
 9942SOL    HW130725   2.302   5.598   2.521
 9942SOL    HW230726   2.256   5.476   2.619
 9943SOL     OW30727   0.808   5.694   5.790
 9943SOL    HW130728   0.727   5.637   5.802
 9943SOL    HW230729   0.780   5.789   5.779
 9944SOL     OW30730   1.506   4.245   6.977
 9944SOL    HW130731   1.409   4.243   7.002
 9944SOL    HW230732   1.548   4.157   6.998
 9945SOL     OW30733   0.133   5.354   0.194
 9945SOL    HW130734   0.079   5.427   0.150
 9945SOL    HW230735   0.082   5.269   0.192
 9946SOL     OW30736   5.130   0.690   5.006
 9946SOL    HW130737   5.080   0.669   5.090
 9946SOL    HW230738   5.082   0.762   4.956
 9947SOL     OW30739   6.228   4.912   5.330
 9947SOL    HW130740   6.275   4.835   5.373
 9947SOL    HW230741   6.173   4.959   5.399
 9948SOL     OW30742   4.797   4.204   4.820
 9948SOL    HW130743   4.717   4.263   4.831
 9948SOL    HW230744   4.817   4.193   4.723
 9949SOL     OW30745   5.894   4.823   3.131
 9949SOL    HW130746   5.986   4.835   3.168
 9949SOL    HW230747   5.831   4.882   3.181
 9950SOL     OW30748   4.477   6.118   5.124
 9950SOL    HW130749   4.477   6.060   5.206
 9950SOL    HW230750   4.556   6.095   5.068
 9951SOL     OW30751   5.518   2.534   3.052
 9951SOL    HW130752   5.423   2.539   3.020
 9951SOL    HW230753   5.520   2.539   3.151
 9952SOL     OW30754   6.780   4.394   0.740
 9952SOL    HW130755   6.851   4.329   0.710
 9952SOL    HW230756   6.718   4.349   0.804
 9953SOL     OW30757   6.145   2.022   3.626
 9953SOL    HW130758   6.177   2.031   3.532
 9953SOL    HW230759   6.100   2.107   3.654
 9954SOL     OW30760   5.958   6.951   5.264
 9954SOL    HW130761   5.862   6.928   5.250
 9954SOL    HW230762   5.983   6.933   5.359
 9955SOL     OW30763   6.798   4.320   4.205
 9955SOL    HW130764   6.720   4.318   4.142
 9955SOL    HW230765   6.836   4.412   4.209
 9956SOL     OW30766   2.184   6.430   2.215
 9956SOL    HW130767   2.101   6.391   2.255
 9956SOL    HW230768   2.171   6.529   2.203
 9957SOL     OW30769   6.444   5.163   3.594
 9957SOL    HW130770   6.443   5.085   3.657
 9957SOL    HW230771   6.465   5.131   3.501
 9958SOL     OW30772   2.874   4.111   1.121
 9958SOL    HW130773   2.969   4.079   1.123
 9958SOL    HW230774   2.871   4.202   1.080
 9959SOL     OW30775   3.979   3.410   6.196
 9959SOL    HW130776   3.992   3.482   6.128
 9959SOL    HW230777   3.922   3.444   6.271
 9960SOL     OW30778   6.717   1.199   2.419
 9960SOL    HW130779   6.743   1.259   2.494
 9960SOL    HW230780   6.679   1.255   2.345
 9961SOL     OW30781   1.832   5.678   4.134
 9961SOL    HW130782   1.889   5.638   4.206
 9961SOL    HW230783   1.839   5.621   4.052
 9962SOL     OW30784   4.696   6.115   4.956
 9962SOL    HW130785   4.788   6.078   4.946
 9962SOL    HW230786   4.681   6.187   4.889
 9963SOL     OW30787   3.424   1.481   0.929
 9963SOL    HW130788   3.326   1.498   0.920
 9963SOL    HW230789   3.439   1.396   0.980
 9964SOL     OW30790   4.135   5.697   4.578
 9964SOL    HW130791   4.068   5.732   4.513
 9964SOL    HW230792   4.143   5.598   4.567
 9965SOL     OW30793   4.197   0.324   0.035
 9965SOL    HW130794   4.249   0.337   0.119
 9965SOL    HW230795   4.157   0.232   0.035
 9966SOL     OW30796   0.651   5.642   2.180
 9966SOL    HW130797   0.566   5.652   2.233
 9966SOL    HW230798   0.724   5.693   2.224
 9967SOL     OW30799   1.493   5.427   1.706
 9967SOL    HW130800   1.576   5.466   1.665
 9967SOL    HW230801   1.418   5.433   1.641
 9968SOL     OW30802   3.902   3.793   2.120
 9968SOL    HW130803   3.967   3.855   2.076
 9968SOL    HW230804   3.842   3.753   2.050
 9969SOL     OW30805   1.478   3.699   2.240
 9969SOL    HW130806   1.489   3.723   2.337
 9969SOL    HW230807   1.397   3.744   2.203
 9970SOL     OW30808   5.652   4.411   1.922
 9970SOL    HW130809   5.612   4.333   1.873
 9970SOL    HW230810   5.618   4.412   2.016
 9971SOL     OW30811   2.264   4.293   0.643
 9971SOL    HW130812   2.216   4.205   0.649
 9971SOL    HW230813   2.353   4.286   0.690
 9972SOL     OW30814   6.907   4.858   2.487
 9972SOL    HW130815   6.841   4.899   2.425
 9972SOL    HW230816   6.977   4.810   2.434
 9973SOL     OW30817   5.864   1.176   4.311
 9973SOL    HW130818   5.865   1.140   4.217
 9973SOL    HW230819   5.934   1.130   4.364
 9974SOL     OW30820   1.747   0.710   3.822
 9974SOL    HW130821   1.812   0.726   3.896
 9974SOL    HW230822   1.656   0.740   3.850
 9975SOL     OW30823   0.184   2.511   0.032
 9975SOL    HW130824   0.195   2.573   6.979
 9975SOL    HW230825   0.106   2.541   0.088
 9976SOL     OW30826   1.352   6.957   5.168
 9976SOL    HW130827   1.260   6.955   5.207
 9976SOL    HW230828   1.400   0.013   5.201
 9977SOL     OW30829   6.038   4.558   4.896
 9977SOL    HW130830   6.112   4.541   4.832
 9977SOL    HW230831   6.062   4.521   4.986
 9978SOL     OW30832   0.109   2.061   3.901
 9978SOL    HW130833   0.197   2.014   3.888
 9978SOL    HW230834   0.104   2.138   3.837
 9979SOL     OW30835   6.286   3.309   4.559
 9979SOL    HW130836   6.330   3.221   4.576
 9979SOL    HW230837   6.336   3.358   4.487
 9980SOL     OW30838   3.722   0.751   6.560
 9980SOL    HW130839   3.707   0.717   6.652
 9980SOL    HW230840   3.634   0.764   6.514
 9981SOL     OW30841   2.922   1.908   4.239
 9981SOL    HW130842   2.985   1.958   4.180
 9981SOL    HW230843   2.907   1.816   4.200
 9982SOL     OW30844   6.839   6.039   3.933
 9982SOL    HW130845   6.936   6.015   3.925
 9982SOL    HW230846   6.818   6.115   3.872
 9983SOL     OW30847   6.921   1.520   2.076
 9983SOL    HW130848   6.916   1.484   1.982
 9983SOL    HW230849   7.014   1.551   2.094
 9984SOL     OW30850   2.726   1.892   6.736
 9984SOL    HW130851   2.719   1.817   6.802
 9984SOL    HW230852   2.640   1.899   6.684
 9985SOL     OW30853   1.390   1.038   2.039
 9985SOL    HW130854   1.296   1.009   2.026
 9985SOL    HW230855   1.445   1.011   1.959
 9986SOL     OW30856   5.623   3.947   5.037
 9986SOL    HW130857   5.714   3.975   5.006
 9986SOL    HW230858   5.632   3.884   5.114
 9987SOL     OW30859   6.781   4.009   5.884
 9987SOL    HW130860   6.748   4.096   5.921
 9987SOL    HW230861   6.871   4.023   5.843
 9988SOL     OW30862   6.965   0.075   5.429
 9988SOL    HW130863   6.980   0.160   5.479
 9988SOL    HW230864   6.912   0.012   5.486
 9989SOL     OW30865   0.858   3.172   5.005
 9989SOL    HW130866   0.797   3.184   4.927
 9989SOL    HW230867   0.829   3.233   5.079
 9990SOL     OW30868   1.068   5.126   3.120
 9990SOL    HW130869   0.979   5.126   3.076
 9990SOL    HW230870   1.136   5.083   3.060
 9991SOL     OW30871   3.157   1.910   3.919
 9991SOL    HW130872   3.169   1.983   3.987
 9991SOL    HW230873   3.067   1.918   3.877
 9992SOL     OW30874   6.238   5.730   6.017
 9992SOL    HW130875   6.156   5.701   5.967
 9992SOL    HW230876   6.212   5.761   6.108
 9993SOL     OW30877   1.106   1.598   2.146
 9993SOL    HW130878   1.153   1.510   2.154
 9993SOL    HW230879   1.089   1.618   2.049
 9994SOL     OW30880   6.153   4.835   3.268
 9994SOL    HW130881   6.228   4.880   3.220
 9994SOL    HW230882   6.099   4.903   3.318
 9995SOL     OW30883   5.810   0.531   4.471
 9995SOL    HW130884   5.728   0.476   4.454
 9995SOL    HW230885   5.868   0.530   4.389
 9996SOL     OW30886   3.219   4.393   6.907
 9996SOL    HW130887   3.250   4.311   6.859
 9996SOL    HW230888   3.132   4.424   6.867
 9997SOL     OW30889   2.546   0.185   5.391
 9997SOL    HW130890   2.596   0.175   5.305
 9997SOL    HW230891   2.519   0.095   5.425
 9998SOL     OW30892   5.731   5.835   5.592
 9998SOL    HW130893   5.651   5.804   5.541
 9998SOL    HW230894   5.720   5.931   5.619
 9999SOL     OW30895   6.736   2.437   5.219
 9999SOL    HW130896   6.753   2.535   5.216
 9999SOL    HW230897   6.762   2.396   5.132
10000SOL     OW30898   0.472   2.770   6.542
10000SOL    HW130899   0.544   2.762   6.474
10000SOL    HW230900   0.501   2.725   6.627
10001SOL     OW30901   4.092   0.445   2.563
10001SOL    HW130902   4.048   0.528   2.529
10001SOL    HW230903   4.141   0.466   2.648
10002SOL     OW30904   0.824   0.742   1.883
10002SOL    HW130905   0.876   0.661   1.856
10002SOL    HW230906   0.785   0.728   1.974
10003SOL     OW30907   3.878   2.105   3.579
10003SOL    HW130908   3.798   2.103   3.638
10003SOL    HW230909   3.851   2.138   3.488
10004SOL     OW30910   6.798   1.965   2.948
10004SOL    HW130911   6.792   1.937   3.044
10004SOL    HW230912   6.717   1.934   2.899
10005SOL     OW30913   4.792   6.593   4.120
10005SOL    HW130914   4.711   6.622   4.069
10005SOL    HW230915   4.831   6.671   4.168
10006SOL     OW30916   3.554   6.497   4.804
10006SOL    HW130917   3.582   6.515   4.709
10006SOL    HW230918   3.560   6.399   4.821
10007SOL     OW30919   0.020   3.651   3.775
10007SOL    HW130920   6.954   3.682   3.746
10007SOL    HW230921   0.010   3.588   3.853
10008SOL     OW30922   2.749   6.961   4.045
10008SOL    HW130923   2.830   7.005   4.007
10008SOL    HW230924   2.716   6.891   3.982
10009SOL     OW30925   1.363   4.349   1.666
10009SOL    HW130926   1.300   4.310   1.733
10009SOL    HW230927   1.458   4.331   1.694
10010SOL     OW30928   0.694   1.478   6.084
10010SOL    HW130929   0.664   1.501   5.991
10010SOL    HW230930   0.786   1.515   6.099
10011SOL     OW30931   0.147   6.632   5.537
10011SOL    HW130932   0.210   6.606   5.464
10011SOL    HW230933   0.056   6.596   5.517
10012SOL     OW30934   6.048   1.255   3.640
10012SOL    HW130935   6.017   1.161   3.651
10012SOL    HW230936   5.970   1.317   3.646
10013SOL     OW30937   0.747   0.923   2.602
10013SOL    HW130938   0.714   0.838   2.561
10013SOL    HW230939   0.770   0.906   2.698
10014SOL     OW30940   0.791   4.610   6.227
10014SOL    HW130941   0.833   4.571   6.310
10014SOL    HW230942   0.814   4.553   6.149
10015SOL     OW30943   1.876   4.184   0.415
10015SOL    HW130944   1.863   4.085   0.411
10015SOL    HW230945   1.960   4.209   0.366
10016SOL     OW30946   2.545   0.974   5.722
10016SOL    HW130947   2.494   1.048   5.765
10016SOL    HW230948   2.615   1.012   5.661
10017SOL     OW30949   1.367   2.256   4.578
10017SOL    HW130950   1.376   2.355   4.570
10017SOL    HW230951   1.271   2.230   4.571
10018SOL     OW30952   5.077   6.957   6.004
10018SOL    HW130953   5.172   6.956   5.972
10018SOL    HW230954   5.067   6.896   6.083
10019SOL     OW30955   0.653   1.263   2.917
10019SOL    HW130956   0.729   1.297   2.861
10019SOL    HW230957   0.688   1.235   3.006
10020SOL     OW30958   0.277   3.021   1.160
10020SOL    HW130959   0.316   3.099   1.111
10020SOL    HW230960   0.221   2.967   1.097
10021SOL     OW30961   0.377   3.755   0.469
10021SOL    HW130962   0.447   3.704   0.520
10021SOL    HW230963   0.331   3.694   0.405
10022SOL     OW30964   1.505   1.783   6.322
10022SOL    HW130965   1.515   1.875   6.284
10022SOL    HW230966   1.539   1.716   6.255
10023SOL     OW30967   0.174   3.854   0.628
10023SOL    HW130968   0.245   3.843   0.558
10023SOL    HW230969   0.217   3.884   0.713
10024SOL     OW30970   1.670   4.692   3.825
10024SOL    HW130971   1.668   4.791   3.835
10024SOL    HW230972   1.625   4.650   3.904
10025SOL     OW30973   1.361   1.028   0.795
10025SOL    HW130974   1.366   0.937   0.836
10025SOL    HW230975   1.450   1.051   0.755
10026SOL     OW30976   6.808   0.419   3.323
10026SOL    HW130977   6.766   0.331   3.303
10026SOL    HW230978   6.866   0.410   3.404
10027SOL     OW30979   4.692   2.589   5.268
10027SOL    HW130980   4.791   2.573   5.269
10027SOL    HW230981   4.652   2.546   5.187
10028SOL     OW30982   1.900   0.742   0.269
10028SOL    HW130983   1.904   0.646   0.241
10028SOL    HW230984   1.963   0.796   0.213
10029SOL     OW30985   5.732   1.686   3.517
10029SOL    HW130986   5.808   1.655   3.460
10029SOL    HW230987   5.746   1.782   3.541
10030SOL     OW30988   1.924   0.373   3.159
10030SOL    HW130989   1.905   0.294   3.218
10030SOL    HW230990   1.851   0.440   3.170
10031SOL     OW30991   6.184   4.796   4.500
10031SOL    HW130992   6.276   4.765   4.477
10031SOL    HW230993   6.164   4.880   4.448
10032SOL     OW30994   2.838   1.601   4.793
10032SOL    HW130995   2.916   1.591   4.854
10032SOL    HW230996   2.832   1.522   4.733
10033SOL     OW30997   5.443   2.677   4.276
10033SOL    HW130998   5.462   2.586   4.314
10033SOL    HW230999   5.529   2.715   4.240
10034SOL     OW31000   5.536   0.683   5.774
10034SOL    HW131001   5.475   0.726   5.841
10034SOL    HW231002   5.537   0.585   5.789
10035SOL     OW31003   0.263   5.810   1.805
10035SOL    HW131004   0.187   5.786   1.865
10035SOL    HW231005   0.259   5.908   1.784
10036SOL     OW31006   6.831   0.818   0.188
10036SOL    HW131007   6.859   0.909   0.157
10036SOL    HW231008   6.880   0.794   0.271
10037SOL     OW31009   1.120   6.794   0.306
10037SOL    HW131010   1.152   6.707   0.345
10037SOL    HW231011   1.027   6.812   0.339
10038SOL     OW31012   6.379   0.462   1.722
10038SOL    HW131013   6.288   0.450   1.683
10038SOL    HW231014   6.440   0.502   1.653
10039SOL     OW31015   3.273   0.554   3.627
10039SOL    HW131016   3.196   0.585   3.572
10039SOL    HW231017   3.342   0.626   3.632
10040SOL     OW31018   0.782   2.797   1.176
10040SOL    HW131019   0.789   2.749   1.089
10040SOL    HW231020   0.701   2.856   1.174
10041SOL     OW31021   2.301   5.859   0.065
10041SOL    HW131022   2.295   5.835   6.993
10041SOL    HW231023   2.209   5.858   0.105
10042SOL     OW31024   5.868   3.137   2.624
10042SOL    HW131025   5.809   3.057   2.630
10042SOL    HW231026   5.905   3.145   2.532
10043SOL     OW31027   0.614   1.853   4.970
10043SOL    HW131028   0.614   1.829   4.873
10043SOL    HW231029   0.613   1.953   4.979
10044SOL     OW31030   2.991   1.665   5.907
10044SOL    HW131031   2.988   1.637   5.812
10044SOL    HW231032   2.902   1.652   5.950
10045SOL     OW31033   3.236   1.208   0.810
10045SOL    HW131034   3.289   1.155   0.743
10045SOL    HW231035   3.258   1.176   0.902
10046SOL     OW31036   1.485   5.589   0.844
10046SOL    HW131037   1.474   5.668   0.782
10046SOL    HW231038   1.441   5.509   0.803
10047SOL     OW31039   0.834   3.111   1.110
10047SOL    HW131040   0.743   3.132   1.075
10047SOL    HW231041   0.836   3.128   1.209
10048SOL     OW31042   6.005   5.011   3.396
10048SOL    HW131043   5.916   5.018   3.442
10048SOL    HW231044   6.070   5.073   3.439
10049SOL     OW31045   6.903   0.675   5.182
10049SOL    HW131046   6.999   0.649   5.168
10049SOL    HW231047   6.882   0.672   5.280
10050SOL     OW31048   6.991   3.140   6.882
10050SOL    HW131049   0.041   3.082   6.848
10050SOL    HW231050   6.943   3.092   6.956
10051SOL     OW31051   2.242   2.791   3.776
10051SOL    HW131052   2.212   2.847   3.699
10051SOL    HW231053   2.183   2.808   3.855
10052SOL     OW31054   1.058   6.565   3.321
10052SOL    HW131055   1.071   6.539   3.225
10052SOL    HW231056   1.147   6.565   3.367
10053SOL     OW31057   5.887   5.147   5.024
10053SOL    HW131058   5.897   5.169   5.121
10053SOL    HW231059   5.960   5.085   4.996
10054SOL     OW31060   6.629   3.883   4.938
10054SOL    HW131061   6.634   3.980   4.960
10054SOL    HW231062   6.667   3.829   5.013
10055SOL     OW31063   0.960   1.921   0.253
10055SOL    HW131064   0.900   1.985   0.206
10055SOL    HW231065   0.917   1.891   0.338
10056SOL     OW31066   6.101   2.297   3.560
10056SOL    HW131067   6.066   2.332   3.647
10056SOL    HW231068   6.183   2.348   3.535
10057SOL     OW31069   5.820   5.175   5.312
10057SOL    HW131070   5.837   5.223   5.398
10057SOL    HW231071   5.775   5.088   5.331
10058SOL     OW31072   0.259   3.409   5.068
10058SOL    HW131073   0.328   3.426   5.139
10058SOL    HW231074   0.197   3.338   5.099
10059SOL     OW31075   6.072   0.899   0.058
10059SOL    HW131076   6.090   0.848   6.999
10059SOL    HW231077   6.156   0.905   0.112
10060SOL     OW31078   2.660   1.269   1.719
10060SOL    HW131079   2.635   1.230   1.630
10060SOL    HW231080   2.696   1.362   1.706
10061SOL     OW31081   4.294   0.055   2.739
10061SOL    HW131082   4.201   0.019   2.746
10061SOL    HW231083   4.357   7.019   2.787
10062SOL     OW31084   0.472   0.311   4.885
10062SOL    HW131085   0.540   0.238   4.898
10062SOL    HW231086   0.381   0.274   4.900
10063SOL     OW31087   2.303   2.360   4.956
10063SOL    HW131088   2.373   2.430   4.944
10063SOL    HW231089   2.317   2.288   4.888
10064SOL     OW31090   2.736   6.894   0.439
10064SOL    HW131091   2.757   6.853   0.528
10064SOL    HW231092   2.754   6.993   0.443
10065SOL     OW31093   0.474   2.247   1.707
10065SOL    HW131094   0.526   2.191   1.771
10065SOL    HW231095   0.416   2.188   1.651
10066SOL     OW31096   6.205   3.902   3.899
10066SOL    HW131097   6.255   3.891   3.813
10066SOL    HW231098   6.202   3.814   3.947
10067SOL     OW31099   6.754   3.220   5.058
10067SOL    HW131100   6.804   3.134   5.052
10067SOL    HW231101   6.771   3.263   5.147
10068SOL     OW31102   1.777   3.123   3.211
10068SOL    HW131103   1.680   3.101   3.209
10068SOL    HW231104   1.819   3.095   3.124
10069SOL     OW31105   2.931   4.506   0.314
10069SOL    HW131106   2.853   4.461   0.357
10069SOL    HW231107   2.900   4.564   0.239
10070SOL     OW31108   4.249   6.634   6.436
10070SOL    HW131109   4.260   6.626   6.535
10070SOL    HW231110   4.171   6.579   6.406
10071SOL     OW31111   5.586   0.307   4.445
10071SOL    HW131112   5.501   0.346   4.410
10071SOL    HW231113   5.566   0.248   4.523
10072SOL     OW31114   6.368   3.261   1.208
10072SOL    HW131115   6.393   3.179   1.260
10072SOL    HW231116   6.371   3.341   1.269
10073SOL     OW31117   5.346   4.476   5.260
10073SOL    HW131118   5.369   4.411   5.332
10073SOL    HW231119   5.400   4.455   5.178
10074SOL     OW31120   1.870   5.625   0.519
10074SOL    HW131121   1.851   5.673   0.605
10074SOL    HW231122   1.897   5.531   0.539
10075SOL     OW31123   1.596   3.272   2.134
10075SOL    HW131124   1.682   3.236   2.169
10075SOL    HW231125   1.609   3.366   2.102
10076SOL     OW31126   5.170   4.923   4.646
10076SOL    HW131127   5.078   4.913   4.684
10076SOL    HW231128   5.197   5.019   4.649
10077SOL     OW31129   5.241   3.754   6.273
10077SOL    HW131130   5.204   3.663   6.293
10077SOL    HW231131   5.323   3.770   6.328
10078SOL     OW31132   6.363   5.303   5.346
10078SOL    HW131133   6.433   5.242   5.310
10078SOL    HW231134   6.275   5.282   5.303
10079SOL     OW31135   5.249   3.351   4.056
10079SOL    HW131136   5.248   3.442   4.015
10079SOL    HW231137   5.227   3.357   4.153
10080SOL     OW31138   5.282   1.474   6.012
10080SOL    HW131139   5.262   1.391   5.961
10080SOL    HW231140   5.248   1.464   6.106
10081SOL     OW31141   1.315   4.680   0.742
10081SOL    HW131142   1.276   4.643   0.658
10081SOL    HW231143   1.401   4.727   0.720
10082SOL     OW31144   0.976   4.889   1.605
10082SOL    HW131145   1.059   4.861   1.653
10082SOL    HW231146   0.896   4.850   1.652
10083SOL     OW31147   3.064   5.868   2.684
10083SOL    HW131148   2.992   5.900   2.622
10083SOL    HW231149   3.066   5.927   2.765
10084SOL     OW31150   0.857   1.560   4.678
10084SOL    HW131151   0.761   1.582   4.695
10084SOL    HW231152   0.874   1.465   4.705
10085SOL     OW31153   5.050   0.256   0.698
10085SOL    HW131154   5.020   0.181   0.756
10085SOL    HW231155   5.096   0.220   0.617
10086SOL     OW31156   5.247   6.800   3.521
10086SOL    HW131157   5.245   6.878   3.584
10086SOL    HW231158   5.173   6.737   3.544
10087SOL     OW31159   1.134   6.155   5.100
10087SOL    HW131160   1.051   6.124   5.054
10087SOL    HW231161   1.145   6.253   5.088
10088SOL     OW31162   6.773   3.068   1.749
10088SOL    HW131163   6.812   3.072   1.657
10088SOL    HW231164   6.821   3.133   1.808
10089SOL     OW31165   3.268   0.787   1.042
10089SOL    HW131166   3.202   0.718   1.072
10089SOL    HW231167   3.347   0.787   1.103
10090SOL     OW31168   2.276   6.342   3.368
10090SOL    HW131169   2.263   6.428   3.320
10090SOL    HW231170   2.274   6.266   3.303
10091SOL     OW31171   6.123   4.912   5.058
10091SOL    HW131172   6.178   4.863   4.990
10091SOL    HW231173   6.167   4.907   5.147
10092SOL     OW31174   0.845   2.673   3.778
10092SOL    HW131175   0.908   2.596   3.772
10092SOL    HW231176   0.787   2.675   3.697
10093SOL     OW31177   4.848   4.364   6.147
10093SOL    HW131178   4.885   4.309   6.221
10093SOL    HW231179   4.914   4.369   6.072
10094SOL     OW31180   3.945   2.333   1.377
10094SOL    HW131181   3.907   2.406   1.320
10094SOL    HW231182   3.893   2.326   1.462
10095SOL     OW31183   4.367   3.164   5.347
10095SOL    HW131184   4.366   3.231   5.421
10095SOL    HW231185   4.300   3.190   5.277
10096SOL     OW31186   6.591   3.686   2.092
10096SOL    HW131187   6.501   3.720   2.118
10096SOL    HW231188   6.632   3.748   2.025
10097SOL     OW31189   0.399   1.866   0.878
10097SOL    HW131190   0.419   1.849   0.782
10097SOL    HW231191   0.356   1.785   0.918
10098SOL     OW31192   2.938   5.392   4.419
10098SOL    HW131193   3.010   5.457   4.443
10098SOL    HW231194   2.980   5.304   4.395
10099SOL     OW31195   0.165   5.128   2.308
10099SOL    HW131196   0.221   5.046   2.316
10099SOL    HW231197   0.085   5.109   2.251
10100SOL     OW31198   5.344   4.492   3.956
10100SOL    HW131199   5.248   4.496   3.926
10100SOL    HW231200   5.358   4.558   4.030
10101SOL     OW31201   6.858   3.236   0.487
10101SOL    HW131202   6.856   3.170   0.562
10101SOL    HW231203   6.808   3.318   0.514
10102SOL     OW31204   6.809   5.455   3.354
10102SOL    HW131205   6.727   5.419   3.309
10102SOL    HW231206   6.785   5.537   3.405
10103SOL     OW31207   0.411   5.864   6.747
10103SOL    HW131208   0.476   5.854   6.671
10103SOL    HW231209   0.431   5.795   6.817
10104SOL     OW31210   2.629   0.487   4.582
10104SOL    HW131211   2.569   0.556   4.623
10104SOL    HW231212   2.628   0.404   4.639
10105SOL     OW31213   2.826   1.363   5.033
10105SOL    HW131214   2.776   1.448   5.013
10105SOL    HW231215   2.910   1.360   4.979
10106SOL     OW31216   5.506   4.474   1.353
10106SOL    HW131217   5.565   4.395   1.368
10106SOL    HW231218   5.454   4.494   1.436
10107SOL     OW31219   5.126   5.233   0.410
10107SOL    HW131220   5.107   5.290   0.490
10107SOL    HW231221   5.069   5.151   0.413
10108SOL     OW31222   1.871   2.570   5.681
10108SOL    HW131223   1.943   2.550   5.615
10108SOL    HW231224   1.782   2.546   5.641
10109SOL     OW31225   0.980   2.525   1.550
10109SOL    HW131226   0.980   2.607   1.492
10109SOL    HW231227   1.021   2.546   1.638
10110SOL     OW31228   5.858   5.394   2.571
10110SOL    HW131229   5.776   5.418   2.623
10110SOL    HW231230   5.916   5.334   2.626
10111SOL     OW31231   0.021   2.913   2.126
10111SOL    HW131232   0.016   2.850   2.203
10111SOL    HW231233   0.109   2.904   2.080
10112SOL     OW31234   6.844   2.839   3.349
10112SOL    HW131235   6.939   2.862   3.328
10112SOL    HW231236   6.785   2.864   3.273
10113SOL     OW31237   6.271   0.310   6.576
10113SOL    HW131238   6.228   0.249   6.510
10113SOL    HW231239   6.222   0.398   6.577
10114SOL     OW31240   6.174   2.863   1.899
10114SOL    HW131241   6.074   2.853   1.901
10114SOL    HW231242   6.216   2.774   1.883
10115SOL     OW31243   3.635   2.597   5.910
10115SOL    HW131244   3.579   2.539   5.969
10115SOL    HW231245   3.629   2.692   5.940
10116SOL     OW31246   6.733   0.291   5.558
10116SOL    HW131247   6.811   0.311   5.498
10116SOL    HW231248   6.755   0.316   5.652
10117SOL     OW31249   6.419   4.290   3.199
10117SOL    HW131250   6.372   4.319   3.283
10117SOL    HW231251   6.355   4.298   3.122
10118SOL     OW31252   4.143   5.410   3.652
10118SOL    HW131253   4.062   5.352   3.659
10118SOL    HW231254   4.225   5.352   3.644
10119SOL     OW31255   6.548   6.091   6.757
10119SOL    HW131256   6.469   6.153   6.763
10119SOL    HW231257   6.563   6.066   6.661
10120SOL     OW31258   2.461   2.588   3.337
10120SOL    HW131259   2.475   2.496   3.375
10120SOL    HW231260   2.452   2.582   3.237
10121SOL     OW31261   0.324   5.533   1.003
10121SOL    HW131262   0.244   5.478   1.029
10121SOL    HW231263   0.353   5.507   0.910
10122SOL     OW31264   1.872   0.154   3.352
10122SOL    HW131265   1.776   0.156   3.379
10122SOL    HW231266   1.900   0.060   3.331
10123SOL     OW31267   6.746   5.617   6.748
10123SOL    HW131268   6.771   5.703   6.702
10123SOL    HW231269   6.706   5.554   6.681
10124SOL     OW31270   2.583   5.418   2.536
10124SOL    HW131271   2.648   5.369   2.595
10124SOL    HW231272   2.612   5.409   2.441
10125SOL     OW31273   1.094   0.930   4.848
10125SOL    HW131274   1.042   0.919   4.764
10125SOL    HW231275   1.092   0.845   4.901
10126SOL     OW31276   6.677   6.508   5.933
10126SOL    HW131277   6.713   6.600   5.949
10126SOL    HW231278   6.640   6.472   6.019
10127SOL     OW31279   2.751   6.825   6.256
10127SOL    HW131280   2.803   6.878   6.323
10127SOL    HW231281   2.728   6.883   6.178
10128SOL     OW31282   2.028   2.729   0.333
10128SOL    HW131283   2.064   2.818   0.360
10128SOL    HW231284   2.096   2.658   0.353
10129SOL     OW31285   6.079   2.185   4.960
10129SOL    HW131286   6.123   2.219   5.042
10129SOL    HW231287   5.990   2.230   4.949
10130SOL     OW31288   0.348   1.542   4.419
10130SOL    HW131289   0.385   1.634   4.402
10130SOL    HW231290   0.403   1.475   4.370
10131SOL     OW31291   2.190   6.592   4.661
10131SOL    HW131292   2.194   6.684   4.622
10131SOL    HW231293   2.253   6.532   4.612
10132SOL     OW31294   5.347   6.885   1.996
10132SOL    HW131295   5.376   6.934   2.079
10132SOL    HW231296   5.324   6.791   2.020
10133SOL     OW31297   5.454   6.190   0.887
10133SOL    HW131298   5.472   6.211   0.983
10133SOL    HW231299   5.528   6.133   0.850
10134SOL     OW31300   6.704   0.190   3.231
10134SOL    HW131301   6.625   0.143   3.191
10134SOL    HW231302   6.788   0.156   3.188
10135SOL     OW31303   6.019   0.012   3.135
10135SOL    HW131304   6.094   0.074   3.110
10135SOL    HW231305   6.048   6.942   3.120
10136SOL     OW31306   4.606   1.091   3.464
10136SOL    HW131307   4.642   1.178   3.497
10136SOL    HW231308   4.530   1.062   3.523
10137SOL     OW31309   6.943   4.954   5.035
10137SOL    HW131310   6.967   4.857   5.034
10137SOL    HW231311   6.843   4.963   5.033
10138SOL     OW31312   6.799   2.846   2.010
10138SOL    HW131313   6.757   2.931   1.980
10138SOL    HW231314   6.887   2.865   2.053
10139SOL     OW31315   3.300   2.815   6.729
10139SOL    HW131316   3.379   2.854   6.776
10139SOL    HW231317   3.244   2.889   6.691
10140SOL     OW31318   1.085   6.038   5.340
10140SOL    HW131319   1.069   6.085   5.254
10140SOL    HW231320   1.178   6.001   5.341
10141SOL     OW31321   1.870   2.601   4.343
10141SOL    HW131322   1.787   2.562   4.303
10141SOL    HW231323   1.884   2.563   4.435
10142SOL     OW31324   4.075   6.246   3.170
10142SOL    HW131325   4.129   6.316   3.218
10142SOL    HW231326   4.034   6.185   3.237
10143SOL     OW31327   5.990   2.734   5.778
10143SOL    HW131328   6.046   2.741   5.696
10143SOL    HW231329   5.978   2.637   5.802
10144SOL     OW31330   3.493   6.876   0.767
10144SOL    HW131331   3.516   6.932   0.846
10144SOL    HW231332   3.488   6.933   0.685
10145SOL     OW31333   6.351   6.997   6.161
10145SOL    HW131334   6.403   0.037   6.106
10145SOL    HW231335   6.405   6.914   6.174
10146SOL     OW31336   1.365   2.983   5.193
10146SOL    HW131337   1.268   2.982   5.167
10146SOL    HW231338   1.373   2.962   5.291
10147SOL     OW31339   4.108   5.760   5.530
10147SOL    HW131340   4.138   5.757   5.625
10147SOL    HW231341   4.186   5.742   5.470
10148SOL     OW31342   0.773   4.345   0.276
10148SOL    HW131343   0.751   4.264   0.331
10148SOL    HW231344   0.756   4.428   0.331
10149SOL     OW31345   4.052   3.338   1.414
10149SOL    HW131346   4.036   3.434   1.391
10149SOL    HW231347   3.987   3.281   1.363
10150SOL     OW31348   4.566   4.287   1.041
10150SOL    HW131349   4.625   4.222   0.994
10150SOL    HW231350   4.471   4.268   1.020
10151SOL     OW31351   6.617   1.122   6.201
10151SOL    HW131352   6.703   1.172   6.210
10151SOL    HW231353   6.607   1.057   6.277
10152SOL     OW31354   3.625   6.751   2.829
10152SOL    HW131355   3.562   6.700   2.888
10152SOL    HW231356   3.714   6.706   2.830
10153SOL     OW31357   5.042   4.020   1.892
10153SOL    HW131358   5.055   3.993   1.796
10153SOL    HW231359   5.095   4.102   1.910
10154SOL     OW31360   3.722   4.968   5.548
10154SOL    HW131361   3.814   5.006   5.537
10154SOL    HW231362   3.670   4.983   5.465
10155SOL     OW31363   4.135   1.546   4.142
10155SOL    HW131364   4.216   1.500   4.107
10155SOL    HW231365   4.121   1.632   4.094
10156SOL     OW31366   4.161   1.678   6.282
10156SOL    HW131367   4.132   1.608   6.346
10156SOL    HW231368   4.139   1.650   6.189
10157SOL     OW31369   0.129   4.457   1.325
10157SOL    HW131370   0.207   4.456   1.388
10157SOL    HW231371   0.085   4.367   1.326
10158SOL     OW31372   5.906   5.211   6.808
10158SOL    HW131373   5.901   5.117   6.773
10158SOL    HW231374   5.822   5.233   6.856
10159SOL     OW31375   3.173   2.862   1.963
10159SOL    HW131376   3.229   2.944   1.951
10159SOL    HW231377   3.096   2.883   2.024
10160SOL     OW31378   6.910   4.482   2.481
10160SOL    HW131379   6.922   4.442   2.572
10160SOL    HW231380   6.983   4.548   2.465
10161SOL     OW31381   5.470   3.279   5.455
10161SOL    HW131382   5.506   3.213   5.522
10161SOL    HW231383   5.374   3.297   5.476
10162SOL     OW31384   1.653   2.771   1.992
10162SOL    HW131385   1.590   2.697   2.016
10162SOL    HW231386   1.602   2.854   1.971
10163SOL     OW31387   2.453   5.329   4.926
10163SOL    HW131388   2.462   5.336   4.827
10163SOL    HW231389   2.432   5.234   4.951
10164SOL     OW31390   0.123   1.130   3.646
10164SOL    HW131391   0.219   1.150   3.662
10164SOL    HW231392   0.067   1.196   3.696
10165SOL     OW31393   0.893   3.606   4.399
10165SOL    HW131394   0.831   3.683   4.384
10165SOL    HW231395   0.984   3.628   4.363
10166SOL     OW31396   2.425   6.405   2.478
10166SOL    HW131397   2.430   6.483   2.540
10166SOL    HW231398   2.508   6.401   2.423
10167SOL     OW31399   2.489   2.303   6.993
10167SOL    HW131400   2.578   2.315   6.949
10167SOL    HW231401   2.469   2.205   7.000
10168SOL     OW31402   6.797   0.300   6.740
10168SOL    HW131403   6.769   0.266   6.830
10168SOL    HW231404   6.864   0.374   6.751
10169SOL     OW31405   5.147   4.790   3.600
10169SOL    HW131406   5.058   4.746   3.585
10169SOL    HW231407   5.198   4.791   3.514
10170SOL     OW31408   5.260   6.166   0.240
10170SOL    HW131409   5.315   6.151   0.322
10170SOL    HW231410   5.166   6.137   0.257
10171SOL     OW31411   2.097   4.583   5.172
10171SOL    HW131412   2.129   4.502   5.121
10171SOL    HW231413   2.120   4.665   5.121
10172SOL     OW31414   6.587   0.858   3.148
10172SOL    HW131415   6.528   0.936   3.127
10172SOL    HW231416   6.547   0.775   3.111
10173SOL     OW31417   3.820   3.443   5.024
10173SOL    HW131418   3.751   3.432   4.953
10173SOL    HW231419   3.883   3.365   5.021
10174SOL     OW31420   4.350   5.293   0.977
10174SOL    HW131421   4.340   5.252   1.067
10174SOL    HW231422   4.393   5.227   0.915
10175SOL     OW31423   0.147   6.861   4.552
10175SOL    HW131424   0.056   6.853   4.593
10175SOL    HW231425   0.217   6.845   4.622
10176SOL     OW31426   7.018   0.481   4.889
10176SOL    HW131427   0.039   0.458   4.803
10176SOL    HW231428   6.972   0.569   4.880
10177SOL     OW31429   2.312   0.729   4.357
10177SOL    HW131430   2.256   0.751   4.437
10177SOL    HW231431   2.404   0.704   4.386
10178SOL     OW31432   0.505   1.641   1.231
10178SOL    HW131433   0.489   1.588   1.147
10178SOL    HW231434   0.576   1.596   1.286
10179SOL     OW31435   0.590   4.928   0.362
10179SOL    HW131436   0.624   4.908   0.270
10179SOL    HW231437   0.665   4.965   0.418
10180SOL     OW31438   3.956   0.113   6.500
10180SOL    HW131439   3.892   0.037   6.495
10180SOL    HW231440   4.015   0.102   6.581
10181SOL     OW31441   6.748   3.552   3.204
10181SOL    HW131442   6.798   3.465   3.195
10181SOL    HW231443   6.768   3.591   3.294
10182SOL     OW31444   4.053   0.952   1.153
10182SOL    HW131445   3.996   0.894   1.095
10182SOL    HW231446   4.019   1.046   1.151
10183SOL     OW31447   4.564   6.712   5.598
10183SOL    HW131448   4.547   6.657   5.680
10183SOL    HW231449   4.628   6.786   5.620
10184SOL     OW31450   5.138   1.532   5.698
10184SOL    HW131451   5.152   1.481   5.613
10184SOL    HW231452   5.217   1.517   5.758
10185SOL     OW31453   3.284   5.267   1.206
10185SOL    HW131454   3.343   5.256   1.285
10185SOL    HW231455   3.336   5.308   1.130
10186SOL     OW31456   3.430   3.319   6.368
10186SOL    HW131457   3.508   3.337   6.309
10186SOL    HW231458   3.383   3.404   6.390
10187SOL     OW31459   1.856   4.312   5.753
10187SOL    HW131460   1.860   4.272   5.661
10187SOL    HW231461   1.762   4.314   5.784
10188SOL     OW31462   3.123   6.985   6.102
10188SOL    HW131463   3.182   0.032   6.064
10188SOL    HW231464   3.075   6.939   6.028
10189SOL     OW31465   1.995   1.137   4.805
10189SOL    HW131466   1.909   1.086   4.818
10189SOL    HW231467   1.975   1.235   4.806
10190SOL     OW31468   4.327   4.360   0.709
10190SOL    HW131469   4.364   4.442   0.666
10190SOL    HW231470   4.235   4.342   0.675
10191SOL     OW31471   5.576   0.456   6.984
10191SOL    HW131472   5.641   0.437   6.911
10191SOL    HW231473   5.624   0.466   0.046
10192SOL     OW31474   2.189   0.953   4.777
10192SOL    HW131475   2.131   1.034   4.782
10192SOL    HW231476   2.168   0.901   4.694
10193SOL     OW31477   3.813   3.295   3.436
10193SOL    HW131478   3.779   3.331   3.349
10193SOL    HW231479   3.891   3.349   3.466
10194SOL     OW31480   3.281   0.327   3.095
10194SOL    HW131481   3.220   0.405   3.085
10194SOL    HW231482   3.370   0.349   3.055
10195SOL     OW31483   5.070   0.618   2.011
10195SOL    HW131484   5.061   0.616   1.912
10195SOL    HW231485   5.086   0.525   2.045
10196SOL     OW31486   5.191   3.419   4.701
10196SOL    HW131487   5.093   3.402   4.689
10196SOL    HW231488   5.238   3.411   4.613
10197SOL     OW31489   5.318   1.447   2.551
10197SOL    HW131490   5.382   1.517   2.520
10197SOL    HW231491   5.226   1.486   2.557
10198SOL     OW31492   2.484   0.342   1.631
10198SOL    HW131493   2.521   0.405   1.562
10198SOL    HW231494   2.449   0.260   1.585
10199SOL     OW31495   0.934   1.984   0.794
10199SOL    HW131496   0.850   2.031   0.822
10199SOL    HW231497   1.003   2.052   0.772
10200SOL     OW31498   5.833   5.400   5.509
10200SOL    HW131499   5.786   5.488   5.514
10200SOL    HW231500   5.850   5.366   5.602
10201SOL     OW31501   1.730   4.779   2.992
10201SOL    HW131502   1.725   4.858   3.054
10201SOL    HW231503   1.638   4.750   2.967
10202SOL     OW31504   0.629   2.887   2.861
10202SOL    HW131505   0.725   2.867   2.878
10202SOL    HW231506   0.581   2.804   2.835
10203SOL     OW31507   1.360   3.361   1.893
10203SOL    HW131508   1.325   3.416   1.817
10203SOL    HW231509   1.428   3.414   1.944
10204SOL     OW31510   2.956   4.896   4.264
10204SOL    HW131511   2.897   4.869   4.340
10204SOL    HW231512   3.035   4.835   4.260
10205SOL     OW31513   4.357   0.771   1.981
10205SOL    HW131514   4.287   0.810   2.042
10205SOL    HW231515   4.363   0.672   1.997
10206SOL     OW31516   4.669   0.552   6.010
10206SOL    HW131517   4.602   0.481   5.988
10206SOL    HW231518   4.624   0.625   6.063
10207SOL     OW31519   3.887   0.701   3.277
10207SOL    HW131520   3.944   0.618   3.269
10207SOL    HW231521   3.858   0.729   3.186
10208SOL     OW31522   6.217   4.183   4.980
10208SOL    HW131523   6.200   4.281   4.977
10208SOL    HW231524   6.244   4.151   4.889
10209SOL     OW31525   5.564   6.680   6.522
10209SOL    HW131526   5.543   6.626   6.604
10209SOL    HW231527   5.612   6.623   6.456
10210SOL     OW31528   5.187   5.839   1.193
10210SOL    HW131529   5.248   5.760   1.193
10210SOL    HW231530   5.189   5.882   1.284
10211SOL     OW31531   3.760   5.568   4.979
10211SOL    HW131532   3.849   5.548   5.021
10211SOL    HW231533   3.773   5.627   4.899
10212SOL     OW31534   5.821   6.438   5.214
10212SOL    HW131535   5.810   6.501   5.292
10212SOL    HW231536   5.912   6.396   5.219
10213SOL     OW31537   4.927   0.610   4.063
10213SOL    HW131538   5.022   0.581   4.055
10213SOL    HW231539   4.886   0.616   3.972
10214SOL     OW31540   7.018   0.923   1.049
10214SOL    HW131541   0.061   0.985   1.009
10214SOL    HW231542   6.983   0.963   1.134
10215SOL     OW31543   3.836   2.740   6.624
10215SOL    HW131544   3.891   2.692   6.693
10215SOL    HW231545   3.893   2.803   6.572
10216SOL     OW31546   4.904   0.090   2.397
10216SOL    HW131547   4.866   0.101   2.304
10216SOL    HW231548   4.900   7.019   2.423
10217SOL     OW31549   3.368   2.070   5.570
10217SOL    HW131550   3.369   2.108   5.477
10217SOL    HW231551   3.418   1.983   5.570
10218SOL     OW31552   2.319   2.505   0.734
10218SOL    HW131553   2.363   2.595   0.723
10218SOL    HW231554   2.381   2.434   0.700
10219SOL     OW31555   1.056   4.233   0.558
10219SOL    HW131556   1.073   4.306   0.624
10219SOL    HW231557   1.139   4.214   0.507
10220SOL     OW31558   4.220   2.745   0.361
10220SOL    HW131559   4.240   2.649   0.341
10220SOL    HW231560   4.145   2.751   0.427
10221SOL     OW31561   3.170   0.764   4.898
10221SOL    HW131562   3.179   0.861   4.921
10221SOL    HW231563   3.092   0.725   4.947
10222SOL     OW31564   1.953   5.061   5.644
10222SOL    HW131565   1.972   5.090   5.550
10222SOL    HW231566   1.978   4.964   5.654
10223SOL     OW31567   6.729   4.639   0.577
10223SOL    HW131568   6.802   4.645   0.509
10223SOL    HW231569   6.748   4.562   0.639
10224SOL     OW31570   2.454   0.225   4.959
10224SOL    HW131571   2.420   0.287   5.030
10224SOL    HW231572   2.387   0.152   4.943
10225SOL     OW31573   5.391   6.000   4.556
10225SOL    HW131574   5.473   6.039   4.513
10225SOL    HW231575   5.310   6.032   4.507
10226SOL     OW31576   6.922   2.783   7.010
10226SOL    HW131577   6.980   2.721   0.037
10226SOL    HW231578   6.927   2.875   0.025
10227SOL     OW31579   5.562   5.706   6.053
10227SOL    HW131580   5.495   5.731   5.984
10227SOL    HW231581   5.525   5.724   6.144
10228SOL     OW31582   1.173   4.126   3.033
10228SOL    HW131583   1.223   4.212   3.046
10228SOL    HW231584   1.120   4.131   2.948
10229SOL     OW31585   1.810   1.222   2.026
10229SOL    HW131586   1.781   1.304   2.077
10229SOL    HW231587   1.885   1.246   1.964
10230SOL     OW31588   6.091   6.696   4.907
10230SOL    HW131589   6.151   6.774   4.924
10230SOL    HW231590   6.080   6.683   4.808
10231SOL     OW31591   4.362   6.789   4.342
10231SOL    HW131592   4.335   6.697   4.368
10231SOL    HW231593   4.385   6.842   4.424
10232SOL     OW31594   3.736   2.122   4.477
10232SOL    HW131595   3.729   2.206   4.531
10232SOL    HW231596   3.798   2.138   4.400
10233SOL     OW31597   4.826   1.437   5.263
10233SOL    HW131598   4.760   1.363   5.277
10233SOL    HW231599   4.813   1.477   5.172
10234SOL     OW31600   5.029   6.388   1.811
10234SOL    HW131601   5.051   6.354   1.719
10234SOL    HW231602   5.112   6.427   1.852
10235SOL     OW31603   4.853   1.736   6.213
10235SOL    HW131604   4.911   1.813   6.238
10235SOL    HW231605   4.763   1.770   6.184
10236SOL     OW31606   2.182   5.957   2.211
10236SOL    HW131607   2.259   5.903   2.175
10236SOL    HW231608   2.130   5.996   2.136
10237SOL     OW31609   5.892   2.188   3.379
10237SOL    HW131610   5.924   2.164   3.287
10237SOL    HW231611   5.971   2.214   3.435
10238SOL     OW31612   4.552   5.315   4.406
10238SOL    HW131613   4.532   5.412   4.423
10238SOL    HW231614   4.644   5.294   4.438
10239SOL     OW31615   6.701   4.149   3.783
10239SOL    HW131616   6.710   4.161   3.684
10239SOL    HW231617   6.753   4.069   3.812
10240SOL     OW31618   6.309   3.885   3.656
10240SOL    HW131619   6.339   3.962   3.599
10240SOL    HW231620   6.352   3.801   3.623
10241SOL     OW31621   1.967   1.269   3.382
10241SOL    HW131622   2.043   1.204   3.387
10241SOL    HW231623   1.881   1.221   3.401
10242SOL     OW31624   0.790   6.099   5.978
10242SOL    HW131625   0.813   6.184   5.931
10242SOL    HW231626   0.874   6.057   6.012
10243SOL     OW31627   1.201   5.947   2.477
10243SOL    HW131628   1.108   5.909   2.474
10243SOL    HW231629   1.196   6.045   2.496
10244SOL     OW31630   1.457   5.671   0.059
10244SOL    HW131631   1.453   5.635   0.152
10244SOL    HW231632   1.427   5.766   0.058
10245SOL     OW31633   1.848   2.412   0.076
10245SOL    HW131634   1.930   2.380   0.124
10245SOL    HW231635   1.873   2.455   7.015
10246SOL     OW31636   3.610   4.116   3.598
10246SOL    HW131637   3.697   4.068   3.584
10246SOL    HW231638   3.610   4.158   3.688
10247SOL     OW31639   1.143   6.103   5.822
10247SOL    HW131640   1.132   6.092   5.723
10247SOL    HW231641   1.091   6.183   5.853
10248SOL     OW31642   4.547   0.633   2.603
10248SOL    HW131643   4.457   0.673   2.584
10248SOL    HW231644   4.546   0.591   2.694
10249SOL     OW31645   4.426   1.264   0.301
10249SOL    HW131646   4.342   1.250   0.354
10249SOL    HW231647   4.404   1.316   0.218
10250SOL     OW31648   5.602   0.289   0.381
10250SOL    HW131649   5.531   0.314   0.448
10250SOL    HW231650   5.666   0.224   0.422
10251SOL     OW31651   3.850   4.252   6.534
10251SOL    HW131652   3.927   4.276   6.593
10251SOL    HW231653   3.792   4.185   6.580
10252SOL     OW31654   6.114   5.159   2.115
10252SOL    HW131655   6.065   5.176   2.200
10252SOL    HW231656   6.058   5.188   2.038
10253SOL     OW31657   3.969   4.851   6.576
10253SOL    HW131658   3.977   4.937   6.525
10253SOL    HW231659   3.918   4.868   6.661
10254SOL     OW31660   1.938   1.454   4.215
10254SOL    HW131661   1.958   1.356   4.211
10254SOL    HW231662   1.921   1.488   4.122
10255SOL     OW31663   3.416   5.347   3.006
10255SOL    HW131664   3.396   5.436   3.047
10255SOL    HW231665   3.331   5.295   2.997
10256SOL     OW31666   6.032   6.340   6.936
10256SOL    HW131667   6.042   6.255   6.886
10256SOL    HW231668   6.031   6.417   6.872
10257SOL     OW31669   1.738   6.501   6.520
10257SOL    HW131670   1.675   6.499   6.442
10257SOL    HW231671   1.752   6.409   6.555
10258SOL     OW31672   4.136   0.206   3.736
10258SOL    HW131673   4.182   0.117   3.731
10258SOL    HW231674   4.114   0.226   3.831
10259SOL     OW31675   0.726   4.090   3.549
10259SOL    HW131676   0.785   4.082   3.629
10259SOL    HW231677   0.758   4.027   3.478
10260SOL     OW31678   6.893   6.646   1.311
10260SOL    HW131679   6.839   6.599   1.242
10260SOL    HW231680   6.870   6.743   1.312
10261SOL     OW31681   2.264   0.039   1.553
10261SOL    HW131682   2.174   0.060   1.514
10261SOL    HW231683   2.252   0.007   1.648
10262SOL     OW31684   1.202   5.564   4.952
10262SOL    HW131685   1.299   5.539   4.962
10262SOL    HW231686   1.151   5.530   5.031
10263SOL     OW31687   6.651   2.153   5.583
10263SOL    HW131688   6.741   2.172   5.545
10263SOL    HW231689   6.649   2.061   5.621
10264SOL     OW31690   0.693   6.492   6.925
10264SOL    HW131691   0.669   6.436   6.846
10264SOL    HW231692   0.779   6.458   6.964
10265SOL     OW31693   3.931   2.183   2.521
10265SOL    HW131694   3.848   2.237   2.538
10265SOL    HW231695   3.910   2.086   2.528
10266SOL     OW31696   4.529   4.170   6.127
10266SOL    HW131697   4.572   4.182   6.037
10266SOL    HW231698   4.509   4.259   6.167
10267SOL     OW31699   0.056   1.661   5.970
10267SOL    HW131700   7.012   1.687   6.039
10267SOL    HW231701   0.036   1.710   5.885
10268SOL     OW31702   6.111   4.327   1.861
10268SOL    HW131703   6.057   4.402   1.899
10268SOL    HW231704   6.157   4.358   1.779
10269SOL     OW31705   3.050   2.902   6.174
10269SOL    HW131706   3.126   2.895   6.239
10269SOL    HW231707   3.031   2.812   6.135
10270SOL     OW31708   3.095   6.484   1.226
10270SOL    HW131709   3.146   6.398   1.220
10270SOL    HW231710   3.019   6.481   1.161
10271SOL     OW31711   3.602   5.175   0.701
10271SOL    HW131712   3.633   5.109   0.633
10271SOL    HW231713   3.585   5.128   0.788
10272SOL     OW31714   0.793   0.940   6.047
10272SOL    HW131715   0.876   0.898   6.011
10272SOL    HW231716   0.802   0.953   6.146
10273SOL     OW31717   4.336   6.314   4.353
10273SOL    HW131718   4.390   6.242   4.309
10273SOL    HW231719   4.288   6.277   4.433
10274SOL     OW31720   2.148   5.917   6.495
10274SOL    HW131721   2.242   5.903   6.464
10274SOL    HW231722   2.149   5.963   6.584
10275SOL     OW31723   1.059   6.919   2.041
10275SOL    HW131724   1.042   7.017   2.031
10275SOL    HW231725   1.065   6.877   1.950
10276SOL     OW31726   7.021   6.310   6.787
10276SOL    HW131727   0.083   6.332   6.832
10276SOL    HW231728   6.957   6.386   6.798
10277SOL     OW31729   1.545   5.509   2.663
10277SOL    HW131730   1.535   5.437   2.595
10277SOL    HW231731   1.570   5.469   2.751
10278SOL     OW31732   6.390   0.358   6.342
10278SOL    HW131733   6.451   0.321   6.412
10278SOL    HW231734   6.323   0.419   6.385
10279SOL     OW31735   3.450   6.331   3.437
10279SOL    HW131736   3.355   6.301   3.426
10279SOL    HW231737   3.477   6.387   3.359
10280SOL     OW31738   3.327   2.797   6.214
10280SOL    HW131739   3.291   2.738   6.142
10280SOL    HW231740   3.388   2.744   6.273
10281SOL     OW31741   3.735   6.432   4.511
10281SOL    HW131742   3.702   6.366   4.443
10281SOL    HW231743   3.745   6.522   4.467
10282SOL     OW31744   1.264   2.329   4.977
10282SOL    HW131745   1.298   2.412   4.932
10282SOL    HW231746   1.336   2.292   5.036
10283SOL     OW31747   1.340   3.296   5.989
10283SOL    HW131748   1.316   3.375   6.045
10283SOL    HW231749   1.435   3.304   5.958
10284SOL     OW31750   5.784   3.414   6.225
10284SOL    HW131751   5.832   3.453   6.304
10284SOL    HW231752   5.769   3.486   6.157
10285SOL     OW31753   5.956   0.364   0.811
10285SOL    HW131754   6.014   0.322   0.881
10285SOL    HW231755   5.921   0.452   0.844
10286SOL     OW31756   4.439   0.315   4.056
10286SOL    HW131757   4.455   0.219   4.035
10286SOL    HW231758   4.348   0.326   4.094
10287SOL     OW31759   2.260   5.514   1.156
10287SOL    HW131760   2.234   5.600   1.201
10287SOL    HW231761   2.179   5.471   1.117
10288SOL     OW31762   5.178   6.359   3.962
10288SOL    HW131763   5.078   6.363   3.951
10288SOL    HW231764   5.200   6.304   4.042
10289SOL     OW31765   3.124   1.157   1.524
10289SOL    HW131766   3.179   1.114   1.596
10289SOL    HW231767   3.153   1.252   1.513
10290SOL     OW31768   3.043   3.568   2.254
10290SOL    HW131769   3.102   3.488   2.248
10290SOL    HW231770   2.969   3.561   2.188
10291SOL     OW31771   4.299   0.416   5.796
10291SOL    HW131772   4.338   0.422   5.704
10291SOL    HW231773   4.252   0.502   5.817
10292SOL     OW31774   6.893   0.718   4.918
10292SOL    HW131775   6.873   0.714   5.016
10292SOL    HW231776   6.970   0.780   4.902
10293SOL     OW31777   2.687   6.018   2.722
10293SOL    HW131778   2.714   5.926   2.695
10293SOL    HW231779   2.639   6.015   2.809
10294SOL     OW31780   5.723   1.873   3.069
10294SOL    HW131781   5.780   1.860   3.151
10294SOL    HW231782   5.646   1.810   3.072
10295SOL     OW31783   1.662   4.335   5.112
10295SOL    HW131784   1.753   4.343   5.074
10295SOL    HW231785   1.639   4.238   5.122
10296SOL     OW31786   6.153   2.316   0.514
10296SOL    HW131787   6.054   2.323   0.504
10296SOL    HW231788   6.182   2.368   0.594
10297SOL     OW31789   2.184   5.605   4.760
10297SOL    HW131790   2.224   5.636   4.847
10297SOL    HW231791   2.084   5.608   4.767
10298SOL     OW31792   5.788   3.805   3.310
10298SOL    HW131793   5.713   3.814   3.244
10298SOL    HW231794   5.752   3.815   3.402
10299SOL     OW31795   4.826   4.064   2.216
10299SOL    HW131796   4.834   4.038   2.120
10299SOL    HW231797   4.847   4.161   2.226
10300SOL     OW31798   2.218   5.104   2.382
10300SOL    HW131799   2.230   5.013   2.342
10300SOL    HW231800   2.295   5.163   2.357
10301SOL     OW31801   5.537   1.833   1.365
10301SOL    HW131802   5.622   1.791   1.332
10301SOL    HW231803   5.471   1.838   1.291
10302SOL     OW31804   1.433   5.080   3.380
10302SOL    HW131805   1.387   5.106   3.464
10302SOL    HW231806   1.371   5.090   3.302
10303SOL     OW31807   3.502   2.939   1.439
10303SOL    HW131808   3.448   2.883   1.377
10303SOL    HW231809   3.593   2.898   1.449
10304SOL     OW31810   6.052   6.555   3.758
10304SOL    HW131811   6.088   6.474   3.711
10304SOL    HW231812   5.952   6.548   3.764
10305SOL     OW31813   1.801   5.695   1.073
10305SOL    HW131814   1.791   5.780   1.023
10305SOL    HW231815   1.750   5.701   1.160
10306SOL     OW31816   4.203   5.109   0.562
10306SOL    HW131817   4.166   5.023   0.527
10306SOL    HW231818   4.131   5.158   0.612
10307SOL     OW31819   3.059   0.871   5.363
10307SOL    HW131820   3.157   0.860   5.342
10307SOL    HW231821   3.010   0.788   5.335
10308SOL     OW31822   3.176   5.531   3.883
10308SOL    HW131823   3.247   5.463   3.902
10308SOL    HW231824   3.111   5.534   3.959
10309SOL     OW31825   0.650   6.259   3.294
10309SOL    HW131826   0.629   6.210   3.209
10309SOL    HW231827   0.724   6.324   3.277
10310SOL     OW31828   3.456   3.141   4.507
10310SOL    HW131829   3.423   3.158   4.414
10310SOL    HW231830   3.384   3.098   4.561
10311SOL     OW31831   0.469   6.191   1.305
10311SOL    HW131832   0.567   6.207   1.311
10311SOL    HW231833   0.423   6.233   1.384
10312SOL     OW31834   2.168   5.011   0.522
10312SOL    HW131835   2.246   5.022   0.460
10312SOL    HW231836   2.095   4.961   0.475
10313SOL     OW31837   5.963   6.234   3.915
10313SOL    HW131838   5.963   6.231   3.815
10313SOL    HW231839   5.887   6.181   3.950
10314SOL     OW31840   6.328   4.992   5.835
10314SOL    HW131841   6.267   4.915   5.815
10314SOL    HW231842   6.294   5.041   5.915
10315SOL     OW31843   5.490   6.267   4.822
10315SOL    HW131844   5.405   6.316   4.800
10315SOL    HW231845   5.564   6.303   4.765
10316SOL     OW31846   0.069   3.859   3.142
10316SOL    HW131847   0.059   3.835   3.238
10316SOL    HW231848   0.057   3.958   3.131
10317SOL     OW31849   4.110   4.670   0.889
10317SOL    HW131850   4.196   4.670   0.939
10317SOL    HW231851   4.108   4.748   0.826
10318SOL     OW31852   6.582   5.812   2.288
10318SOL    HW131853   6.626   5.789   2.375
10318SOL    HW231854   6.488   5.842   2.304
10319SOL     OW31855   4.736   5.807   4.706
10319SOL    HW131856   4.782   5.856   4.633
10319SOL    HW231857   4.639   5.831   4.706
10320SOL     OW31858   4.422   6.274   1.096
10320SOL    HW131859   4.379   6.234   1.015
10320SOL    HW231860   4.406   6.372   1.097
10321SOL     OW31861   4.029   0.165   4.383
10321SOL    HW131862   3.938   0.194   4.353
10321SOL    HW231863   4.034   0.172   4.483
10322SOL     OW31864   6.614   2.563   0.264
10322SOL    HW131865   6.546   2.522   0.203
10322SOL    HW231866   6.693   2.502   0.271
10323SOL     OW31867   6.530   1.909   5.189
10323SOL    HW131868   6.580   1.890   5.105
10323SOL    HW231869   6.499   2.004   5.189
10324SOL     OW31870   2.999   3.296   3.694
10324SOL    HW131871   3.077   3.347   3.657
10324SOL    HW231872   2.992   3.312   3.792
10325SOL     OW31873   0.897   3.737   3.524
10325SOL    HW131874   0.803   3.710   3.502
10325SOL    HW231875   0.927   3.689   3.607
10326SOL     OW31876   4.744   1.557   1.082
10326SOL    HW131877   4.739   1.516   0.991
10326SOL    HW231878   4.777   1.651   1.074
10327SOL     OW31879   6.863   0.693   3.449
10327SOL    HW131880   6.816   0.781   3.448
10327SOL    HW231881   6.795   0.619   3.456
10328SOL     OW31882   5.883   3.141   2.313
10328SOL    HW131883   5.977   3.168   2.296
10328SOL    HW231884   5.868   3.047   2.281
10329SOL     OW31885   3.882   6.624   2.809
10329SOL    HW131886   3.971   6.670   2.807
10329SOL    HW231887   3.889   6.540   2.863
10330SOL     OW31888   3.632   4.488   0.998
10330SOL    HW131889   3.637   4.463   1.094
10330SOL    HW231890   3.721   4.523   0.968
10331SOL     OW31891   5.578   0.488   4.111
10331SOL    HW131892   5.491   0.465   4.154
10331SOL    HW231893   5.642   0.520   4.180
10332SOL     OW31894   6.998   1.884   0.558
10332SOL    HW131895   0.058   1.933   0.535
10332SOL    HW231896   7.002   1.854   0.653
10333SOL     OW31897   4.886   4.243   4.461
10333SOL    HW131898   4.876   4.337   4.496
10333SOL    HW231899   4.971   4.204   4.497
10334SOL     OW31900   1.189   5.089   4.767
10334SOL    HW131901   1.211   5.181   4.734
10334SOL    HW231902   1.137   5.095   4.852
10335SOL     OW31903   2.381   5.392   1.663
10335SOL    HW131904   2.338   5.335   1.593
10335SOL    HW231905   2.480   5.390   1.651
10336SOL     OW31906   4.225   6.283   2.959
10336SOL    HW131907   4.178   6.236   3.034
10336SOL    HW231908   4.279   6.359   2.996
10337SOL     OW31909   1.058   4.819   5.337
10337SOL    HW131910   1.131   4.858   5.282
10337SOL    HW231911   1.074   4.721   5.350
10338SOL     OW31912   3.675   5.031   3.338
10338SOL    HW131913   3.705   5.066   3.249
10338SOL    HW231914   3.735   4.957   3.366
10339SOL     OW31915   3.261   5.497   0.351
10339SOL    HW131916   3.207   5.461   0.427
10339SOL    HW231917   3.241   5.445   0.268
10340SOL     OW31918   1.936   6.927   0.424
10340SOL    HW131919   1.881   6.851   0.459
10340SOL    HW231920   2.014   6.941   0.485
10341SOL     OW31921   1.125   2.492   2.581
10341SOL    HW131922   1.222   2.483   2.606
10341SOL    HW231923   1.103   2.588   2.564
10342SOL     OW31924   2.846   6.462   3.700
10342SOL    HW131925   2.845   6.535   3.632
10342SOL    HW231926   2.753   6.430   3.717
10343SOL     OW31927   2.190   3.196   3.806
10343SOL    HW131928   2.203   3.145   3.891
10343SOL    HW231929   2.212   3.138   3.728
10344SOL     OW31930   4.376   4.042   0.409
10344SOL    HW131931   4.409   4.070   0.499
10344SOL    HW231932   4.439   3.975   0.370
10345SOL     OW31933   1.585   1.513   5.810
10345SOL    HW131934   1.558   1.515   5.906
10345SOL    HW231935   1.506   1.536   5.752
10346SOL     OW31936   5.579   5.091   0.636
10346SOL    HW131937   5.600   4.993   0.636
10346SOL    HW231938   5.481   5.104   0.651
10347SOL     OW31939   4.961   1.334   1.626
10347SOL    HW131940   4.898   1.360   1.553
10347SOL    HW231941   4.910   1.310   1.708
10348SOL     OW31942   6.776   5.069   5.687
10348SOL    HW131943   6.682   5.081   5.654
10348SOL    HW231944   6.840   5.096   5.616
10349SOL     OW31945   6.759   1.760   1.123
10349SOL    HW131946   6.678   1.706   1.103
10349SOL    HW231947   6.824   1.705   1.177
10350SOL     OW31948   2.094   4.293   4.856
10350SOL    HW131949   2.167   4.311   4.922
10350SOL    HW231950   2.109   4.347   4.774
10351SOL     OW31951   4.443   4.628   4.843
10351SOL    HW131952   4.402   4.612   4.933
10351SOL    HW231953   4.371   4.634   4.774
10352SOL     OW31954   6.104   1.160   6.865
10352SOL    HW131955   6.170   1.178   6.793
10352SOL    HW231956   6.151   1.128   6.947
10353SOL     OW31957   5.995   2.465   3.761
10353SOL    HW131958   6.052   2.521   3.701
10353SOL    HW231959   5.963   2.520   3.838
10354SOL     OW31960   6.433   3.075   1.470
10354SOL    HW131961   6.467   3.036   1.555
10354SOL    HW231962   6.345   3.119   1.485
10355SOL     OW31963   0.675   2.097   0.840
10355SOL    HW131964   0.701   2.177   0.895
10355SOL    HW231965   0.618   2.036   0.896
10356SOL     OW31966   6.246   3.479   5.161
10356SOL    HW131967   6.207   3.542   5.228
10356SOL    HW231968   6.336   3.449   5.192
10357SOL     OW31969   1.080   0.870   5.956
10357SOL    HW131970   1.062   0.783   6.002
10357SOL    HW231971   1.099   0.853   5.859
10358SOL     OW31972   0.956   3.091   3.211
10358SOL    HW131973   0.943   3.005   3.162
10358SOL    HW231974   1.054   3.113   3.214
10359SOL     OW31975   6.679   2.352   2.386
10359SOL    HW131976   6.643   2.283   2.448
10359SOL    HW231977   6.638   2.340   2.295
10360SOL     OW31978   5.696   4.300   1.462
10360SOL    HW131979   5.794   4.279   1.468
10360SOL    HW231980   5.643   4.228   1.506
10361SOL     OW31981   6.289   2.211   2.401
10361SOL    HW131982   6.320   2.291   2.453
10361SOL    HW231983   6.365   2.148   2.388
10362SOL     OW31984   1.465   6.390   1.845
10362SOL    HW131985   1.390   6.376   1.781
10362SOL    HW231986   1.530   6.455   1.806
10363SOL     OW31987   5.344   4.258   6.107
10363SOL    HW131988   5.358   4.326   6.035
10363SOL    HW231989   5.261   4.281   6.158
10364SOL     OW31990   5.958   4.844   2.047
10364SOL    HW131991   5.899   4.763   2.051
10364SOL    HW231992   5.950   4.895   2.132
10365SOL     OW31993   5.953   4.916   0.838
10365SOL    HW131994   6.027   4.929   0.905
10365SOL    HW231995   5.970   4.974   0.758
10366SOL     OW31996   3.188   6.202   3.457
10366SOL    HW131997   3.173   6.276   3.523
10366SOL    HW231998   3.100   6.160   3.435
10367SOL     OW31999   5.551   6.359   1.694
10367SOL    HW132000   5.551   6.409   1.607
10367SOL    HW232001   5.466   6.308   1.703
10368SOL     OW32002   2.543   6.446   1.053
10368SOL    HW132003   2.488   6.379   1.002
10368SOL    HW232004   2.483   6.519   1.086
10369SOL     OW32005   2.726   0.317   5.826
10369SOL    HW132006   2.649   0.269   5.868
10369SOL    HW232007   2.729   0.296   5.728
10370SOL     OW32008   1.379   1.204   5.228
10370SOL    HW132009   1.386   1.173   5.323
10370SOL    HW232010   1.470   1.200   5.186
10371SOL     OW32011   4.704   5.455   2.690
10371SOL    HW132012   4.624   5.453   2.750
10371SOL    HW232013   4.675   5.487   2.599
10372SOL     OW32014   2.642   6.426   1.456
10372SOL    HW132015   2.659   6.400   1.361
10372SOL    HW232016   2.601   6.349   1.505
10373SOL     OW32017   6.686   1.392   5.862
10373SOL    HW132018   6.707   1.301   5.825
10373SOL    HW232019   6.771   1.442   5.879
10374SOL     OW32020   3.344   5.256   3.692
10374SOL    HW132021   3.264   5.199   3.709
10374SOL    HW232022   3.387   5.228   3.606
10375SOL     OW32023   2.516   4.915   0.011
10375SOL    HW132024   2.616   4.914   0.012
10375SOL    HW232025   2.485   5.009   7.021
10376SOL     OW32026   2.098   5.322   4.129
10376SOL    HW132027   2.177   5.263   4.147
10376SOL    HW232028   2.067   5.308   4.035
10377SOL     OW32029   1.691   1.100   2.579
10377SOL    HW132030   1.666   1.114   2.483
10377SOL    HW232031   1.757   1.170   2.606
10378SOL     OW32032   0.185   5.729   4.258
10378SOL    HW132033   0.101   5.687   4.292
10378SOL    HW232034   0.208   5.690   4.169
10379SOL     OW32035   2.021   0.030   4.511
10379SOL    HW132036   2.035   0.048   4.608
10379SOL    HW232037   2.069   0.099   4.457
10380SOL     OW32038   3.050   2.205   4.513
10380SOL    HW132039   3.072   2.109   4.497
10380SOL    HW232040   2.956   2.223   4.482
10381SOL     OW32041   4.629   6.360   1.588
10381SOL    HW132042   4.673   6.429   1.645
10381SOL    HW232043   4.564   6.404   1.526
10382SOL     OW32044   4.341   5.653   1.572
10382SOL    HW132045   4.272   5.686   1.507
10382SOL    HW232046   4.389   5.730   1.613
10383SOL     OW32047   1.208   5.217   0.185
10383SOL    HW132048   1.304   5.208   0.213
10383SOL    HW232049   1.176   5.309   0.209
10384SOL     OW32050   5.539   5.980   1.539
10384SOL    HW132051   5.473   5.905   1.541
10384SOL    HW232052   5.625   5.948   1.500
10385SOL     OW32053   4.333   4.608   0.047
10385SOL    HW132054   4.310   4.511   0.047
10385SOL    HW232055   4.344   4.640   6.978
10386SOL     OW32056   0.461   0.963   0.732
10386SOL    HW132057   0.505   1.051   0.713
10386SOL    HW232058   0.515   0.889   0.693
10387SOL     OW32059   5.327   2.959   1.754
10387SOL    HW132060   5.311   2.955   1.853
10387SOL    HW232061   5.266   3.027   1.713
10388SOL     OW32062   2.392   6.758   5.285
10388SOL    HW132063   2.322   6.790   5.221
10388SOL    HW232064   2.474   6.731   5.234
10389SOL     OW32065   0.316   4.326   0.434
10389SOL    HW132066   0.384   4.397   0.413
10389SOL    HW232067   0.224   4.361   0.413
10390SOL     OW32068   2.491   2.517   1.652
10390SOL    HW132069   2.470   2.596   1.709
10390SOL    HW232070   2.581   2.481   1.677
10391SOL     OW32071   5.148   6.695   4.497
10391SOL    HW132072   5.143   6.753   4.416
10391SOL    HW232073   5.161   6.600   4.470
10392SOL     OW32074   6.577   3.849   3.981
10392SOL    HW132075   6.618   3.882   3.895
10392SOL    HW232076   6.541   3.757   3.968
10393SOL     OW32077   1.276   3.546   4.055
10393SOL    HW132078   1.347   3.485   4.019
10393SOL    HW232079   1.239   3.601   3.980
10394SOL     OW32080   3.260   0.252   4.090
10394SOL    HW132081   3.183   0.296   4.043
10394SOL    HW232082   3.233   0.160   4.119
10395SOL     OW32083   0.956   0.351   0.599
10395SOL    HW132084   1.050   0.339   0.566
10395SOL    HW232085   0.935   0.279   0.664
10396SOL     OW32086   2.772   2.285   4.535
10396SOL    HW132087   2.744   2.241   4.449
10396SOL    HW232088   2.699   2.346   4.566
10397SOL     OW32089   3.643   1.879   3.416
10397SOL    HW132090   3.733   1.837   3.425
10397SOL    HW232091   3.573   1.808   3.419
10398SOL     OW32092   6.275   2.785   1.605
10398SOL    HW132093   6.231   2.843   1.536
10398SOL    HW232094   6.263   2.689   1.580
10399SOL     OW32095   0.875   4.096   1.853
10399SOL    HW132096   0.896   3.998   1.859
10399SOL    HW232097   0.825   4.113   1.768
10400SOL     OW32098   3.915   6.181   0.420
10400SOL    HW132099   3.824   6.151   0.448
10400SOL    HW232100   3.978   6.103   0.425
10401SOL     OW32101   0.345   1.536   5.995
10401SOL    HW132102   0.395   1.599   6.054
10401SOL    HW232103   0.249   1.563   5.990
10402SOL     OW32104   6.948   2.825   4.607
10402SOL    HW132105   6.937   2.748   4.544
10402SOL    HW232106   0.020   2.833   4.632
10403SOL     OW32107   2.750   0.381   1.916
10403SOL    HW132108   2.818   0.332   1.862
10403SOL    HW232109   2.768   0.367   2.013
10404SOL     OW32110   0.095   6.461   5.980
10404SOL    HW132111   0.114   6.489   6.074
10404SOL    HW232112   0.105   6.539   5.919
10405SOL     OW32113   7.014   2.015   6.696
10405SOL    HW132114   0.023   1.968   6.777
10405SOL    HW232115   0.064   2.025   6.630
10406SOL     OW32116   2.749   4.705   1.452
10406SOL    HW132117   2.764   4.696   1.550
10406SOL    HW232118   2.664   4.755   1.435
10407SOL     OW32119   3.104   6.931   6.835
10407SOL    HW132120   3.178   6.986   6.873
10407SOL    HW232121   3.028   6.991   6.809
10408SOL     OW32122   3.825   1.345   6.953
10408SOL    HW132123   3.816   1.279   6.879
10408SOL    HW232124   3.774   1.427   6.931
10409SOL     OW32125   6.101   4.626   1.264
10409SOL    HW132126   6.021   4.569   1.247
10409SOL    HW232127   6.086   4.679   1.348
10410SOL     OW32128   6.008   0.691   0.912
10410SOL    HW132129   6.096   0.662   0.950
10410SOL    HW232130   5.999   0.790   0.918
10411SOL     OW32131   2.775   5.242   3.324
10411SOL    HW132132   2.712   5.181   3.276
10411SOL    HW232133   2.747   5.337   3.309
10412SOL     OW32134   6.783   0.396   0.587
10412SOL    HW132135   6.686   0.423   0.588
10412SOL    HW232136   6.832   0.450   0.519
10413SOL     OW32137   6.873   2.736   1.487
10413SOL    HW132138   6.925   2.781   1.413
10413SOL    HW232139   6.784   2.780   1.496
10414SOL     OW32140   4.511   2.516   4.191
10414SOL    HW132141   4.589   2.578   4.201
10414SOL    HW232142   4.478   2.520   4.097
10415SOL     OW32143   0.823   6.334   6.198
10415SOL    HW132144   0.887   6.328   6.121
10415SOL    HW232145   0.867   6.296   6.279
10416SOL     OW32146   5.548   2.540   3.967
10416SOL    HW132147   5.479   2.553   4.038
10416SOL    HW232148   5.504   2.543   3.877
10417SOL     OW32149   2.733   5.028   4.420
10417SOL    HW132150   2.777   4.950   4.465
10417SOL    HW232151   2.715   5.099   4.487
10418SOL     OW32152   0.954   4.544   5.950
10418SOL    HW132153   1.015   4.621   5.969
10418SOL    HW232154   0.952   4.483   6.028
10419SOL     OW32155   1.364   0.783   0.939
10419SOL    HW132156   1.265   0.786   0.922
10419SOL    HW232157   1.381   0.784   1.038
10420SOL     OW32158   0.547   3.215   3.495
10420SOL    HW132159   0.511   3.150   3.428
10420SOL    HW232160   0.637   3.185   3.526
10421SOL     OW32161   0.207   0.844   2.922
10421SOL    HW132162   0.182   0.769   2.983
10421SOL    HW232163   0.140   0.917   2.929
10422SOL     OW32164   6.454   2.943   6.055
10422SOL    HW132165   6.521   2.906   6.119
10422SOL    HW232166   6.436   2.876   5.983
10423SOL     OW32167   5.269   4.293   3.340
10423SOL    HW132168   5.289   4.197   3.360
10423SOL    HW232169   5.260   4.344   3.426
10424SOL     OW32170   5.241   1.951   6.549
10424SOL    HW132171   5.240   2.007   6.467
10424SOL    HW232172   5.150   1.945   6.588
10425SOL     OW32173   1.800   6.446   2.153
10425SOL    HW132174   1.723   6.500   2.120
10425SOL    HW232175   1.841   6.491   2.232
10426SOL     OW32176   6.764   4.333   0.180
10426SOL    HW132177   6.737   4.424   0.212
10426SOL    HW232178   6.840   4.299   0.235
10427SOL     OW32179   5.409   1.819   7.004
10427SOL    HW132180   5.361   1.892   6.955
10427SOL    HW232181   5.341   1.760   0.024
10428SOL     OW32182   4.947   0.557   4.356
10428SOL    HW132183   4.921   0.534   4.262
10428SOL    HW232184   4.931   0.654   4.373
10429SOL     OW32185   6.076   5.790   1.862
10429SOL    HW132186   6.074   5.890   1.854
10429SOL    HW232187   6.033   5.763   1.948
10430SOL     OW32188   3.848   6.465   2.363
10430SOL    HW132189   3.910   6.543   2.352
10430SOL    HW232190   3.804   6.471   2.452
10431SOL     OW32191   2.701   0.016   4.286
10431SOL    HW132192   2.735   0.107   4.310
10431SOL    HW232193   2.713   0.001   4.188
10432SOL     OW32194   5.772   0.631   5.499
10432SOL    HW132195   5.793   0.720   5.458
10432SOL    HW232196   5.760   0.642   5.598
10433SOL     OW32197   2.515   6.962   0.615
10433SOL    HW132198   2.577   6.923   0.546
10433SOL    HW232199   2.434   6.999   0.570
10434SOL     OW32200   2.059   0.691   3.821
10434SOL    HW132201   2.044   0.728   3.729
10434SOL    HW232202   2.137   0.737   3.863
10435SOL     OW32203   5.210   6.468   6.429
10435SOL    HW132204   5.194   6.547   6.488
10435SOL    HW232205   5.296   6.480   6.380
10436SOL     OW32206   1.561   5.311   3.405
10436SOL    HW132207   1.542   5.214   3.387
10436SOL    HW232208   1.578   5.324   3.502
10437SOL     OW32209   6.939   5.189   6.177
10437SOL    HW132210   7.016   5.135   6.143
10437SOL    HW232211   6.869   5.196   6.106
10438SOL     OW32212   4.143   6.325   0.285
10438SOL    HW132213   4.072   6.274   0.333
10438SOL    HW232214   4.132   6.313   0.186
10439SOL     OW32215   3.641   0.154   5.856
10439SOL    HW132216   3.626   0.056   5.847
10439SOL    HW232217   3.693   0.172   5.940
10440SOL     OW32218   1.952   6.139   0.717
10440SOL    HW132219   1.994   6.125   0.806
10440SOL    HW232220   2.008   6.203   0.663
10441SOL     OW32221   5.356   1.685   6.316
10441SOL    HW132222   5.273   1.636   6.288
10441SOL    HW232223   5.369   1.675   6.415
10442SOL     OW32224   3.890   4.919   5.951
10442SOL    HW132225   3.904   4.879   6.041
10442SOL    HW232226   3.868   4.847   5.885
10443SOL     OW32227   6.162   2.661   4.818
10443SOL    HW132228   6.150   2.727   4.743
10443SOL    HW232229   6.093   2.677   4.888
10444SOL     OW32230   3.990   4.845   4.168
10444SOL    HW132231   4.040   4.844   4.255
10444SOL    HW232232   3.896   4.815   4.183
10445SOL     OW32233   6.753   5.470   5.477
10445SOL    HW132234   6.722   5.381   5.445
10445SOL    HW232235   6.838   5.495   5.431
10446SOL     OW32236   1.189   5.283   6.207
10446SOL    HW132237   1.094   5.256   6.221
10446SOL    HW232238   1.205   5.372   6.250
10447SOL     OW32239   5.881   2.679   1.563
10447SOL    HW132240   5.879   2.591   1.609
10447SOL    HW232241   5.949   2.677   1.490
10448SOL     OW32242   3.769   3.956   2.644
10448SOL    HW132243   3.787   3.912   2.556
10448SOL    HW232244   3.725   4.044   2.629
10449SOL     OW32245   2.689   5.480   4.366
10449SOL    HW132246   2.788   5.466   4.355
10449SOL    HW232247   2.672   5.524   4.454
10450SOL     OW32248   6.470   2.510   1.164
10450SOL    HW132249   6.429   2.557   1.242
10450SOL    HW232250   6.549   2.457   1.195
10451SOL     OW32251   2.668   4.624   3.033
10451SOL    HW132252   2.707   4.646   3.122
10451SOL    HW232253   2.597   4.554   3.045
10452SOL     OW32254   1.098   2.900   4.471
10452SOL    HW132255   1.051   2.830   4.525
10452SOL    HW232256   1.196   2.895   4.488
10453SOL     OW32257   4.724   0.009   1.483
10453SOL    HW132258   4.634   7.023   1.442
10453SOL    HW232259   4.732   0.100   1.523
10454SOL     OW32260   5.157   3.103   1.996
10454SOL    HW132261   5.105   3.124   2.079
10454SOL    HW232262   5.220   3.178   1.976
10455SOL     OW32263   0.199   5.295   3.482
10455SOL    HW132264   0.129   5.363   3.458
10455SOL    HW232265   0.277   5.341   3.525
10456SOL     OW32266   4.365   5.757   0.909
10456SOL    HW132267   4.462   5.754   0.934
10456SOL    HW232268   4.310   5.755   0.992
10457SOL     OW32269   4.055   3.354   3.556
10457SOL    HW132270   4.052   3.289   3.632
10457SOL    HW232271   4.127   3.326   3.492
10458SOL     OW32272   1.046   6.531   1.151
10458SOL    HW132273   0.959   6.519   1.198
10458SOL    HW232274   1.031   6.527   1.052
10459SOL     OW32275   6.702   5.032   2.454
10459SOL    HW132276   6.686   5.045   2.552
10459SOL    HW232277   6.775   5.093   2.423
10460SOL     OW32278   2.070   5.126   2.615
10460SOL    HW132279   2.116   5.130   2.527
10460SOL    HW232280   1.975   5.156   2.604
10461SOL     OW32281   2.484   1.869   6.612
10461SOL    HW132282   2.427   1.937   6.658
10461SOL    HW232283   2.462   1.868   6.515
10462SOL     OW32284   0.121   0.119   1.064
10462SOL    HW132285   0.085   0.137   0.973
10462SOL    HW232286   0.143   0.022   1.073
10463SOL     OW32287   3.223   4.470   0.594
10463SOL    HW132288   3.215   4.371   0.601
10463SOL    HW232289   3.141   4.507   0.550
10464SOL     OW32290   4.846   0.782   1.227
10464SOL    HW132291   4.791   0.865   1.217
10464SOL    HW232292   4.929   0.791   1.172
10465SOL     OW32293   6.239   4.868   6.251
10465SOL    HW132294   6.219   4.959   6.289
10465SOL    HW232295   6.313   4.826   6.304
10466SOL     OW32296   4.682   5.909   5.748
10466SOL    HW132297   4.678   5.997   5.794
10466SOL    HW232298   4.590   5.873   5.735
10467SOL     OW32299   3.456   0.663   4.595
10467SOL    HW132300   3.371   0.617   4.620
10467SOL    HW232301   3.525   0.594   4.570
10468SOL     OW32302   3.888   6.394   2.974
10468SOL    HW132303   3.959   6.411   3.042
10468SOL    HW232304   3.804   6.366   3.020
10469SOL     OW32305   1.576   4.776   0.687
10469SOL    HW132306   1.623   4.769   0.599
10469SOL    HW232307   1.631   4.832   0.750
10470SOL     OW32308   2.850   1.556   4.386
10470SOL    HW132309   2.808   1.490   4.449
10470SOL    HW232310   2.945   1.531   4.370
10471SOL     OW32311   3.705   3.304   0.609
10471SOL    HW132312   3.613   3.265   0.611
10471SOL    HW232313   3.751   3.278   0.524
10472SOL     OW32314   4.515   1.066   2.723
10472SOL    HW132315   4.431   1.014   2.707
10472SOL    HW232316   4.528   1.131   2.648
10473SOL     OW32317   4.809   5.838   0.543
10473SOL    HW132318   4.777   5.762   0.486
10473SOL    HW232319   4.747   5.852   0.620
10474SOL     OW32320   4.018   0.358   4.867
10474SOL    HW132321   4.069   0.275   4.886
10474SOL    HW232322   4.024   0.420   4.945
10475SOL     OW32323   3.887   6.455   1.516
10475SOL    HW132324   3.966   6.433   1.573
10475SOL    HW232325   3.869   6.554   1.522
10476SOL     OW32326   0.219   4.805   0.556
10476SOL    HW132327   0.133   4.853   0.542
10476SOL    HW232328   0.237   4.744   0.479
10477SOL     OW32329   5.472   4.417   5.031
10477SOL    HW132330   5.569   4.428   5.013
10477SOL    HW232331   5.420   4.444   4.950
10478SOL     OW32332   0.593   6.697   1.410
10478SOL    HW132333   0.525   6.625   1.422
10478SOL    HW232334   0.626   6.727   1.500
10479SOL     OW32335   1.576   4.589   3.562
10479SOL    HW132336   1.518   4.642   3.500
10479SOL    HW232337   1.593   4.642   3.645
10480SOL     OW32338   5.880   0.008   2.277
10480SOL    HW132339   5.852   0.066   2.353
10480SOL    HW232340   5.799   7.000   2.229
10481SOL     OW32341   2.225   0.547   5.311
10481SOL    HW132342   2.279   0.627   5.287
10481SOL    HW232343   2.135   0.553   5.268
10482SOL     OW32344   1.399   5.529   6.122
10482SOL    HW132345   1.350   5.518   6.208
10482SOL    HW232346   1.443   5.619   6.120
10483SOL     OW32347   0.199   5.191   0.697
10483SOL    HW132348   0.117   5.161   0.745
10483SOL    HW232349   0.255   5.248   0.758
10484SOL     OW32350   6.315   1.611   1.672
10484SOL    HW132351   6.385   1.665   1.719
10484SOL    HW232352   6.226   1.656   1.683
10485SOL     OW32353   3.775   3.608   3.526
10485SOL    HW132354   3.746   3.514   3.506
10485SOL    HW232355   3.709   3.651   3.587
10486SOL     OW32356   5.747   6.269   5.521
10486SOL    HW132357   5.822   6.228   5.572
10486SOL    HW232358   5.763   6.259   5.423
10487SOL     OW32359   4.793   2.200   2.294
10487SOL    HW132360   4.733   2.127   2.259
10487SOL    HW232361   4.888   2.175   2.279
10488SOL     OW32362   6.268   2.543   5.261
10488SOL    HW132363   6.256   2.641   5.248
10488SOL    HW232364   6.252   2.520   5.357
10489SOL     OW32365   6.113   4.260   4.602
10489SOL    HW132366   6.165   4.174   4.599
10489SOL    HW232367   6.111   4.300   4.510
10490SOL     OW32368   5.810   6.396   6.730
10490SOL    HW132369   5.724   6.447   6.726
10490SOL    HW232370   5.791   6.299   6.746
10491SOL     OW32371   1.872   2.851   5.654
10491SOL    HW132372   1.892   2.757   5.683
10491SOL    HW232373   1.890   2.914   5.729
10492SOL     OW32374   3.680   0.150   6.909
10492SOL    HW132375   3.672   0.231   6.852
10492SOL    HW232376   3.674   0.176   7.005
10493SOL     OW32377   4.105   5.333   1.284
10493SOL    HW132378   4.191   5.294   1.252
10493SOL    HW232379   4.063   5.271   1.350
10494SOL     OW32380   1.208   4.410   5.104
10494SOL    HW132381   1.136   4.340   5.111
10494SOL    HW232382   1.293   4.374   5.143
10495SOL     OW32383   6.763   6.502   1.119
10495SOL    HW132384   6.823   6.447   1.062
10495SOL    HW232385   6.672   6.461   1.121
10496SOL     OW32386   0.392   3.013   5.674
10496SOL    HW132387   0.311   3.007   5.732
10496SOL    HW232388   0.364   3.011   5.578
10497SOL     OW32389   1.723   0.258   1.463
10497SOL    HW132390   1.637   0.240   1.415
10497SOL    HW232391   1.706   0.320   1.540
10498SOL     OW32392   4.366   4.095   6.938
10498SOL    HW132393   4.384   4.058   6.847
10498SOL    HW232394   4.344   4.020   7.001
10499SOL     OW32395   6.062   4.428   2.595
10499SOL    HW132396   5.968   4.458   2.613
10499SOL    HW232397   6.110   4.415   2.682
10500SOL     OW32398   0.980   3.175   5.344
10500SOL    HW132399   0.991   3.110   5.269
10500SOL    HW232400   1.056   3.240   5.344
10501SOL     OW32401   3.815   4.837   2.693
10501SOL    HW132402   3.718   4.821   2.714
10501SOL    HW232403   3.832   4.815   2.597
10502SOL     OW32404   3.349   3.768   2.233
10502SOL    HW132405   3.346   3.834   2.158
10502SOL    HW232406   3.262   3.766   2.280
10503SOL     OW32407   6.850   2.612   6.270
10503SOL    HW132408   6.894   2.578   6.353
10503SOL    HW232409   6.835   2.536   6.207
10504SOL     OW32410   1.058   2.712   6.252
10504SOL    HW132411   1.060   2.758   6.341
10504SOL    HW232412   1.071   2.780   6.179
10505SOL     OW32413   5.791   6.670   0.530
10505SOL    HW132414   5.702   6.713   0.542
10505SOL    HW232415   5.779   6.571   0.520
10506SOL     OW32416   1.557   2.885   6.448
10506SOL    HW132417   1.555   2.850   6.542
10506SOL    HW232418   1.591   2.979   6.448
10507SOL     OW32419   0.826   5.230   5.899
10507SOL    HW132420   0.883   5.310   5.917
10507SOL    HW232421   0.882   5.147   5.909
10508SOL     OW32422   1.639   4.870   5.107
10508SOL    HW132423   1.719   4.811   5.106
10508SOL    HW232424   1.564   4.824   5.154
10509SOL     OW32425   4.437   2.296   2.686
10509SOL    HW132426   4.363   2.316   2.750
10509SOL    HW232427   4.467   2.381   2.643
10510SOL     OW32428   5.713   6.117   3.904
10510SOL    HW132429   5.765   6.086   3.825
10510SOL    HW232430   5.633   6.168   3.873
10511SOL     OW32431   4.748   2.132   1.684
10511SOL    HW132432   4.796   2.120   1.771
10511SOL    HW232433   4.767   2.054   1.624
10512SOL     OW32434   4.541   0.706   5.070
10512SOL    HW132435   4.536   0.690   5.168
10512SOL    HW232436   4.635   0.690   5.038
10513SOL     OW32437   4.248   2.832   0.981
10513SOL    HW132438   4.150   2.827   0.964
10513SOL    HW232439   4.298   2.815   0.896
10514SOL     OW32440   1.644   3.356   1.800
10514SOL    HW132441   1.721   3.414   1.774
10514SOL    HW232442   1.559   3.395   1.763
10515SOL     OW32443   2.301   2.810   4.842
10515SOL    HW132444   2.204   2.813   4.817
10515SOL    HW232445   2.323   2.890   4.898
10516SOL     OW32446   3.865   2.050   1.426
10516SOL    HW132447   3.853   2.112   1.503
10516SOL    HW232448   3.960   2.020   1.422
10517SOL     OW32449   1.055   2.468   2.848
10517SOL    HW132450   1.074   2.477   2.751
10517SOL    HW232451   0.959   2.440   2.861
10518SOL     OW32452   0.478   5.302   2.779
10518SOL    HW132453   0.569   5.290   2.739
10518SOL    HW232454   0.415   5.235   2.740
10519SOL     OW32455   4.014   6.985   1.058
10519SOL    HW132456   4.076   6.940   1.122
10519SOL    HW232457   4.032   6.952   0.965
10520SOL     OW32458   0.894   2.666   5.620
10520SOL    HW132459   0.801   2.701   5.612
10520SOL    HW232460   0.942   2.679   5.533
10521SOL     OW32461   0.033   3.083   2.361
10521SOL    HW132462   6.987   3.013   2.353
10521SOL    HW232463   0.056   3.096   2.457
10522SOL     OW32464   5.122   2.377   3.524
10522SOL    HW132465   5.083   2.468   3.508
10522SOL    HW232466   5.198   2.384   3.588
10523SOL     OW32467   1.062   4.357   3.250
10523SOL    HW132468   1.030   4.291   3.181
10523SOL    HW232469   0.994   4.364   3.323
10524SOL     OW32470   6.868   6.079   5.276
10524SOL    HW132471   6.850   6.039   5.186
10524SOL    HW232472   6.966   6.076   5.295
10525SOL     OW32473   4.919   1.596   3.701
10525SOL    HW132474   4.944   1.549   3.616
10525SOL    HW232475   4.935   1.535   3.779
10526SOL     OW32476   0.889   4.444   0.037
10526SOL    HW132477   0.974   4.491   0.062
10526SOL    HW232478   0.850   4.401   0.118
10527SOL     OW32479   0.590   0.151   5.172
10527SOL    HW132480   0.664   0.122   5.233
10527SOL    HW232481   0.503   0.145   5.221
10528SOL     OW32482   1.518   3.451   5.565
10528SOL    HW132483   1.513   3.459   5.465
10528SOL    HW232484   1.591   3.511   5.599
10529SOL     OW32485   6.987   6.083   0.841
10529SOL    HW132486   0.013   6.134   0.910
10529SOL    HW232487   0.026   6.042   0.775
10530SOL     OW32488   6.758   5.757   1.143
10530SOL    HW132489   6.759   5.689   1.070
10530SOL    HW232490   6.841   5.747   1.198
10531SOL     OW32491   2.942   3.343   5.181
10531SOL    HW132492   2.958   3.428   5.232
10531SOL    HW232493   2.902   3.275   5.241
10532SOL     OW32494   5.101   6.317   6.847
10532SOL    HW132495   5.144   6.304   6.758
10532SOL    HW232496   5.169   6.347   6.914
10533SOL     OW32497   4.208   6.565   2.647
10533SOL    HW132498   4.299   6.524   2.640
10533SOL    HW232499   4.199   6.610   2.736
10534SOL     OW32500   1.313   6.285   4.234
10534SOL    HW132501   1.283   6.193   4.211
10534SOL    HW232502   1.263   6.352   4.178
10535SOL     OW32503   3.528   1.875   2.318
10535SOL    HW132504   3.625   1.899   2.323
10535SOL    HW232505   3.483   1.935   2.251
10536SOL     OW32506   4.951   2.785   4.456
10536SOL    HW132507   4.925   2.834   4.373
10536SOL    HW232508   4.899   2.821   4.534
10537SOL     OW32509   3.747   6.741   4.154
10537SOL    HW132510   3.828   6.734   4.095
10537SOL    HW232511   3.728   6.838   4.171
10538SOL     OW32512   0.769   3.757   2.765
10538SOL    HW132513   0.785   3.764   2.863
10538SOL    HW232514   0.672   3.738   2.748
10539SOL     OW32515   6.474   7.005   3.368
10539SOL    HW132516   6.435   0.069   3.391
10539SOL    HW232517   6.541   6.979   3.438
10540SOL     OW32518   1.792   3.859   6.190
10540SOL    HW132519   1.890   3.875   6.198
10540SOL    HW232520   1.751   3.933   6.136
10541SOL     OW32521   3.601   3.197   4.971
10541SOL    HW132522   3.555   3.233   4.889
10541SOL    HW232523   3.675   3.136   4.943
10542SOL     OW32524   4.629   0.361   4.483
10542SOL    HW132525   4.569   0.311   4.546
10542SOL    HW232526   4.711   0.390   4.533
10543SOL     OW32527   1.343   3.650   4.845
10543SOL    HW132528   1.289   3.726   4.881
10543SOL    HW232529   1.284   3.569   4.838
10544SOL     OW32530   2.534   1.613   3.501
10544SOL    HW132531   2.510   1.537   3.562
10544SOL    HW232532   2.497   1.597   3.410
10545SOL     OW32533   2.271   2.833   2.435
10545SOL    HW132534   2.280   2.854   2.338
10545SOL    HW232535   2.314   2.744   2.454
10546SOL     OW32536   3.114   6.726   6.546
10546SOL    HW132537   3.104   6.627   6.534
10546SOL    HW232538   3.045   6.759   6.610
10547SOL     OW32539   4.367   6.609   5.159
10547SOL    HW132540   4.270   6.629   5.170
10547SOL    HW232541   4.377   6.521   5.113
10548SOL     OW32542   6.580   5.845   3.017
10548SOL    HW132543   6.648   5.880   3.081
10548SOL    HW232544   6.508   5.798   3.067
10549SOL     OW32545   0.086   0.522   1.562
10549SOL    HW132546   0.107   0.605   1.613
10549SOL    HW232547   0.162   0.501   1.501
10550SOL     OW32548   4.664   5.518   3.465
10550SOL    HW132549   4.754   5.523   3.422
10550SOL    HW232550   4.664   5.445   3.534
10551SOL     OW32551   3.089   1.039   5.590
10551SOL    HW132552   3.121   1.129   5.562
10551SOL    HW232553   3.069   0.984   5.509
10552SOL     OW32554   2.956   0.443   3.945
10552SOL    HW132555   2.934   0.371   3.880
10552SOL    HW232556   3.037   0.494   3.913
10553SOL     OW32557   6.536   5.621   1.221
10553SOL    HW132558   6.497   5.697   1.272
10553SOL    HW232559   6.629   5.645   1.191
10554SOL     OW32560   5.807   5.984   2.316
10554SOL    HW132561   5.735   5.920   2.288
10554SOL    HW232562   5.844   5.957   2.405
10555SOL     OW32563   3.766   3.682   1.325
10555SOL    HW132564   3.864   3.666   1.335
10555SOL    HW232565   3.720   3.595   1.309
10556SOL     OW32566   2.059   1.545   2.624
10556SOL    HW132567   2.094   1.584   2.709
10556SOL    HW232568   2.100   1.455   2.609
10557SOL     OW32569   2.874   4.860   3.620
10557SOL    HW132570   2.912   4.850   3.712
10557SOL    HW232571   2.788   4.810   3.614
10558SOL     OW32572   3.707   5.270   5.224
10558SOL    HW132573   3.634   5.205   5.245
10558SOL    HW232574   3.735   5.318   5.307
10559SOL     OW32575   4.072   6.610   0.892
10559SOL    HW132576   4.104   6.611   0.987
10559SOL    HW232577   4.065   6.704   0.858
10560SOL     OW32578   5.402   0.035   2.214
10560SOL    HW132579   5.388   0.124   2.171
10560SOL    HW232580   5.373   0.038   2.309
10561SOL     OW32581   6.429   4.537   0.370
10561SOL    HW132582   6.524   4.506   0.364
10561SOL    HW232583   6.409   4.595   0.291
10562SOL     OW32584   4.351   5.786   2.512
10562SOL    HW132585   4.390   5.863   2.461
10562SOL    HW232586   4.287   5.820   2.581
10563SOL     OW32587   0.413   6.512   2.133
10563SOL    HW132588   0.335   6.457   2.165
10563SOL    HW232589   0.460   6.551   2.212
10564SOL     OW32590   5.212   4.409   3.554
10564SOL    HW132591   5.239   4.505   3.562
10564SOL    HW232592   5.119   4.397   3.589
10565SOL     OW32593   0.625   0.496   6.374
10565SOL    HW132594   0.653   0.400   6.374
10565SOL    HW232595   0.547   0.508   6.434
10566SOL     OW32596   3.409   3.116   0.415
10566SOL    HW132597   3.431   3.115   0.317
10566SOL    HW232598   3.371   3.027   0.441
10567SOL     OW32599   1.579   2.167   6.651
10567SOL    HW132600   1.654   2.232   6.670
10567SOL    HW232601   1.561   2.164   6.553
10568SOL     OW32602   4.566   2.225   6.212
10568SOL    HW132603   4.501   2.152   6.189
10568SOL    HW232604   4.516   2.302   6.250
10569SOL     OW32605   5.754   7.004   0.326
10569SOL    HW132606   5.692   6.966   0.394
10569SOL    HW232607   5.707   7.011   0.238
10570SOL     OW32608   1.276   4.499   3.372
10570SOL    HW132609   1.212   4.451   3.312
10570SOL    HW232610   1.369   4.488   3.336
10571SOL     OW32611   6.595   4.347   5.754
10571SOL    HW132612   6.659   4.349   5.677
10571SOL    HW232613   6.557   4.439   5.767
10572SOL     OW32614   6.239   4.157   0.950
10572SOL    HW132615   6.307   4.157   0.876
10572SOL    HW232616   6.148   4.172   0.911
10573SOL     OW32617   6.059   1.852   2.925
10573SOL    HW132618   6.059   1.845   3.025
10573SOL    HW232619   5.966   1.869   2.893
10574SOL     OW32620   6.519   3.119   2.654
10574SOL    HW132621   6.546   3.200   2.601
10574SOL    HW232622   6.428   3.135   2.694
10575SOL     OW32623   6.154   6.861   1.534
10575SOL    HW132624   6.238   6.916   1.537
10575SOL    HW232625   6.078   6.918   1.505
10576SOL     OW32626   1.672   4.351   4.716
10576SOL    HW132627   1.606   4.344   4.641
10576SOL    HW232628   1.623   4.364   4.802
10577SOL     OW32629   3.597   4.366   0.588
10577SOL    HW132630   3.534   4.313   0.531
10577SOL    HW232631   3.549   4.447   0.624
10578SOL     OW32632   0.374   3.534   4.221
10578SOL    HW132633   0.297   3.488   4.266
10578SOL    HW232634   0.361   3.533   4.122
10579SOL     OW32635   0.952   3.580   0.110
10579SOL    HW132636   0.918   3.595   0.017
10579SOL    HW232637   0.874   3.569   0.173
10580SOL     OW32638   6.156   0.011   0.736
10580SOL    HW132639   6.229   0.028   0.669
10580SOL    HW232640   6.069   0.000   0.687
10581SOL     OW32641   5.053   6.890   3.273
10581SOL    HW132642   4.996   6.809   3.288
10581SOL    HW232643   5.147   6.861   3.254
10582SOL     OW32644   6.008   4.079   6.096
10582SOL    HW132645   5.948   4.124   6.161
10582SOL    HW232646   6.001   3.980   6.108
10583SOL     OW32647   2.981   1.948   5.005
10583SOL    HW132648   2.904   1.904   5.051
10583SOL    HW232649   2.963   1.955   4.907
10584SOL     OW32650   1.059   6.765   4.014
10584SOL    HW132651   1.150   6.727   3.993
10584SOL    HW232652   1.062   6.812   4.102
10585SOL     OW32653   1.139   0.356   5.224
10585SOL    HW132654   1.170   0.447   5.194
10585SOL    HW232655   1.120   0.299   5.143
10586SOL     OW32656   4.044   4.222   5.281
10586SOL    HW132657   4.044   4.122   5.277
10586SOL    HW232658   4.129   4.257   5.241
10587SOL     OW32659   2.242   5.104   5.708
10587SOL    HW132660   2.263   5.031   5.643
10587SOL    HW232661   2.291   5.086   5.794
10588SOL     OW32662   1.410   4.191   3.913
10588SOL    HW132663   1.399   4.277   3.964
10588SOL    HW232664   1.508   4.172   3.902
10589SOL     OW32665   5.635   5.842   3.942
10589SOL    HW132666   5.635   5.936   3.909
10589SOL    HW232667   5.712   5.793   3.901
10590SOL     OW32668   0.896   5.454   2.465
10590SOL    HW132669   0.958   5.510   2.521
10590SOL    HW232670   0.868   5.506   2.385
10591SOL     OW32671   7.016   2.835   1.703
10591SOL    HW132672   6.946   2.897   1.737
10591SOL    HW232673   6.981   2.784   1.624
10592SOL     OW32674   6.771   1.887   5.322
10592SOL    HW132675   6.797   1.949   5.248
10592SOL    HW232676   6.684   1.843   5.300
10593SOL     OW32677   3.316   5.297   3.324
10593SOL    HW132678   3.224   5.335   3.321
10593SOL    HW232679   3.382   5.366   3.294
10594SOL     OW32680   3.220   6.119   3.746
10594SOL    HW132681   3.270   6.034   3.765
10594SOL    HW232682   3.261   6.165   3.668
10595SOL     OW32683   5.292   6.845   0.208
10595SOL    HW132684   5.196   6.818   0.203
10595SOL    HW232685   5.348   6.779   0.157
10596SOL     OW32686   4.697   3.226   0.216
10596SOL    HW132687   4.767   3.159   0.241
10596SOL    HW232688   4.733   3.318   0.233
10597SOL     OW32689   2.092   0.063   5.297
10597SOL    HW132690   2.044   0.139   5.253
10597SOL    HW232691   2.121   7.022   5.227
10598SOL     OW32692   2.845   1.531   6.252
10598SOL    HW132693   2.761   1.540   6.198
10598SOL    HW232694   2.878   1.437   6.246
10599SOL     OW32695   0.128   2.240   0.171
10599SOL    HW132696   0.170   2.309   0.111
10599SOL    HW232697   0.123   2.276   0.264
10600SOL     OW32698   3.092   2.427   1.504
10600SOL    HW132699   3.044   2.374   1.574
10600SOL    HW232700   3.127   2.366   1.434
10601SOL     OW32701   1.426   0.907   5.799
10601SOL    HW132702   1.479   0.988   5.774
10601SOL    HW232703   1.465   0.866   5.882
10602SOL     OW32704   6.897   6.945   1.291
10602SOL    HW132705   6.909   6.978   1.385
10602SOL    HW232706   6.983   6.952   1.242
10603SOL     OW32707   5.577   1.018   3.016
10603SOL    HW132708   5.623   0.967   3.089
10603SOL    HW232709   5.492   0.971   2.991
10604SOL     OW32710   4.615   6.915   4.574
10604SOL    HW132711   4.536   6.857   4.593
10604SOL    HW232712   4.690   6.858   4.538
10605SOL     OW32713   2.513   1.600   1.683
10605SOL    HW132714   2.460   1.620   1.766
10605SOL    HW232715   2.597   1.552   1.708
10606SOL     OW32716   6.376   0.654   0.515
10606SOL    HW132717   6.360   0.566   0.559
10606SOL    HW232718   6.457   0.648   0.457
10607SOL     OW32719   2.978   4.597   6.829
10607SOL    HW132720   2.970   4.696   6.819
10607SOL    HW232721   2.970   4.554   6.738
10608SOL     OW32722   5.868   3.880   3.712
10608SOL    HW132723   5.932   3.885   3.636
10608SOL    HW232724   5.875   3.963   3.767
10609SOL     OW32725   5.055   1.462   6.738
10609SOL    HW132726   5.024   1.552   6.769
10609SOL    HW232727   5.127   1.428   6.799
10610SOL     OW32728   0.498   1.634   3.806
10610SOL    HW132729   0.573   1.630   3.872
10610SOL    HW232730   0.470   1.541   3.782
10611SOL     OW32731   4.109   5.409   4.512
10611SOL    HW132732   4.087   5.333   4.451
10611SOL    HW232733   4.054   5.402   4.595
10612SOL     OW32734   5.660   2.007   3.421
10612SOL    HW132735   5.744   2.061   3.428
10612SOL    HW232736   5.591   2.059   3.369
10613SOL     OW32737   4.199   6.174   4.546
10613SOL    HW132738   4.126   6.154   4.480
10613SOL    HW232739   4.188   6.115   4.626
10614SOL     OW32740   4.142   1.791   5.983
10614SOL    HW132741   4.166   1.847   6.063
10614SOL    HW232742   4.043   1.793   5.969
10615SOL     OW32743   2.077   1.792   5.691
10615SOL    HW132744   2.053   1.889   5.687
10615SOL    HW232745   2.155   1.780   5.753
10616SOL     OW32746   2.218   6.493   0.037
10616SOL    HW132747   2.193   6.586   0.009
10616SOL    HW232748   2.302   6.496   0.091
10617SOL     OW32749   2.194   3.436   1.461
10617SOL    HW132750   2.186   3.504   1.388
10617SOL    HW232751   2.159   3.348   1.429
10618SOL     OW32752   1.185   5.283   3.513
10618SOL    HW132753   1.166   5.194   3.472
10618SOL    HW232754   1.137   5.291   3.600
10619SOL     OW32755   1.967   2.529   2.904
10619SOL    HW132756   1.900   2.462   2.871
10619SOL    HW232757   1.921   2.596   2.962
10620SOL     OW32758   3.198   1.675   6.558
10620SOL    HW132759   3.142   1.691   6.477
10620SOL    HW232760   3.139   1.674   6.639
10621SOL     OW32761   0.790   4.206   3.216
10621SOL    HW132762   0.792   4.107   3.233
10621SOL    HW232763   0.715   4.247   3.270
10622SOL     OW32764   4.645   1.794   7.013
10622SOL    HW132765   4.598   1.831   6.934
10622SOL    HW232766   4.619   1.846   0.070
10623SOL     OW32767   4.945   6.844   6.258
10623SOL    HW132768   4.890   6.776   6.306
10623SOL    HW232769   4.885   6.910   6.214
10624SOL     OW32770   0.541   2.258   0.362
10624SOL    HW132771   0.608   2.332   0.352
10624SOL    HW232772   0.501   2.237   0.273
10625SOL     OW32773   5.367   5.006   0.135
10625SOL    HW132774   5.432   5.046   0.199
10625SOL    HW232775   5.291   5.069   0.121
10626SOL     OW32776   5.116   3.099   1.014
10626SOL    HW132777   5.193   3.093   0.950
10626SOL    HW232778   5.100   3.008   1.054
10627SOL     OW32779   5.576   5.428   5.658
10627SOL    HW132780   5.565   5.399   5.564
10627SOL    HW232781   5.667   5.402   5.690
10628SOL     OW32782   3.799   6.894   0.811
10628SOL    HW132783   3.716   6.950   0.819
10628SOL    HW232784   3.778   6.799   0.835
10629SOL     OW32785   3.341   5.593   4.617
10629SOL    HW132786   3.392   5.616   4.700
10629SOL    HW232787   3.404   5.555   4.550
10630SOL     OW32788   4.133   1.182   2.034
10630SOL    HW132789   4.035   1.166   2.020
10630SOL    HW232790   4.145   1.259   2.097
10631SOL     OW32791   3.673   6.102   0.587
10631SOL    HW132792   3.625   6.042   0.522
10631SOL    HW232793   3.609   6.131   0.658
10632SOL     OW32794   5.187   6.261   3.382
10632SOL    HW132795   5.147   6.305   3.463
10632SOL    HW232796   5.197   6.163   3.399
10633SOL     OW32797   1.504   3.392   1.019
10633SOL    HW132798   1.442   3.443   0.960
10633SOL    HW232799   1.500   3.429   1.112
10634SOL     OW32800   0.529   3.764   0.061
10634SOL    HW132801   0.588   3.843   0.076
10634SOL    HW232802   0.466   3.783   7.011
10635SOL     OW32803   2.402   4.817   6.111
10635SOL    HW132804   2.441   4.777   6.194
10635SOL    HW232805   2.476   4.842   6.048
10636SOL     OW32806   6.970   2.113   0.019
10636SOL    HW132807   7.024   2.153   0.093
10636SOL    HW232808   6.921   2.186   6.995
10637SOL     OW32809   2.795   0.821   6.975
10637SOL    HW132810   2.800   0.823   6.875
10637SOL    HW232811   2.878   0.862   7.014
10638SOL     OW32812   5.880   5.731   1.652
10638SOL    HW132813   5.858   5.638   1.624
10638SOL    HW232814   5.951   5.729   1.722
10639SOL     OW32815   0.960   5.129   1.748
10639SOL    HW132816   1.023   5.108   1.823
10639SOL    HW232817   0.977   5.067   1.672
10640SOL     OW32818   4.197   6.448   3.357
10640SOL    HW132819   4.218   6.395   3.439
10640SOL    HW232820   4.237   6.539   3.365
10641SOL     OW32821   1.236   1.212   3.841
10641SOL    HW132822   1.182   1.144   3.790
10641SOL    HW232823   1.206   1.213   3.937
10642SOL     OW32824   6.412   2.507   6.170
10642SOL    HW132825   6.438   2.487   6.076
10642SOL    HW232826   6.384   2.422   6.215
10643SOL     OW32827   2.399   5.094   5.961
10643SOL    HW132828   2.452   5.014   5.932
10643SOL    HW232829   2.324   5.065   6.020
10644SOL     OW32830   6.638   3.333   2.535
10644SOL    HW132831   6.656   3.348   2.438
10644SOL    HW232832   6.632   3.422   2.581
10645SOL     OW32833   2.619   2.446   3.714
10645SOL    HW132834   2.663   2.421   3.628
10645SOL    HW232835   2.583   2.539   3.706
10646SOL     OW32836   5.543   0.607   3.753
10646SOL    HW132837   5.596   0.526   3.777
10646SOL    HW232838   5.462   0.580   3.700
10647SOL     OW32839   3.236   5.467   4.964
10647SOL    HW132840   3.183   5.548   4.940
10647SOL    HW232841   3.333   5.490   4.966
10648SOL     OW32842   4.773   4.642   6.209
10648SOL    HW132843   4.769   4.543   6.190
10648SOL    HW232844   4.821   4.688   6.135
10649SOL     OW32845   6.667   3.879   2.585
10649SOL    HW132846   6.582   3.901   2.632
10649SOL    HW232847   6.744   3.922   2.634
10650SOL     OW32848   0.498   0.238   3.623
10650SOL    HW132849   0.503   0.142   3.597
10650SOL    HW232850   0.585   0.266   3.663
10651SOL     OW32851   3.695   6.084   6.114
10651SOL    HW132852   3.786   6.108   6.080
10651SOL    HW232853   3.631   6.078   6.037
10652SOL     OW32854   2.478   0.596   0.005
10652SOL    HW132855   2.528   0.642   0.078
10652SOL    HW232856   2.522   0.508   7.010
10653SOL     OW32857   4.289   5.858   4.138
10653SOL    HW132858   4.378   5.820   4.115
10653SOL    HW232859   4.300   5.931   4.206
10654SOL     OW32860   6.151   1.502   4.368
10654SOL    HW132861   6.183   1.408   4.352
10654SOL    HW232862   6.150   1.552   4.282
10655SOL     OW32863   0.037   4.869   1.411
10655SOL    HW132864   0.034   4.929   1.331
10655SOL    HW232865   7.015   4.783   1.390
10656SOL     OW32866   5.822   2.930   3.513
10656SOL    HW132867   5.820   2.930   3.613
10656SOL    HW232868   5.879   2.854   3.482
10657SOL     OW32869   4.805   6.364   4.499
10657SOL    HW132870   4.730   6.409   4.547
10657SOL    HW232871   4.794   6.377   4.400
10658SOL     OW32872   1.020   2.973   4.799
10658SOL    HW132873   0.978   3.064   4.799
10658SOL    HW232874   1.119   2.983   4.789
10659SOL     OW32875   1.081   5.544   0.648
10659SOL    HW132876   1.083   5.588   0.738
10659SOL    HW232877   1.129   5.602   0.582
10660SOL     OW32878   5.739   2.930   5.425
10660SOL    HW132879   5.819   2.875   5.400
10660SOL    HW232880   5.729   3.006   5.362
10661SOL     OW32881   2.308   4.779   5.602
10661SOL    HW132882   2.315   4.781   5.702
10661SOL    HW232883   2.379   4.838   5.563
10662SOL     OW32884   2.730   1.308   2.062
10662SOL    HW132885   2.827   1.287   2.076
10662SOL    HW232886   2.679   1.223   2.047
10663SOL     OW32887   1.190   1.636   3.589
10663SOL    HW132888   1.173   1.545   3.627
10663SOL    HW232889   1.124   1.701   3.625
10664SOL     OW32890   1.001   5.419   4.703
10664SOL    HW132891   0.952   5.339   4.737
10664SOL    HW232892   1.099   5.405   4.713
10665SOL     OW32893   2.446   2.772   6.740
10665SOL    HW132894   2.366   2.766   6.681
10665SOL    HW232895   2.526   2.800   6.686
10666SOL     OW32896   3.269   3.775   1.901
10666SOL    HW132897   3.311   3.865   1.916
10666SOL    HW232898   3.266   3.756   1.803
10667SOL     OW32899   5.163   2.428   3.894
10667SOL    HW132900   5.130   2.473   3.977
10667SOL    HW232901   5.252   2.386   3.911
10668SOL     OW32902   3.332   2.750   5.548
10668SOL    HW132903   3.374   2.669   5.589
10668SOL    HW232904   3.399   2.796   5.490
10669SOL     OW32905   6.216   1.547   1.306
10669SOL    HW132906   6.283   1.485   1.347
10669SOL    HW232907   6.145   1.493   1.260
10670SOL     OW32908   4.870   3.391   4.274
10670SOL    HW132909   4.903   3.457   4.206
10670SOL    HW232910   4.775   3.368   4.254
10671SOL     OW32911   1.510   2.764   4.309
10671SOL    HW132912   1.586   2.760   4.244
10671SOL    HW232913   1.544   2.743   4.400
10672SOL     OW32914   5.877   3.093   1.402
10672SOL    HW132915   5.868   3.117   1.499
10672SOL    HW232916   5.833   3.163   1.346
10673SOL     OW32917   1.909   1.583   1.128
10673SOL    HW132918   1.855   1.499   1.136
10673SOL    HW232919   1.888   1.627   1.040
10674SOL     OW32920   3.403   3.864   3.173
10674SOL    HW132921   3.416   3.800   3.249
10674SOL    HW232922   3.354   3.945   3.206
10675SOL     OW32923   4.211   6.566   5.634
10675SOL    HW132924   4.131   6.570   5.574
10675SOL    HW232925   4.219   6.651   5.686
10676SOL     OW32926   1.898   6.706   5.329
10676SOL    HW132927   1.986   6.743   5.358
10676SOL    HW232928   1.897   6.607   5.346
10677SOL     OW32929   0.241   1.663   1.011
10677SOL    HW132930   0.181   1.723   1.063
10677SOL    HW232931   0.191   1.624   0.933
10678SOL     OW32932   4.155   5.777   3.477
10678SOL    HW132933   4.142   5.758   3.574
10678SOL    HW232934   4.239   5.831   3.464
10679SOL     OW32935   3.930   3.182   6.624
10679SOL    HW132936   4.009   3.197   6.565
10679SOL    HW232937   3.884   3.270   6.642
10680SOL     OW32938   4.052   0.784   4.180
10680SOL    HW132939   4.151   0.769   4.175
10680SOL    HW232940   4.017   0.807   4.089
10681SOL     OW32941   1.174   2.921   5.491
10681SOL    HW132942   1.230   3.002   5.503
10681SOL    HW232943   1.077   2.947   5.489
10682SOL     OW32944   5.171   3.267   5.991
10682SOL    HW132945   5.243   3.265   6.060
10682SOL    HW232946   5.087   3.304   6.032
10683SOL     OW32947   3.069   0.827   3.315
10683SOL    HW132948   3.038   0.760   3.382
10683SOL    HW232949   3.010   0.824   3.234
10684SOL     OW32950   4.465   4.538   1.961
10684SOL    HW132951   4.447   4.566   1.867
10684SOL    HW232952   4.468   4.438   1.967
10685SOL     OW32953   0.993   5.778   1.569
10685SOL    HW132954   0.953   5.714   1.503
10685SOL    HW232955   0.974   5.872   1.541
10686SOL     OW32956   2.530   2.450   6.535
10686SOL    HW132957   2.581   2.533   6.514
10686SOL    HW232958   2.432   2.468   6.527
10687SOL     OW32959   0.887   4.338   3.449
10687SOL    HW132960   0.825   4.270   3.408
10687SOL    HW232961   0.907   4.312   3.543
10688SOL     OW32962   5.543   2.070   2.439
10688SOL    HW132963   5.544   2.074   2.539
10688SOL    HW232964   5.633   2.094   2.404
10689SOL     OW32965   6.853   0.121   2.432
10689SOL    HW132966   6.866   0.220   2.420
10689SOL    HW232967   6.755   0.101   2.440
10690SOL     OW32968   0.087   0.080   3.697
10690SOL    HW132969   0.104   0.165   3.746
10690SOL    HW232970   0.051   0.011   3.760
10691SOL     OW32971   3.448   0.659   2.835
10691SOL    HW132972   3.463   0.639   2.739
10691SOL    HW232973   3.404   0.581   2.879
10692SOL     OW32974   2.345   0.135   3.849
10692SOL    HW132975   2.339   0.212   3.913
10692SOL    HW232976   2.438   0.131   3.811
10693SOL     OW32977   1.421   6.171   0.500
10693SOL    HW132978   1.472   6.162   0.415
10693SOL    HW232979   1.481   6.150   0.577
10694SOL     OW32980   4.671   6.238   5.285
10694SOL    HW132981   4.638   6.297   5.359
10694SOL    HW232982   4.595   6.211   5.226
10695SOL     OW32983   0.136   4.234   1.798
10695SOL    HW132984   0.200   4.205   1.727
10695SOL    HW232985   0.175   4.217   1.888
10696SOL     OW32986   6.957   5.589   4.652
10696SOL    HW132987   6.865   5.556   4.630
10696SOL    HW232988   6.988   5.649   4.579
10697SOL     OW32989   1.792   4.674   6.154
10697SOL    HW132990   1.859   4.641   6.087
10697SOL    HW232991   1.742   4.596   6.192
10698SOL     OW32992   4.368   3.146   6.883
10698SOL    HW132993   4.422   3.068   6.851
10698SOL    HW232994   4.365   3.145   6.983
10699SOL     OW32995   3.311   3.980   0.174
10699SOL    HW132996   3.339   3.917   0.101
10699SOL    HW232997   3.321   4.074   0.142
10700SOL     OW32998   4.810   0.728   0.845
10700SOL    HW132999   4.777   0.819   0.818
10700SOL    HW233000   4.744   0.686   0.907
10701SOL     OW33001   2.751   0.912   6.338
10701SOL    HW133002   2.672   0.906   6.400
10701SOL    HW233003   2.803   0.828   6.342
10702SOL     OW33004   5.451   2.325   2.306
10702SOL    HW133005   5.441   2.250   2.371
10702SOL    HW233006   5.363   2.371   2.295
10703SOL     OW33007   1.418   2.689   6.305
10703SOL    HW133008   1.383   2.641   6.385
10703SOL    HW233009   1.495   2.747   6.331
10704SOL     OW33010   6.319   0.092   1.634
10704SOL    HW133011   6.245   0.076   1.700
10704SOL    HW233012   6.402   0.046   1.665
10705SOL     OW33013   5.763   4.288   1.122
10705SOL    HW133014   5.735   4.279   1.026
10705SOL    HW233015   5.738   4.205   1.172
10706SOL     OW33016   4.755   0.684   1.896
10706SOL    HW133017   4.794   0.706   1.986
10706SOL    HW233018   4.821   0.630   1.844
10707SOL     OW33019   5.864   0.228   4.019
10707SOL    HW133020   5.883   0.131   4.007
10707SOL    HW233021   5.850   0.247   4.116
10708SOL     OW33022   3.987   2.161   2.255
10708SOL    HW133023   3.979   2.241   2.196
10708SOL    HW233024   3.974   2.188   2.351
10709SOL     OW33025   5.872   5.190   3.811
10709SOL    HW133026   5.798   5.202   3.876
10709SOL    HW233027   5.951   5.149   3.858
10710SOL     OW33028   5.739   1.498   3.050
10710SOL    HW133029   5.812   1.535   2.993
10710SOL    HW233030   5.689   1.428   2.999
10711SOL     OW33031   3.876   6.711   1.579
10711SOL    HW133032   3.958   6.760   1.548
10711SOL    HW233033   3.838   6.757   1.659
10712SOL     OW33034   4.447   6.850   2.802
10712SOL    HW133035   4.407   6.759   2.804
10712SOL    HW233036   4.513   6.855   2.727
10713SOL     OW33037   1.443   4.116   0.967
10713SOL    HW133038   1.377   4.057   1.012
10713SOL    HW233039   1.509   4.150   1.034
10714SOL     OW33040   4.063   3.171   4.151
10714SOL    HW133041   4.013   3.085   4.142
10714SOL    HW233042   4.051   3.208   4.243
10715SOL     OW33043   5.977   1.016   2.123
10715SOL    HW133044   5.975   0.943   2.190
10715SOL    HW233045   5.910   0.998   2.051
10716SOL     OW33046   6.560   2.604   3.113
10716SOL    HW133047   6.591   2.549   3.191
10716SOL    HW233048   6.501   2.548   3.054
10717SOL     OW33049   0.737   2.355   6.853
10717SOL    HW133050   0.637   2.352   6.855
10717SOL    HW233051   0.767   2.451   6.847
10718SOL     OW33052   1.240   4.689   5.716
10718SOL    HW133053   1.254   4.594   5.743
10718SOL    HW233054   1.304   4.712   5.642
10719SOL     OW33055   6.649   5.632   4.314
10719SOL    HW133056   6.556   5.665   4.294
10719SOL    HW233057   6.655   5.535   4.293
10720SOL     OW33058   5.685   5.584   4.352
10720SOL    HW133059   5.745   5.663   4.339
10720SOL    HW233060   5.639   5.563   4.265
10721SOL     OW33061   5.117   3.825   5.148
10721SOL    HW133062   5.191   3.780   5.199
10721SOL    HW233063   5.155   3.868   5.066
10722SOL     OW33064   6.918   3.908   6.090
10722SOL    HW133065   6.874   3.957   6.016
10722SOL    HW233066   6.912   3.961   6.175
10723SOL     OW33067   0.223   0.439   0.017
10723SOL    HW133068   0.321   0.455   0.032
10723SOL    HW233069   0.187   0.383   0.091
10724SOL     OW33070   6.993   6.671   0.499
10724SOL    HW133071   0.013   6.695   0.412
10724SOL    HW233072   6.909   6.620   0.480
10725SOL     OW33073   2.366   5.639   5.358
10725SOL    HW133074   2.415   5.555   5.333
10725SOL    HW233075   2.401   5.715   5.304
10726SOL     OW33076   5.081   0.721   3.789
10726SOL    HW133077   5.016   0.688   3.721
10726SOL    HW233078   5.116   0.642   3.841
10727SOL     OW33079   1.418   5.988   6.329
10727SOL    HW133080   1.391   6.069   6.382
10727SOL    HW233081   1.435   5.911   6.390
10728SOL     OW33082   6.732   5.344   0.564
10728SOL    HW133083   6.686   5.293   0.637
10728SOL    HW233084   6.663   5.383   0.502
10729SOL     OW33085   6.531   2.453   1.509
10729SOL    HW133086   6.467   2.376   1.499
10729SOL    HW233087   6.624   2.421   1.496
10730SOL     OW33088   3.963   0.508   1.761
10730SOL    HW133089   3.973   0.583   1.696
10730SOL    HW233090   3.949   0.422   1.711
10731SOL     OW33091   3.795   0.886   0.689
10731SOL    HW133092   3.748   0.960   0.641
10731SOL    HW233093   3.794   0.803   0.633
10732SOL     OW33094   6.999   5.245   4.729
10732SOL    HW133095   6.935   5.196   4.670
10732SOL    HW233096   7.008   5.339   4.698
10733SOL     OW33097   5.954   1.980   6.702
10733SOL    HW133098   6.006   2.065   6.696
10733SOL    HW233099   5.881   1.981   6.634
10734SOL     OW33100   0.896   1.568   1.207
10734SOL    HW133101   0.975   1.537   1.258
10734SOL    HW233102   0.886   1.667   1.216
10735SOL     OW33103   0.073   3.776   2.183
10735SOL    HW133104   0.108   3.683   2.190
10735SOL    HW233105   0.137   3.839   2.227
10736SOL     OW33106   2.540   6.812   4.282
10736SOL    HW133107   2.506   6.758   4.205
10736SOL    HW233108   2.568   6.902   4.249
10737SOL     OW33109   0.234   2.431   1.755
10737SOL    HW133110   0.310   2.370   1.780
10737SOL    HW233111   0.242   2.517   1.805
10738SOL     OW33112   4.067   6.955   2.857
10738SOL    HW133113   4.077   7.020   2.933
10738SOL    HW233114   3.970   6.933   2.845
10739SOL     OW33115   1.897   2.468   1.590
10739SOL    HW133116   1.942   2.500   1.674
10739SOL    HW233117   1.820   2.529   1.568
10740SOL     OW33118   5.473   4.855   4.971
10740SOL    HW133119   5.430   4.804   4.896
10740SOL    HW233120   5.548   4.910   4.934
10741SOL     OW33121   3.649   0.622   2.167
10741SOL    HW133122   3.644   0.573   2.254
10741SOL    HW233123   3.613   0.564   2.094
10742SOL     OW33124   5.854   5.047   1.442
10742SOL    HW133125   5.903   5.110   1.502
10742SOL    HW233126   5.895   5.049   1.350
10743SOL     OW33127   2.364   2.426   3.862
10743SOL    HW133128   2.436   2.417   3.793
10743SOL    HW233129   2.403   2.415   3.953
10744SOL     OW33130   3.625   2.057   1.271
10744SOL    HW133131   3.617   1.982   1.205
10744SOL    HW233132   3.697   2.036   1.336
10745SOL     OW33133   6.901   6.094   5.959
10745SOL    HW133134   6.999   6.110   5.970
10745SOL    HW233135   6.875   6.106   5.863
10746SOL     OW33136   1.009   3.606   5.380
10746SOL    HW133137   1.020   3.646   5.289
10746SOL    HW233138   0.925   3.640   5.421
10747SOL     OW33139   3.078   1.037   4.450
10747SOL    HW133140   2.981   1.056   4.436
10747SOL    HW233141   3.132   1.109   4.405
10748SOL     OW33142   5.283   1.179   2.472
10748SOL    HW133143   5.313   1.271   2.493
10748SOL    HW233144   5.337   1.142   2.396
10749SOL     OW33145   1.028   6.630   5.183
10749SOL    HW133146   0.955   6.696   5.201
10749SOL    HW233147   1.013   6.548   5.238
10750SOL     OW33148   4.117   0.610   5.002
10750SOL    HW133149   4.209   0.638   4.975
10750SOL    HW233150   4.050   0.678   4.971
10751SOL     OW33151   2.330   5.163   4.179
10751SOL    HW133152   2.393   5.130   4.109
10751SOL    HW233153   2.279   5.087   4.217
10752SOL     OW33154   5.132   4.758   4.946
10752SOL    HW133155   5.063   4.822   4.909
10752SOL    HW233156   5.122   4.752   5.045
10753SOL     OW33157   0.169   3.211   3.808
10753SOL    HW133158   0.196   3.255   3.722
10753SOL    HW233159   0.189   3.271   3.885
10754SOL     OW33160   0.867   6.999   3.075
10754SOL    HW133161   0.863   7.024   2.979
10754SOL    HW233162   0.930   6.922   3.087
10755SOL     OW33163   6.602   0.033   1.997
10755SOL    HW133164   6.686   0.039   2.051
10755SOL    HW233165   6.553   0.120   2.003
10756SOL     OW33166   6.575   5.671   5.509
10756SOL    HW133167   6.490   5.643   5.465
10756SOL    HW233168   6.644   5.599   5.498
10757SOL     OW33169   1.765   2.653   0.255
10757SOL    HW133170   1.806   2.581   0.199
10757SOL    HW233171   1.837   2.716   0.286
10758SOL     OW33172   0.276   6.437   3.693
10758SOL    HW133173   0.345   6.453   3.622
10758SOL    HW233174   0.322   6.420   3.781
10759SOL     OW33175   0.603   3.031   0.727
10759SOL    HW133176   0.533   2.971   0.688
10759SOL    HW233177   0.631   3.098   0.658
10760SOL     OW33178   5.873   0.988   3.652
10760SOL    HW133179   5.819   1.061   3.695
10760SOL    HW233180   5.811   0.924   3.607
10761SOL     OW33181   2.031   5.247   6.177
10761SOL    HW133182   1.939   5.282   6.193
10761SOL    HW233183   2.026   5.168   6.116
10762SOL     OW33184   2.783   0.458   4.953
10762SOL    HW133185   2.850   0.520   4.912
10762SOL    HW233186   2.809   0.364   4.937
10763SOL     OW33187   3.753   0.992   3.634
10763SOL    HW133188   3.699   1.069   3.599
10763SOL    HW233189   3.699   0.908   3.629
10764SOL     OW33190   4.742   1.473   4.342
10764SOL    HW133191   4.769   1.568   4.358
10764SOL    HW233192   4.643   1.468   4.329
10765SOL     OW33193   4.761   3.276   1.125
10765SOL    HW133194   4.819   3.218   1.182
10765SOL    HW233195   4.770   3.248   1.029
10766SOL     OW33196   3.524   3.799   0.952
10766SOL    HW133197   3.485   3.844   0.873
10766SOL    HW233198   3.452   3.780   1.019
10767SOL     OW33199   2.336   0.244   1.091
10767SOL    HW133200   2.327   0.153   1.049
10767SOL    HW233201   2.353   0.233   1.189
10768SOL     OW33202   6.790   4.945   0.725
10768SOL    HW133203   6.771   4.935   0.823
10768SOL    HW233204   6.769   4.859   0.678
10769SOL     OW33205   2.419   3.364   6.047
10769SOL    HW133206   2.402   3.450   6.095
10769SOL    HW233207   2.469   3.383   5.963
10770SOL     OW33208   4.562   5.997   3.199
10770SOL    HW133209   4.606   5.944   3.127
10770SOL    HW233210   4.580   5.955   3.288
10771SOL     OW33211   3.356   6.935   3.964
10771SOL    HW133212   3.317   6.916   4.054
10771SOL    HW233213   3.282   6.954   3.899
10772SOL     OW33214   6.424   5.425   4.492
10772SOL    HW133215   6.373   5.463   4.570
10772SOL    HW233216   6.364   5.420   4.412
10773SOL     OW33217   5.330   4.450   4.376
10773SOL    HW133218   5.323   4.446   4.476
10773SOL    HW233219   5.389   4.376   4.345
10774SOL     OW33220   1.563   1.077   3.941
10774SOL    HW133221   1.486   1.128   3.904
10774SOL    HW233222   1.586   1.112   4.032
10775SOL     OW33223   1.130   4.536   1.865
10775SOL    HW133224   1.166   4.452   1.907
10775SOL    HW233225   1.032   4.541   1.881
10776SOL     OW33226   2.024   1.022   6.341
10776SOL    HW133227   1.967   1.021   6.424
10776SOL    HW233228   2.105   0.966   6.356
10777SOL     OW33229   3.179   5.555   1.504
10777SOL    HW133230   3.130   5.495   1.566
10777SOL    HW233231   3.230   5.624   1.557
10778SOL     OW33232   5.484   6.349   4.038
10778SOL    HW133233   5.503   6.314   3.947
10778SOL    HW233234   5.400   6.307   4.073
10779SOL     OW33235   6.167   2.647   3.621
10779SOL    HW133236   6.254   2.627   3.576
10779SOL    HW233237   6.179   2.725   3.682
10780SOL     OW33238   0.776   1.153   3.164
10780SOL    HW133239   0.872   1.164   3.187
10780SOL    HW233240   0.719   1.189   3.238
10781SOL     OW33241   3.755   0.211   4.327
10781SOL    HW133242   3.758   0.302   4.284
10781SOL    HW233243   3.664   0.197   4.366
10782SOL     OW33244   5.968   6.949   4.369
10782SOL    HW133245   6.062   6.934   4.337
10782SOL    HW233246   5.904   6.930   4.295
10783SOL     OW33247   6.681   3.029   3.094
10783SOL    HW133248   6.595   2.981   3.112
10783SOL    HW233249   6.664   3.103   3.029
10784SOL     OW33250   2.976   1.290   4.044
10784SOL    HW133251   2.898   1.305   4.104
10784SOL    HW233252   3.040   1.226   4.087
10785SOL     OW33253   0.538   4.214   0.120
10785SOL    HW133254   0.584   4.242   0.036
10785SOL    HW233255   0.477   4.138   0.102
10786SOL     OW33256   6.333   5.969   2.690
10786SOL    HW133257   6.339   5.941   2.594
10786SOL    HW233258   6.283   5.900   2.742
10787SOL     OW33259   0.689   1.083   5.156
10787SOL    HW133260   0.604   1.054   5.112
10787SOL    HW233261   0.754   1.007   5.156
10788SOL     OW33262   0.287   4.254   6.729
10788SOL    HW133263   0.297   4.354   6.726
10788SOL    HW233264   0.193   4.231   6.757
10789SOL     OW33265   6.811   2.328   0.233
10789SOL    HW133266   6.792   2.336   0.331
10789SOL    HW233267   6.825   2.231   0.210
10790SOL     OW33268   0.381   6.979   1.948
10790SOL    HW133269   0.338   0.037   1.983
10790SOL    HW233270   0.446   7.003   1.876
10791SOL     OW33271   6.057   5.900   2.253
10791SOL    HW133272   5.981   5.961   2.274
10791SOL    HW233273   6.114   5.941   2.182
10792SOL     OW33274   3.904   3.692   5.315
10792SOL    HW133275   3.807   3.710   5.333
10792SOL    HW233276   3.953   3.683   5.402
10793SOL     OW33277   5.828   3.587   5.162
10793SOL    HW133278   5.881   3.577   5.246
10793SOL    HW233279   5.871   3.657   5.104
10794SOL     OW33280   3.292   3.458   3.971
10794SOL    HW133281   3.210   3.463   4.028
10794SOL    HW233282   3.373   3.469   4.027
10795SOL     OW33283   1.135   4.506   2.936
10795SOL    HW133284   1.115   4.603   2.925
10795SOL    HW233285   1.134   4.461   2.846
10796SOL     OW33286   0.617   6.547   5.242
10796SOL    HW133287   0.636   6.466   5.187
10796SOL    HW233288   0.547   6.603   5.196
10797SOL     OW33289   3.975   3.120   0.056
10797SOL    HW133290   3.930   3.116   6.992
10797SOL    HW233291   4.005   3.214   0.074
10798SOL     OW33292   1.634   1.153   1.524
10798SOL    HW133293   1.626   1.181   1.620
10798SOL    HW233294   1.713   1.093   1.514
10799SOL     OW33295   4.035   0.735   2.713
10799SOL    HW133296   3.962   0.675   2.746
10799SOL    HW233297   4.039   0.730   2.613
10800SOL     OW33298   1.133   6.268   0.095
10800SOL    HW133299   1.117   6.316   0.182
10800SOL    HW233300   1.047   6.259   0.046
10801SOL     OW33301   1.669   0.598   0.446
10801SOL    HW133302   1.735   0.525   0.462
10801SOL    HW233303   1.715   0.687   0.446
10802SOL     OW33304   6.280   6.384   3.293
10802SOL    HW133305   6.287   6.484   3.287
10802SOL    HW233306   6.190   6.359   3.329
10803SOL     OW33307   1.536   5.504   6.583
10803SOL    HW133308   1.530   5.497   6.682
10803SOL    HW233309   1.514   5.416   6.541
10804SOL     OW33310   0.716   3.243   3.833
10804SOL    HW133311   0.663   3.203   3.908
10804SOL    HW233312   0.716   3.179   3.756
10805SOL     OW33313   6.024   0.751   5.218
10805SOL    HW133314   6.115   0.734   5.179
10805SOL    HW233315   5.968   0.669   5.209
10806SOL     OW33316   2.522   4.446   6.957
10806SOL    HW133317   2.563   4.419   0.019
10806SOL    HW233318   2.473   4.369   6.917
10807SOL     OW33319   2.598   5.920   3.820
10807SOL    HW133320   2.556   5.830   3.808
10807SOL    HW233321   2.532   5.983   3.861
10808SOL     OW33322   0.058   2.359   5.854
10808SOL    HW133323   0.136   2.422   5.854
10808SOL    HW233324   0.049   2.317   5.944
10809SOL     OW33325   2.375   5.445   4.384
10809SOL    HW133326   2.373   5.501   4.302
10809SOL    HW233327   2.356   5.350   4.361
10810SOL     OW33328   0.581   0.281   4.523
10810SOL    HW133329   0.660   0.293   4.583
10810SOL    HW233330   0.609   0.292   4.428
10811SOL     OW33331   4.908   5.497   4.713
10811SOL    HW133332   5.004   5.494   4.743
10811SOL    HW233333   4.860   5.569   4.763
10812SOL     OW33334   0.168   2.995   6.806
10812SOL    HW133335   0.181   2.958   6.715
10812SOL    HW233336   0.253   2.987   6.858
10813SOL     OW33337   0.276   3.632   6.136
10813SOL    HW133338   0.284   3.543   6.091
10813SOL    HW233339   0.263   3.703   6.067
10814SOL     OW33340   2.221   0.447   0.044
10814SOL    HW133341   2.181   0.377   7.009
10814SOL    HW233342   2.300   0.489   7.023
10815SOL     OW33343   5.297   0.895   4.313
10815SOL    HW133344   5.234   0.910   4.236
10815SOL    HW233345   5.386   0.934   4.292
10816SOL     OW33346   3.588   2.922   3.673
10816SOL    HW133347   3.512   2.899   3.613
10816SOL    HW233348   3.660   2.967   3.619
10817SOL     OW33349   2.518   7.022   2.850
10817SOL    HW133350   2.506   0.048   2.765
10817SOL    HW233351   2.613   6.991   2.858
10818SOL     OW33352   4.624   4.867   6.045
10818SOL    HW133353   4.671   4.794   6.095
10818SOL    HW233354   4.629   4.849   5.947
10819SOL     OW33355   0.030   5.632   6.590
10819SOL    HW133356   0.016   5.718   6.638
10819SOL    HW233357   0.010   5.643   6.493
10820SOL     OW33358   1.738   4.855   5.591
10820SOL    HW133359   1.836   4.856   5.575
10820SOL    HW233360   1.705   4.949   5.602
10821SOL     OW33361   5.058   5.089   3.026
10821SOL    HW133362   5.078   5.004   2.977
10821SOL    HW233363   4.975   5.131   2.988
10822SOL     OW33364   5.588   2.811   0.446
10822SOL    HW133365   5.669   2.761   0.416
10822SOL    HW233366   5.616   2.896   0.492
10823SOL     OW33367   6.598   6.548   3.261
10823SOL    HW133368   6.620   6.549   3.359
10823SOL    HW233369   6.630   6.462   3.220
10824SOL     OW33370   1.302   1.478   4.565
10824SOL    HW133371   1.231   1.519   4.508
10824SOL    HW233372   1.290   1.507   4.660
10825SOL     OW33373   1.270   1.881   1.066
10825SOL    HW133374   1.305   1.974   1.061
10825SOL    HW233375   1.295   1.840   1.154
10826SOL     OW33376   1.273   2.352   3.043
10826SOL    HW133377   1.326   2.298   2.977
10826SOL    HW233378   1.186   2.378   3.001
10827SOL     OW33379   6.800   3.317   5.309
10827SOL    HW133380   6.849   3.235   5.337
10827SOL    HW233381   6.752   3.356   5.387
10828SOL     OW33382   6.374   4.143   6.269
10828SOL    HW133383   6.459   4.196   6.272
10828SOL    HW233384   6.394   4.049   6.298
10829SOL     OW33385   4.144   3.680   5.783
10829SOL    HW133386   4.229   3.631   5.803
10829SOL    HW233387   4.157   3.778   5.797
10830SOL     OW33388   4.954   1.406   3.878
10830SOL    HW133389   4.860   1.377   3.895
10830SOL    HW233390   5.000   1.339   3.820
10831SOL     OW33391   3.699   1.086   2.689
10831SOL    HW133392   3.642   1.128   2.760
10831SOL    HW233393   3.641   1.062   2.611
10832SOL     OW33394   6.905   3.465   0.242
10832SOL    HW133395   6.818   3.435   0.281
10832SOL    HW233396   6.908   3.565   0.241
10833SOL     OW33397   0.729   0.790   0.636
10833SOL    HW133398   0.700   0.775   0.730
10833SOL    HW233399   0.815   0.742   0.619
10834SOL     OW33400   6.170   6.785   0.586
10834SOL    HW133401   6.259   6.830   0.582
10834SOL    HW233402   6.138   6.782   0.681
10835SOL     OW33403   6.659   2.738   5.613
10835SOL    HW133404   6.705   2.730   5.702
10835SOL    HW233405   6.682   2.659   5.556
10836SOL     OW33406   0.266   1.854   3.557
10836SOL    HW133407   0.250   1.952   3.549
10836SOL    HW233408   0.272   1.828   3.653
10837SOL     OW33409   0.104   4.225   2.763
10837SOL    HW133410   0.149   4.151   2.814
10837SOL    HW233411   0.005   4.218   2.774
10838SOL     OW33412   5.849   5.692   3.849
10838SOL    HW133413   5.910   5.677   3.928
10838SOL    HW233414   5.883   5.770   3.796
10839SOL     OW33415   4.806   3.990   0.391
10839SOL    HW133416   4.712   3.956   0.388
10839SOL    HW233417   4.858   3.950   0.316
10840SOL     OW33418   3.128   0.477   0.894
10840SOL    HW133419   3.156   0.402   0.835
10840SOL    HW233420   3.197   0.493   0.965
10841SOL     OW33421   1.119   4.866   4.563
10841SOL    HW133422   1.115   4.937   4.633
10841SOL    HW233423   1.131   4.908   4.473
10842SOL     OW33424   4.960   4.071   1.014
10842SOL    HW133425   4.988   4.167   1.014
10842SOL    HW233426   5.031   4.015   0.970
10843SOL     OW33427   1.717   2.446   1.265
10843SOL    HW133428   1.766   2.377   1.317
10843SOL    HW233429   1.777   2.524   1.248
10844SOL     OW33430   0.875   5.222   5.286
10844SOL    HW133431   0.833   5.313   5.292
10844SOL    HW233432   0.973   5.229   5.300
10845SOL     OW33433   4.455   6.393   5.004
10845SOL    HW133434   4.459   6.317   5.069
10845SOL    HW233435   4.469   6.358   4.911
10846SOL     OW33436   5.645   0.284   0.761
10846SOL    HW133437   5.724   0.345   0.772
10846SOL    HW233438   5.573   0.333   0.711
10847SOL     OW33439   1.825   1.753   0.477
10847SOL    HW133440   1.796   1.848   0.467
10847SOL    HW233441   1.746   1.693   0.471
10848SOL     OW33442   2.021   4.388   1.188
10848SOL    HW133443   2.112   4.427   1.206
10848SOL    HW233444   1.971   4.446   1.125
10849SOL     OW33445   2.390   6.075   3.984
10849SOL    HW133446   2.395   6.140   4.060
10849SOL    HW233447   2.393   5.982   4.021
10850SOL     OW33448   3.834   6.773   0.446
10850SOL    HW133449   3.903   6.701   0.451
10850SOL    HW233450   3.786   6.779   0.534
10851SOL     OW33451   2.629   5.052   1.773
10851SOL    HW133452   2.658   5.138   1.815
10851SOL    HW233453   2.633   4.979   1.841
10852SOL     OW33454   2.061   1.689   1.336
10852SOL    HW133455   1.985   1.645   1.289
10852SOL    HW233456   2.041   1.694   1.434
10853SOL     OW33457   2.489   2.169   6.525
10853SOL    HW133458   2.541   2.122   6.454
10853SOL    HW233459   2.495   2.268   6.512
10854SOL     OW33460   4.294   6.189   5.492
10854SOL    HW133461   4.252   6.235   5.413
10854SOL    HW233462   4.386   6.225   5.506
10855SOL     OW33463   2.884   0.892   0.734
10855SOL    HW133464   2.941   0.939   0.666
10855SOL    HW233465   2.910   0.796   0.739
10856SOL     OW33466   6.990   0.965   6.962
10856SOL    HW133467   7.020   0.873   6.984
10856SOL    HW233468   6.954   0.968   6.869
10857SOL     OW33469   6.151   1.527   2.543
10857SOL    HW133470   6.160   1.527   2.444
10857SOL    HW233471   6.173   1.618   2.579
10858SOL     OW33472   2.454   5.836   1.373
10858SOL    HW133473   2.444   5.932   1.399
10858SOL    HW233474   2.377   5.784   1.411
10859SOL     OW33475   0.960   5.637   3.815
10859SOL    HW133476   0.893   5.705   3.788
10859SOL    HW233477   0.965   5.565   3.745
10860SOL     OW33478   0.137   2.733   2.671
10860SOL    HW133479   0.098   2.799   2.734
10860SOL    HW233480   0.136   2.642   2.712
10861SOL     OW33481   3.910   3.079   4.402
10861SOL    HW133482   3.833   3.053   4.461
10861SOL    HW233483   3.900   3.034   4.314
10862SOL     OW33484   1.624   0.082   4.857
10862SOL    HW133485   1.668   7.019   4.837
10862SOL    HW233486   1.612   0.133   4.771
10863SOL     OW33487   3.041   5.641   4.841
10863SOL    HW133488   2.984   5.589   4.905
10863SOL    HW233489   2.984   5.705   4.790
10864SOL     OW33490   3.428   6.367   2.781
10864SOL    HW133491   3.503   6.340   2.720
10864SOL    HW233492   3.463   6.426   2.853
10865SOL     OW33493   6.669   2.168   6.190
10865SOL    HW133494   6.714   2.255   6.209
10865SOL    HW233495   6.579   2.167   6.233
10866SOL     OW33496   5.485   4.839   0.438
10866SOL    HW133497   5.410   4.902   0.460
10866SOL    HW233498   5.562   4.890   0.400
10867SOL     OW33499   3.229   3.295   0.560
10867SOL    HW133500   3.233   3.196   0.545
10867SOL    HW233501   3.261   3.342   0.478
10868SOL     OW33502   3.200   1.657   2.936
10868SOL    HW133503   3.289   1.642   2.978
10868SOL    HW233504   3.151   1.728   2.986
10869NA      NA33505   6.217   2.044   5.592
10870NA      NA33506   4.315   4.545   5.318
10871NA      NA33507   2.248   3.681   1.575
10872NA      NA33508   4.861   3.845   5.119
10873NA      NA33509   4.201   2.378   5.315
10874NA      NA33510   3.786   4.681   1.713
10875NA      NA33511   6.538   5.790   5.700
10876NA      NA33512   3.954   3.640   5.067
10877NA      NA33513   4.794   6.564   6.817
10878NA      NA33514   3.541   6.959   5.398
10879NA      NA33515   6.393   4.789   2.097
10880NA      NA33516   2.128   0.478   3.112
10881NA      NA33517   3.151   4.852   1.044
10882NA      NA33518   3.504   3.555   2.780
   7.02482   7.02482   7.02482
