Generated by trjconv : CNT in water t= 275.00000
33518
    1C        C    1   2.850   2.771   4.748
    1C        C    2   2.898   2.719   4.870
    1C        C    3   2.847   2.777   4.986
    1C        C    4   2.851   2.773   4.260
    1C        C    5   2.899   2.723   4.383
    1C        C    6   2.849   2.774   4.504
    1C        C    7   3.017   2.643   4.625
    1C        C    8   2.899   2.721   4.625
    1C        C    9   3.076   2.600   4.746
    1C        C   10   3.008   2.630   4.866
    1C        C   11   3.183   2.493   4.974
    1C        C   12   3.064   2.566   4.977
    1C        C   13   2.848   2.769   3.771
    1C        C   14   2.899   2.718   3.892
    1C        C   15   2.850   2.770   4.014
    1C        C   16   3.016   2.640   4.136
    1C        C   17   2.905   2.726   4.137
    1C        C   18   3.079   2.607   4.259
    1C        C   19   3.018   2.646   4.380
    1C        C   20   3.207   2.552   4.502
    1C        C   21   3.077   2.606   4.502
    1C        C   22   3.277   2.534   4.623
    1C        C   23   3.207   2.545   4.745
    1C        C   24   3.414   2.479   4.861
    1C        C   25   3.271   2.494   4.862
    1C        C   26   3.488   2.473   4.979
    1C        C   27   2.853   2.772   3.280
    1C        C   28   2.905   2.722   3.402
    1C        C   29   2.852   2.771   3.524
    1C        C   30   3.017   2.644   3.648
    1C        C   31   2.902   2.725   3.648
    1C        C   32   3.078   2.606   3.770
    1C        C   33   3.013   2.634   3.893
    1C        C   34   3.206   2.546   4.014
    1C        C   35   3.075   2.599   4.014
    1C        C   36   3.274   2.524   4.136
    1C        C   37   3.208   2.550   4.258
    1C        C   38   3.412   2.499   4.380
    1C        C   39   3.274   2.527   4.380
    1C        C   40   3.486   2.498   4.501
    1C        C   41   3.414   2.497   4.622
    1C        C   42   3.630   2.480   4.740
    1C        C   43   3.488   2.473   4.740
    1C        C   44   3.702   2.486   4.861
    1C        C   45   3.627   2.475   4.979
    1C        C   46   2.838   2.750   2.791
    1C        C   47   2.892   2.710   2.915
    1C        C   48   2.839   2.759   3.037
    1C        C   49   3.015   2.638   3.162
    1C        C   50   2.899   2.718   3.158
    1C        C   51   3.075   2.599   3.284
    1C        C   52   3.014   2.632   3.406
    1C        C   53   3.206   2.542   3.527
    1C        C   54   3.075   2.596   3.528
    1C        C   55   3.274   2.529   3.650
    1C        C   56   3.205   2.545   3.772
    1C        C   57   3.416   2.502   3.892
    1C        C   58   3.276   2.526   3.893
    1C        C   59   3.484   2.489   4.015
    1C        C   60   3.412   2.494   4.136
    1C        C   61   3.625   2.504   4.258
    1C        C   62   3.484   2.494   4.258
    1C        C   63   3.700   2.505   4.378
    1C        C   64   3.627   2.501   4.499
    1C        C   65   3.837   2.541   4.619
    1C        C   66   3.701   2.502   4.620
    1C        C   67   3.904   2.554   4.742
    1C        C   68   3.838   2.525   4.863
    1C        C   69   4.051   2.582   4.974
    1C        C   70   3.920   2.534   4.976
    1C        C   71   2.826   2.736   2.306
    1C        C   72   2.882   2.692   2.428
    1C        C   73   2.837   2.750   2.549
    1C        C   74   3.006   2.619   2.670
    1C        C   75   2.892   2.702   2.670
    1C        C   76   3.067   2.591   2.794
    1C        C   77   3.008   2.630   2.917
    1C        C   78   3.203   2.545   3.038
    1C        C   79   3.073   2.601   3.039
    1C        C   80   3.272   2.528   3.160
    1C        C   81   3.206   2.545   3.283
    1C        C   82   3.411   2.496   3.400
    1C        C   83   3.271   2.517   3.405
    1C        C   84   3.480   2.495   3.523
    1C        C   85   3.413   2.502   3.647
    1C        C   86   3.626   2.496   3.767
    1C        C   87   3.485   2.494   3.769
    1C        C   88   3.693   2.505   3.891
    1C        C   89   3.625   2.501   4.014
    1C        C   90   3.832   2.549   4.134
    1C        C   91   3.695   2.514   4.136
    1C        C   92   3.904   2.568   4.254
    1C        C   93   3.835   2.544   4.375
    1C        C   94   4.025   2.637   4.499
    1C        C   95   3.903   2.566   4.497
    1C        C   96   4.094   2.666   4.619
    1C        C   97   4.031   2.619   4.736
    1C        C   98   4.191   2.758   4.861
    1C        C   99   4.100   2.648   4.857
    1C        C  100   4.213   2.835   4.977
    1C        C  101   2.816   2.725   2.068
    1C        C  102   2.993   2.595   2.185
    1C        C  103   2.877   2.679   2.186
    1C        C  104   3.065   2.582   2.307
    1C        C  105   3.002   2.617   2.429
    1C        C  106   3.201   2.533   2.548
    1C        C  107   3.069   2.584   2.548
    1C        C  108   3.268   2.516   2.672
    1C        C  109   3.199   2.541   2.792
    1C        C  110   3.407   2.495   2.914
    1C        C  111   3.268   2.520   2.914
    1C        C  112   3.481   2.487   3.034
    1C        C  113   3.411   2.500   3.156
    1C        C  114   3.623   2.493   3.278
    1C        C  115   3.482   2.490   3.278
    1C        C  116   3.693   2.510   3.400
    1C        C  117   3.621   2.508   3.522
    1C        C  118   3.828   2.550   3.646
    1C        C  119   3.693   2.509   3.643
    1C        C  120   3.893   2.576   3.769
    1C        C  121   3.829   2.543   3.891
    1C        C  122   4.016   2.649   4.009
    1C        C  123   3.896   2.575   4.011
    1C        C  124   4.081   2.680   4.131
    1C        C  125   4.027   2.638   4.255
    1C        C  126   4.192   2.769   4.373
    1C        C  127   4.084   2.678   4.378
    1C        C  128   4.241   2.819   4.496
    1C        C  129   4.195   2.765   4.618
    1C        C  130   4.327   2.929   4.739
    1C        C  131   4.244   2.814   4.741
    1C        C  132   4.356   2.997   4.859
    1C        C  133   4.281   2.956   4.970
    1C        C  134   3.172   2.470   2.081
    1C        C  135   3.036   2.505   2.083
    1C        C  136   3.257   2.476   2.192
    1C        C  137   3.192   2.519   2.310
    1C        C  138   3.407   2.480   2.426
    1C        C  139   3.267   2.500   2.428
    1C        C  140   3.478   2.478   2.548
    1C        C  141   3.407   2.488   2.670
    1C        C  142   3.619   2.497   2.786
    1C        C  143   3.478   2.490   2.792
    1C        C  144   3.688   2.509   2.909
    1C        C  145   3.622   2.497   3.033
    1C        C  146   3.829   2.540   3.154
    1C        C  147   3.693   2.505   3.155
    1C        C  148   3.896   2.564   3.276
    1C        C  149   3.831   2.539   3.399
    1C        C  150   4.019   2.633   3.521
    1C        C  151   3.893   2.570   3.522
    1C        C  152   4.082   2.670   3.642
    1C        C  153   4.018   2.642   3.764
    1C        C  154   4.191   2.767   3.889
    1C        C  155   4.078   2.681   3.886
    1C        C  156   4.248   2.812   4.010
    1C        C  157   4.196   2.762   4.131
    1C        C  158   4.344   2.917   4.253
    1C        C  159   4.251   2.811   4.252
    1C        C  160   4.382   2.981   4.373
    1C        C  161   4.330   2.929   4.494
    1C        C  162   4.432   3.113   4.612
    1C        C  163   4.365   2.989   4.617
    1C        C  164   4.464   3.181   4.732
    1C        C  165   4.432   3.116   4.854
    1C        C  166   4.506   3.318   4.972
    1C        C  167   4.468   3.184   4.971
    1C        C  168   3.472   2.433   2.070
    1C        C  169   3.396   2.454   2.186
    1C        C  170   3.616   2.458   2.306
    1C        C  171   3.474   2.460   2.304
    1C        C  172   3.692   2.476   2.424
    1C        C  173   3.619   2.483   2.544
    1C        C  174   3.828   2.537   2.666
    1C        C  175   3.689   2.510   2.664
    1C        C  176   3.894   2.565   2.788
    1C        C  177   3.824   2.547   2.909
    1C        C  178   4.021   2.626   3.030
    1C        C  179   3.895   2.562   3.031
    1C        C  180   4.084   2.660   3.152
    1C        C  181   4.024   2.625   3.274
    1C        C  182   4.191   2.754   3.396
    1C        C  183   4.079   2.667   3.397
    1C        C  184   4.239   2.807   3.518
    1C        C  185   4.190   2.761   3.642
    1C        C  186   4.339   2.912   3.763
    1C        C  187   4.245   2.807   3.764
    1C        C  188   4.379   2.975   3.883
    1C        C  189   4.339   2.920   4.007
    1C        C  190   4.446   3.101   4.126
    1C        C  191   4.383   2.975   4.130
    1C        C  192   4.474   3.169   4.247
    1C        C  193   4.449   3.105   4.371
    1C        C  194   4.504   3.313   4.491
    1C        C  195   4.465   3.177   4.491
    1C        C  196   4.522   3.386   4.611
    1C        C  197   4.506   3.316   4.733
    1C        C  198   4.546   3.531   4.848
    1C        C  199   4.527   3.389   4.853
    1C        C  200   4.583   3.617   4.957
    1C        C  201   3.611   2.416   2.071
    1C        C  202   3.824   2.505   2.182
    1C        C  203   3.690   2.456   2.184
    1C        C  204   3.898   2.535   2.300
    1C        C  205   3.830   2.510   2.421
    1C        C  206   4.018   2.613   2.540
    1C        C  207   3.892   2.548   2.541
    1C        C  208   4.080   2.654   2.660
    1C        C  209   4.023   2.622   2.785
    1C        C  210   4.194   2.745   2.904
    1C        C  211   4.086   2.655   2.908
    1C        C  212   4.246   2.792   3.027
    1C        C  213   4.200   2.741   3.150
    1C        C  214   4.334   2.905   3.272
    1C        C  215   4.246   2.795   3.273
    1C        C  216   4.373   2.965   3.394
    1C        C  217   4.335   2.911   3.519
    1C        C  218   4.432   3.100   3.637
    1C        C  219   4.375   2.971   3.640
    1C        C  220   4.461   3.168   3.757
    1C        C  221   4.439   3.102   3.880
    1C        C  222   4.504   3.303   4.001
    1C        C  223   4.470   3.166   4.003
    1C        C  224   4.518   3.376   4.121
    1C        C  225   4.510   3.305   4.243
    1C        C  226   4.514   3.517   4.364
    1C        C  227   4.515   3.376   4.365
    1C        C  228   4.513   3.593   4.483
    1C        C  229   4.528   3.527   4.607
    1C        C  230   4.497   3.739   4.722
    1C        C  231   4.537   3.603   4.726
    1C        C  232   4.489   3.816   4.840
    1C        C  233   4.538   3.750   4.952
    1C        C  234   4.014   2.605   2.060
    1C        C  235   3.891   2.540   2.064
    1C        C  236   4.081   2.645   2.176
    1C        C  237   4.024   2.603   2.298
    1C        C  238   4.197   2.730   2.421
    1C        C  239   4.083   2.645   2.419
    1C        C  240   4.253   2.780   2.540
    1C        C  241   4.193   2.739   2.662
    1C        C  242   4.333   2.904   2.781
    1C        C  243   4.246   2.793   2.781
    1C        C  244   4.378   2.957   2.904
    1C        C  245   4.335   2.901   3.027
    1C        C  246   4.439   3.087   3.147
    1C        C  247   4.377   2.960   3.149
    1C        C  248   4.456   3.158   3.267
    1C        C  249   4.429   3.095   3.391
    1C        C  250   4.498   3.298   3.514
    1C        C  251   4.454   3.164   3.512
    1C        C  252   4.511   3.372   3.633
    1C        C  253   4.498   3.305   3.757
    1C        C  254   4.522   3.515   3.876
    1C        C  255   4.515   3.374   3.879
    1C        C  256   4.513   3.586   3.998
    1C        C  257   4.519   3.517   4.121
    1C        C  258   4.487   3.728   4.239
    1C        C  259   4.509   3.589   4.242
    1C        C  260   4.467   3.801   4.359
    1C        C  261   4.479   3.730   4.481
    1C        C  262   4.420   3.937   4.600
    1C        C  263   4.466   3.804   4.600
    1C        C  264   4.394   4.007   4.720
    1C        C  265   4.430   3.945   4.842
    1C        C  266   4.327   4.133   4.959
    1C        C  267   4.397   4.013   4.960
    1C        C  268   4.261   2.773   2.063
    1C        C  269   4.193   2.731   2.179
    1C        C  270   4.341   2.889   2.297
    1C        C  271   4.248   2.781   2.299
    1C        C  272   4.378   2.953   2.417
    1C        C  273   4.338   2.893   2.538
    1C        C  274   4.447   3.080   2.658
    1C        C  275   4.374   2.959   2.658
    1C        C  276   4.472   3.145   2.781
    1C        C  277   4.446   3.081   2.905
    1C        C  278   4.506   3.288   3.023
    1C        C  279   4.469   3.151   3.025
    1C        C  280   4.513   3.360   3.144
    1C        C  281   4.494   3.294   3.268
    1C        C  282   4.514   3.506   3.388
    1C        C  283   4.506   3.365   3.390
    1C        C  284   4.515   3.581   3.507
    1C        C  285   4.518   3.513   3.630
    1C        C  286   4.485   3.722   3.750
    1C        C  287   4.514   3.583   3.753
    1C        C  288   4.465   3.791   3.872
    1C        C  289   4.483   3.724   3.995
    1C        C  290   4.421   3.928   4.115
    1C        C  291   4.470   3.796   4.116
    1C        C  292   4.386   3.994   4.235
    1C        C  293   4.422   3.934   4.358
    1C        C  294   4.323   4.125   4.477
    1C        C  295   4.394   4.003   4.478
    1C        C  296   4.279   4.185   4.597
    1C        C  297   4.323   4.130   4.720
    1C        C  298   4.199   4.309   4.836
    1C        C  299   4.285   4.195   4.840
    1C        C  300   4.164   4.394   4.946
    1C        C  301   4.346   2.883   2.060
    1C        C  302   4.467   3.066   2.175
    1C        C  303   4.395   2.943   2.177
    1C        C  304   4.483   3.140   2.296
    1C        C  305   4.448   3.076   2.416
    1C        C  306   4.514   3.279   2.537
    1C        C  307   4.481   3.142   2.536
    1C        C  308   4.516   3.353   2.658
    1C        C  309   4.502   3.283   2.780
    1C        C  310   4.522   3.497   2.899
    1C        C  311   4.520   3.355   2.900
    1C        C  312   4.511   3.570   3.019
    1C        C  313   4.517   3.501   3.142
    1C        C  314   4.479   3.711   3.265
    1C        C  315   4.508   3.573   3.263
    1C        C  316   4.463   3.785   3.384
    1C        C  317   4.485   3.719   3.507
    1C        C  318   4.416   3.922   3.624
    1C        C  319   4.466   3.790   3.628
    1C        C  320   4.383   3.984   3.746
    1C        C  321   4.414   3.923   3.869
    1C        C  322   4.312   4.108   3.989
    1C        C  323   4.390   3.990   3.991
    1C        C  324   4.271   4.171   4.109
    1C        C  325   4.313   4.115   4.232
    1C        C  326   4.183   4.282   4.351
    1C        C  327   4.276   4.176   4.354
    1C        C  328   4.138   4.341   4.471
    1C        C  329   4.187   4.292   4.595
    1C        C  330   4.028   4.439   4.711
    1C        C  331   4.138   4.349   4.714
    1C        C  332   3.970   4.498   4.826
    1C        C  333   4.046   4.469   4.940
    1C        C  334   4.549   3.263   2.062
    1C        C  335   4.534   3.124   2.063
    1C        C  336   4.537   3.347   2.174
    1C        C  337   4.513   3.279   2.296
    1C        C  338   4.525   3.494   2.412
    1C        C  339   4.521   3.352   2.416
    1C        C  340   4.521   3.565   2.534
    1C        C  341   4.518   3.494   2.656
    1C        C  342   4.485   3.706   2.773
    1C        C  343   4.512   3.567   2.777
    1C        C  344   4.474   3.776   2.894
    1C        C  345   4.486   3.709   3.018
    1C        C  346   4.418   3.910   3.136
    1C        C  347   4.464   3.777   3.140
    1C        C  348   4.388   3.978   3.256
    1C        C  349   4.417   3.919   3.381
    1C        C  350   4.315   4.108   3.501
    1C        C  351   4.386   3.986   3.501
    1C        C  352   4.273   4.167   3.623
    1C        C  353   4.308   4.104   3.745
    1C        C  354   4.173   4.268   3.865
    1C        C  355   4.265   4.160   3.867
    1C        C  356   4.121   4.322   3.984
    1C        C  357   4.176   4.275   4.106
    1C        C  358   4.014   4.409   4.228
    1C        C  359   4.130   4.328   4.228
    1C        C  360   3.952   4.447   4.349
    1C        C  361   4.020   4.418   4.470
    1C        C  362   3.828   4.515   4.589
    1C        C  363   3.959   4.463   4.589
    1C        C  364   3.760   4.549   4.708
    1C        C  365   3.837   4.542   4.827
    1C        C  366   3.629   4.594   4.946
    1C        C  367   3.766   4.570   4.945
    1C        C  368   4.512   3.561   2.050
    1C        C  369   4.529   3.488   2.168
    1C        C  370   4.499   3.701   2.286
    1C        C  371   4.522   3.562   2.288
    1C        C  372   4.483   3.773   2.406
    1C        C  373   4.500   3.704   2.528
    1C        C  374   4.420   3.903   2.645
    1C        C  375   4.470   3.771   2.649
    1C        C  376   4.390   3.967   2.768
    1C        C  377   4.422   3.908   2.892
    1C        C  378   4.311   4.090   3.010
    1C        C  379   4.389   3.973   3.013
    1C        C  380   4.267   4.148   3.131
    1C        C  381   4.305   4.093   3.256
    1C        C  382   4.175   4.261   3.375
    1C        C  383   4.271   4.157   3.377
    1C        C  384   4.119   4.309   3.495
    1C        C  385   4.171   4.264   3.619
    1C        C  386   4.007   4.397   3.741
    1C        C  387   4.120   4.313   3.741
    1C        C  388   3.943   4.434   3.861
    1C        C  389   4.006   4.404   3.984
    1C        C  390   3.817   4.491   4.104
    1C        C  391   3.951   4.445   4.107
    1C        C  392   3.748   4.509   4.225
    1C        C  393   3.821   4.500   4.346
    1C        C  394   3.617   4.550   4.472
    1C        C  395   3.756   4.528   4.468
    1C        C  396   3.545   4.561   4.593
    1C        C  397   3.620   4.566   4.712
    1C        C  398   3.410   4.547   4.834
    1C        C  399   3.549   4.571   4.834
    1C        C  400   3.341   4.506   4.949
    1C        C  401   4.497   3.699   2.049
    1C        C  402   4.449   3.911   2.165
    1C        C  403   4.486   3.775   2.166
    1C        C  404   4.407   3.975   2.284
    1C        C  405   4.434   3.906   2.404
    1C        C  406   4.326   4.093   2.525
    1C        C  407   4.398   3.972   2.523
    1C        C  408   4.277   4.147   2.646
    1C        C  409   4.312   4.084   2.767
    1C        C  410   4.173   4.250   2.884
    1C        C  411   4.266   4.144   2.887
    1C        C  412   4.122   4.297   3.007
    1C        C  413   4.173   4.253   3.131
    1C        C  414   4.005   4.386   3.250
    1C        C  415   4.122   4.307   3.252
    1C        C  416   3.941   4.419   3.371
    1C        C  417   4.000   4.385   3.495
    1C        C  418   3.813   4.479   3.616
    1C        C  419   3.943   4.426   3.618
    1C        C  420   3.744   4.502   3.738
    1C        C  421   3.813   4.489   3.860
    1C        C  422   3.609   4.538   3.986
    1C        C  423   3.748   4.516   3.983
    1C        C  424   3.538   4.540   4.108
    1C        C  425   3.609   4.538   4.229
    1C        C  426   3.400   4.542   4.354
    1C        C  427   3.541   4.545   4.353
    1C        C  428   3.327   4.544   4.476
    1C        C  429   3.404   4.552   4.594
    1C        C  430   3.193   4.513   4.717
    1C        C  431   3.333   4.537   4.715
    1C        C  432   3.124   4.493   4.840
    1C        C  433   3.202   4.499   4.956
    1C        C  434   4.375   4.118   2.046
    1C        C  435   4.435   3.991   2.050
    1C        C  436   4.298   4.160   2.159
    1C        C  437   4.322   4.088   2.280
    1C        C  438   4.180   4.245   2.400
    1C        C  439   4.275   4.141   2.402
    1C        C  440   4.125   4.295   2.520
    1C        C  441   4.181   4.251   2.642
    1C        C  442   4.004   4.376   2.764
    1C        C  443   4.122   4.298   2.761
    1C        C  444   3.941   4.410   2.886
    1C        C  445   4.004   4.375   3.007
    1C        C  446   3.809   4.466   3.128
    1C        C  447   3.939   4.410   3.128
    1C        C  448   3.744   4.497   3.250
    1C        C  449   3.812   4.479   3.373
    1C        C  450   3.605   4.526   3.495
    1C        C  451   3.744   4.501   3.494
    1C        C  452   3.537   4.537   3.618
    1C        C  453   3.605   4.530   3.741
    1C        C  454   3.396   4.543   3.863
    1C        C  455   3.538   4.546   3.864
    1C        C  456   3.327   4.528   3.985
    1C        C  457   3.397   4.533   4.108
    1C        C  458   3.193   4.493   4.233
    1C        C  459   3.330   4.527   4.232
    1C        C  460   3.124   4.480   4.356
    1C        C  461   3.190   4.509   4.477
    1C        C  462   2.994   4.425   4.601
    1C        C  463   3.122   4.485   4.598
    1C        C  464   2.932   4.394   4.724
    1C        C  465   2.989   4.446   4.844
    1C        C  466   2.806   4.332   4.955
    1C        C  467   2.910   4.426   4.961
    1C        C  468   4.121   4.288   2.042
    1C        C  469   4.183   4.245   2.160
    1C        C  470   4.000   4.364   2.277
    1C        C  471   4.122   4.292   2.280
    1C        C  472   3.939   4.402   2.398
    1C        C  473   4.004   4.369   2.520
    1C        C  474   3.810   4.458   2.641
    1C        C  475   3.942   4.408   2.641
    1C        C  476   3.741   4.482   2.762
    1C        C  477   3.809   4.462   2.883
    1C        C  478   3.603   4.512   3.005
    1C        C  479   3.740   4.479   3.005
    1C        C  480   3.535   4.526   3.128
    1C        C  481   3.606   4.523   3.250
    1C        C  482   3.394   4.531   3.376
    1C        C  483   3.535   4.534   3.372
    1C        C  484   3.325   4.521   3.499
    1C        C  485   3.395   4.537   3.621
    1C        C  486   3.187   4.495   3.743
    1C        C  487   3.323   4.532   3.743
    1C        C  488   3.126   4.464   3.867
    1C        C  489   3.191   4.490   3.989
    1C        C  490   2.997   4.408   4.111
    1C        C  491   3.123   4.472   4.112
    1C        C  492   2.938   4.379   4.236
    1C        C  493   2.997   4.418   4.358
    1C        C  494   2.822   4.298   4.480
    1C        C  495   2.933   4.386   4.480
    1C        C  496   2.771   4.251   4.603
    1C        C  497   2.817   4.310   4.723
    1C        C  498   2.663   4.161   4.842
    1C        C  499   2.751   4.272   4.841
    1C        C  500   2.594   4.114   4.954
    1C        C  501   3.999   4.355   2.038
    1C        C  502   3.809   4.459   2.154
    1C        C  503   3.936   4.398   2.155
    1C        C  504   3.738   4.475   2.276
    1C        C  505   3.807   4.452   2.397
    1C        C  506   3.603   4.508   2.519
    1C        C  507   3.740   4.475   2.519
    1C        C  508   3.532   4.518   2.640
    1C        C  509   3.603   4.512   2.762
    1C        C  510   3.391   4.525   2.887
    1C        C  511   3.532   4.524   2.884
    1C        C  512   3.320   4.514   3.008
    1C        C  513   3.393   4.524   3.129
    1C        C  514   3.189   4.484   3.253
    1C        C  515   3.326   4.516   3.253
    1C        C  516   3.122   4.460   3.375
    1C        C  517   3.187   4.492   3.496
    1C        C  518   2.999   4.405   3.623
    1C        C  519   3.122   4.475   3.620
    1C        C  520   2.936   4.365   3.744
    1C        C  521   3.001   4.398   3.865
    1C        C  522   2.832   4.276   3.993
    1C        C  523   2.939   4.368   3.988
    1C        C  524   2.782   4.231   4.117
    1C        C  525   2.828   4.290   4.237
    1C        C  526   2.683   4.137   4.362
    1C        C  527   2.770   4.248   4.359
    1C        C  528   2.641   4.078   4.483
    1C        C  529   2.685   4.139   4.603
    1C        C  530   2.580   3.956   4.730
    1C        C  531   2.638   4.086   4.725
    1C        C  532   2.542   3.896   4.854
    1C        C  533   2.525   3.992   4.959
    1C        C  534   3.613   4.559   2.035
    1C        C  535   3.747   4.517   2.043
    1C        C  536   3.533   4.530   2.150
    1C        C  537   3.599   4.504   2.273
    1C        C  538   3.391   4.513   2.397
    1C        C  539   3.532   4.517   2.397
    1C        C  540   3.320   4.506   2.519
    1C        C  541   3.390   4.515   2.642
    1C        C  542   3.182   4.484   2.763
    1C        C  543   3.320   4.514   2.765
    1C        C  544   3.117   4.462   2.886
    1C        C  545   3.181   4.486   3.010
    1C        C  546   2.992   4.399   3.135
    1C        C  547   3.116   4.466   3.133
    1C        C  548   2.933   4.360   3.257
    1C        C  549   2.995   4.398   3.379
    1C        C  550   2.824   4.279   3.505
    1C        C  551   2.936   4.365   3.503
    1C        C  552   2.772   4.230   3.627
    1C        C  553   2.822   4.282   3.748
    1C        C  554   2.692   4.117   3.874
    1C        C  555   2.776   4.230   3.871
    1C        C  556   2.653   4.061   3.997
    1C        C  557   2.693   4.122   4.118
    1C        C  558   2.585   3.945   4.245
    1C        C  559   2.647   4.071   4.242
    1C        C  560   2.562   3.879   4.367
    1C        C  561   2.583   3.949   4.488
    1C        C  562   2.529   3.746   4.615
    1C        C  563   2.559   3.884   4.611
    1C        C  564   2.508   3.677   4.737
    1C        C  565   2.515   3.755   4.856
    1C        C  566   2.523   3.542   4.977
    1C        C  567   2.516   3.681   4.975
    1C        C  568   3.325   4.475   2.038
    1C        C  569   3.392   4.513   2.154
    1C        C  570   3.181   4.473   2.279
    1C        C  571   3.319   4.507   2.276
    1C        C  572   3.111   4.455   2.400
    1C        C  573   3.181   4.482   2.520
    1C        C  574   2.986   4.399   2.650
    1C        C  575   3.112   4.463   2.642
    1C        C  576   2.928   4.355   2.771
    1C        C  577   2.990   4.399   2.891
    1C        C  578   2.823   4.268   3.015
    1C        C  579   2.934   4.357   3.013
    1C        C  580   2.769   4.223   3.137
    1C        C  581   2.826   4.268   3.258
    1C        C  582   2.693   4.111   3.383
    1C        C  583   2.779   4.224   3.383
    1C        C  584   2.656   4.053   3.507
    1C        C  585   2.692   4.113   3.629
    1C        C  586   2.585   3.932   3.755
    1C        C  587   2.653   4.056   3.752
    1C        C  588   2.564   3.868   3.879
    1C        C  589   2.593   3.933   4.001
    1C        C  590   2.536   3.733   4.127
    1C        C  591   2.569   3.870   4.125
    1C        C  592   2.521   3.670   4.252
    1C        C  593   2.525   3.742   4.374
    1C        C  594   2.508   3.532   4.496
    1C        C  595   2.510   3.673   4.496
    1C        C  596   2.516   3.463   4.619
    1C        C  597   2.509   3.535   4.740
    1C        C  598   2.528   3.323   4.859
    1C        C  599   2.526   3.464   4.861
    1C        C  600   2.529   3.245   4.975
    1C        C  601   3.194   4.431   2.043
    1C        C  602   2.980   4.393   2.161
    1C        C  603   3.114   4.444   2.157
    1C        C  604   2.925   4.352   2.285
    1C        C  605   2.987   4.389   2.407
    1C        C  606   2.815   4.270   2.530
    1C        C  607   2.925   4.358   2.530
    1C        C  608   2.769   4.215   2.651
    1C        C  609   2.818   4.267   2.773
    1C        C  610   2.679   4.108   2.892
    1C        C  611   2.767   4.218   2.895
    1C        C  612   2.642   4.054   3.018
    1C        C  613   2.682   4.112   3.140
    1C        C  614   2.583   3.927   3.265
    1C        C  615   2.643   4.055   3.264
    1C        C  616   2.557   3.863   3.389
    1C        C  617   2.588   3.929   3.510
    1C        C  618   2.524   3.730   3.636
    1C        C  619   2.556   3.868   3.632
    1C        C  620   2.510   3.663   3.759
    1C        C  621   2.525   3.732   3.881
    1C        C  622   2.502   3.523   4.009
    1C        C  623   2.521   3.663   4.004
    1C        C  624   2.512   3.455   4.132
    1C        C  625   2.513   3.529   4.253
    1C        C  626   2.534   3.319   4.377
    1C        C  627   2.510   3.459   4.375
    1C        C  628   2.555   3.249   4.498
    1C        C  629   2.542   3.324   4.617
    1C        C  630   2.600   3.119   4.742
    1C        C  631   2.550   3.252   4.739
    1C        C  632   2.619   3.049   4.865
    1C        C  633   2.558   3.108   4.980
    1C        C  634   2.781   4.302   2.052
    1C        C  635   2.893   4.387   2.048
    1C        C  636   2.749   4.227   2.165
    1C        C  637   2.808   4.270   2.286
    1C        C  638   2.671   4.112   2.408
    1C        C  639   2.759   4.222   2.409
    1C        C  640   2.631   4.052   2.530
    1C        C  641   2.679   4.106   2.652
    1C        C  642   2.577   3.917   2.774
    1C        C  643   2.645   4.041   2.773
    1C        C  644   2.557   3.856   2.900
    1C        C  645   2.585   3.924   3.020
    1C        C  646   2.525   3.722   3.146
    1C        C  647   2.558   3.860   3.143
    1C        C  648   2.507   3.657   3.270
    1C        C  649   2.521   3.727   3.392
    1C        C  650   2.508   3.516   3.517
    1C        C  651   2.510   3.658   3.515
    1C        C  652   2.513   3.451   3.642
    1C        C  653   2.503   3.522   3.763
    1C        C  654   2.533   3.314   3.887
    1C        C  655   2.508   3.453   3.887
    1C        C  656   2.556   3.248   4.010
    1C        C  657   2.540   3.316   4.133
    1C        C  658   2.607   3.118   4.258
    1C        C  659   2.556   3.249   4.256
    1C        C  660   2.637   3.054   4.380
    1C        C  661   2.596   3.114   4.502
    1C        C  662   2.711   2.935   4.627
    1C        C  663   2.632   3.051   4.623
    1C        C  664   2.757   2.879   4.748
    1C        C  665   2.698   2.930   4.867
    1C        C  666   2.746   2.873   4.986
    1C        C  667   2.677   4.024   2.049
    1C        C  668   2.684   4.102   2.166
    1C        C  669   2.587   3.913   2.289
    1C        C  670   2.640   4.045   2.287
    1C        C  671   2.557   3.849   2.411
    1C        C  672   2.575   3.922   2.531
    1C        C  673   2.515   3.717   2.658
    1C        C  674   2.546   3.854   2.651
    1C        C  675   2.507   3.647   2.781
    1C        C  676   2.524   3.718   2.902
    1C        C  677   2.508   3.509   3.027
    1C        C  678   2.515   3.650   3.025
    1C        C  679   2.511   3.441   3.150
    1C        C  680   2.506   3.515   3.270
    1C        C  681   2.531   3.307   3.397
    1C        C  682   2.506   3.446   3.394
    1C        C  683   2.549   3.240   3.520
    1C        C  684   2.534   3.311   3.641
    1C        C  685   2.609   3.117   3.769
    1C        C  686   2.551   3.245   3.765
    1C        C  687   2.644   3.055   3.892
    1C        C  688   2.611   3.118   4.014
    1C        C  689   2.716   2.934   4.137
    1C        C  690   2.642   3.054   4.136
    1C        C  691   2.756   2.878   4.260
    1C        C  692   2.711   2.934   4.382
    1C        C  693   2.753   2.878   4.504
    1C        C  694   2.628   3.893   2.054
    1C        C  695   2.527   3.704   2.173
    1C        C  696   2.573   3.838   2.171
    1C        C  697   2.511   3.637   2.296
    1C        C  698   2.522   3.712   2.415
    1C        C  699   2.488   3.504   2.540
    1C        C  700   2.501   3.644   2.537
    1C        C  701   2.490   3.434   2.663
    1C        C  702   2.495   3.507   2.784
    1C        C  703   2.520   3.295   2.909
    1C        C  704   2.501   3.436   2.906
    1C        C  705   2.535   3.227   3.031
    1C        C  706   2.531   3.301   3.152
    1C        C  707   2.597   3.103   3.278
    1C        C  708   2.549   3.236   3.276
    1C        C  709   2.631   3.045   3.402
    1C        C  710   2.600   3.108   3.524
    1C        C  711   2.709   2.929   3.648
    1C        C  712   2.635   3.049   3.648
    1C        C  713   2.752   2.873   3.770
    1C        C  714   2.719   2.935   3.893
    1C        C  715   2.758   2.877   4.015
    1C        C  716   2.447   3.500   2.060
    1C        C  717   2.494   3.632   2.058
    1C        C  718   2.464   3.425   2.180
    1C        C  719   2.479   3.498   2.301
    1C        C  720   2.514   3.288   2.423
    1C        C  721   2.484   3.426   2.422
    1C        C  722   2.541   3.224   2.546
    1C        C  723   2.521   3.296   2.666
    1C        C  724   2.589   3.094   2.790
    1C        C  725   2.533   3.224   2.787
    1C        C  726   2.615   3.030   2.913
    1C        C  727   2.575   3.092   3.033
    1C        C  728   2.706   2.924   3.158
    1C        C  729   2.621   3.037   3.155
    1C        C  730   2.754   2.873   3.281
    1C        C  731   2.714   2.930   3.404
    1C        C  732   2.755   2.873   3.526
    1C        C  733   2.496   3.200   2.072
    1C        C  734   2.488   3.284   2.184
    1C        C  735   2.576   3.083   2.304
    1C        C  736   2.517   3.213   2.303
    1C        C  737   2.608   3.021   2.426
    1C        C  738   2.587   3.091   2.547
    1C        C  739   2.696   2.909   2.670
    1C        C  740   2.619   3.027   2.669
    1C        C  741   2.740   2.852   2.792
    1C        C  742   2.697   2.915   2.912
    1C        C  743   2.746   2.866   3.035
    1C        C  744   2.550   3.072   2.071
    1C        C  745   2.686   2.897   2.187
    1C        C  746   2.610   3.016   2.184
    1C        C  747   2.731   2.842   2.309
    1C        C  748   2.686   2.903   2.428
    1C        C  749   2.740   2.853   2.548
    1C        C  750   2.733   2.837   2.069
    1C        C  751   3.652   2.311   1.975
    1C        O  752   3.661   2.190   2.009
    1C        O  753   3.675   2.334   1.839
    1C        C  754   4.609   3.042   1.965
    1C        O  755   4.564   3.030   1.848
    1C        O  756   4.745   3.009   1.960
    1C        C  757   4.424   4.216   1.946
    1C        O  758   4.545   4.251   1.955
    1C        O  759   4.384   4.199   1.813
    1C        C  760   3.591   4.680   1.952
    1C        O  761   3.601   4.797   1.998
    1C        O  762   3.503   4.681   1.843
    1C        C  763   2.890   4.497   1.949
    1C        O  764   2.897   4.468   1.827
    1C        O  765   2.826   4.617   1.982
    1C        C  766   2.336   3.471   1.966
    1C        O  767   2.327   3.514   1.848
    1C        O  768   2.205   3.441   2.007
    1C        C  769   4.694   3.593   5.052
    1C        O  770   4.680   3.619   5.175
    1C        O  771   4.827   3.565   5.020
    1C        C  772   4.277   4.461   5.015
    1C        O  773   4.316   4.424   5.129
    1C        O  774   4.325   4.583   4.965
    1C        C  775   4.131   2.498   5.066
    1C        O  776   4.168   2.381   5.037
    1C        O  777   4.101   2.514   5.202
    1C        C  778   2.881   4.525   5.068
    1C        O  779   2.791   4.611   5.048
    1C        O  780   2.955   4.553   5.183
    1C        C  781   2.463   3.027   5.060
    1C        O  782   2.347   2.993   5.023
    1C        O  783   2.476   3.023   5.199
    1C        C  784   2.395   3.990   5.028
    1C        O  785   2.286   4.028   4.977
    1C        O  786   2.399   3.982   5.168
    1C        C  787   2.957   2.430   1.983
    1C        O  788   2.973   2.449   1.859
    1C        O  789   2.829   2.381   2.009
    1C        C  790   3.148   2.360   5.031
    1C        O  791   3.103   2.262   4.966
    1C        O  792   3.191   2.330   5.160
    1C        H  793   4.258   3.031   5.043
    1C        H  794   4.170   2.810   5.072
    1C        H  795   4.486   3.129   5.061
    1C        H  796   4.542   3.358   5.064
    1C        H  797   4.527   3.802   5.045
    1C        H  798   4.469   4.001   5.038
    1C        H  799   4.303   4.173   5.056
    1C        H  800   4.019   4.518   5.031
    1C        H  801   3.800   4.525   5.035
    1C        H  802   3.583   4.607   5.042
    1C        H  803   3.389   4.428   5.005
    1C        H  804   3.163   4.539   5.047
    1C        H  805   3.887   2.493   5.070
    1C        H  806   3.672   2.505   5.072
    1C        H  807   3.023   2.582   5.074
    1C        H  808   3.440   2.436   5.068
    1C        H  809   2.914   2.786   5.069
    1C        H  810   2.702   2.904   5.078
    1C        H  811   2.488   3.288   5.064
    1C        H  812   2.480   3.499   5.065
    1C        H  813   2.477   3.718   5.067
    1C        H  814   2.592   4.177   5.041
    1C        H  815   2.822   4.261   5.034
    1C        H  816   2.733   2.894   1.979
    1C        H  817   2.787   2.645   2.003
    1C        H  818   3.225   2.487   1.989
    1C        H  819   3.435   2.463   1.975
    1C        H  820   3.861   2.500   1.969
    1C        H  821   4.061   2.610   1.964
    1C        H  822   4.261   2.710   1.977
    1C        H  823   4.338   2.939   1.970
    1C        H  824   4.596   3.305   1.975
    1C        H  825   4.493   3.518   1.953
    1C        H  826   4.538   3.757   1.970
    1C        H  827   3.810   4.575   1.979
    1C        H  828   3.964   4.399   1.946
    1C        H  829   4.159   4.251   1.949
    1C        H  830   4.483   3.957   1.961
    1C        H  831   2.654   3.832   1.970
    1C        H  832   2.744   4.044   1.968
    1C        H  833   2.724   4.286   1.963
    1C        H  834   3.375   4.481   1.944
    1C        H  835   3.167   4.345   1.986
    1C        H  836   2.525   3.014   1.984
    1C        H  837   2.460   3.237   1.978
    1C        H  838   2.458   3.696   1.980
    2V3OU   H29  839   2.808   3.549   2.523
    2V3OU   C27  840   2.791   3.500   2.623
    2V3OU   H27  841   2.730   3.565   2.690
    2V3OU   H28  842   2.735   3.405   2.604
    2V3OU   O11  843   2.920   3.477   2.681
    2V3OU   C15  844   2.929   3.403   2.797
    2V3OU   C13  845   3.052   3.373   2.859
    2V3OU   C14  846   3.074   3.270   2.951
    2V3OU   C16  847   2.970   3.187   2.991
    2V3OU    H6  848   2.986   3.099   3.055
    2V3OU   C12  849   3.210   3.227   2.993
    2V3OU    O2  850   3.230   3.126   3.063
    2V3OU   C10  851   3.321   3.306   2.938
    2V3OU    C8  852   3.451   3.267   2.972
    2V3OU   O10  853   3.482   3.154   3.039
    2V3OU   H26  854   3.397   3.111   3.059
    2V3OU    C6  855   3.561   3.346   2.925
    2V3OU    C5  856   3.536   3.461   2.850
    2V3OU    C4  857   3.701   3.296   2.921
    2V3OU    H4  858   3.723   3.221   3.003
    2V3OU    H5  859   3.714   3.232   2.828
    2V3OU    C2  860   3.815   3.397   2.922
    2V3OU    O6  861   3.807   3.474   3.043
    2V3OU   H21  862   3.758   3.556   3.025
    2V3OU    C3  863   3.780   3.497   2.812
    2V3OU    H2  864   3.866   3.568   2.809
    2V3OU    H3  865   3.776   3.435   2.719
    2V3OU   C25  866   3.951   3.328   2.907
    2V3OU    O7  867   3.996   3.300   2.796
    2V3OU   C26  868   4.026   3.287   3.032
    2V3OU   H22  869   4.067   3.380   3.079
    2V3OU   H23  870   4.116   3.227   3.004
    2V3OU    O8  871   3.966   3.204   3.129
    2V3OU   H24  872   3.930   3.266   3.194
    2V3OU    C1  873   3.643   3.562   2.822
    2V3OU    H1  874   3.622   3.613   2.724
    2V3OU    O3  875   3.649   3.653   2.933
    2V3OU   C19  876   3.611   3.789   2.909
    2V3OU    H9  877   3.519   3.796   2.845
    2V3OU    O4  878   3.710   3.838   2.821
    2V3OU   C20  879   3.839   3.870   2.874
    2V3OU   H10  880   3.898   3.774   2.879
    2V3OU   C24  881   3.607   3.851   3.049
    2V3OU   H16  882   3.538   3.788   3.111
    2V3OU   H17  883   3.567   3.954   3.029
    2V3OU   C23  884   3.747   3.868   3.109
    2V3OU   H15  885   3.791   3.764   3.123
    2V3OU    N1  886   3.737   3.949   3.228
    2V3OU   H19  887   3.805   3.922   3.296
    2V3OU   H20  888   3.648   3.928   3.269
    2V3OU   C21  889   3.841   3.942   3.009
    2V3OU   H11  890   3.948   3.918   3.037
    2V3OU    O5  891   3.820   4.082   3.008
    2V3OU   H18  892   3.775   4.104   3.091
    2V3OU   C22  893   3.907   3.951   2.765
    2V3OU   H12  894   3.852   4.047   2.752
    2V3OU   H13  895   3.902   3.895   2.667
    2V3OU   H14  896   4.017   3.954   2.784
    2V3OU   C11  897   3.161   3.468   2.829
    2V3OU    O1  898   3.139   3.587   2.799
    2V3OU    C9  899   3.298   3.424   2.862
    2V3OU    C7  900   3.403   3.501   2.814
    2V3OU    O9  901   3.382   3.617   2.742
    2V3OU   H25  902   3.286   3.631   2.743
    2V3OU   C17  903   2.827   3.316   2.840
    2V3OU    H7  904   2.730   3.348   2.800
    2V3OU   C18  905   2.847   3.212   2.930
    2V3OU    H8  906   2.778   3.165   3.002
    3SOL     OW  907   2.074   5.426   6.720
    3SOL    HW1  908   2.073   5.345   6.662
    3SOL    HW2  909   2.045   5.505   6.667
    4SOL     OW  910   6.719   0.654   2.103
    4SOL    HW1  911   6.693   0.601   2.184
    4SOL    HW2  912   6.688   0.606   2.021
    5SOL     OW  913   4.332   2.195   2.155
    5SOL    HW1  914   4.354   2.099   2.167
    5SOL    HW2  915   4.246   2.204   2.105
    6SOL     OW  916   4.332   1.520   1.441
    6SOL    HW1  917   4.396   1.470   1.498
    6SOL    HW2  918   4.260   1.459   1.409
    7SOL     OW  919   0.691   3.833   3.655
    7SOL    HW1  920   0.665   3.803   3.746
    7SOL    HW2  921   0.676   3.932   3.646
    8SOL     OW  922   3.139   1.282   5.711
    8SOL    HW1  923   3.124   1.264   5.613
    8SOL    HW2  924   3.106   1.205   5.764
    9SOL     OW  925   4.771   1.426   5.758
    9SOL    HW1  926   4.691   1.444   5.701
    9SOL    HW2  927   4.821   1.511   5.773
   10SOL     OW  928   2.361   5.027   5.023
   10SOL    HW1  929   2.281   5.079   4.994
   10SOL    HW2  930   2.430   5.031   4.951
   11SOL     OW  931   2.845   1.143   5.395
   11SOL    HW1  932   2.757   1.183   5.369
   11SOL    HW2  933   2.890   1.106   5.313
   12SOL     OW  934   2.804   5.209   3.487
   12SOL    HW1  935   2.800   5.126   3.432
   12SOL    HW2  936   2.860   5.277   3.440
   13SOL     OW  937   3.773   6.682   4.342
   13SOL    HW1  938   3.718   6.610   4.385
   13SOL    HW2  939   3.726   6.716   4.261
   14SOL     OW  940   3.707   5.018   6.244
   14SOL    HW1  941   3.770   5.086   6.208
   14SOL    HW2  942   3.695   5.034   6.342
   15SOL     OW  943   0.952   6.685   1.239
   15SOL    HW1  944   1.044   6.669   1.274
   15SOL    HW2  945   0.903   6.598   1.234
   16SOL     OW  946   5.815   2.879   6.139
   16SOL    HW1  947   5.819   2.837   6.230
   16SOL    HW2  948   5.817   2.978   6.148
   17SOL     OW  949   5.778   5.178   6.550
   17SOL    HW1  950   5.763   5.222   6.639
   17SOL    HW2  951   5.867   5.205   6.513
   18SOL     OW  952   3.152   1.212   5.452
   18SOL    HW1  953   3.111   1.252   5.370
   18SOL    HW2  954   3.224   1.147   5.424
   19SOL     OW  955   0.221   1.568   2.624
   19SOL    HW1  956   0.259   1.483   2.661
   19SOL    HW2  957   0.135   1.548   2.577
   20SOL     OW  958   4.936   1.780   4.319
   20SOL    HW1  959   5.027   1.820   4.307
   20SOL    HW2  960   4.876   1.813   4.247
   21SOL     OW  961   3.338   0.874   1.962
   21SOL    HW1  962   3.413   0.809   1.963
   21SOL    HW2  963   3.296   0.874   1.871
   22SOL     OW  964   1.201   6.323   6.949
   22SOL    HW1  965   1.274   6.276   6.999
   22SOL    HW2  966   1.176   6.269   6.869
   23SOL     OW  967   5.186   5.366   2.606
   23SOL    HW1  968   5.178   5.372   2.507
   23SOL    HW2  969   5.283   5.354   2.631
   24SOL     OW  970   3.450   0.338   2.489
   24SOL    HW1  971   3.498   0.383   2.564
   24SOL    HW2  972   3.371   0.288   2.526
   25SOL     OW  973   3.635   6.971   3.659
   25SOL    HW1  974   3.597   6.914   3.585
   25SOL    HW2  975   3.702   6.918   3.711
   26SOL     OW  976   6.448   1.047   0.649
   26SOL    HW1  977   6.408   1.030   0.739
   26SOL    HW2  978   6.399   1.123   0.605
   27SOL     OW  979   2.014   0.991   2.260
   27SOL    HW1  980   2.091   0.998   2.324
   27SOL    HW2  981   1.931   0.965   2.310
   28SOL     OW  982   1.910   0.558   4.859
   28SOL    HW1  983   1.924   0.654   4.832
   28SOL    HW2  984   1.869   0.555   4.951
   29SOL     OW  985   6.089   1.771   1.578
   29SOL    HW1  986   6.062   1.760   1.483
   29SOL    HW2  987   6.189   1.778   1.584
   30SOL     OW  988   4.358   0.853   3.205
   30SOL    HW1  989   4.425   0.821   3.272
   30SOL    HW2  990   4.344   0.951   3.216
   31SOL     OW  991   0.739   2.231   6.450
   31SOL    HW1  992   0.727   2.302   6.519
   31SOL    HW2  993   0.828   2.244   6.405
   32SOL     OW  994   0.188   1.385   2.827
   32SOL    HW1  995   0.164   1.288   2.835
   32SOL    HW2  996   0.224   1.418   2.915
   33SOL     OW  997   0.838   4.258   4.861
   33SOL    HW1  998   0.776   4.283   4.936
   33SOL    HW2  999   0.785   4.225   4.783
   34SOL     OW 1000   2.548   6.845   4.873
   34SOL    HW1 1001   2.540   6.877   4.967
   34SOL    HW2 1002   2.566   6.746   4.873
   35SOL     OW 1003   4.940   3.245   5.836
   35SOL    HW1 1004   4.966   3.249   5.739
   35SOL    HW2 1005   4.857   3.191   5.846
   36SOL     OW 1006   4.893   1.704   4.573
   36SOL    HW1 1007   4.894   1.712   4.473
   36SOL    HW2 1008   4.819   1.643   4.601
   37SOL     OW 1009   1.274   1.610   5.539
   37SOL    HW1 1010   1.361   1.647   5.570
   37SOL    HW2 1011   1.292   1.531   5.479
   38SOL     OW 1012   0.943   5.388   2.680
   38SOL    HW1 1013   1.020   5.360   2.623
   38SOL    HW2 1014   0.964   5.475   2.724
   39SOL     OW 1015   6.406   4.552   6.331
   39SOL    HW1 1016   6.506   4.551   6.328
   39SOL    HW2 1017   6.370   4.540   6.239
   40SOL     OW 1018   4.820   1.988   0.625
   40SOL    HW1 1019   4.740   1.964   0.679
   40SOL    HW2 1020   4.798   2.062   0.563
   41SOL     OW 1021   6.934   4.539   3.475
   41SOL    HW1 1022   6.936   4.451   3.427
   41SOL    HW2 1023   6.883   4.606   3.421
   42SOL     OW 1024   3.014   5.288   3.988
   42SOL    HW1 1025   2.975   5.269   3.898
   42SOL    HW2 1026   3.113   5.290   3.982
   43SOL     OW 1027   5.113   6.834   5.546
   43SOL    HW1 1028   5.132   6.792   5.457
   43SOL    HW2 1029   5.191   6.820   5.606
   44SOL     OW 1030   4.834   2.239   6.010
   44SOL    HW1 1031   4.877   2.329   6.000
   44SOL    HW2 1032   4.736   2.250   6.022
   45SOL     OW 1033   4.713   5.252   1.253
   45SOL    HW1 1034   4.675   5.178   1.308
   45SOL    HW2 1035   4.650   5.330   1.253
   46SOL     OW 1036   0.586   2.849   3.748
   46SOL    HW1 1037   0.626   2.817   3.661
   46SOL    HW2 1038   0.499   2.895   3.729
   47SOL     OW 1039   4.643   4.295   1.070
   47SOL    HW1 1040   4.690   4.272   0.984
   47SOL    HW2 1041   4.550   4.326   1.050
   48SOL     OW 1042   6.777   2.650   6.022
   48SOL    HW1 1043   6.869   2.668   5.989
   48SOL    HW2 1044   6.762   2.697   6.109
   49SOL     OW 1045   5.914   3.227   2.332
   49SOL    HW1 1046   5.823   3.204   2.298
   49SOL    HW2 1047   5.978   3.233   2.256
   50SOL     OW 1048   5.523   1.072   4.829
   50SOL    HW1 1049   5.498   1.130   4.907
   50SOL    HW2 1050   5.620   1.046   4.837
   51SOL     OW 1051   2.479   6.393   3.149
   51SOL    HW1 1052   2.554   6.329   3.128
   51SOL    HW2 1053   2.509   6.486   3.129
   52SOL     OW 1054   6.330   2.919   2.183
   52SOL    HW1 1055   6.420   2.959   2.163
   52SOL    HW2 1056   6.287   2.972   2.256
   53SOL     OW 1057   4.251   1.048   3.760
   53SOL    HW1 1058   4.172   1.095   3.720
   53SOL    HW2 1059   4.307   1.009   3.688
   54SOL     OW 1060   5.261   5.481   0.987
   54SOL    HW1 1061   5.248   5.579   0.974
   54SOL    HW2 1062   5.289   5.439   0.901
   55SOL     OW 1063   2.019   2.953   5.959
   55SOL    HW1 1064   1.958   2.974   6.036
   55SOL    HW2 1065   2.104   2.915   5.995
   56SOL     OW 1066   0.341   0.576   1.447
   56SOL    HW1 1067   0.391   0.537   1.369
   56SOL    HW2 1068   0.403   0.629   1.504
   57SOL     OW 1069   4.519   1.024   1.107
   57SOL    HW1 1070   4.600   1.072   1.140
   57SOL    HW2 1071   4.468   1.083   1.045
   58SOL     OW 1072   1.203   0.145   5.031
   58SOL    HW1 1073   1.296   0.108   5.031
   58SOL    HW2 1074   1.192   0.206   4.953
   59SOL     OW 1075   0.297   2.664   6.099
   59SOL    HW1 1076   0.240   2.672   6.180
   59SOL    HW2 1077   0.291   2.748   6.045
   60SOL     OW 1078   5.345   2.724   4.330
   60SOL    HW1 1079   5.437   2.762   4.340
   60SOL    HW2 1080   5.280   2.780   4.380
   61SOL     OW 1081   6.808   2.140   4.345
   61SOL    HW1 1082   6.808   2.065   4.279
   61SOL    HW2 1083   6.751   2.214   4.310
   62SOL     OW 1084   2.114   0.800   2.071
   62SOL    HW1 1085   2.080   0.859   1.998
   62SOL    HW2 1086   2.074   0.829   2.158
   63SOL     OW 1087   4.971   0.827   4.204
   63SOL    HW1 1088   4.882   0.782   4.196
   63SOL    HW2 1089   4.971   0.885   4.286
   64SOL     OW 1090   0.141   2.931   5.567
   64SOL    HW1 1091   0.238   2.930   5.543
   64SOL    HW2 1092   0.097   2.849   5.531
   65SOL     OW 1093   0.624   4.570   6.292
   65SOL    HW1 1094   0.673   4.644   6.339
   65SOL    HW2 1095   0.572   4.517   6.359
   66SOL     OW 1096   3.663   0.690   4.080
   66SOL    HW1 1097   3.702   0.607   4.119
   66SOL    HW2 1098   3.568   0.701   4.110
   67SOL     OW 1099   6.638   2.442   5.879
   67SOL    HW1 1100   6.686   2.372   5.932
   67SOL    HW2 1101   6.658   2.532   5.918
   68SOL     OW 1102   0.111   1.219   0.174
   68SOL    HW1 1103   0.200   1.265   0.182
   68SOL    HW2 1104   0.038   1.282   0.198
   69SOL     OW 1105   0.708   3.276   6.350
   69SOL    HW1 1106   0.652   3.359   6.357
   69SOL    HW2 1107   0.686   3.215   6.426
   70SOL     OW 1108   5.018   4.520   4.150
   70SOL    HW1 1109   5.054   4.445   4.207
   70SOL    HW2 1110   5.090   4.588   4.135
   71SOL     OW 1111   4.286   2.243   3.100
   71SOL    HW1 1112   4.284   2.143   3.106
   71SOL    HW2 1113   4.340   2.279   3.176
   72SOL     OW 1114   1.322   1.051   3.599
   72SOL    HW1 1115   1.414   1.012   3.602
   72SOL    HW2 1116   1.302   1.096   3.686
   73SOL     OW 1117   3.774   0.355   1.360
   73SOL    HW1 1118   3.725   0.273   1.333
   73SOL    HW2 1119   3.871   0.346   1.337
   74SOL     OW 1120   3.855   0.386   7.013
   74SOL    HW1 1121   3.796   0.461   6.983
   74SOL    HW2 1122   3.931   0.376   6.950
   75SOL     OW 1123   4.461   0.550   1.394
   75SOL    HW1 1124   4.408   0.598   1.324
   75SOL    HW2 1125   4.421   0.460   1.409
   76SOL     OW 1126   2.634   3.178   1.102
   76SOL    HW1 1127   2.634   3.249   1.172
   76SOL    HW2 1128   2.594   3.214   1.017
   77SOL     OW 1129   1.034   0.395   3.547
   77SOL    HW1 1130   0.951   0.340   3.546
   77SOL    HW2 1131   1.016   0.483   3.502
   78SOL     OW 1132   5.050   1.675   0.339
   78SOL    HW1 1133   5.005   1.647   0.254
   78SOL    HW2 1134   4.981   1.709   0.403
   79SOL     OW 1135   3.517   5.634   1.194
   79SOL    HW1 1136   3.531   5.535   1.196
   79SOL    HW2 1137   3.424   5.654   1.165
   80SOL     OW 1138   4.712   0.938   3.528
   80SOL    HW1 1139   4.769   0.892   3.596
   80SOL    HW2 1140   4.750   1.029   3.510
   81SOL     OW 1141   2.233   0.171   2.222
   81SOL    HW1 1142   2.240   0.214   2.132
   81SOL    HW2 1143   2.172   0.091   2.215
   82SOL     OW 1144   5.723   5.142   0.827
   82SOL    HW1 1145   5.729   5.042   0.817
   82SOL    HW2 1146   5.665   5.179   0.755
   83SOL     OW 1147   0.282   0.076   0.431
   83SOL    HW1 1148   0.348   0.106   0.362
   83SOL    HW2 1149   0.197   0.048   0.386
   84SOL     OW 1150   6.312   3.473   2.612
   84SOL    HW1 1151   6.251   3.394   2.620
   84SOL    HW2 1152   6.313   3.523   2.699
   85SOL     OW 1153   1.726   1.148   3.334
   85SOL    HW1 1154   1.810   1.199   3.351
   85SOL    HW2 1155   1.684   1.121   3.420
   86SOL     OW 1156   0.500   1.422   6.158
   86SOL    HW1 1157   0.583   1.440   6.107
   86SOL    HW2 1158   0.523   1.388   6.249
   87SOL     OW 1159   5.111   4.182   0.777
   87SOL    HW1 1160   5.033   4.137   0.732
   87SOL    HW2 1161   5.095   4.281   0.779
   88SOL     OW 1162   3.058   1.671   6.435
   88SOL    HW1 1163   3.010   1.653   6.349
   88SOL    HW2 1164   3.090   1.766   6.436
   89SOL     OW 1165   2.595   2.975   6.929
   89SOL    HW1 1166   2.564   3.019   7.014
   89SOL    HW2 1167   2.659   3.035   6.882
   90SOL     OW 1168   3.591   5.733   2.131
   90SOL    HW1 1169   3.596   5.634   2.123
   90SOL    HW2 1170   3.672   5.768   2.178
   91SOL     OW 1171   6.406   4.019   6.018
   91SOL    HW1 1172   6.327   4.077   5.999
   91SOL    HW2 1173   6.480   4.075   6.057
   92SOL     OW 1174   4.691   4.338   1.362
   92SOL    HW1 1175   4.680   4.372   1.269
   92SOL    HW2 1176   4.782   4.298   1.373
   93SOL     OW 1177   3.069   3.551   0.379
   93SOL    HW1 1178   3.074   3.592   0.288
   93SOL    HW2 1179   3.096   3.618   0.448
   94SOL     OW 1180   3.173   5.532   6.666
   94SOL    HW1 1181   3.201   5.438   6.686
   94SOL    HW2 1182   3.214   5.594   6.732
   95SOL     OW 1183   1.940   0.882   2.601
   95SOL    HW1 1184   1.946   0.965   2.657
   95SOL    HW2 1185   2.030   0.860   2.565
   96SOL     OW 1186   4.118   6.827   5.772
   96SOL    HW1 1187   4.175   6.907   5.790
   96SOL    HW2 1188   4.039   6.854   5.717
   97SOL     OW 1189   2.281   2.934   6.059
   97SOL    HW1 1190   2.278   2.854   6.119
   97SOL    HW2 1191   2.318   3.012   6.110
   98SOL     OW 1192   1.158   2.765   0.763
   98SOL    HW1 1193   1.204   2.676   0.762
   98SOL    HW2 1194   1.168   2.809   0.674
   99SOL     OW 1195   4.465   3.335   1.551
   99SOL    HW1 1196   4.428   3.275   1.622
   99SOL    HW2 1197   4.389   3.382   1.506
  100SOL     OW 1198   1.097   6.452   3.427
  100SOL    HW1 1199   1.089   6.361   3.467
  100SOL    HW2 1200   1.100   6.520   3.500
  101SOL     OW 1201   1.296   4.535   2.135
  101SOL    HW1 1202   1.346   4.478   2.200
  101SOL    HW2 1203   1.356   4.559   2.059
  102SOL     OW 1204   3.250   5.283   2.149
  102SOL    HW1 1205   3.336   5.232   2.153
  102SOL    HW2 1206   3.176   5.228   2.187
  103SOL     OW 1207   2.532   1.848   1.835
  103SOL    HW1 1208   2.617   1.795   1.843
  103SOL    HW2 1209   2.454   1.790   1.858
  104SOL     OW 1210   1.166   5.779   2.462
  104SOL    HW1 1211   1.193   5.875   2.470
  104SOL    HW2 1212   1.079   5.766   2.509
  105SOL     OW 1213   5.910   1.370   6.296
  105SOL    HW1 1214   5.858   1.324   6.368
  105SOL    HW2 1215   5.924   1.466   6.321
  106SOL     OW 1216   3.381   5.973   3.777
  106SOL    HW1 1217   3.471   5.933   3.763
  106SOL    HW2 1218   3.390   6.072   3.793
  107SOL     OW 1219   0.666   1.109   0.027
  107SOL    HW1 1220   0.689   1.049   6.969
  107SOL    HW2 1221   0.723   1.085   0.105
  108SOL     OW 1222   4.164   6.868   6.217
  108SOL    HW1 1223   4.067   6.890   6.203
  108SOL    HW2 1224   4.191   6.795   6.154
  109SOL     OW 1225   2.675   1.537   2.921
  109SOL    HW1 1226   2.676   1.569   2.826
  109SOL    HW2 1227   2.766   1.546   2.961
  110SOL     OW 1228   3.045   5.046   4.143
  110SOL    HW1 1229   3.123   5.083   4.194
  110SOL    HW2 1230   2.974   5.116   4.135
  111SOL     OW 1231   2.482   0.855   3.762
  111SOL    HW1 1232   2.574   0.885   3.787
  111SOL    HW2 1233   2.485   0.757   3.738
  112SOL     OW 1234   3.326   5.820   0.114
  112SOL    HW1 1235   3.257   5.750   0.130
  112SOL    HW2 1236   3.379   5.834   0.198
  113SOL     OW 1237   0.834   6.431   2.621
  113SOL    HW1 1238   0.777   6.438   2.540
  113SOL    HW2 1239   0.776   6.420   2.702
  114SOL     OW 1240   0.886   6.388   1.200
  114SOL    HW1 1241   0.820   6.378   1.274
  114SOL    HW2 1242   0.853   6.341   1.119
  115SOL     OW 1243   4.833   0.928   2.869
  115SOL    HW1 1244   4.795   0.839   2.844
  115SOL    HW2 1245   4.791   0.999   2.812
  116SOL     OW 1246   6.945   6.306   0.855
  116SOL    HW1 1247   0.013   6.320   0.807
  116SOL    HW2 1248   6.930   6.382   0.918
  117SOL     OW 1249   6.917   1.871   0.898
  117SOL    HW1 1250   6.973   1.862   0.980
  117SOL    HW2 1251   6.924   1.964   0.862
  118SOL     OW 1252   1.546   1.350   2.589
  118SOL    HW1 1253   1.519   1.431   2.537
  118SOL    HW2 1254   1.588   1.283   2.528
  119SOL     OW 1255   0.220   0.212   7.000
  119SOL    HW1 1256   0.133   0.191   0.025
  119SOL    HW2 1257   0.228   0.311   6.987
  120SOL     OW 1258   5.240   1.312   5.633
  120SOL    HW1 1259   5.141   1.302   5.632
  120SOL    HW2 1260   5.276   1.299   5.541
  121SOL     OW 1261   1.645   3.146   0.445
  121SOL    HW1 1262   1.592   3.079   0.497
  121SOL    HW2 1263   1.731   3.164   0.491
  122SOL     OW 1264   1.574   4.018   0.308
  122SOL    HW1 1265   1.668   4.043   0.330
  122SOL    HW2 1266   1.545   3.942   0.366
  123SOL     OW 1267   1.329   2.065   2.827
  123SOL    HW1 1268   1.322   1.997   2.754
  123SOL    HW2 1269   1.331   2.020   2.916
  124SOL     OW 1270   3.654   2.776   0.740
  124SOL    HW1 1271   3.566   2.802   0.699
  124SOL    HW2 1272   3.704   2.859   0.765
  125SOL     OW 1273   3.959   2.529   0.439
  125SOL    HW1 1274   3.989   2.622   0.415
  125SOL    HW2 1275   3.864   2.532   0.471
  126SOL     OW 1276   3.545   3.537   1.645
  126SOL    HW1 1277   3.458   3.511   1.603
  126SOL    HW2 1278   3.606   3.458   1.647
  127SOL     OW 1279   1.033   4.925   6.425
  127SOL    HW1 1280   1.127   4.960   6.423
  127SOL    HW2 1281   1.020   4.862   6.348
  128SOL     OW 1282   4.606   3.206   1.254
  128SOL    HW1 1283   4.540   3.143   1.296
  128SOL    HW2 1284   4.678   3.228   1.319
  129SOL     OW 1285   2.980   3.415   6.534
  129SOL    HW1 1286   3.050   3.486   6.537
  129SOL    HW2 1287   2.986   3.358   6.616
  130SOL     OW 1288   1.357   1.281   4.194
  130SOL    HW1 1289   1.286   1.220   4.230
  130SOL    HW2 1290   1.447   1.244   4.217
  131SOL     OW 1291   4.745   0.670   3.120
  131SOL    HW1 1292   4.762   0.615   3.202
  131SOL    HW2 1293   4.761   0.766   3.141
  132SOL     OW 1294   2.889   2.479   1.616
  132SOL    HW1 1295   2.841   2.564   1.593
  132SOL    HW2 1296   2.908   2.477   1.714
  133SOL     OW 1297   5.060   0.834   4.653
  133SOL    HW1 1298   5.152   0.869   4.668
  133SOL    HW2 1299   5.032   0.780   4.733
  134SOL     OW 1300   0.285   0.947   2.697
  134SOL    HW1 1301   0.340   1.025   2.665
  134SOL    HW2 1302   0.206   0.935   2.636
  135SOL     OW 1303   4.896   3.547   4.221
  135SOL    HW1 1304   4.822   3.491   4.185
  135SOL    HW2 1305   4.893   3.637   4.177
  136SOL     OW 1306   1.419   5.061   5.402
  136SOL    HW1 1307   1.508   5.100   5.378
  136SOL    HW2 1308   1.382   5.107   5.482
  137SOL     OW 1309   4.468   1.503   3.165
  137SOL    HW1 1310   4.500   1.443   3.092
  137SOL    HW2 1311   4.547   1.545   3.210
  138SOL     OW 1312   1.141   3.942   2.823
  138SOL    HW1 1313   1.151   4.039   2.842
  138SOL    HW2 1314   1.217   3.892   2.865
  139SOL     OW 1315   2.308   6.441   5.369
  139SOL    HW1 1316   2.371   6.365   5.354
  139SOL    HW2 1317   2.353   6.527   5.342
  140SOL     OW 1318   1.926   6.760   3.851
  140SOL    HW1 1319   2.010   6.726   3.809
  140SOL    HW2 1320   1.896   6.842   3.803
  141SOL     OW 1321   0.290   2.521   4.954
  141SOL    HW1 1322   0.213   2.482   4.904
  141SOL    HW2 1323   0.366   2.456   4.955
  142SOL     OW 1324   2.176   3.828   2.242
  142SOL    HW1 1325   2.125   3.743   2.258
  142SOL    HW2 1326   2.216   3.826   2.151
  143SOL     OW 1327   5.744   5.422   0.463
  143SOL    HW1 1328   5.837   5.437   0.497
  143SOL    HW2 1329   5.682   5.489   0.504
  144SOL     OW 1330   1.898   4.713   5.720
  144SOL    HW1 1331   1.986   4.756   5.700
  144SOL    HW2 1332   1.900   4.617   5.692
  145SOL     OW 1333   1.470   4.646   1.949
  145SOL    HW1 1334   1.548   4.699   1.983
  145SOL    HW2 1335   1.490   4.612   1.857
  146SOL     OW 1336   5.324   0.314   6.407
  146SOL    HW1 1337   5.380   0.239   6.442
  146SOL    HW2 1338   5.229   0.284   6.401
  147SOL     OW 1339   5.625   2.087   6.147
  147SOL    HW1 1340   5.705   2.122   6.099
  147SOL    HW2 1341   5.594   2.154   6.214
  148SOL     OW 1342   0.281   5.285   1.077
  148SOL    HW1 1343   0.322   5.194   1.092
  148SOL    HW2 1344   0.261   5.327   1.165
  149SOL     OW 1345   3.455   2.144   5.128
  149SOL    HW1 1346   3.516   2.197   5.188
  149SOL    HW2 1347   3.373   2.198   5.108
  150SOL     OW 1348   5.578   6.633   6.968
  150SOL    HW1 1349   5.659   6.575   6.955
  150SOL    HW2 1350   5.604   6.729   6.955
  151SOL     OW 1351   3.364   0.606   1.396
  151SOL    HW1 1352   3.265   0.620   1.391
  151SOL    HW2 1353   3.384   0.522   1.447
  152SOL     OW 1354   0.054   1.750   1.120
  152SOL    HW1 1355   6.989   1.696   1.116
  152SOL    HW2 1356   0.123   1.701   1.173
  153SOL     OW 1357   2.988   6.861   3.351
  153SOL    HW1 1358   3.046   6.902   3.281
  153SOL    HW2 1359   2.951   6.774   3.316
  154SOL     OW 1360   0.808   3.381   0.689
  154SOL    HW1 1361   0.863   3.330   0.756
  154SOL    HW2 1362   0.868   3.441   0.636
  155SOL     OW 1363   1.111   1.157   4.258
  155SOL    HW1 1364   1.065   1.079   4.214
  155SOL    HW2 1365   1.048   1.202   4.321
  156SOL     OW 1366   6.817   0.881   0.729
  156SOL    HW1 1367   6.798   0.964   0.782
  156SOL    HW2 1368   6.916   0.865   0.725
  157SOL     OW 1369   5.667   3.963   0.610
  157SOL    HW1 1370   5.756   3.934   0.577
  157SOL    HW2 1371   5.654   4.060   0.591
  158SOL     OW 1372   1.587   2.864   2.011
  158SOL    HW1 1373   1.586   2.953   2.057
  158SOL    HW2 1374   1.672   2.816   2.033
  159SOL     OW 1375   4.437   4.859   1.771
  159SOL    HW1 1376   4.465   4.838   1.865
  159SOL    HW2 1377   4.376   4.788   1.738
  160SOL     OW 1378   5.572   6.875   0.868
  160SOL    HW1 1379   5.498   6.854   0.932
  160SOL    HW2 1380   5.660   6.862   0.914
  161SOL     OW 1381   1.060   0.390   3.154
  161SOL    HW1 1382   1.157   0.411   3.166
  161SOL    HW2 1383   1.051   0.310   3.095
  162SOL     OW 1384   3.849   6.034   0.226
  162SOL    HW1 1385   3.778   5.978   0.184
  162SOL    HW2 1386   3.909   6.071   0.154
  163SOL     OW 1387   6.660   5.946   2.194
  163SOL    HW1 1388   6.567   5.956   2.158
  163SOL    HW2 1389   6.718   5.905   2.124
  164SOL     OW 1390   1.151   4.234   3.497
  164SOL    HW1 1391   1.246   4.244   3.466
  164SOL    HW2 1392   1.126   4.137   3.500
  165SOL     OW 1393   4.902   3.779   0.302
  165SOL    HW1 1394   4.882   3.803   0.208
  165SOL    HW2 1395   4.991   3.732   0.307
  166SOL     OW 1396   1.044   2.977   2.329
  166SOL    HW1 1397   0.970   2.952   2.391
  166SOL    HW2 1398   1.019   3.058   2.277
  167SOL     OW 1399   5.630   2.036   6.884
  167SOL    HW1 1400   5.598   1.942   6.898
  167SOL    HW2 1401   5.573   2.081   6.815
  168SOL     OW 1402   3.496   1.749   0.605
  168SOL    HW1 1403   3.553   1.689   0.661
  168SOL    HW2 1404   3.515   1.844   0.629
  169SOL     OW 1405   6.600   2.473   0.931
  169SOL    HW1 1406   6.548   2.527   0.865
  169SOL    HW2 1407   6.698   2.491   0.919
  170SOL     OW 1408   6.895   6.374   2.525
  170SOL    HW1 1409   6.974   6.354   2.467
  170SOL    HW2 1410   6.926   6.399   2.616
  171SOL     OW 1411   2.735   4.818   0.034
  171SOL    HW1 1412   2.747   4.861   0.124
  171SOL    HW2 1413   2.691   4.882   6.991
  172SOL     OW 1414   6.137   1.603   3.577
  172SOL    HW1 1415   6.184   1.531   3.527
  172SOL    HW2 1416   6.174   1.609   3.670
  173SOL     OW 1417   5.747   1.023   3.834
  173SOL    HW1 1418   5.814   1.086   3.872
  173SOL    HW2 1419   5.789   0.971   3.759
  174SOL     OW 1420   3.974   5.221   3.908
  174SOL    HW1 1421   3.961   5.314   3.943
  174SOL    HW2 1422   3.890   5.169   3.921
  175SOL     OW 1423   3.116   0.668   1.370
  175SOL    HW1 1424   3.034   0.621   1.403
  175SOL    HW2 1425   3.100   0.766   1.370
  176SOL     OW 1426   6.447   4.715   2.102
  176SOL    HW1 1427   6.376   4.741   2.167
  176SOL    HW2 1428   6.406   4.704   2.011
  177SOL     OW 1429   5.255   3.165   4.317
  177SOL    HW1 1430   5.196   3.147   4.395
  177SOL    HW2 1431   5.198   3.182   4.236
  178SOL     OW 1432   3.120   4.223   5.301
  178SOL    HW1 1433   3.134   4.145   5.240
  178SOL    HW2 1434   3.182   4.297   5.275
  179SOL     OW 1435   3.930   1.218   6.504
  179SOL    HW1 1436   3.913   1.317   6.510
  179SOL    HW2 1437   3.945   1.192   6.408
  180SOL     OW 1438   1.900   6.998   0.867
  180SOL    HW1 1439   1.962   6.926   0.833
  180SOL    HW2 1440   1.940   0.022   0.947
  181SOL     OW 1441   2.945   3.400   5.918
  181SOL    HW1 1442   2.962   3.356   6.006
  181SOL    HW2 1443   2.846   3.408   5.903
  182SOL     OW 1444   4.054   1.778   6.048
  182SOL    HW1 1445   4.010   1.736   6.127
  182SOL    HW2 1446   4.142   1.817   6.075
  183SOL     OW 1447   3.357   1.787   3.662
  183SOL    HW1 1448   3.309   1.840   3.732
  183SOL    HW2 1449   3.299   1.710   3.633
  184SOL     OW 1450   0.211   6.332   4.194
  184SOL    HW1 1451   0.299   6.377   4.208
  184SOL    HW2 1452   0.137   6.395   4.217
  185SOL     OW 1453   1.086   1.228   4.743
  185SOL    HW1 1454   1.092   1.135   4.706
  185SOL    HW2 1455   1.082   1.294   4.668
  186SOL     OW 1456   6.061   1.574   4.214
  186SOL    HW1 1457   5.967   1.566   4.182
  186SOL    HW2 1458   6.084   1.494   4.270
  187SOL     OW 1459   5.216   6.637   2.565
  187SOL    HW1 1460   5.195   6.552   2.516
  187SOL    HW2 1461   5.235   6.710   2.499
  188SOL     OW 1462   1.223   3.505   3.597
  188SOL    HW1 1463   1.269   3.443   3.532
  188SOL    HW2 1464   1.134   3.531   3.560
  189SOL     OW 1465   1.671   5.786   0.321
  189SOL    HW1 1466   1.579   5.780   0.283
  189SOL    HW2 1467   1.737   5.748   0.257
  190SOL     OW 1468   6.474   4.108   5.767
  190SOL    HW1 1469   6.519   4.079   5.683
  190SOL    HW2 1470   6.490   4.041   5.839
  191SOL     OW 1471   6.081   0.562   6.996
  191SOL    HW1 1472   6.136   0.584   6.915
  191SOL    HW2 1473   6.033   0.644   0.007
  192SOL     OW 1474   0.840   5.339   1.478
  192SOL    HW1 1475   0.832   5.264   1.544
  192SOL    HW2 1476   0.868   5.303   1.389
  193SOL     OW 1477   4.870   3.738   5.328
  193SOL    HW1 1478   4.940   3.769   5.263
  193SOL    HW2 1479   4.806   3.676   5.282
  194SOL     OW 1480   4.094   6.895   3.580
  194SOL    HW1 1481   4.079   6.949   3.663
  194SOL    HW2 1482   4.042   6.936   3.505
  195SOL     OW 1483   1.519   0.981   4.556
  195SOL    HW1 1484   1.449   0.939   4.498
  195SOL    HW2 1485   1.599   1.004   4.500
  196SOL     OW 1486   2.296   0.215   6.692
  196SOL    HW1 1487   2.362   0.232   6.620
  196SOL    HW2 1488   2.204   0.234   6.659
  197SOL     OW 1489   2.727   7.001   1.392
  197SOL    HW1 1490   2.752   0.074   1.362
  197SOL    HW2 1491   2.681   6.953   1.317
  198SOL     OW 1492   4.683   6.245   1.954
  198SOL    HW1 1493   4.659   6.183   1.879
  198SOL    HW2 1494   4.602   6.293   1.985
  199SOL     OW 1495   6.414   1.326   3.884
  199SOL    HW1 1496   6.500   1.362   3.921
  199SOL    HW2 1497   6.422   1.317   3.785
  200SOL     OW 1498   0.934   4.381   1.844
  200SOL    HW1 1499   0.929   4.429   1.932
  200SOL    HW2 1500   0.870   4.422   1.780
  201SOL     OW 1501   5.638   6.896   6.304
  201SOL    HW1 1502   5.633   6.992   6.330
  201SOL    HW2 1503   5.694   6.846   6.370
  202SOL     OW 1504   5.357   0.506   5.480
  202SOL    HW1 1505   5.343   0.604   5.475
  202SOL    HW2 1506   5.308   0.461   5.405
  203SOL     OW 1507   4.276   2.342   4.557
  203SOL    HW1 1508   4.327   2.426   4.538
  203SOL    HW2 1509   4.256   2.337   4.655
  204SOL     OW 1510   6.345   0.631   6.504
  204SOL    HW1 1511   6.420   0.570   6.531
  204SOL    HW2 1512   6.382   0.711   6.457
  205SOL     OW 1513   0.764   0.665   2.850
  205SOL    HW1 1514   0.744   0.709   2.763
  205SOL    HW2 1515   0.696   0.693   2.918
  206SOL     OW 1516   0.437   5.347   2.072
  206SOL    HW1 1517   0.413   5.406   1.996
  206SOL    HW2 1518   0.517   5.292   2.049
  207SOL     OW 1519   4.348   0.622   4.031
  207SOL    HW1 1520   4.314   0.667   4.114
  207SOL    HW2 1521   4.379   0.692   3.967
  208SOL     OW 1522   5.394   3.668   5.649
  208SOL    HW1 1523   5.400   3.577   5.690
  208SOL    HW2 1524   5.341   3.662   5.564
  209SOL     OW 1525   0.858   4.750   4.800
  209SOL    HW1 1526   0.792   4.742   4.725
  209SOL    HW2 1527   0.836   4.682   4.871
  210SOL     OW 1528   4.249   2.130   1.214
  210SOL    HW1 1529   4.152   2.153   1.217
  210SOL    HW2 1530   4.296   2.188   1.148
  211SOL     OW 1531   1.674   6.398   3.432
  211SOL    HW1 1532   1.744   6.327   3.437
  211SOL    HW2 1533   1.676   6.452   3.516
  212SOL     OW 1534   1.474   4.631   0.898
  212SOL    HW1 1535   1.528   4.691   0.957
  212SOL    HW2 1536   1.378   4.634   0.926
  213SOL     OW 1537   3.483   0.930   5.677
  213SOL    HW1 1538   3.492   1.018   5.724
  213SOL    HW2 1539   3.529   0.935   5.588
  214SOL     OW 1540   4.251   5.479   1.812
  214SOL    HW1 1541   4.257   5.570   1.853
  214SOL    HW2 1542   4.155   5.459   1.791
  215SOL     OW 1543   2.467   4.078   1.236
  215SOL    HW1 1544   2.422   4.141   1.173
  215SOL    HW2 1545   2.516   4.008   1.183
  216SOL     OW 1546   2.250   6.017   4.317
  216SOL    HW1 1547   2.334   5.970   4.344
  216SOL    HW2 1548   2.262   6.058   4.227
  217SOL     OW 1549   2.181   2.821   3.489
  217SOL    HW1 1550   2.147   2.898   3.544
  217SOL    HW2 1551   2.103   2.776   3.444
  218SOL     OW 1552   1.189   2.721   4.393
  218SOL    HW1 1553   1.105   2.675   4.420
  218SOL    HW2 1554   1.267   2.663   4.415
  219SOL     OW 1555   3.461   6.763   5.683
  219SOL    HW1 1556   3.510   6.763   5.770
  219SOL    HW2 1557   3.415   6.852   5.671
  220SOL     OW 1558   3.718   6.631   6.982
  220SOL    HW1 1559   3.659   6.681   0.027
  220SOL    HW2 1560   3.804   6.681   6.970
  221SOL     OW 1561   6.826   3.571   2.808
  221SOL    HW1 1562   6.826   3.666   2.839
  221SOL    HW2 1563   6.871   3.565   2.719
  222SOL     OW 1564   2.723   4.953   5.679
  222SOL    HW1 1565   2.768   4.886   5.738
  222SOL    HW2 1566   2.651   4.909   5.626
  223SOL     OW 1567   5.742   3.500   1.176
  223SOL    HW1 1568   5.729   3.584   1.228
  223SOL    HW2 1569   5.660   3.483   1.121
  224SOL     OW 1570   2.653   1.867   4.150
  224SOL    HW1 1571   2.637   1.925   4.070
  224SOL    HW2 1572   2.572   1.869   4.209
  225SOL     OW 1573   5.962   2.148   5.747
  225SOL    HW1 1574   6.020   2.130   5.667
  225SOL    HW2 1575   5.880   2.197   5.718
  226SOL     OW 1576   2.082   0.575   6.226
  226SOL    HW1 1577   2.045   0.525   6.148
  226SOL    HW2 1578   2.086   0.673   6.204
  227SOL     OW 1579   1.648   3.815   2.848
  227SOL    HW1 1580   1.709   3.887   2.813
  227SOL    HW2 1581   1.613   3.760   2.773
  228SOL     OW 1582   3.422   6.223   3.879
  228SOL    HW1 1583   3.504   6.245   3.932
  228SOL    HW2 1584   3.356   6.297   3.888
  229SOL     OW 1585   5.007   6.002   0.351
  229SOL    HW1 1586   5.011   6.097   0.384
  229SOL    HW2 1587   4.919   5.986   0.306
  230SOL     OW 1588   2.721   4.869   2.397
  230SOL    HW1 1589   2.704   4.805   2.322
  230SOL    HW2 1590   2.672   4.838   2.479
  231SOL     OW 1591   6.527   1.635   6.490
  231SOL    HW1 1592   6.584   1.657   6.569
  231SOL    HW2 1593   6.474   1.552   6.509
  232SOL     OW 1594   1.130   4.102   5.999
  232SOL    HW1 1595   1.071   4.159   6.056
  232SOL    HW2 1596   1.222   4.140   5.996
  233SOL     OW 1597   2.234   1.597   4.237
  233SOL    HW1 1598   2.304   1.592   4.308
  233SOL    HW2 1599   2.179   1.513   4.237
  234SOL     OW 1600   4.262   6.059   5.287
  234SOL    HW1 1601   4.344   6.062   5.231
  234SOL    HW2 1602   4.242   6.151   5.322
  235SOL     OW 1603   3.241   3.050   1.570
  235SOL    HW1 1604   3.339   3.072   1.575
  235SOL    HW2 1605   3.200   3.100   1.494
  236SOL     OW 1606   5.529   2.818   6.396
  236SOL    HW1 1607   5.457   2.847   6.460
  236SOL    HW2 1608   5.619   2.836   6.436
  237SOL     OW 1609   6.403   5.612   1.879
  237SOL    HW1 1610   6.334   5.651   1.939
  237SOL    HW2 1611   6.360   5.543   1.819
  238SOL     OW 1612   6.001   1.948   0.072
  238SOL    HW1 1613   5.933   2.016   0.100
  238SOL    HW2 1614   6.016   1.953   6.992
  239SOL     OW 1615   0.196   5.736   6.260
  239SOL    HW1 1616   0.106   5.733   6.303
  239SOL    HW2 1617   0.211   5.651   6.210
  240SOL     OW 1618   0.667   2.580   5.404
  240SOL    HW1 1619   0.700   2.519   5.477
  240SOL    HW2 1620   0.584   2.626   5.435
  241SOL     OW 1621   1.671   6.890   5.078
  241SOL    HW1 1622   1.623   6.805   5.057
  241SOL    HW2 1623   1.710   6.885   5.170
  242SOL     OW 1624   2.930   3.488   5.635
  242SOL    HW1 1625   2.948   3.431   5.715
  242SOL    HW2 1626   2.876   3.435   5.568
  243SOL     OW 1627   5.057   0.811   5.936
  243SOL    HW1 1628   5.050   0.896   5.988
  243SOL    HW2 1629   4.992   0.744   5.973
  244SOL     OW 1630   5.127   2.847   4.462
  244SOL    HW1 1631   5.059   2.882   4.397
  244SOL    HW2 1632   5.106   2.752   4.484
  245SOL     OW 1633   0.187   3.174   5.416
  245SOL    HW1 1634   0.109   3.111   5.421
  245SOL    HW2 1635   0.240   3.155   5.333
  246SOL     OW 1636   4.957   2.542   2.780
  246SOL    HW1 1637   5.052   2.538   2.750
  246SOL    HW2 1638   4.951   2.601   2.861
  247SOL     OW 1639   2.705   0.929   1.688
  247SOL    HW1 1640   2.658   0.898   1.771
  247SOL    HW2 1641   2.800   0.951   1.711
  248SOL     OW 1642   3.954   1.409   3.404
  248SOL    HW1 1643   3.945   1.492   3.459
  248SOL    HW2 1644   4.009   1.429   3.323
  249SOL     OW 1645   4.622   0.087   6.154
  249SOL    HW1 1646   4.572   0.047   6.077
  249SOL    HW2 1647   4.682   0.160   6.121
  250SOL     OW 1648   5.527   2.723   0.862
  250SOL    HW1 1649   5.449   2.664   0.838
  250SOL    HW2 1650   5.611   2.682   0.827
  251SOL     OW 1651   4.479   4.131   6.442
  251SOL    HW1 1652   4.410   4.072   6.400
  251SOL    HW2 1653   4.474   4.222   6.402
  252SOL     OW 1654   5.754   0.519   6.759
  252SOL    HW1 1655   5.822   0.477   6.700
  252SOL    HW2 1656   5.702   0.587   6.707
  253SOL     OW 1657   1.971   4.479   6.842
  253SOL    HW1 1658   1.875   4.453   6.836
  253SOL    HW2 1659   1.982   4.574   6.814
  254SOL     OW 1660   5.286   3.543   3.179
  254SOL    HW1 1661   5.338   3.479   3.122
  254SOL    HW2 1662   5.254   3.619   3.123
  255SOL     OW 1663   1.684   3.103   4.276
  255SOL    HW1 1664   1.775   3.144   4.285
  255SOL    HW2 1665   1.672   3.068   4.183
  256SOL     OW 1666   6.242   4.770   6.454
  256SOL    HW1 1667   6.182   4.723   6.519
  256SOL    HW2 1668   6.290   4.701   6.399
  257SOL     OW 1669   4.502   6.815   4.452
  257SOL    HW1 1670   4.406   6.815   4.478
  257SOL    HW2 1671   4.518   6.888   4.385
  258SOL     OW 1672   6.034   5.153   4.700
  258SOL    HW1 1673   6.011   5.078   4.637
  258SOL    HW2 1674   6.128   5.183   4.683
  259SOL     OW 1675   1.712   2.647   2.630
  259SOL    HW1 1676   1.638   2.710   2.605
  259SOL    HW2 1677   1.774   2.637   2.552
  260SOL     OW 1678   3.984   0.738   0.962
  260SOL    HW1 1679   4.007   0.696   1.050
  260SOL    HW2 1680   4.032   0.826   0.954
  261SOL     OW 1681   7.001   3.863   1.340
  261SOL    HW1 1682   0.002   3.878   1.243
  261SOL    HW2 1683   6.931   3.928   1.370
  262SOL     OW 1684   0.333   3.950   1.177
  262SOL    HW1 1685   0.272   3.889   1.126
  262SOL    HW2 1686   0.282   3.993   1.252
  263SOL     OW 1687   1.054   1.733   3.839
  263SOL    HW1 1688   1.143   1.713   3.881
  263SOL    HW2 1689   1.040   1.832   3.836
  264SOL     OW 1690   4.801   4.105   5.809
  264SOL    HW1 1691   4.863   4.157   5.751
  264SOL    HW2 1692   4.819   4.125   5.905
  265SOL     OW 1693   4.478   4.510   3.718
  265SOL    HW1 1694   4.454   4.518   3.815
  265SOL    HW2 1695   4.441   4.588   3.667
  266SOL     OW 1696   3.620   3.684   5.440
  266SOL    HW1 1697   3.683   3.738   5.496
  266SOL    HW2 1698   3.638   3.587   5.454
  267SOL     OW 1699   6.022   2.482   5.973
  267SOL    HW1 1700   6.122   2.487   5.977
  267SOL    HW2 1701   5.994   2.437   5.888
  268SOL     OW 1702   4.408   6.765   5.385
  268SOL    HW1 1703   4.467   6.790   5.462
  268SOL    HW2 1704   4.463   6.756   5.302
  269SOL     OW 1705   1.829   3.230   0.709
  269SOL    HW1 1706   1.756   3.297   0.695
  269SOL    HW2 1707   1.897   3.268   0.772
  270SOL     OW 1708   6.430   0.114   1.714
  270SOL    HW1 1709   6.466   0.081   1.801
  270SOL    HW2 1710   6.416   0.036   1.652
  271SOL     OW 1711   2.272   2.143   0.433
  271SOL    HW1 1712   2.247   2.142   0.530
  271SOL    HW2 1713   2.197   2.181   0.379
  272SOL     OW 1714   3.272   5.212   3.904
  272SOL    HW1 1715   3.317   5.140   3.957
  272SOL    HW2 1716   3.259   5.181   3.810
  273SOL     OW 1717   1.954   5.103   5.180
  273SOL    HW1 1718   1.895   5.165   5.232
  273SOL    HW2 1719   1.919   5.010   5.187
  274SOL     OW 1720   4.487   2.496   4.096
  274SOL    HW1 1721   4.418   2.440   4.142
  274SOL    HW2 1722   4.544   2.541   4.165
  275SOL     OW 1723   6.141   5.947   5.912
  275SOL    HW1 1724   6.205   5.918   5.983
  275SOL    HW2 1725   6.192   5.989   5.836
  276SOL     OW 1726   0.644   5.206   3.358
  276SOL    HW1 1727   0.639   5.249   3.448
  276SOL    HW2 1728   0.583   5.127   3.356
  277SOL     OW 1729   2.455   3.311   0.931
  277SOL    HW1 1730   2.481   3.390   0.876
  277SOL    HW2 1731   2.402   3.341   1.010
  278SOL     OW 1732   0.326   4.757   1.561
  278SOL    HW1 1733   0.356   4.663   1.576
  278SOL    HW2 1734   0.366   4.817   1.631
  279SOL     OW 1735   0.381   2.753   4.256
  279SOL    HW1 1736   0.411   2.845   4.231
  279SOL    HW2 1737   0.424   2.727   4.342
  280SOL     OW 1738   2.860   6.878   2.974
  280SOL    HW1 1739   2.828   6.783   2.964
  280SOL    HW2 1740   2.912   6.903   2.893
  281SOL     OW 1741   3.483   4.856   2.236
  281SOL    HW1 1742   3.385   4.849   2.218
  281SOL    HW2 1743   3.534   4.835   2.152
  282SOL     OW 1744   4.006   2.042   5.468
  282SOL    HW1 1745   3.927   2.091   5.432
  282SOL    HW2 1746   4.088   2.069   5.417
  283SOL     OW 1747   6.828   1.121   5.974
  283SOL    HW1 1748   6.736   1.125   6.015
  283SOL    HW2 1749   6.895   1.102   6.045
  284SOL     OW 1750   0.075   4.440   5.032
  284SOL    HW1 1751   0.097   4.356   4.983
  284SOL    HW2 1752   7.001   4.468   5.010
  285SOL     OW 1753   5.500   5.370   6.409
  285SOL    HW1 1754   5.590   5.414   6.419
  285SOL    HW2 1755   5.508   5.273   6.430
  286SOL     OW 1756   3.196   4.834   4.834
  286SOL    HW1 1757   3.126   4.900   4.809
  286SOL    HW2 1758   3.155   4.743   4.845
  287SOL     OW 1759   0.648   4.954   6.211
  287SOL    HW1 1760   0.649   4.987   6.116
  287SOL    HW2 1761   0.718   4.883   6.222
  288SOL     OW 1762   4.083   2.415   0.126
  288SOL    HW1 1763   4.050   2.506   0.100
  288SOL    HW2 1764   4.181   2.420   0.148
  289SOL     OW 1765   0.285   5.446   4.938
  289SOL    HW1 1766   0.304   5.380   5.011
  289SOL    HW2 1767   0.209   5.414   4.882
  290SOL     OW 1768   5.032   1.823   3.926
  290SOL    HW1 1769   5.100   1.884   3.887
  290SOL    HW2 1770   4.948   1.873   3.943
  291SOL     OW 1771   3.411   0.508   4.623
  291SOL    HW1 1772   3.332   0.513   4.683
  291SOL    HW2 1773   3.471   0.433   4.651
  292SOL     OW 1774   3.604   2.108   2.924
  292SOL    HW1 1775   3.566   2.123   3.015
  292SOL    HW2 1776   3.704   2.110   2.928
  293SOL     OW 1777   4.537   5.470   2.066
  293SOL    HW1 1778   4.443   5.453   2.096
  293SOL    HW2 1779   4.544   5.457   1.967
  294SOL     OW 1780   6.782   5.458   6.518
  294SOL    HW1 1781   6.754   5.426   6.427
  294SOL    HW2 1782   6.850   5.395   6.556
  295SOL     OW 1783   3.217   1.198   5.000
  295SOL    HW1 1784   3.166   1.117   5.028
  295SOL    HW2 1785   3.272   1.231   5.077
  296SOL     OW 1786   6.303   1.821   1.937
  296SOL    HW1 1787   6.205   1.834   1.922
  296SOL    HW2 1788   6.354   1.896   1.895
  297SOL     OW 1789   2.994   4.862   2.454
  297SOL    HW1 1790   2.895   4.869   2.443
  297SOL    HW2 1791   3.015   4.813   2.539
  298SOL     OW 1792   3.385   6.692   0.696
  298SOL    HW1 1793   3.318   6.764   0.677
  298SOL    HW2 1794   3.425   6.707   0.786
  299SOL     OW 1795   4.661   2.456   0.016
  299SOL    HW1 1796   4.669   2.486   6.940
  299SOL    HW2 1797   4.576   2.403   0.027
  300SOL     OW 1798   5.081   1.042   1.553
  300SOL    HW1 1799   5.059   1.085   1.465
  300SOL    HW2 1800   5.160   0.982   1.543
  301SOL     OW 1801   5.190   2.857   0.781
  301SOL    HW1 1802   5.251   2.921   0.828
  301SOL    HW2 1803   5.167   2.782   0.843
  302SOL     OW 1804   0.110   0.698   3.370
  302SOL    HW1 1805   0.082   0.774   3.311
  302SOL    HW2 1806   0.201   0.717   3.407
  303SOL     OW 1807   6.932   6.547   2.297
  303SOL    HW1 1808   6.985   6.493   2.231
  303SOL    HW2 1809   6.921   6.495   2.382
  304SOL     OW 1810   2.219   6.163   5.854
  304SOL    HW1 1811   2.166   6.248   5.859
  304SOL    HW2 1812   2.208   6.121   5.764
  305SOL     OW 1813   1.408   2.657   0.611
  305SOL    HW1 1814   1.402   2.563   0.578
  305SOL    HW2 1815   1.467   2.662   0.692
  306SOL     OW 1816   1.745   0.940   3.173
  306SOL    HW1 1817   1.700   0.952   3.085
  306SOL    HW2 1818   1.735   1.024   3.228
  307SOL     OW 1819   4.949   5.251   0.859
  307SOL    HW1 1820   4.929   5.202   0.943
  307SOL    HW2 1821   4.956   5.349   0.878
  308SOL     OW 1822   5.540   3.293   4.627
  308SOL    HW1 1823   5.463   3.354   4.607
  308SOL    HW2 1824   5.559   3.294   4.725
  309SOL     OW 1825   2.123   5.777   0.615
  309SOL    HW1 1826   2.121   5.786   0.715
  309SOL    HW2 1827   2.207   5.729   0.587
  310SOL     OW 1828   5.150   6.560   5.635
  310SOL    HW1 1829   5.164   6.540   5.733
  310SOL    HW2 1830   5.076   6.626   5.625
  311SOL     OW 1831   3.869   5.407   2.914
  311SOL    HW1 1832   3.776   5.387   2.886
  311SOL    HW2 1833   3.868   5.452   3.004
  312SOL     OW 1834   4.437   1.142   4.149
  312SOL    HW1 1835   4.436   1.104   4.241
  312SOL    HW2 1836   4.503   1.217   4.144
  313SOL     OW 1837   3.006   3.138   2.238
  313SOL    HW1 1838   3.028   3.046   2.270
  313SOL    HW2 1839   2.976   3.194   2.315
  314SOL     OW 1840   2.850   4.762   6.797
  314SOL    HW1 1841   2.830   4.704   6.876
  314SOL    HW2 1842   2.797   4.847   6.804
  315SOL     OW 1843   1.487   3.336   4.307
  315SOL    HW1 1844   1.528   3.291   4.386
  315SOL    HW2 1845   1.428   3.411   4.337
  316SOL     OW 1846   2.752   1.288   4.487
  316SOL    HW1 1847   2.712   1.199   4.467
  316SOL    HW2 1848   2.733   1.351   4.411
  317SOL     OW 1849   6.963   1.445   1.252
  317SOL    HW1 1850   6.886   1.423   1.191
  317SOL    HW2 1851   7.018   1.363   1.267
  318SOL     OW 1852   0.504   5.393   6.558
  318SOL    HW1 1853   0.570   5.403   6.633
  318SOL    HW2 1854   0.459   5.481   6.542
  319SOL     OW 1855   6.306   1.631   3.804
  319SOL    HW1 1856   6.336   1.604   3.895
  319SOL    HW2 1857   6.373   1.600   3.736
  320SOL     OW 1858   6.183   2.553   0.975
  320SOL    HW1 1859   6.262   2.583   0.923
  320SOL    HW2 1860   6.153   2.463   0.943
  321SOL     OW 1861   3.109   1.099   0.083
  321SOL    HW1 1862   3.044   1.031   0.051
  321SOL    HW2 1863   3.069   1.190   0.075
  322SOL     OW 1864   3.095   3.248   3.339
  322SOL    HW1 1865   3.024   3.289   3.282
  322SOL    HW2 1866   3.074   3.263   3.436
  323SOL     OW 1867   1.342   2.894   6.169
  323SOL    HW1 1868   1.359   2.992   6.179
  323SOL    HW2 1869   1.296   2.876   6.082
  324SOL     OW 1870   2.759   0.714   3.812
  324SOL    HW1 1871   2.683   0.650   3.821
  324SOL    HW2 1872   2.806   0.699   3.725
  325SOL     OW 1873   0.550   2.780   1.926
  325SOL    HW1 1874   0.522   2.800   1.832
  325SOL    HW2 1875   0.480   2.814   1.989
  326SOL     OW 1876   1.421   5.235   6.816
  326SOL    HW1 1877   1.355   5.195   6.753
  326SOL    HW2 1878   1.496   5.276   6.765
  327SOL     OW 1879   1.404   4.498   2.574
  327SOL    HW1 1880   1.391   4.404   2.605
  327SOL    HW2 1881   1.346   4.559   2.627
  328SOL     OW 1882   1.418   5.727   2.010
  328SOL    HW1 1883   1.450   5.762   2.098
  328SOL    HW2 1884   1.396   5.803   1.949
  329SOL     OW 1885   3.061   3.064   3.884
  329SOL    HW1 1886   3.105   2.977   3.862
  329SOL    HW2 1887   3.004   3.093   3.807
  330SOL     OW 1888   3.495   6.104   1.430
  330SOL    HW1 1889   3.499   6.093   1.530
  330SOL    HW2 1890   3.477   6.200   1.408
  331SOL     OW 1891   4.019   5.836   0.278
  331SOL    HW1 1892   3.959   5.758   0.259
  331SOL    HW2 1893   3.966   5.920   0.271
  332SOL     OW 1894   4.841   2.082   5.342
  332SOL    HW1 1895   4.912   2.023   5.304
  332SOL    HW2 1896   4.882   2.163   5.382
  333SOL     OW 1897   3.538   0.434   6.192
  333SOL    HW1 1898   3.582   0.420   6.281
  333SOL    HW2 1899   3.537   0.347   6.142
  334SOL     OW 1900   3.176   1.229   0.995
  334SOL    HW1 1901   3.163   1.261   0.901
  334SOL    HW2 1902   3.092   1.186   1.028
  335SOL     OW 1903   4.300   6.636   5.793
  335SOL    HW1 1904   4.286   6.554   5.737
  335SOL    HW2 1905   4.213   6.686   5.799
  336SOL     OW 1906   2.996   0.905   3.589
  336SOL    HW1 1907   3.096   0.909   3.588
  336SOL    HW2 1908   2.967   0.811   3.576
  337SOL     OW 1909   0.695   2.689   6.578
  337SOL    HW1 1910   0.619   2.669   6.516
  337SOL    HW2 1911   0.758   2.753   6.534
  338SOL     OW 1912   3.173   2.552   1.513
  338SOL    HW1 1913   3.181   2.620   1.440
  338SOL    HW2 1914   3.082   2.509   1.509
  339SOL     OW 1915   4.142   5.735   4.265
  339SOL    HW1 1916   4.104   5.643   4.253
  339SOL    HW2 1917   4.154   5.777   4.175
  340SOL     OW 1918   4.885   4.406   4.793
  340SOL    HW1 1919   4.866   4.340   4.720
  340SOL    HW2 1920   4.885   4.359   4.881
  341SOL     OW 1921   6.535   0.230   4.428
  341SOL    HW1 1922   6.480   0.147   4.426
  341SOL    HW2 1923   6.561   0.255   4.335
  342SOL     OW 1924   6.649   3.138   0.171
  342SOL    HW1 1925   6.674   3.066   0.235
  342SOL    HW2 1926   6.732   3.177   0.130
  343SOL     OW 1927   1.939   5.777   1.326
  343SOL    HW1 1928   1.960   5.680   1.318
  343SOL    HW2 1929   2.012   5.830   1.284
  344SOL     OW 1930   1.296   3.212   2.016
  344SOL    HW1 1931   1.384   3.259   2.028
  344SOL    HW2 1932   1.224   3.279   1.999
  345SOL     OW 1933   4.082   2.260   2.884
  345SOL    HW1 1934   4.088   2.358   2.865
  345SOL    HW2 1935   4.138   2.238   2.964
  346SOL     OW 1936   2.278   0.975   2.987
  346SOL    HW1 1937   2.255   1.051   3.049
  346SOL    HW2 1938   2.197   0.919   2.972
  347SOL     OW 1939   2.736   5.858   6.467
  347SOL    HW1 1940   2.784   5.854   6.555
  347SOL    HW2 1941   2.797   5.825   6.394
  348SOL     OW 1942   5.371   4.251   2.253
  348SOL    HW1 1943   5.444   4.311   2.287
  348SOL    HW2 1944   5.282   4.290   2.277
  349SOL     OW 1945   6.602   5.550   0.921
  349SOL    HW1 1946   6.571   5.486   0.851
  349SOL    HW2 1947   6.551   5.636   0.913
  350SOL     OW 1948   3.213   3.277   0.783
  350SOL    HW1 1949   3.129   3.308   0.738
  350SOL    HW2 1950   3.222   3.323   0.872
  351SOL     OW 1951   1.942   3.594   1.405
  351SOL    HW1 1952   1.966   3.557   1.495
  351SOL    HW2 1953   1.868   3.540   1.365
  352SOL     OW 1954   3.140   0.227   4.695
  352SOL    HW1 1955   3.159   0.325   4.697
  352SOL    HW2 1956   3.197   0.182   4.626
  353SOL     OW 1957   2.057   0.233   0.775
  353SOL    HW1 1958   2.065   0.283   0.861
  353SOL    HW2 1959   1.986   0.163   0.783
  354SOL     OW 1960   3.881   2.512   0.988
  354SOL    HW1 1961   3.787   2.514   0.954
  354SOL    HW2 1962   3.903   2.600   1.031
  355SOL     OW 1963   1.437   3.549   2.251
  355SOL    HW1 1964   1.349   3.595   2.237
  355SOL    HW2 1965   1.511   3.617   2.250
  356SOL     OW 1966   2.928   6.887   6.049
  356SOL    HW1 1967   2.862   6.929   5.987
  356SOL    HW2 1968   2.882   6.817   6.104
  357SOL     OW 1969   6.727   5.794   6.176
  357SOL    HW1 1970   6.632   5.763   6.172
  357SOL    HW2 1971   6.736   5.880   6.125
  358SOL     OW 1972   4.267   6.453   0.296
  358SOL    HW1 1973   4.231   6.360   0.289
  358SOL    HW2 1974   4.200   6.511   0.341
  359SOL     OW 1975   2.236   2.282   1.724
  359SOL    HW1 1976   2.237   2.366   1.778
  359SOL    HW2 1977   2.308   2.220   1.758
  360SOL     OW 1978   1.185   4.971   6.046
  360SOL    HW1 1979   1.090   4.991   6.023
  360SOL    HW2 1980   1.228   4.920   5.971
  361SOL     OW 1981   5.957   6.332   3.132
  361SOL    HW1 1982   6.025   6.314   3.061
  361SOL    HW2 1983   5.937   6.430   3.134
  362SOL     OW 1984   3.518   3.293   1.049
  362SOL    HW1 1985   3.457   3.266   1.123
  362SOL    HW2 1986   3.524   3.393   1.047
  363SOL     OW 1987   5.202   4.118   3.264
  363SOL    HW1 1988   5.113   4.104   3.220
  363SOL    HW2 1989   5.207   4.063   3.347
  364SOL     OW 1990   6.755   5.197   6.872
  364SOL    HW1 1991   6.661   5.229   6.861
  364SOL    HW2 1992   6.767   5.157   6.963
  365SOL     OW 1993   6.155   5.859   1.789
  365SOL    HW1 1994   6.125   5.934   1.848
  365SOL    HW2 1995   6.234   5.888   1.735
  366SOL     OW 1996   5.683   0.640   5.958
  366SOL    HW1 1997   5.675   0.728   6.005
  366SOL    HW2 1998   5.602   0.584   5.977
  367SOL     OW 1999   5.491   3.311   1.321
  367SOL    HW1 2000   5.507   3.220   1.283
  367SOL    HW2 2001   5.473   3.375   1.246
  368SOL     OW 2002   0.288   2.970   4.676
  368SOL    HW1 2003   0.210   2.954   4.737
  368SOL    HW2 2004   0.255   3.003   4.588
  369SOL     OW 2005   6.282   5.311   2.253
  369SOL    HW1 2006   6.195   5.291   2.299
  369SOL    HW2 2007   6.287   5.409   2.232
  370SOL     OW 2008   2.478   1.256   5.446
  370SOL    HW1 2009   2.559   1.311   5.465
  370SOL    HW2 2010   2.414   1.307   5.389
  371SOL     OW 2011   2.296   3.724   6.085
  371SOL    HW1 2012   2.287   3.670   6.169
  371SOL    HW2 2013   2.370   3.790   6.096
  372SOL     OW 2014   0.918   6.945   5.999
  372SOL    HW1 2015   0.960   6.856   6.014
  372SOL    HW2 2016   0.877   6.978   6.084
  373SOL     OW 2017   6.467   6.472   4.548
  373SOL    HW1 2018   6.374   6.446   4.575
  373SOL    HW2 2019   6.495   6.553   4.599
  374SOL     OW 2020   2.961   1.958   3.767
  374SOL    HW1 2021   3.053   1.932   3.796
  374SOL    HW2 2022   2.894   1.910   3.823
  375SOL     OW 2023   0.843   4.313   4.294
  375SOL    HW1 2024   0.900   4.267   4.225
  375SOL    HW2 2025   0.804   4.244   4.355
  376SOL     OW 2026   2.750   0.864   5.263
  376SOL    HW1 2027   2.679   0.913   5.314
  376SOL    HW2 2028   2.744   0.888   5.166
  377SOL     OW 2029   1.533   1.992   1.387
  377SOL    HW1 2030   1.477   1.959   1.463
  377SOL    HW2 2031   1.629   1.969   1.404
  378SOL     OW 2032   4.296   2.759   6.515
  378SOL    HW1 2033   4.340   2.791   6.431
  378SOL    HW2 2034   4.296   2.659   6.516
  379SOL     OW 2035   6.212   3.368   1.012
  379SOL    HW1 2036   6.166   3.450   1.046
  379SOL    HW2 2037   6.218   3.301   1.086
  380SOL     OW 2038   1.949   1.467   0.560
  380SOL    HW1 2039   1.916   1.373   0.567
  380SOL    HW2 2040   1.920   1.518   0.641
  381SOL     OW 2041   1.360   3.811   2.963
  381SOL    HW1 2042   1.410   3.874   3.022
  381SOL    HW2 2043   1.422   3.740   2.930
  382SOL     OW 2044   5.963   0.459   6.583
  382SOL    HW1 2045   6.038   0.431   6.523
  382SOL    HW2 2046   5.936   0.553   6.562
  383SOL     OW 2047   4.070   3.857   5.972
  383SOL    HW1 2048   4.017   3.892   6.049
  383SOL    HW2 2049   4.020   3.783   5.927
  384SOL     OW 2050   6.884   5.746   4.213
  384SOL    HW1 2051   6.853   5.773   4.304
  384SOL    HW2 2052   6.845   5.657   4.189
  385SOL     OW 2053   3.652   5.220   5.498
  385SOL    HW1 2054   3.600   5.301   5.473
  385SOL    HW2 2055   3.703   5.187   5.418
  386SOL     OW 2056   2.038   6.957   5.246
  386SOL    HW1 2057   2.028   0.018   5.188
  386SOL    HW2 2058   2.009   6.876   5.196
  387SOL     OW 2059   1.048   6.767   3.112
  387SOL    HW1 2060   0.998   6.759   3.026
  387SOL    HW2 2061   1.066   6.863   3.132
  388SOL     OW 2062   1.232   1.679   4.819
  388SOL    HW1 2063   1.254   1.758   4.876
  388SOL    HW2 2064   1.183   1.611   4.874
  389SOL     OW 2065   3.716   4.328   1.155
  389SOL    HW1 2066   3.798   4.362   1.201
  389SOL    HW2 2067   3.656   4.283   1.222
  390SOL     OW 2068   3.343   1.056   0.201
  390SOL    HW1 2069   3.395   0.970   0.196
  390SOL    HW2 2070   3.261   1.048   0.144
  391SOL     OW 2071   2.232   3.265   6.312
  391SOL    HW1 2072   2.170   3.289   6.237
  391SOL    HW2 2073   2.327   3.276   6.282
  392SOL     OW 2074   1.325   4.473   0.523
  392SOL    HW1 2075   1.317   4.406   0.448
  392SOL    HW2 2076   1.257   4.545   0.510
  393SOL     OW 2077   1.482   4.515   6.338
  393SOL    HW1 2078   1.550   4.442   6.333
  393SOL    HW2 2079   1.527   4.603   6.327
  394SOL     OW 2080   0.080   2.299   0.614
  394SOL    HW1 2081   0.167   2.324   0.658
  394SOL    HW2 2082   0.095   2.285   0.516
  395SOL     OW 2083   5.410   4.171   3.082
  395SOL    HW1 2084   5.329   4.158   3.140
  395SOL    HW2 2085   5.490   4.189   3.140
  396SOL     OW 2086   2.818   3.441   1.893
  396SOL    HW1 2087   2.849   3.349   1.920
  396SOL    HW2 2088   2.823   3.501   1.973
  397SOL     OW 2089   6.159   1.878   6.228
  397SOL    HW1 2090   6.217   1.814   6.279
  397SOL    HW2 2091   6.104   1.931   6.291
  398SOL     OW 2092   1.628   0.294   2.907
  398SOL    HW1 2093   1.623   0.203   2.865
  398SOL    HW2 2094   1.602   0.288   3.004
  399SOL     OW 2095   5.239   6.292   3.075
  399SOL    HW1 2096   5.335   6.316   3.086
  399SOL    HW2 2097   5.198   6.275   3.164
  400SOL     OW 2098   6.181   6.502   5.342
  400SOL    HW1 2099   6.200   6.598   5.362
  400SOL    HW2 2100   6.260   6.446   5.369
  401SOL     OW 2101   5.827   0.203   6.583
  401SOL    HW1 2102   5.732   0.210   6.613
  401SOL    HW2 2103   5.887   0.245   6.651
  402SOL     OW 2104   6.339   0.165   3.630
  402SOL    HW1 2105   6.300   0.197   3.716
  402SOL    HW2 2106   6.432   0.131   3.647
  403SOL     OW 2107   4.118   1.257   4.779
  403SOL    HW1 2108   4.076   1.168   4.795
  403SOL    HW2 2109   4.083   1.295   4.693
  404SOL     OW 2110   1.521   5.024   3.714
  404SOL    HW1 2111   1.564   5.098   3.765
  404SOL    HW2 2112   1.582   4.945   3.712
  405SOL     OW 2113   2.220   3.105   2.616
  405SOL    HW1 2114   2.207   3.199   2.648
  405SOL    HW2 2115   2.202   3.101   2.518
  406SOL     OW 2116   0.883   4.489   4.667
  406SOL    HW1 2117   0.845   4.433   4.741
  406SOL    HW2 2118   0.979   4.466   4.654
  407SOL     OW 2119   0.340   1.100   4.690
  407SOL    HW1 2120   0.331   1.185   4.638
  407SOL    HW2 2121   0.436   1.074   4.693
  408SOL     OW 2122   2.280   2.205   3.048
  408SOL    HW1 2123   2.255   2.139   2.977
  408SOL    HW2 2124   2.206   2.270   3.061
  409SOL     OW 2125   6.469   3.190   2.360
  409SOL    HW1 2126   6.522   3.124   2.413
  409SOL    HW2 2127   6.372   3.165   2.363
  410SOL     OW 2128   1.199   1.697   1.169
  410SOL    HW1 2129   1.245   1.615   1.202
  410SOL    HW2 2130   1.137   1.673   1.095
  411SOL     OW 2131   6.701   0.921   1.395
  411SOL    HW1 2132   6.685   1.019   1.393
  411SOL    HW2 2133   6.690   0.883   1.303
  412SOL     OW 2134   3.064   5.883   3.207
  412SOL    HW1 2135   3.109   5.796   3.186
  412SOL    HW2 2136   3.065   5.898   3.306
  413SOL     OW 2137   5.551   3.934   1.885
  413SOL    HW1 2138   5.624   3.890   1.938
  413SOL    HW2 2139   5.538   3.883   1.799
  414SOL     OW 2140   3.389   5.158   3.301
  414SOL    HW1 2141   3.295   5.192   3.293
  414SOL    HW2 2142   3.446   5.199   3.230
  415SOL     OW 2143   0.715   6.440   6.148
  415SOL    HW1 2144   0.652   6.428   6.225
  415SOL    HW2 2145   0.663   6.445   6.063
  416SOL     OW 2146   4.511   6.174   4.538
  416SOL    HW1 2147   4.529   6.143   4.631
  416SOL    HW2 2148   4.424   6.135   4.506
  417SOL     OW 2149   2.097   5.910   5.951
  417SOL    HW1 2150   2.128   5.999   5.918
  417SOL    HW2 2151   2.168   5.841   5.934
  418SOL     OW 2152   3.924   6.654   6.362
  418SOL    HW1 2153   3.925   6.557   6.386
  418SOL    HW2 2154   3.928   6.710   6.445
  419SOL     OW 2155   1.475   6.376   2.116
  419SOL    HW1 2156   1.555   6.319   2.135
  419SOL    HW2 2157   1.499   6.472   2.126
  420SOL     OW 2158   6.021   1.479   0.330
  420SOL    HW1 2159   5.922   1.470   0.316
  420SOL    HW2 2160   6.056   1.555   0.275
  421SOL     OW 2161   6.683   4.021   5.241
  421SOL    HW1 2162   6.745   3.945   5.256
  421SOL    HW2 2163   6.681   4.078   5.323
  422SOL     OW 2164   5.234   3.794   1.367
  422SOL    HW1 2165   5.281   3.851   1.434
  422SOL    HW2 2166   5.141   3.776   1.398
  423SOL     OW 2167   1.063   2.698   6.272
  423SOL    HW1 2168   1.020   2.683   6.183
  423SOL    HW2 2169   1.153   2.655   6.274
  424SOL     OW 2170   1.507   5.044   0.908
  424SOL    HW1 2171   1.531   5.010   0.999
  424SOL    HW2 2172   1.589   5.075   0.860
  425SOL     OW 2173   5.030   2.015   3.400
  425SOL    HW1 2174   4.984   2.017   3.311
  425SOL    HW2 2175   5.115   2.067   3.395
  426SOL     OW 2176   2.726   1.766   4.523
  426SOL    HW1 2177   2.700   1.836   4.590
  426SOL    HW2 2178   2.645   1.734   4.474
  427SOL     OW 2179   5.490   6.695   3.880
  427SOL    HW1 2180   5.492   6.787   3.917
  427SOL    HW2 2181   5.560   6.685   3.810
  428SOL     OW 2182   4.294   7.002   3.316
  428SOL    HW1 2183   4.357   0.055   3.286
  428SOL    HW2 2184   4.319   6.972   3.407
  429SOL     OW 2185   0.684   5.053   2.955
  429SOL    HW1 2186   0.689   5.075   2.858
  429SOL    HW2 2187   0.712   5.133   3.009
  430SOL     OW 2188   1.551   6.426   4.106
  430SOL    HW1 2189   1.612   6.486   4.053
  430SOL    HW2 2190   1.557   6.450   4.203
  431SOL     OW 2191   2.780   0.614   1.275
  431SOL    HW1 2192   2.793   0.712   1.258
  431SOL    HW2 2193   2.812   0.562   1.196
  432SOL     OW 2194   6.486   2.615   1.203
  432SOL    HW1 2195   6.565   2.644   1.257
  432SOL    HW2 2196   6.517   2.578   1.116
  433SOL     OW 2197   2.239   6.737   5.088
  433SOL    HW1 2198   2.141   6.729   5.069
  433SOL    HW2 2199   2.274   6.820   5.045
  434SOL     OW 2200   3.872   5.398   3.250
  434SOL    HW1 2201   3.820   5.473   3.208
  434SOL    HW2 2202   3.883   5.416   3.348
  435SOL     OW 2203   4.563   2.005   6.468
  435SOL    HW1 2204   4.485   2.052   6.508
  435SOL    HW2 2205   4.606   1.946   6.538
  436SOL     OW 2206   3.205   4.714   1.521
  436SOL    HW1 2207   3.188   4.742   1.426
  436SOL    HW2 2208   3.156   4.775   1.583
  437SOL     OW 2209   0.280   1.421   6.003
  437SOL    HW1 2210   0.359   1.430   6.064
  437SOL    HW2 2211   0.217   1.496   6.020
  438SOL     OW 2212   2.143   3.812   4.325
  438SOL    HW1 2213   2.130   3.834   4.228
  438SOL    HW2 2214   2.150   3.713   4.336
  439SOL     OW 2215   6.195   6.099   2.536
  439SOL    HW1 2216   6.277   6.156   2.543
  439SOL    HW2 2217   6.222   6.005   2.517
  440SOL     OW 2218   2.454   2.117   5.255
  440SOL    HW1 2219   2.414   2.081   5.171
  440SOL    HW2 2220   2.491   2.208   5.238
  441SOL     OW 2221   0.511   3.217   3.615
  441SOL    HW1 2222   0.610   3.205   3.619
  441SOL    HW2 2223   0.483   3.285   3.683
  442SOL     OW 2224   3.788   5.886   5.229
  442SOL    HW1 2225   3.774   5.976   5.271
  442SOL    HW2 2226   3.871   5.845   5.264
  443SOL     OW 2227   5.911   4.375   4.087
  443SOL    HW1 2228   5.869   4.287   4.112
  443SOL    HW2 2229   5.910   4.435   4.166
  444SOL     OW 2230   5.169   0.852   6.291
  444SOL    HW1 2231   5.216   0.880   6.375
  444SOL    HW2 2232   5.159   0.752   6.290
  445SOL     OW 2233   1.636   5.513   2.866
  445SOL    HW1 2234   1.585   5.561   2.938
  445SOL    HW2 2235   1.659   5.421   2.898
  446SOL     OW 2236   3.917   4.928   2.823
  446SOL    HW1 2237   3.884   4.873   2.747
  446SOL    HW2 2238   4.015   4.945   2.811
  447SOL     OW 2239   6.970   3.173   5.673
  447SOL    HW1 2240   6.969   3.200   5.769
  447SOL    HW2 2241   0.010   3.093   5.661
  448SOL     OW 2242   2.311   0.684   2.694
  448SOL    HW1 2243   2.382   0.722   2.753
  448SOL    HW2 2244   2.292   0.748   2.619
  449SOL     OW 2245   2.618   1.321   4.083
  449SOL    HW1 2246   2.687   1.312   4.011
  449SOL    HW2 2247   2.539   1.371   4.047
  450SOL     OW 2248   1.424   4.993   3.459
  450SOL    HW1 2249   1.475   5.005   3.544
  450SOL    HW2 2250   1.417   4.896   3.437
  451SOL     OW 2251   1.382   2.419   5.050
  451SOL    HW1 2252   1.282   2.429   5.056
  451SOL    HW2 2253   1.420   2.502   5.009
  452SOL     OW 2254   4.921   6.694   0.692
  452SOL    HW1 2255   4.869   6.739   0.620
  452SOL    HW2 2256   4.973   6.762   0.744
  453SOL     OW 2257   3.498   0.376   6.777
  453SOL    HW1 2258   3.503   0.475   6.763
  453SOL    HW2 2259   3.402   0.348   6.780
  454SOL     OW 2260   6.678   4.013   6.189
  454SOL    HW1 2261   6.661   4.107   6.218
  454SOL    HW2 2262   6.764   3.981   6.227
  455SOL     OW 2263   5.203   2.538   4.678
  455SOL    HW1 2264   5.119   2.565   4.631
  455SOL    HW2 2265   5.257   2.478   4.619
  456SOL     OW 2266   0.529   0.122   4.007
  456SOL    HW1 2267   0.512   0.190   4.078
  456SOL    HW2 2268   0.624   0.092   4.012
  457SOL     OW 2269   1.806   3.967   4.811
  457SOL    HW1 2270   1.833   3.975   4.715
  457SOL    HW2 2271   1.710   3.994   4.821
  458SOL     OW 2272   3.128   6.202   2.756
  458SOL    HW1 2273   3.092   6.279   2.808
  458SOL    HW2 2274   3.056   6.164   2.697
  459SOL     OW 2275   2.548   6.775   6.224
  459SOL    HW1 2276   2.540   6.797   6.322
  459SOL    HW2 2277   2.551   6.860   6.171
  460SOL     OW 2278   1.814   6.942   4.352
  460SOL    HW1 2279   1.860   0.009   4.330
  460SOL    HW2 2280   1.862   6.897   4.427
  461SOL     OW 2281   0.054   5.442   5.707
  461SOL    HW1 2282   7.003   5.400   5.765
  461SOL    HW2 2283   0.082   5.529   5.746
  462SOL     OW 2284   4.024   3.469   6.718
  462SOL    HW1 2285   3.927   3.484   6.699
  462SOL    HW2 2286   4.034   3.397   6.786
  463SOL     OW 2287   6.590   6.129   4.216
  463SOL    HW1 2288   6.572   6.220   4.254
  463SOL    HW2 2289   6.637   6.073   4.283
  464SOL     OW 2290   2.970   0.708   5.391
  464SOL    HW1 2291   2.908   0.769   5.342
  464SOL    HW2 2292   3.001   0.752   5.475
  465SOL     OW 2293   0.652   2.039   0.447
  465SOL    HW1 2294   0.613   1.966   0.392
  465SOL    HW2 2295   0.578   2.092   0.489
  466SOL     OW 2296   2.233   6.390   3.822
  466SOL    HW1 2297   2.303   6.321   3.834
  466SOL    HW2 2298   2.218   6.407   3.725
  467SOL     OW 2299   1.742   1.594   2.247
  467SOL    HW1 2300   1.798   1.513   2.259
  467SOL    HW2 2301   1.747   1.624   2.151
  468SOL     OW 2302   3.185   6.360   5.201
  468SOL    HW1 2303   3.167   6.262   5.195
  468SOL    HW2 2304   3.117   6.410   5.147
  469SOL     OW 2305   2.580   3.536   6.194
  469SOL    HW1 2306   2.490   3.542   6.238
  469SOL    HW2 2307   2.630   3.622   6.208
  470SOL     OW 2308   4.046   6.164   0.743
  470SOL    HW1 2309   4.049   6.122   0.653
  470SOL    HW2 2310   4.079   6.259   0.738
  471SOL     OW 2311   2.525   2.571   4.051
  471SOL    HW1 2312   2.530   2.619   3.964
  471SOL    HW2 2313   2.515   2.637   4.125
  472SOL     OW 2314   5.196   4.591   6.576
  472SOL    HW1 2315   5.222   4.497   6.594
  472SOL    HW2 2316   5.201   4.609   6.478
  473SOL     OW 2317   1.291   1.826   2.709
  473SOL    HW1 2318   1.246   1.739   2.689
  473SOL    HW2 2319   1.333   1.863   2.626
  474SOL     OW 2320   5.371   5.686   4.468
  474SOL    HW1 2321   5.357   5.710   4.564
  474SOL    HW2 2322   5.462   5.648   4.455
  475SOL     OW 2323   6.590   2.602   0.097
  475SOL    HW1 2324   6.622   2.516   0.057
  475SOL    HW2 2325   6.667   2.666   0.104
  476SOL     OW 2326   0.000   3.674   2.038
  476SOL    HW1 2327   7.007   3.597   2.101
  476SOL    HW2 2328   0.062   3.741   2.079
  477SOL     OW 2329   2.624   5.905   2.942
  477SOL    HW1 2330   2.685   5.925   3.019
  477SOL    HW2 2331   2.630   5.808   2.919
  478SOL     OW 2332   4.092   6.533   2.674
  478SOL    HW1 2333   4.109   6.572   2.764
  478SOL    HW2 2334   4.167   6.471   2.650
  479SOL     OW 2335   3.730   3.397   4.980
  479SOL    HW1 2336   3.772   3.453   4.908
  479SOL    HW2 2337   3.791   3.321   5.002
  480SOL     OW 2338   2.325   0.526   0.975
  480SOL    HW1 2339   2.257   0.460   1.006
  480SOL    HW2 2340   2.336   0.598   1.044
  481SOL     OW 2341   0.935   6.497   1.571
  481SOL    HW1 2342   0.877   6.454   1.502
  481SOL    HW2 2343   1.000   6.430   1.607
  482SOL     OW 2344   4.495   4.668   2.378
  482SOL    HW1 2345   4.450   4.699   2.463
  482SOL    HW2 2346   4.563   4.598   2.400
  483SOL     OW 2347   6.479   2.058   2.871
  483SOL    HW1 2348   6.525   1.982   2.916
  483SOL    HW2 2349   6.397   2.083   2.923
  484SOL     OW 2350   1.586   3.955   5.337
  484SOL    HW1 2351   1.525   3.998   5.270
  484SOL    HW2 2352   1.624   4.024   5.398
  485SOL     OW 2353   4.365   4.739   2.614
  485SOL    HW1 2354   4.274   4.711   2.585
  485SOL    HW2 2355   4.386   4.696   2.702
  486SOL     OW 2356   6.399   1.320   0.559
  486SOL    HW1 2357   6.410   1.380   0.480
  486SOL    HW2 2358   6.470   1.340   0.627
  487SOL     OW 2359   0.755   0.488   3.216
  487SOL    HW1 2360   0.800   0.529   3.296
  487SOL    HW2 2361   0.804   0.406   3.188
  488SOL     OW 2362   0.956   0.467   2.672
  488SOL    HW1 2363   0.968   0.510   2.762
  488SOL    HW2 2364   0.859   0.462   2.651
  489SOL     OW 2365   4.993   5.836   5.888
  489SOL    HW1 2366   5.045   5.825   5.804
  489SOL    HW2 2367   5.042   5.898   5.950
  490SOL     OW 2368   1.800   6.166   3.618
  490SOL    HW1 2369   1.781   6.069   3.606
  490SOL    HW2 2370   1.899   6.181   3.618
  491SOL     OW 2371   1.259   2.838   1.855
  491SOL    HW1 2372   1.180   2.873   1.805
  491SOL    HW2 2373   1.254   2.869   1.950
  492SOL     OW 2374   1.123   0.906   5.711
  492SOL    HW1 2375   1.082   0.881   5.798
  492SOL    HW2 2376   1.179   0.988   5.723
  493SOL     OW 2377   3.279   6.567   5.583
  493SOL    HW1 2378   3.190   6.577   5.627
  493SOL    HW2 2379   3.342   6.637   5.618
  494SOL     OW 2380   1.187   6.608   6.469
  494SOL    HW1 2381   1.143   6.668   6.536
  494SOL    HW2 2382   1.142   6.518   6.471
  495SOL     OW 2383   4.194   5.635   3.693
  495SOL    HW1 2384   4.286   5.619   3.727
  495SOL    HW2 2385   4.195   5.639   3.593
  496SOL     OW 2386   6.002   2.871   2.089
  496SOL    HW1 2387   5.977   2.904   1.999
  496SOL    HW2 2388   5.921   2.865   2.147
  497SOL     OW 2389   3.180   1.124   4.731
  497SOL    HW1 2390   3.207   1.037   4.689
  497SOL    HW2 2391   3.176   1.113   4.830
  498SOL     OW 2392   0.679   5.325   2.614
  498SOL    HW1 2393   0.771   5.331   2.653
  498SOL    HW2 2394   0.653   5.229   2.606
  499SOL     OW 2395   1.874   5.313   4.747
  499SOL    HW1 2396   1.945   5.376   4.779
  499SOL    HW2 2397   1.864   5.238   4.812
  500SOL     OW 2398   6.548   2.518   6.483
  500SOL    HW1 2399   6.480   2.569   6.430
  500SOL    HW2 2400   6.548   2.422   6.453
  501SOL     OW 2401   4.213   0.022   0.640
  501SOL    HW1 2402   4.129   7.009   0.597
  501SOL    HW2 2403   4.190   0.083   0.716
  502SOL     OW 2404   0.938   4.616   5.922
  502SOL    HW1 2405   0.903   4.670   5.845
  502SOL    HW2 2406   0.881   4.535   5.935
  503SOL     OW 2407   0.764   4.746   6.427
  503SOL    HW1 2408   0.827   4.781   6.357
  503SOL    HW2 2409   0.711   4.822   6.464
  504SOL     OW 2410   0.873   5.510   2.438
  504SOL    HW1 2411   0.809   5.486   2.365
  504SOL    HW2 2412   0.850   5.460   2.521
  505SOL     OW 2413   3.724   5.833   4.425
  505SOL    HW1 2414   3.820   5.858   4.434
  505SOL    HW2 2415   3.681   5.830   4.515
  506SOL     OW 2416   3.765   5.647   2.603
  506SOL    HW1 2417   3.753   5.602   2.691
  506SOL    HW2 2418   3.692   5.714   2.589
  507SOL     OW 2419   3.344   6.456   2.950
  507SOL    HW1 2420   3.349   6.384   3.018
  507SOL    HW2 2421   3.436   6.494   2.935
  508SOL     OW 2422   0.082   3.315   2.780
  508SOL    HW1 2423   0.053   3.406   2.811
  508SOL    HW2 2424   0.180   3.317   2.760
  509SOL     OW 2425   2.920   1.609   0.955
  509SOL    HW1 2426   2.881   1.694   0.919
  509SOL    HW2 2427   2.896   1.600   1.052
  510SOL     OW 2428   6.176   3.869   0.144
  510SOL    HW1 2429   6.174   3.924   0.060
  510SOL    HW2 2430   6.238   3.791   0.130
  511SOL     OW 2431   0.614   3.164   6.102
  511SOL    HW1 2432   0.675   3.169   6.181
  511SOL    HW2 2433   0.625   3.246   6.046
  512SOL     OW 2434   0.140   2.008   6.556
  512SOL    HW1 2435   0.193   1.925   6.537
  512SOL    HW2 2436   0.043   1.988   6.547
  513SOL     OW 2437   5.225   6.947   3.129
  513SOL    HW1 2438   5.321   6.930   3.107
  513SOL    HW2 2439   5.203   6.906   3.217
  514SOL     OW 2440   6.686   0.524   4.504
  514SOL    HW1 2441   6.645   0.593   4.445
  514SOL    HW2 2442   6.619   0.454   4.525
  515SOL     OW 2443   1.159   0.985   1.092
  515SOL    HW1 2444   1.180   0.893   1.126
  515SOL    HW2 2445   1.070   0.984   1.047
  516SOL     OW 2446   2.569   4.568   1.886
  516SOL    HW1 2447   2.662   4.597   1.906
  516SOL    HW2 2448   2.561   4.469   1.896
  517SOL     OW 2449   3.296   4.852   2.006
  517SOL    HW1 2450   3.366   4.785   1.981
  517SOL    HW2 2451   3.324   4.943   1.976
  518SOL     OW 2452   2.302   2.291   3.817
  518SOL    HW1 2453   2.212   2.308   3.777
  518SOL    HW2 2454   2.297   2.304   3.916
  519SOL     OW 2455   0.813   6.507   3.203
  519SOL    HW1 2456   0.886   6.490   3.137
  519SOL    HW2 2457   0.827   6.449   3.284
  520SOL     OW 2458   6.295   3.446   6.561
  520SOL    HW1 2459   6.238   3.515   6.516
  520SOL    HW2 2460   6.368   3.418   6.500
  521SOL     OW 2461   6.660   6.249   5.429
  521SOL    HW1 2462   6.719   6.254   5.349
  521SOL    HW2 2463   6.570   6.286   5.406
  522SOL     OW 2464   3.673   3.260   3.852
  522SOL    HW1 2465   3.590   3.267   3.797
  522SOL    HW2 2466   3.731   3.340   3.837
  523SOL     OW 2467   0.173   5.819   1.219
  523SOL    HW1 2468   0.174   5.900   1.160
  523SOL    HW2 2469   0.080   5.784   1.226
  524SOL     OW 2470   1.557   2.607   3.027
  524SOL    HW1 2471   1.625   2.542   2.994
  524SOL    HW2 2472   1.586   2.645   3.115
  525SOL     OW 2473   2.077   4.118   6.211
  525SOL    HW1 2474   1.990   4.073   6.189
  525SOL    HW2 2475   2.131   4.126   6.127
  526SOL     OW 2476   3.628   6.574   3.931
  526SOL    HW1 2477   3.688   6.509   3.978
  526SOL    HW2 2478   3.538   6.573   3.975
  527SOL     OW 2479   6.948   3.018   0.532
  527SOL    HW1 2480   6.962   3.116   0.519
  527SOL    HW2 2481   7.018   2.967   0.483
  528SOL     OW 2482   2.012   2.122   3.520
  528SOL    HW1 2483   1.927   2.094   3.563
  528SOL    HW2 2484   2.004   2.216   3.487
  529SOL     OW 2485   2.171   6.097   5.067
  529SOL    HW1 2486   2.120   6.157   5.005
  529SOL    HW2 2487   2.180   6.006   5.026
  530SOL     OW 2488   4.084   3.599   3.363
  530SOL    HW1 2489   4.101   3.574   3.459
  530SOL    HW2 2490   4.086   3.699   3.354
  531SOL     OW 2491   0.757   1.791   2.792
  531SOL    HW1 2492   0.683   1.858   2.800
  531SOL    HW2 2493   0.826   1.825   2.729
  532SOL     OW 2494   0.953   2.423   0.698
  532SOL    HW1 2495   0.972   2.520   0.712
  532SOL    HW2 2496   0.988   2.395   0.608
  533SOL     OW 2497   4.068   6.911   3.136
  533SOL    HW1 2498   4.141   6.931   3.201
  533SOL    HW2 2499   4.103   6.919   3.043
  534SOL     OW 2500   5.495   6.023   2.453
  534SOL    HW1 2501   5.426   5.961   2.489
  534SOL    HW2 2502   5.554   6.055   2.528
  535SOL     OW 2503   6.550   3.485   3.803
  535SOL    HW1 2504   6.538   3.584   3.813
  535SOL    HW2 2505   6.482   3.437   3.859
  536SOL     OW 2506   5.887   4.612   2.960
  536SOL    HW1 2507   5.950   4.601   2.883
  536SOL    HW2 2508   5.795   4.586   2.931
  537SOL     OW 2509   3.233   6.911   4.864
  537SOL    HW1 2510   3.212   6.966   4.945
  537SOL    HW2 2511   3.318   6.943   4.822
  538SOL     OW 2512   0.859   4.601   4.131
  538SOL    HW1 2513   0.849   4.599   4.230
  538SOL    HW2 2514   0.862   4.696   4.100
  539SOL     OW 2515   1.942   4.456   1.447
  539SOL    HW1 2516   1.871   4.517   1.482
  539SOL    HW2 2517   2.012   4.510   1.399
  540SOL     OW 2518   1.735   1.696   2.961
  540SOL    HW1 2519   1.690   1.626   2.906
  540SOL    HW2 2520   1.717   1.679   3.058
  541SOL     OW 2521   5.871   5.680   4.247
  541SOL    HW1 2522   5.781   5.653   4.282
  541SOL    HW2 2523   5.881   5.779   4.255
  542SOL     OW 2524   5.605   6.921   6.626
  542SOL    HW1 2525   5.528   6.897   6.567
  542SOL    HW2 2526   5.688   6.875   6.593
  543SOL     OW 2527   6.526   4.078   4.707
  543SOL    HW1 2528   6.561   4.090   4.800
  543SOL    HW2 2529   6.593   4.028   4.652
  544SOL     OW 2530   1.779   4.959   0.193
  544SOL    HW1 2531   1.728   4.899   0.131
  544SOL    HW2 2532   1.715   5.021   0.239
  545SOL     OW 2533   3.140   1.217   0.427
  545SOL    HW1 2534   3.219   1.274   0.406
  545SOL    HW2 2535   3.151   1.127   0.384
  546SOL     OW 2536   1.583   3.824   0.499
  546SOL    HW1 2537   1.613   3.743   0.551
  546SOL    HW2 2538   1.516   3.875   0.552
  547SOL     OW 2539   3.321   1.723   6.870
  547SOL    HW1 2540   3.290   1.800   6.814
  547SOL    HW2 2541   3.256   1.708   6.945
  548SOL     OW 2542   3.304   3.320   1.879
  548SOL    HW1 2543   3.250   3.236   1.892
  548SOL    HW2 2544   3.307   3.342   1.782
  549SOL     OW 2545   5.686   1.731   1.034
  549SOL    HW1 2546   5.677   1.801   0.963
  549SOL    HW2 2547   5.596   1.697   1.059
  550SOL     OW 2548   1.459   5.509   3.969
  550SOL    HW1 2549   1.502   5.449   3.902
  550SOL    HW2 2550   1.360   5.510   3.954
  551SOL     OW 2551   0.986   0.111   1.920
  551SOL    HW1 2552   1.034   0.131   1.834
  551SOL    HW2 2553   0.980   0.195   1.975
  552SOL     OW 2554   6.527   4.810   6.889
  552SOL    HW1 2555   6.460   4.876   6.857
  552SOL    HW2 2556   6.619   4.838   6.861
  553SOL     OW 2557   2.549   6.571   3.697
  553SOL    HW1 2558   2.583   6.610   3.611
  553SOL    HW2 2559   2.496   6.639   3.746
  554SOL     OW 2560   5.946   6.890   6.922
  554SOL    HW1 2561   5.957   6.811   6.983
  554SOL    HW2 2562   5.959   6.974   6.975
  555SOL     OW 2563   2.874   4.901   4.480
  555SOL    HW1 2564   2.947   4.841   4.447
  555SOL    HW2 2565   2.817   4.852   4.545
  556SOL     OW 2566   4.949   1.732   3.481
  556SOL    HW1 2567   4.939   1.659   3.413
  556SOL    HW2 2568   4.948   1.821   3.434
  557SOL     OW 2569   0.176   5.251   0.825
  557SOL    HW1 2570   0.217   5.259   0.915
  557SOL    HW2 2571   0.244   5.276   0.755
  558SOL     OW 2572   3.144   3.508   3.179
  558SOL    HW1 2573   3.071   3.469   3.234
  558SOL    HW2 2574   3.226   3.451   3.187
  559SOL     OW 2575   0.205   5.515   6.615
  559SOL    HW1 2576   0.163   5.557   6.535
  559SOL    HW2 2577   0.134   5.480   6.676
  560SOL     OW 2578   5.565   3.896   4.391
  560SOL    HW1 2579   5.589   3.993   4.383
  560SOL    HW2 2580   5.596   3.847   4.309
  561SOL     OW 2581   0.271   2.102   1.388
  561SOL    HW1 2582   0.224   2.017   1.364
  561SOL    HW2 2583   0.206   2.166   1.428
  562SOL     OW 2584   4.551   0.085   6.423
  562SOL    HW1 2585   4.487   0.154   6.389
  562SOL    HW2 2586   4.601   0.046   6.346
  563SOL     OW 2587   3.046   0.106   3.616
  563SOL    HW1 2588   3.077   0.179   3.557
  563SOL    HW2 2589   2.953   0.079   3.590
  564SOL     OW 2590   1.231   2.559   6.799
  564SOL    HW1 2591   1.222   2.625   6.725
  564SOL    HW2 2592   1.162   2.578   6.869
  565SOL     OW 2593   3.469   3.133   5.009
  565SOL    HW1 2594   3.454   3.093   4.918
  565SOL    HW2 2595   3.423   3.222   5.014
  566SOL     OW 2596   0.401   4.550   3.767
  566SOL    HW1 2597   0.393   4.625   3.832
  566SOL    HW2 2598   0.312   4.534   3.724
  567SOL     OW 2599   2.754   3.015   1.427
  567SOL    HW1 2600   2.785   2.980   1.515
  567SOL    HW2 2601   2.810   3.094   1.401
  568SOL     OW 2602   5.053   0.305   6.921
  568SOL    HW1 2603   5.083   0.327   7.013
  568SOL    HW2 2604   5.128   0.266   6.869
  569SOL     OW 2605   1.709   2.423   0.227
  569SOL    HW1 2606   1.800   2.460   0.209
  569SOL    HW2 2607   1.709   2.378   0.317
  570SOL     OW 2608   4.033   6.130   6.260
  570SOL    HW1 2609   4.005   6.152   6.167
  570SOL    HW2 2610   4.098   6.053   6.258
  571SOL     OW 2611   3.278   5.906   2.582
  571SOL    HW1 2612   3.314   5.849   2.508
  571SOL    HW2 2613   3.197   5.956   2.550
  572SOL     OW 2614   2.479   4.913   5.519
  572SOL    HW1 2615   2.516   4.936   5.429
  572SOL    HW2 2616   2.445   4.996   5.564
  573SOL     OW 2617   5.138   1.157   5.899
  573SOL    HW1 2618   5.176   1.115   5.981
  573SOL    HW2 2619   5.211   1.192   5.841
  574SOL     OW 2620   3.471   1.323   4.602
  574SOL    HW1 2621   3.398   1.280   4.549
  574SOL    HW2 2622   3.436   1.351   4.691
  575SOL     OW 2623   5.293   3.921   0.969
  575SOL    HW1 2624   5.295   4.021   0.959
  575SOL    HW2 2625   5.374   3.882   0.925
  576SOL     OW 2626   1.683   2.129   3.200
  576SOL    HW1 2627   1.710   2.076   3.120
  576SOL    HW2 2628   1.618   2.201   3.172
  577SOL     OW 2629   1.442   1.537   3.239
  577SOL    HW1 2630   1.536   1.572   3.243
  577SOL    HW2 2631   1.436   1.464   3.171
  578SOL     OW 2632   6.505   5.118   4.347
  578SOL    HW1 2633   6.583   5.155   4.295
  578SOL    HW2 2634   6.476   5.032   4.305
  579SOL     OW 2635   1.709   3.398   3.797
  579SOL    HW1 2636   1.747   3.436   3.712
  579SOL    HW2 2637   1.782   3.351   3.847
  580SOL     OW 2638   5.215   5.588   6.006
  580SOL    HW1 2639   5.172   5.555   6.090
  580SOL    HW2 2640   5.165   5.668   5.972
  581SOL     OW 2641   1.961   3.394   1.601
  581SOL    HW1 2642   1.986   3.370   1.695
  581SOL    HW2 2643   1.863   3.375   1.587
  582SOL     OW 2644   4.260   5.724   1.906
  582SOL    HW1 2645   4.338   5.784   1.924
  582SOL    HW2 2646   4.178   5.762   1.949
  583SOL     OW 2647   2.551   6.684   5.410
  583SOL    HW1 2648   2.586   6.774   5.433
  583SOL    HW2 2649   2.478   6.659   5.474
  584SOL     OW 2650   2.959   5.187   6.704
  584SOL    HW1 2651   2.873   5.226   6.735
  584SOL    HW2 2652   3.033   5.252   6.721
  585SOL     OW 2653   4.758   1.682   6.534
  585SOL    HW1 2654   4.755   1.668   6.436
  585SOL    HW2 2655   4.667   1.709   6.566
  586SOL     OW 2656   3.550   0.700   6.126
  586SOL    HW1 2657   3.539   0.758   6.207
  586SOL    HW2 2658   3.523   0.606   6.148
  587SOL     OW 2659   4.637   1.600   4.642
  587SOL    HW1 2660   4.570   1.569   4.708
  587SOL    HW2 2661   4.638   1.537   4.564
  588SOL     OW 2662   2.049   4.794   1.855
  588SOL    HW1 2663   2.126   4.771   1.796
  588SOL    HW2 2664   2.081   4.838   1.938
  589SOL     OW 2665   3.339   4.511   1.682
  589SOL    HW1 2666   3.271   4.555   1.623
  589SOL    HW2 2667   3.361   4.572   1.758
  590SOL     OW 2668   5.427   2.954   2.496
  590SOL    HW1 2669   5.351   2.948   2.432
  590SOL    HW2 2670   5.418   2.883   2.566
  591SOL     OW 2671   2.884   5.266   3.746
  591SOL    HW1 2672   2.920   5.360   3.753
  591SOL    HW2 2673   2.842   5.254   3.656
  592SOL     OW 2674   3.803   1.738   0.970
  592SOL    HW1 2675   3.745   1.706   1.045
  592SOL    HW2 2676   3.893   1.695   0.976
  593SOL     OW 2677   4.179   2.013   4.711
  593SOL    HW1 2678   4.244   1.945   4.675
  593SOL    HW2 2679   4.091   1.969   4.727
  594SOL     OW 2680   6.938   1.401   0.189
  594SOL    HW1 2681   6.852   1.375   0.234
  594SOL    HW2 2682   6.919   1.426   0.094
  595SOL     OW 2683   5.272   0.719   3.784
  595SOL    HW1 2684   5.201   0.786   3.763
  595SOL    HW2 2685   5.267   0.643   3.720
  596SOL     OW 2686   1.171   5.276   3.359
  596SOL    HW1 2687   1.254   5.319   3.394
  596SOL    HW2 2688   1.193   5.189   3.316
  597SOL     OW 2689   2.746   0.518   0.081
  597SOL    HW1 2690   2.763   0.610   0.115
  597SOL    HW2 2691   2.663   0.518   0.024
  598SOL     OW 2692   4.104   3.977   5.195
  598SOL    HW1 2693   4.171   3.915   5.238
  598SOL    HW2 2694   4.123   4.071   5.224
  599SOL     OW 2695   2.327   6.150   1.778
  599SOL    HW1 2696   2.422   6.143   1.750
  599SOL    HW2 2697   2.268   6.149   1.697
  600SOL     OW 2698   6.895   1.467   6.958
  600SOL    HW1 2699   6.886   1.566   6.967
  600SOL    HW2 2700   6.924   1.444   6.865
  601SOL     OW 2701   1.546   0.166   4.762
  601SOL    HW1 2702   1.463   0.150   4.709
  601SOL    HW2 2703   1.585   0.255   4.739
  602SOL     OW 2704   1.745   1.746   6.650
  602SOL    HW1 2705   1.791   1.670   6.695
  602SOL    HW2 2706   1.759   1.740   6.551
  603SOL     OW 2707   2.678   2.469   5.092
  603SOL    HW1 2708   2.772   2.502   5.096
  603SOL    HW2 2709   2.674   2.388   5.034
  604SOL     OW 2710   1.192   2.325   2.195
  604SOL    HW1 2711   1.196   2.225   2.194
  604SOL    HW2 2712   1.097   2.355   2.198
  605SOL     OW 2713   6.852   6.185   0.587
  605SOL    HW1 2714   6.770   6.140   0.623
  605SOL    HW2 2715   6.867   6.271   0.636
  606SOL     OW 2716   4.823   6.451   6.905
  606SOL    HW1 2717   4.744   6.392   6.922
  606SOL    HW2 2718   4.848   6.446   6.808
  607SOL     OW 2719   6.382   5.990   5.682
  607SOL    HW1 2720   6.467   6.021   5.725
  607SOL    HW2 2721   6.308   6.052   5.708
  608SOL     OW 2722   3.999   5.954   6.865
  608SOL    HW1 2723   3.916   5.992   6.824
  608SOL    HW2 2724   4.015   5.997   6.954
  609SOL     OW 2725   3.826   2.972   2.659
  609SOL    HW1 2726   3.830   2.873   2.673
  609SOL    HW2 2727   3.877   2.996   2.576
  610SOL     OW 2728   5.449   4.161   1.996
  610SOL    HW1 2729   5.413   4.179   2.087
  610SOL    HW2 2730   5.498   4.074   1.996
  611SOL     OW 2731   4.217   6.788   1.188
  611SOL    HW1 2732   4.235   6.831   1.100
  611SOL    HW2 2733   4.123   6.753   1.190
  612SOL     OW 2734   3.989   6.566   4.992
  612SOL    HW1 2735   4.007   6.662   5.015
  612SOL    HW2 2736   3.909   6.534   5.043
  613SOL     OW 2737   4.224   6.297   5.379
  613SOL    HW1 2738   4.252   6.328   5.470
  613SOL    HW2 2739   4.216   6.376   5.318
  614SOL     OW 2740   5.491   5.563   0.529
  614SOL    HW1 2741   5.431   5.614   0.591
  614SOL    HW2 2742   5.495   5.609   0.441
  615SOL     OW 2743   6.302   2.284   1.553
  615SOL    HW1 2744   6.339   2.374   1.533
  615SOL    HW2 2745   6.352   2.215   1.502
  616SOL     OW 2746   0.146   2.831   3.586
  616SOL    HW1 2747   0.202   2.901   3.629
  616SOL    HW2 2748   0.170   2.741   3.624
  617SOL     OW 2749   6.493   4.574   5.636
  617SOL    HW1 2750   6.477   4.530   5.724
  617SOL    HW2 2751   6.563   4.523   5.585
  618SOL     OW 2752   6.924   2.111   6.772
  618SOL    HW1 2753   6.871   2.131   6.689
  618SOL    HW2 2754   7.008   2.165   6.770
  619SOL     OW 2755   4.156   0.867   0.103
  619SOL    HW1 2756   4.074   0.877   0.160
  619SOL    HW2 2757   4.233   0.913   0.148
  620SOL     OW 2758   4.414   3.035   1.416
  620SOL    HW1 2759   4.492   3.000   1.468
  620SOL    HW2 2760   4.334   3.041   1.476
  621SOL     OW 2761   2.624   0.140   0.071
  621SOL    HW1 2762   2.620   0.040   0.067
  621SOL    HW2 2763   2.549   0.179   0.019
  622SOL     OW 2764   1.288   0.261   6.201
  622SOL    HW1 2765   1.386   0.252   6.221
  622SOL    HW2 2766   1.276   0.295   6.108
  623SOL     OW 2767   0.941   5.780   5.056
  623SOL    HW1 2768   0.990   5.867   5.063
  623SOL    HW2 2769   0.843   5.797   5.051
  624SOL     OW 2770   6.740   2.964   1.205
  624SOL    HW1 2771   6.735   3.051   1.156
  624SOL    HW2 2772   6.809   2.906   1.163
  625SOL     OW 2773   1.956   1.896   2.254
  625SOL    HW1 2774   2.012   1.967   2.212
  625SOL    HW2 2775   1.993   1.806   2.231
  626SOL     OW 2776   2.215   5.713   3.571
  626SOL    HW1 2777   2.225   5.777   3.647
  626SOL    HW2 2778   2.241   5.621   3.602
  627SOL     OW 2779   5.879   6.134   0.614
  627SOL    HW1 2780   5.794   6.146   0.562
  627SOL    HW2 2781   5.861   6.148   0.711
  628SOL     OW 2782   5.871   5.531   6.132
  628SOL    HW1 2783   5.955   5.568   6.171
  628SOL    HW2 2784   5.826   5.471   6.199
  629SOL     OW 2785   6.692   0.149   6.917
  629SOL    HW1 2786   6.631   0.182   6.990
  629SOL    HW2 2787   6.744   0.071   6.950
  630SOL     OW 2788   0.121   1.630   1.366
  630SOL    HW1 2789   0.053   1.587   1.305
  630SOL    HW2 2790   0.116   1.587   1.456
  631SOL     OW 2791   3.748   6.814   5.231
  631SOL    HW1 2792   3.767   6.716   5.223
  631SOL    HW2 2793   3.731   6.837   5.327
  632SOL     OW 2794   2.575   1.154   0.641
  632SOL    HW1 2795   2.621   1.095   0.574
  632SOL    HW2 2796   2.627   1.154   0.727
  633SOL     OW 2797   3.759   3.816   0.236
  633SOL    HW1 2798   3.723   3.902   0.273
  633SOL    HW2 2799   3.740   3.811   0.138
  634SOL     OW 2800   4.219   4.179   1.142
  634SOL    HW1 2801   4.156   4.106   1.169
  634SOL    HW2 2802   4.311   4.157   1.174
  635SOL     OW 2803   4.486   5.124   1.728
  635SOL    HW1 2804   4.424   5.155   1.656
  635SOL    HW2 2805   4.466   5.029   1.750
  636SOL     OW 2806   3.878   5.428   6.997
  636SOL    HW1 2807   3.780   5.415   6.979
  636SOL    HW2 2808   3.899   5.526   6.996
  637SOL     OW 2809   6.723   3.167   3.361
  637SOL    HW1 2810   6.739   3.089   3.301
  637SOL    HW2 2811   6.625   3.174   3.381
  638SOL     OW 2812   5.312   2.408   3.751
  638SOL    HW1 2813   5.263   2.328   3.784
  638SOL    HW2 2814   5.246   2.480   3.727
  639SOL     OW 2815   5.312   3.511   2.780
  639SOL    HW1 2816   5.305   3.438   2.848
  639SOL    HW2 2817   5.306   3.600   2.826
  640SOL     OW 2818   0.225   5.462   3.645
  640SOL    HW1 2819   0.165   5.403   3.698
  640SOL    HW2 2820   0.247   5.418   3.558
  641SOL     OW 2821   6.322   5.338   4.968
  641SOL    HW1 2822   6.408   5.385   4.991
  641SOL    HW2 2823   6.329   5.299   4.876
  642SOL     OW 2824   6.765   3.129   4.913
  642SOL    HW1 2825   6.706   3.050   4.931
  642SOL    HW2 2826   6.728   3.210   4.957
  643SOL     OW 2827   5.832   6.343   5.228
  643SOL    HW1 2828   5.814   6.254   5.186
  643SOL    HW2 2829   5.810   6.416   5.164
  644SOL     OW 2830   1.221   5.844   4.519
  644SOL    HW1 2831   1.201   5.842   4.421
  644SOL    HW2 2832   1.320   5.843   4.532
  645SOL     OW 2833   4.421   0.952   3.573
  645SOL    HW1 2834   4.379   0.941   3.483
  645SOL    HW2 2835   4.505   1.006   3.565
  646SOL     OW 2836   2.643   1.066   4.926
  646SOL    HW1 2837   2.585   1.126   4.872
  646SOL    HW2 2838   2.728   1.113   4.948
  647SOL     OW 2839   5.065   1.913   4.578
  647SOL    HW1 2840   5.017   1.998   4.599
  647SOL    HW2 2841   4.998   1.838   4.571
  648SOL     OW 2842   0.272   3.327   4.228
  648SOL    HW1 2843   0.280   3.426   4.239
  648SOL    HW2 2844   0.189   3.307   4.176
  649SOL     OW 2845   2.723   3.694   0.953
  649SOL    HW1 2846   2.753   3.641   1.032
  649SOL    HW2 2847   2.661   3.767   0.983
  650SOL     OW 2848   6.136   4.901   1.163
  650SOL    HW1 2849   6.167   4.855   1.079
  650SOL    HW2 2850   6.198   4.880   1.238
  651SOL     OW 2851   6.475   5.955   6.329
  651SOL    HW1 2852   6.567   5.993   6.326
  651SOL    HW2 2853   6.428   5.989   6.411
  652SOL     OW 2854   4.953   6.095   4.140
  652SOL    HW1 2855   4.877   6.031   4.130
  652SOL    HW2 2856   4.918   6.188   4.146
  653SOL     OW 2857   2.103   5.836   5.320
  653SOL    HW1 2858   2.091   5.860   5.416
  653SOL    HW2 2859   2.032   5.880   5.265
  654SOL     OW 2860   0.455   3.934   5.746
  654SOL    HW1 2861   0.525   3.864   5.757
  654SOL    HW2 2862   0.412   3.953   5.835
  655SOL     OW 2863   0.540   5.910   2.112
  655SOL    HW1 2864   0.538   5.885   2.016
  655SOL    HW2 2865   0.565   5.830   2.167
  656SOL     OW 2866   1.595   5.223   1.372
  656SOL    HW1 2867   1.576   5.321   1.363
  656SOL    HW2 2868   1.618   5.202   1.467
  657SOL     OW 2869   1.905   2.627   1.609
  657SOL    HW1 2870   1.822   2.682   1.601
  657SOL    HW2 2871   1.888   2.549   1.668
  658SOL     OW 2872   3.032   4.204   6.403
  658SOL    HW1 2873   3.130   4.213   6.384
  658SOL    HW2 2874   2.984   4.285   6.368
  659SOL     OW 2875   2.653   5.912   6.069
  659SOL    HW1 2876   2.597   5.856   6.130
  659SOL    HW2 2877   2.595   5.977   6.020
  660SOL     OW 2878   5.310   5.041   2.511
  660SOL    HW1 2879   5.396   5.034   2.562
  660SOL    HW2 2880   5.244   5.093   2.565
  661SOL     OW 2881   4.446   5.162   2.873
  661SOL    HW1 2882   4.355   5.140   2.910
  661SOL    HW2 2883   4.499   5.210   2.943
  662SOL     OW 2884   4.344   0.461   5.423
  662SOL    HW1 2885   4.305   0.551   5.439
  662SOL    HW2 2886   4.272   0.396   5.399
  663SOL     OW 2887   2.659   4.067   6.750
  663SOL    HW1 2888   2.707   4.066   6.662
  663SOL    HW2 2889   2.560   4.065   6.734
  664SOL     OW 2890   0.121   5.304   6.348
  664SOL    HW1 2891   0.049   5.239   6.323
  664SOL    HW2 2892   0.171   5.270   6.428
  665SOL     OW 2893   5.273   4.809   0.890
  665SOL    HW1 2894   5.306   4.878   0.825
  665SOL    HW2 2895   5.273   4.847   0.982
  666SOL     OW 2896   4.705   2.272   2.317
  666SOL    HW1 2897   4.666   2.361   2.292
  666SOL    HW2 2898   4.701   2.211   2.238
  667SOL     OW 2899   0.185   4.480   3.598
  667SOL    HW1 2900   0.096   4.520   3.575
  667SOL    HW2 2901   0.171   4.396   3.650
  668SOL     OW 2902   5.649   6.483   6.527
  668SOL    HW1 2903   5.697   6.452   6.444
  668SOL    HW2 2904   5.713   6.487   6.603
  669SOL     OW 2905   4.305   0.373   3.262
  669SOL    HW1 2906   4.274   0.465   3.241
  669SOL    HW2 2907   4.227   0.311   3.267
  670SOL     OW 2908   3.353   2.769   0.943
  670SOL    HW1 2909   3.362   2.805   1.035
  670SOL    HW2 2910   3.383   2.673   0.941
  671SOL     OW 2911   1.680   6.335   0.284
  671SOL    HW1 2912   1.592   6.366   0.248
  671SOL    HW2 2913   1.670   6.241   0.318
  672SOL     OW 2914   1.099   5.272   2.262
  672SOL    HW1 2915   1.172   5.248   2.198
  672SOL    HW2 2916   1.126   5.352   2.315
  673SOL     OW 2917   6.958   0.114   1.897
  673SOL    HW1 2918   7.009   0.187   1.852
  673SOL    HW2 2919   6.967   0.030   1.844
  674SOL     OW 2920   0.370   1.959   5.154
  674SOL    HW1 2921   0.290   1.906   5.124
  674SOL    HW2 2922   0.348   2.007   5.239
  675SOL     OW 2923   0.688   1.072   3.047
  675SOL    HW1 2924   0.616   1.137   3.024
  675SOL    HW2 2925   0.673   0.986   2.998
  676SOL     OW 2926   3.499   5.734   3.124
  676SOL    HW1 2927   3.404   5.719   3.098
  676SOL    HW2 2928   3.503   5.757   3.222
  677SOL     OW 2929   6.087   1.929   0.600
  677SOL    HW1 2930   6.023   1.861   0.635
  677SOL    HW2 2931   6.160   1.943   0.666
  678SOL     OW 2932   2.245   1.352   5.700
  678SOL    HW1 2933   2.335   1.326   5.665
  678SOL    HW2 2934   2.244   1.450   5.719
  679SOL     OW 2935   4.504   1.895   3.937
  679SOL    HW1 2936   4.424   1.908   3.880
  679SOL    HW2 2937   4.586   1.892   3.879
  680SOL     OW 2938   5.563   6.383   5.388
  680SOL    HW1 2939   5.598   6.290   5.394
  680SOL    HW2 2940   5.578   6.430   5.475
  681SOL     OW 2941   5.275   5.124   1.682
  681SOL    HW1 2942   5.257   5.092   1.775
  681SOL    HW2 2943   5.331   5.207   1.685
  682SOL     OW 2944   0.542   1.480   0.416
  682SOL    HW1 2945   0.591   1.425   0.484
  682SOL    HW2 2946   0.606   1.510   0.345
  683SOL     OW 2947   4.345   3.588   0.668
  683SOL    HW1 2948   4.333   3.555   0.762
  683SOL    HW2 2949   4.409   3.529   0.620
  684SOL     OW 2950   0.280   0.828   0.054
  684SOL    HW1 2951   0.343   0.842   6.997
  684SOL    HW2 2952   0.223   0.910   0.066
  685SOL     OW 2953   4.187   1.173   3.126
  685SOL    HW1 2954   4.151   1.250   3.179
  685SOL    HW2 2955   4.278   1.149   3.158
  686SOL     OW 2956   4.877   3.122   3.641
  686SOL    HW1 2957   4.965   3.090   3.605
  686SOL    HW2 2958   4.892   3.203   3.698
  687SOL     OW 2959   0.373   2.127   4.633
  687SOL    HW1 2960   0.280   2.107   4.600
  687SOL    HW2 2961   0.392   2.224   4.622
  688SOL     OW 2962   1.150   2.080   0.621
  688SOL    HW1 2963   1.133   2.120   0.711
  688SOL    HW2 2964   1.066   2.035   0.588
  689SOL     OW 2965   6.626   4.351   6.610
  689SOL    HW1 2966   6.556   4.312   6.550
  689SOL    HW2 2967   6.583   4.390   6.691
  690SOL     OW 2968   0.381   4.341   2.633
  690SOL    HW1 2969   0.408   4.430   2.671
  690SOL    HW2 2970   0.287   4.346   2.600
  691SOL     OW 2971   1.895   6.542   0.305
  691SOL    HW1 2972   1.855   6.451   0.292
  691SOL    HW2 2973   1.979   6.549   0.252
  692SOL     OW 2974   3.287   6.841   3.399
  692SOL    HW1 2975   3.219   6.896   3.350
  692SOL    HW2 2976   3.287   6.748   3.363
  693SOL     OW 2977   5.925   0.915   3.652
  693SOL    HW1 2978   5.853   0.857   3.614
  693SOL    HW2 2979   5.988   0.941   3.580
  694SOL     OW 2980   4.144   6.245   3.366
  694SOL    HW1 2981   4.221   6.298   3.400
  694SOL    HW2 2982   4.094   6.297   3.297
  695SOL     OW 2983   4.165   6.423   3.996
  695SOL    HW1 2984   4.188   6.335   4.037
  695SOL    HW2 2985   4.090   6.465   4.049
  696SOL     OW 2986   4.137   4.773   2.464
  696SOL    HW1 2987   4.106   4.868   2.468
  696SOL    HW2 2988   4.147   4.745   2.368
  697SOL     OW 2989   1.889   3.897   4.003
  697SOL    HW1 2990   1.911   3.805   3.972
  697SOL    HW2 2991   1.841   3.893   4.090
  698SOL     OW 2992   5.346   6.794   0.534
  698SOL    HW1 2993   5.335   6.892   0.524
  698SOL    HW2 2994   5.427   6.775   0.590
  699SOL     OW 2995   1.986   2.951   6.315
  699SOL    HW1 2996   1.967   2.880   6.383
  699SOL    HW2 2997   1.916   3.022   6.320
  700SOL     OW 2998   2.973   0.365   1.947
  700SOL    HW1 2999   2.979   0.298   2.021
  700SOL    HW2 3000   2.946   0.320   1.863
  701SOL     OW 3001   6.730   3.372   5.811
  701SOL    HW1 3002   6.775   3.430   5.742
  701SOL    HW2 3003   6.707   3.428   5.891
  702SOL     OW 3004   1.550   5.992   4.622
  702SOL    HW1 3005   1.549   5.908   4.567
  702SOL    HW2 3006   1.509   5.974   4.712
  703SOL     OW 3007   3.712   4.097   6.027
  703SOL    HW1 3008   3.675   4.041   5.953
  703SOL    HW2 3009   3.774   4.041   6.082
  704SOL     OW 3010   1.453   2.398   0.521
  704SOL    HW1 3011   1.540   2.363   0.488
  704SOL    HW2 3012   1.399   2.432   0.445
  705SOL     OW 3013   5.452   5.841   2.957
  705SOL    HW1 3014   5.495   5.759   2.994
  705SOL    HW2 3015   5.469   5.918   3.019
  706SOL     OW 3016   4.262   2.268   4.819
  706SOL    HW1 3017   4.223   2.298   4.907
  706SOL    HW2 3018   4.244   2.171   4.807
  707SOL     OW 3019   4.691   5.632   2.738
  707SOL    HW1 3020   4.741   5.690   2.802
  707SOL    HW2 3021   4.599   5.670   2.723
  708SOL     OW 3022   4.389   6.648   1.943
  708SOL    HW1 3023   4.475   6.671   1.898
  708SOL    HW2 3024   4.338   6.732   1.961
  709SOL     OW 3025   0.461   6.308   1.080
  709SOL    HW1 3026   0.519   6.263   1.012
  709SOL    HW2 3027   0.451   6.249   1.160
  710SOL     OW 3028   3.656   2.817   1.680
  710SOL    HW1 3029   3.613   2.732   1.710
  710SOL    HW2 3030   3.733   2.839   1.741
  711SOL     OW 3031   6.820   3.384   5.467
  711SOL    HW1 3032   6.889   3.443   5.427
  711SOL    HW2 3033   6.859   3.333   5.544
  712SOL     OW 3034   4.699   2.831   1.380
  712SOL    HW1 3035   4.684   2.732   1.372
  712SOL    HW2 3036   4.791   2.847   1.416
  713SOL     OW 3037   4.413   2.268   6.018
  713SOL    HW1 3038   4.436   2.321   5.937
  713SOL    HW2 3039   4.473   2.294   6.093
  714SOL     OW 3040   6.950   4.270   3.410
  714SOL    HW1 3041   7.013   4.197   3.434
  714SOL    HW2 3042   6.897   4.244   3.330
  715SOL     OW 3043   5.264   6.124   0.300
  715SOL    HW1 3044   5.208   6.041   0.305
  715SOL    HW2 3045   5.244   6.183   0.378
  716SOL     OW 3046   0.605   0.668   1.872
  716SOL    HW1 3047   0.682   0.632   1.926
  716SOL    HW2 3048   0.520   0.655   1.923
  717SOL     OW 3049   6.440   4.206   5.306
  717SOL    HW1 3050   6.418   4.248   5.218
  717SOL    HW2 3051   6.355   4.182   5.354
  718SOL     OW 3052   4.941   2.491   5.962
  718SOL    HW1 3053   4.976   2.535   6.045
  718SOL    HW2 3054   5.010   2.429   5.925
  719SOL     OW 3055   6.218   0.790   2.404
  719SOL    HW1 3056   6.263   0.869   2.364
  719SOL    HW2 3057   6.119   0.806   2.406
  720SOL     OW 3058   2.618   0.309   5.993
  720SOL    HW1 3059   2.539   0.270   5.945
  720SOL    HW2 3060   2.636   0.257   6.076
  721SOL     OW 3061   2.694   1.933   3.039
  721SOL    HW1 3062   2.764   1.873   3.001
  721SOL    HW2 3063   2.606   1.913   2.997
  722SOL     OW 3064   3.581   0.431   5.787
  722SOL    HW1 3065   3.503   0.403   5.729
  722SOL    HW2 3066   3.568   0.525   5.816
  723SOL     OW 3067   1.693   4.737   3.243
  723SOL    HW1 3068   1.653   4.816   3.196
  723SOL    HW2 3069   1.651   4.653   3.209
  724SOL     OW 3070   0.901   3.050   4.810
  724SOL    HW1 3071   0.872   3.046   4.906
  724SOL    HW2 3072   0.826   3.023   4.750
  725SOL     OW 3073   2.276   5.754   1.076
  725SOL    HW1 3074   2.264   5.660   1.107
  725SOL    HW2 3075   2.349   5.759   1.008
  726SOL     OW 3076   3.490   4.837   1.428
  726SOL    HW1 3077   3.526   4.744   1.436
  726SOL    HW2 3078   3.450   4.865   1.515
  727SOL     OW 3079   5.826   5.425   5.459
  727SOL    HW1 3080   5.851   5.482   5.537
  727SOL    HW2 3081   5.755   5.360   5.486
  728SOL     OW 3082   6.664   2.782   4.663
  728SOL    HW1 3083   6.713   2.754   4.746
  728SOL    HW2 3084   6.729   2.793   4.588
  729SOL     OW 3085   1.052   2.101   1.736
  729SOL    HW1 3086   1.145   2.136   1.724
  729SOL    HW2 3087   1.024   2.112   1.831
  730SOL     OW 3088   5.597   0.421   4.770
  730SOL    HW1 3089   5.590   0.387   4.864
  730SOL    HW2 3090   5.693   0.420   4.742
  731SOL     OW 3091   5.217   4.673   6.303
  731SOL    HW1 3092   5.215   4.766   6.339
  731SOL    HW2 3093   5.128   4.652   6.260
  732SOL     OW 3094   6.754   3.001   1.673
  732SOL    HW1 3095   6.837   3.042   1.634
  732SOL    HW2 3096   6.676   3.062   1.656
  733SOL     OW 3097   5.146   6.627   5.318
  733SOL    HW1 3098   5.244   6.620   5.336
  733SOL    HW2 3099   5.123   6.572   5.238
  734SOL     OW 3100   6.763   4.876   2.688
  734SOL    HW1 3101   6.792   4.911   2.599
  734SOL    HW2 3102   6.669   4.903   2.705
  735SOL     OW 3103   4.576   1.337   0.115
  735SOL    HW1 3104   4.596   1.352   0.018
  735SOL    HW2 3105   4.480   1.355   0.132
  736SOL     OW 3106   6.843   1.701   3.523
  736SOL    HW1 3107   6.898   1.785   3.527
  736SOL    HW2 3108   6.822   1.680   3.427
  737SOL     OW 3109   5.216   1.479   4.605
  737SOL    HW1 3110   5.135   1.447   4.654
  737SOL    HW2 3111   5.266   1.544   4.663
  738SOL     OW 3112   2.189   4.005   1.627
  738SOL    HW1 3113   2.268   3.945   1.632
  738SOL    HW2 3114   2.175   4.036   1.533
  739SOL     OW 3115   4.940   0.676   3.910
  739SOL    HW1 3116   4.987   0.736   3.974
  739SOL    HW2 3117   4.911   0.593   3.957
  740SOL     OW 3118   6.288   0.889   1.659
  740SOL    HW1 3119   6.335   0.972   1.689
  740SOL    HW2 3120   6.193   0.892   1.690
  741SOL     OW 3121   2.176   6.895   3.528
  741SOL    HW1 3122   2.171   6.841   3.611
  741SOL    HW2 3123   2.155   6.837   3.449
  742SOL     OW 3124   2.822   6.522   2.193
  742SOL    HW1 3125   2.898   6.459   2.176
  742SOL    HW2 3126   2.826   6.598   2.127
  743SOL     OW 3127   0.009   4.779   3.106
  743SOL    HW1 3128   6.958   4.757   3.174
  743SOL    HW2 3129   6.990   4.838   3.036
  744SOL     OW 3130   5.553   0.727   0.467
  744SOL    HW1 3131   5.468   0.676   0.481
  744SOL    HW2 3132   5.613   0.716   0.547
  745SOL     OW 3133   1.849   5.080   4.894
  745SOL    HW1 3134   1.761   5.034   4.904
  745SOL    HW2 3135   1.899   5.076   4.980
  746SOL     OW 3136   6.945   3.856   6.917
  746SOL    HW1 3137   0.003   3.919   6.923
  746SOL    HW2 3138   6.921   3.841   6.821
  747SOL     OW 3139   3.921   6.846   4.518
  747SOL    HW1 3140   3.850   6.803   4.462
  747SOL    HW2 3141   3.959   6.779   4.582
  748SOL     OW 3142   4.079   5.088   2.429
  748SOL    HW1 3143   4.172   5.119   2.415
  748SOL    HW2 3144   4.044   5.124   2.516
  749SOL     OW 3145   5.985   3.458   4.647
  749SOL    HW1 3146   5.905   3.517   4.630
  749SOL    HW2 3147   6.051   3.508   4.702
  750SOL     OW 3148   2.097   2.160   1.540
  750SOL    HW1 3149   2.133   2.214   1.616
  750SOL    HW2 3150   2.127   2.065   1.548
  751SOL     OW 3151   3.816   2.286   0.148
  751SOL    HW1 3152   3.808   2.190   0.176
  751SOL    HW2 3153   3.898   2.325   0.189
  752SOL     OW 3154   3.626   1.316   1.676
  752SOL    HW1 3155   3.619   1.234   1.619
  752SOL    HW2 3156   3.715   1.360   1.659
  753SOL     OW 3157   2.025   3.400   5.709
  753SOL    HW1 3158   1.970   3.365   5.784
  753SOL    HW2 3159   2.057   3.323   5.653
  754SOL     OW 3160   4.657   2.279   5.248
  754SOL    HW1 3161   4.703   2.366   5.229
  754SOL    HW2 3162   4.725   2.211   5.276
  755SOL     OW 3163   1.292   4.481   5.611
  755SOL    HW1 3164   1.370   4.538   5.588
  755SOL    HW2 3165   1.223   4.488   5.540
  756SOL     OW 3166   3.028   6.637   6.551
  756SOL    HW1 3167   3.094   6.642   6.626
  756SOL    HW2 3168   2.948   6.586   6.579
  757SOL     OW 3169   0.114   0.360   4.185
  757SOL    HW1 3170   0.124   0.454   4.154
  757SOL    HW2 3171   0.057   0.358   4.267
  758SOL     OW 3172   3.554   0.050   2.714
  758SOL    HW1 3173   3.461   0.034   2.679
  758SOL    HW2 3174   3.609   6.987   2.702
  759SOL     OW 3175   0.266   1.700   2.133
  759SOL    HW1 3176   0.324   1.666   2.059
  759SOL    HW2 3177   0.188   1.639   2.145
  760SOL     OW 3178   6.053   0.057   4.557
  760SOL    HW1 3179   6.002   6.993   4.538
  760SOL    HW2 3180   6.107   0.045   4.640
  761SOL     OW 3181   5.331   4.101   6.243
  761SOL    HW1 3182   5.301   4.196   6.233
  761SOL    HW2 3183   5.301   4.048   6.163
  762SOL     OW 3184   1.698   6.728   4.246
  762SOL    HW1 3185   1.746   6.812   4.271
  762SOL    HW2 3186   1.703   6.663   4.322
  763SOL     OW 3187   4.288   5.249   6.066
  763SOL    HW1 3188   4.223   5.178   6.094
  763SOL    HW2 3189   4.241   5.320   6.014
  764SOL     OW 3190   5.479   0.849   5.131
  764SOL    HW1 3191   5.533   0.811   5.056
  764SOL    HW2 3192   5.397   0.793   5.145
  765SOL     OW 3193   1.807   5.576   1.664
  765SOL    HW1 3194   1.789   5.584   1.762
  765SOL    HW2 3195   1.724   5.546   1.617
  766SOL     OW 3196   2.676   2.727   5.952
  766SOL    HW1 3197   2.731   2.698   5.874
  766SOL    HW2 3198   2.678   2.656   6.023
  767SOL     OW 3199   6.478   5.714   2.265
  767SOL    HW1 3200   6.571   5.722   2.228
  767SOL    HW2 3201   6.412   5.718   2.189
  768SOL     OW 3202   2.571   6.223   2.625
  768SOL    HW1 3203   2.546   6.136   2.668
  768SOL    HW2 3204   2.565   6.213   2.526
  769SOL     OW 3205   2.144   0.655   5.313
  769SOL    HW1 3206   2.051   0.686   5.290
  769SOL    HW2 3207   2.208   0.691   5.245
  770SOL     OW 3208   1.650   4.410   3.283
  770SOL    HW1 3209   1.733   4.456   3.316
  770SOL    HW2 3210   1.619   4.453   3.198
  771SOL     OW 3211   1.335   5.067   2.966
  771SOL    HW1 3212   1.307   5.068   3.062
  771SOL    HW2 3213   1.260   5.100   2.909
  772SOL     OW 3214   5.186   5.584   6.926
  772SOL    HW1 3215   5.257   5.598   6.856
  772SOL    HW2 3216   5.097   5.608   6.887
  773SOL     OW 3217   6.893   3.844   3.876
  773SOL    HW1 3218   6.880   3.926   3.932
  773SOL    HW2 3219   6.891   3.869   3.779
  774SOL     OW 3220   2.063   1.669   2.210
  774SOL    HW1 3221   2.025   1.584   2.175
  774SOL    HW2 3222   2.163   1.665   2.207
  775SOL     OW 3223   1.873   2.823   3.608
  775SOL    HW1 3224   1.936   2.750   3.634
  775SOL    HW2 3225   1.782   2.804   3.644
  776SOL     OW 3226   1.287   6.927   5.875
  776SOL    HW1 3227   1.301   0.001   5.843
  776SOL    HW2 3228   1.237   6.928   5.962
  777SOL     OW 3229   1.995   4.472   1.908
  777SOL    HW1 3230   2.033   4.442   1.821
  777SOL    HW2 3231   1.896   4.483   1.899
  778SOL     OW 3232   2.562   1.180   1.984
  778SOL    HW1 3233   2.551   1.199   1.887
  778SOL    HW2 3234   2.652   1.212   2.014
  779SOL     OW 3235   6.402   2.486   2.140
  779SOL    HW1 3236   6.362   2.400   2.107
  779SOL    HW2 3237   6.377   2.561   2.079
  780SOL     OW 3238   0.514   3.633   3.861
  780SOL    HW1 3239   0.580   3.651   3.933
  780SOL    HW2 3240   0.558   3.645   3.772
  781SOL     OW 3241   6.613   6.941   0.079
  781SOL    HW1 3242   6.648   6.849   0.095
  781SOL    HW2 3243   6.606   6.990   0.166
  782SOL     OW 3244   1.192   3.698   6.455
  782SOL    HW1 3245   1.269   3.693   6.518
  782SOL    HW2 3246   1.181   3.792   6.422
  783SOL     OW 3247   4.767   4.708   2.304
  783SOL    HW1 3248   4.849   4.746   2.347
  783SOL    HW2 3249   4.784   4.612   2.280
  784SOL     OW 3250   4.697   4.838   0.628
  784SOL    HW1 3251   4.791   4.806   0.642
  784SOL    HW2 3252   4.663   4.879   0.712
  785SOL     OW 3253   0.364   2.481   3.495
  785SOL    HW1 3254   0.333   2.455   3.587
  785SOL    HW2 3255   0.296   2.452   3.428
  786SOL     OW 3256   1.363   0.795   2.810
  786SOL    HW1 3257   1.387   0.842   2.725
  786SOL    HW2 3258   1.264   0.799   2.823
  787SOL     OW 3259   1.734   0.207   6.828
  787SOL    HW1 3260   1.781   0.146   6.764
  787SOL    HW2 3261   1.638   0.216   6.802
  788SOL     OW 3262   3.607   1.709   0.031
  788SOL    HW1 3263   3.526   1.744   0.079
  788SOL    HW2 3264   3.583   1.690   6.955
  789SOL     OW 3265   4.671   4.065   1.215
  789SOL    HW1 3266   4.633   3.987   1.165
  789SOL    HW2 3267   4.656   4.149   1.163
  790SOL     OW 3268   2.127   0.897   3.442
  790SOL    HW1 3269   2.077   0.854   3.366
  790SOL    HW2 3270   2.121   0.996   3.432
  791SOL     OW 3271   1.684   5.624   4.165
  791SOL    HW1 3272   1.683   5.711   4.215
  791SOL    HW2 3273   1.610   5.623   4.098
  792SOL     OW 3274   0.566   0.780   1.117
  792SOL    HW1 3275   0.648   0.748   1.070
  792SOL    HW2 3276   0.510   0.701   1.144
  793SOL     OW 3277   4.864   4.855   3.402
  793SOL    HW1 3278   4.960   4.881   3.387
  793SOL    HW2 3279   4.828   4.907   3.480
  794SOL     OW 3280   3.110   4.130   5.586
  794SOL    HW1 3281   3.172   4.070   5.536
  794SOL    HW2 3282   3.017   4.095   5.578
  795SOL     OW 3283   3.244   6.844   4.437
  795SOL    HW1 3284   3.254   6.929   4.385
  795SOL    HW2 3285   3.244   6.766   4.374
  796SOL     OW 3286   0.088   2.240   6.387
  796SOL    HW1 3287   0.113   2.181   6.309
  796SOL    HW2 3288   0.118   2.196   6.472
  797SOL     OW 3289   5.748   2.541   0.745
  797SOL    HW1 3290   5.753   2.503   0.837
  797SOL    HW2 3291   5.743   2.467   0.678
  798SOL     OW 3292   3.414   6.139   2.373
  798SOL    HW1 3293   3.428   6.228   2.416
  798SOL    HW2 3294   3.457   6.068   2.429
  799SOL     OW 3295   0.291   6.688   5.985
  799SOL    HW1 3296   0.274   6.786   5.994
  799SOL    HW2 3297   0.382   6.674   5.944
  800SOL     OW 3298   5.320   1.831   3.220
  800SOL    HW1 3299   5.320   1.826   3.320
  800SOL    HW2 3300   5.382   1.904   3.191
  801SOL     OW 3301   1.954   4.287   4.703
  801SOL    HW1 3302   1.951   4.232   4.620
  801SOL    HW2 3303   1.992   4.377   4.683
  802SOL     OW 3304   2.902   1.889   0.931
  802SOL    HW1 3305   2.888   1.940   1.016
  802SOL    HW2 3306   3.000   1.880   0.913
  803SOL     OW 3307   0.959   0.226   5.627
  803SOL    HW1 3308   0.962   0.126   5.618
  803SOL    HW2 3309   0.939   0.250   5.722
  804SOL     OW 3310   5.775   5.989   6.990
  804SOL    HW1 3311   5.806   5.897   6.965
  804SOL    HW2 3312   5.794   6.005   0.068
  805SOL     OW 3313   3.425   0.660   3.870
  805SOL    HW1 3314   3.407   0.677   3.967
  805SOL    HW2 3315   3.378   0.729   3.815
  806SOL     OW 3316   4.773   1.482   4.232
  806SOL    HW1 3317   4.799   1.523   4.145
  806SOL    HW2 3318   4.854   1.468   4.289
  807SOL     OW 3319   1.459   1.011   5.309
  807SOL    HW1 3320   1.381   1.041   5.363
  807SOL    HW2 3321   1.449   0.913   5.288
  808SOL     OW 3322   3.971   3.618   6.257
  808SOL    HW1 3323   3.872   3.635   6.259
  808SOL    HW2 3324   4.018   3.687   6.311
  809SOL     OW 3325   0.386   4.488   1.573
  809SOL    HW1 3326   0.407   4.446   1.662
  809SOL    HW2 3327   0.400   4.421   1.501
  810SOL     OW 3328   3.430   3.557   1.024
  810SOL    HW1 3329   3.403   3.527   0.933
  810SOL    HW2 3330   3.361   3.619   1.061
  811SOL     OW 3331   5.115   5.481   5.396
  811SOL    HW1 3332   5.193   5.460   5.456
  811SOL    HW2 3333   5.035   5.503   5.451
  812SOL     OW 3334   0.118   0.744   2.569
  812SOL    HW1 3335   0.026   0.714   2.594
  812SOL    HW2 3336   0.165   0.671   2.520
  813SOL     OW 3337   4.231   6.949   4.162
  813SOL    HW1 3338   4.241   6.850   4.152
  813SOL    HW2 3339   4.194   6.988   4.078
  814SOL     OW 3340   5.952   6.357   2.658
  814SOL    HW1 3341   5.933   6.259   2.660
  814SOL    HW2 3342   5.993   6.382   2.570
  815SOL     OW 3343   0.653   3.674   3.313
  815SOL    HW1 3344   0.728   3.612   3.289
  815SOL    HW2 3345   0.687   3.768   3.318
  816SOL     OW 3346   6.383   6.119   0.545
  816SOL    HW1 3347   6.352   6.198   0.598
  816SOL    HW2 3348   6.350   6.127   0.451
  817SOL     OW 3349   1.747   5.133   0.761
  817SOL    HW1 3350   1.841   5.139   0.796
  817SOL    HW2 3351   1.698   5.217   0.785
  818SOL     OW 3352   6.149   2.549   2.915
  818SOL    HW1 3353   6.131   2.615   2.842
  818SOL    HW2 3354   6.240   2.509   2.901
  819SOL     OW 3355   6.134   2.799   2.368
  819SOL    HW1 3356   6.148   2.820   2.272
  819SOL    HW2 3357   6.215   2.752   2.404
  820SOL     OW 3358   3.622   2.098   4.802
  820SOL    HW1 3359   3.709   2.125   4.761
  820SOL    HW2 3360   3.616   2.135   4.894
  821SOL     OW 3361   0.469   4.048   0.966
  821SOL    HW1 3362   0.446   4.021   1.060
  821SOL    HW2 3363   0.397   4.015   0.904
  822SOL     OW 3364   1.043   3.913   3.818
  822SOL    HW1 3365   1.130   3.954   3.847
  822SOL    HW2 3366   1.025   3.830   3.870
  823SOL     OW 3367   5.011   4.146   6.591
  823SOL    HW1 3368   5.061   4.066   6.557
  823SOL    HW2 3369   4.922   4.117   6.626
  824SOL     OW 3370   4.580   1.513   6.779
  824SOL    HW1 3371   4.569   1.431   6.723
  824SOL    HW2 3372   4.563   1.594   6.723
  825SOL     OW 3373   6.336   4.873   1.353
  825SOL    HW1 3374   6.322   4.802   1.422
  825SOL    HW2 3375   6.417   4.851   1.298
  826SOL     OW 3376   3.968   3.031   5.633
  826SOL    HW1 3377   3.966   3.128   5.659
  826SOL    HW2 3378   4.022   2.980   5.700
  827SOL     OW 3379   2.802   4.454   5.617
  827SOL    HW1 3380   2.721   4.502   5.652
  827SOL    HW2 3381   2.857   4.517   5.562
  828SOL     OW 3382   5.672   6.263   0.455
  828SOL    HW1 3383   5.612   6.206   0.398
  828SOL    HW2 3384   5.633   6.355   0.460
  829SOL     OW 3385   3.827   3.693   2.370
  829SOL    HW1 3386   3.921   3.714   2.397
  829SOL    HW2 3387   3.764   3.749   2.423
  830SOL     OW 3388   5.531   4.847   6.803
  830SOL    HW1 3389   5.479   4.764   6.783
  830SOL    HW2 3390   5.498   4.887   6.889
  831SOL     OW 3391   6.453   0.393   0.413
  831SOL    HW1 3392   6.382   0.458   0.386
  831SOL    HW2 3393   6.483   0.341   0.334
  832SOL     OW 3394   4.196   1.174   2.303
  832SOL    HW1 3395   4.173   1.097   2.362
  832SOL    HW2 3396   4.119   1.238   2.299
  833SOL     OW 3397   1.095   3.894   6.302
  833SOL    HW1 3398   1.024   3.834   6.265
  833SOL    HW2 3399   1.052   3.970   6.351
  834SOL     OW 3400   4.068   4.131   0.884
  834SOL    HW1 3401   4.119   4.176   0.957
  834SOL    HW2 3402   4.007   4.061   0.923
  835SOL     OW 3403   3.697   0.130   5.742
  835SOL    HW1 3404   3.726   0.036   5.726
  835SOL    HW2 3405   3.676   0.143   5.838
  836SOL     OW 3406   3.989   6.134   5.491
  836SOL    HW1 3407   4.088   6.143   5.483
  836SOL    HW2 3408   3.959   6.164   5.582
  837SOL     OW 3409   5.339   0.768   1.227
  837SOL    HW1 3410   5.354   0.701   1.299
  837SOL    HW2 3411   5.288   0.726   1.152
  838SOL     OW 3412   2.309   0.842   4.651
  838SOL    HW1 3413   2.321   0.765   4.588
  838SOL    HW2 3414   2.252   0.912   4.608
  839SOL     OW 3415   1.403   1.926   2.471
  839SOL    HW1 3416   1.483   1.972   2.432
  839SOL    HW2 3417   1.345   1.892   2.397
  840SOL     OW 3418   6.995   5.780   0.345
  840SOL    HW1 3419   6.943   5.797   0.261
  840SOL    HW2 3420   0.035   5.700   0.332
  841SOL     OW 3421   3.509   4.920   0.098
  841SOL    HW1 3422   3.420   4.890   0.064
  841SOL    HW2 3423   3.500   5.010   0.140
  842SOL     OW 3424   4.002   0.466   4.258
  842SOL    HW1 3425   3.907   0.437   4.252
  842SOL    HW2 3426   4.043   0.464   4.167
  843SOL     OW 3427   0.780   1.001   1.286
  843SOL    HW1 3428   0.761   0.993   1.188
  843SOL    HW2 3429   0.774   1.097   1.313
  844SOL     OW 3430   5.715   0.671   0.672
  844SOL    HW1 3431   5.672   0.674   0.763
  844SOL    HW2 3432   5.800   0.723   0.675
  845SOL     OW 3433   4.903   4.467   4.467
  845SOL    HW1 3434   4.848   4.387   4.490
  845SOL    HW2 3435   4.987   4.438   4.422
  846SOL     OW 3436   1.992   1.686   6.183
  846SOL    HW1 3437   1.944   1.743   6.117
  846SOL    HW2 3438   2.077   1.651   6.142
  847SOL     OW 3439   1.162   2.924   1.545
  847SOL    HW1 3440   1.145   2.830   1.572
  847SOL    HW2 3441   1.078   2.965   1.510
  848SOL     OW 3442   6.482   0.458   6.236
  848SOL    HW1 3443   6.407   0.520   6.212
  848SOL    HW2 3444   6.446   0.368   6.257
  849SOL     OW 3445   6.610   3.742   5.833
  849SOL    HW1 3446   6.618   3.750   5.733
  849SOL    HW2 3447   6.519   3.772   5.862
  850SOL     OW 3448   5.131   0.882   3.493
  850SOL    HW1 3449   5.185   0.910   3.573
  850SOL    HW2 3450   5.193   0.863   3.417
  851SOL     OW 3451   6.856   1.902   2.688
  851SOL    HW1 3452   6.940   1.884   2.738
  851SOL    HW2 3453   6.782   1.846   2.726
  852SOL     OW 3454   0.800   3.745   0.146
  852SOL    HW1 3455   0.887   3.786   0.119
  852SOL    HW2 3456   0.808   3.708   0.239
  853SOL     OW 3457   0.988   4.743   0.865
  853SOL    HW1 3458   0.965   4.667   0.805
  853SOL    HW2 3459   0.958   4.829   0.825
  854SOL     OW 3460   5.486   4.761   0.637
  854SOL    HW1 3461   5.436   4.846   0.656
  854SOL    HW2 3462   5.455   4.690   0.700
  855SOL     OW 3463   6.508   6.972   1.922
  855SOL    HW1 3464   6.472   6.878   1.922
  855SOL    HW2 3465   6.466   0.003   1.998
  856SOL     OW 3466   1.199   2.488   5.678
  856SOL    HW1 3467   1.185   2.424   5.753
  856SOL    HW2 3468   1.202   2.582   5.714
  857SOL     OW 3469   6.016   4.721   2.198
  857SOL    HW1 3470   6.041   4.652   2.130
  857SOL    HW2 3471   6.086   4.725   2.269
  858SOL     OW 3472   2.297   3.412   1.123
  858SOL    HW1 3473   2.218   3.465   1.089
  858SOL    HW2 3474   2.355   3.472   1.178
  859SOL     OW 3475   5.697   6.497   4.944
  859SOL    HW1 3476   5.599   6.510   4.956
  859SOL    HW2 3477   5.747   6.572   4.987
  860SOL     OW 3478   6.027   3.177   0.649
  860SOL    HW1 3479   6.039   3.131   0.562
  860SOL    HW2 3480   6.109   3.164   0.705
  861SOL     OW 3481   2.572   5.852   3.441
  861SOL    HW1 3482   2.581   5.765   3.393
  861SOL    HW2 3483   2.492   5.901   3.407
  862SOL     OW 3484   1.558   3.629   4.582
  862SOL    HW1 3485   1.639   3.642   4.524
  862SOL    HW2 3486   1.584   3.645   4.678
  863SOL     OW 3487   5.871   1.512   0.592
  863SOL    HW1 3488   5.929   1.592   0.576
  863SOL    HW2 3489   5.775   1.540   0.587
  864SOL     OW 3490   4.421   5.396   3.928
  864SOL    HW1 3491   4.385   5.349   3.847
  864SOL    HW2 3492   4.422   5.332   4.005
  865SOL     OW 3493   1.386   6.350   5.701
  865SOL    HW1 3494   1.445   6.320   5.776
  865SOL    HW2 3495   1.302   6.388   5.739
  866SOL     OW 3496   2.576   1.769   2.230
  866SOL    HW1 3497   2.648   1.762   2.299
  866SOL    HW2 3498   2.604   1.833   2.159
  867SOL     OW 3499   4.651   3.522   0.668
  867SOL    HW1 3500   4.655   3.603   0.726
  867SOL    HW2 3501   4.693   3.445   0.716
  868SOL     OW 3502   5.480   1.329   0.294
  868SOL    HW1 3503   5.498   1.285   0.382
  868SOL    HW2 3504   5.410   1.278   0.245
  869SOL     OW 3505   0.431   4.205   2.884
  869SOL    HW1 3506   0.382   4.255   2.813
  869SOL    HW2 3507   0.441   4.264   2.965
  870SOL     OW 3508   4.034   2.785   0.362
  870SOL    HW1 3509   3.975   2.848   0.413
  870SOL    HW2 3510   4.129   2.812   0.373
  871SOL     OW 3511   4.352   2.364   2.372
  871SOL    HW1 3512   4.379   2.459   2.354
  871SOL    HW2 3513   4.334   2.318   2.285
  872SOL     OW 3514   5.587   2.999   4.156
  872SOL    HW1 3515   5.506   2.999   4.098
  872SOL    HW2 3516   5.634   2.911   4.149
  873SOL     OW 3517   5.986   6.817   4.542
  873SOL    HW1 3518   5.915   6.755   4.508
  873SOL    HW2 3519   6.050   6.765   4.599
  874SOL     OW 3520   1.163   4.481   6.019
  874SOL    HW1 3521   1.223   4.434   5.955
  874SOL    HW2 3522   1.085   4.519   5.970
  875SOL     OW 3523   4.699   3.900   0.550
  875SOL    HW1 3524   4.619   3.855   0.511
  875SOL    HW2 3525   4.758   3.932   0.476
  876SOL     OW 3526   0.753   4.598   2.328
  876SOL    HW1 3527   0.677   4.537   2.348
  876SOL    HW2 3528   0.719   4.678   2.278
  877SOL     OW 3529   3.781   4.441   5.896
  877SOL    HW1 3530   3.850   4.368   5.899
  877SOL    HW2 3531   3.763   4.465   5.801
  878SOL     OW 3532   3.520   6.493   5.294
  878SOL    HW1 3533   3.456   6.497   5.217
  878SOL    HW2 3534   3.521   6.400   5.331
  879SOL     OW 3535   3.325   1.970   0.746
  879SOL    HW1 3536   3.369   2.054   0.713
  879SOL    HW2 3537   3.388   1.921   0.807
  880SOL     OW 3538   2.997   3.896   4.380
  880SOL    HW1 3539   3.035   3.816   4.425
  880SOL    HW2 3540   2.932   3.941   4.441
  881SOL     OW 3541   5.174   3.804   5.446
  881SOL    HW1 3542   5.127   3.892   5.443
  881SOL    HW2 3543   5.202   3.777   5.354
  882SOL     OW 3544   0.979   2.613   4.536
  882SOL    HW1 3545   1.000   2.656   4.624
  882SOL    HW2 3546   0.927   2.529   4.551
  883SOL     OW 3547   4.296   6.919   0.160
  883SOL    HW1 3548   4.207   6.933   0.204
  883SOL    HW2 3549   4.325   6.825   0.174
  884SOL     OW 3550   6.909   4.413   0.200
  884SOL    HW1 3551   6.987   4.402   0.137
  884SOL    HW2 3552   6.941   4.404   0.294
  885SOL     OW 3553   4.955   6.275   5.792
  885SOL    HW1 3554   4.876   6.214   5.784
  885SOL    HW2 3555   4.997   6.263   5.883
  886SOL     OW 3556   4.277   0.918   1.199
  886SOL    HW1 3557   4.366   0.962   1.190
  886SOL    HW2 3558   4.220   0.942   1.120
  887SOL     OW 3559   3.895   5.441   3.505
  887SOL    HW1 3560   3.869   5.527   3.548
  887SOL    HW2 3561   3.990   5.419   3.529
  888SOL     OW 3562   6.799   5.868   2.818
  888SOL    HW1 3563   6.789   5.962   2.784
  888SOL    HW2 3564   6.827   5.809   2.743
  889SOL     OW 3565   0.468   0.364   6.138
  889SOL    HW1 3566   0.486   0.460   6.160
  889SOL    HW2 3567   0.369   0.347   6.146
  890SOL     OW 3568   2.010   5.002   2.098
  890SOL    HW1 3569   1.957   4.924   2.130
  890SOL    HW2 3570   1.953   5.058   2.037
  891SOL     OW 3571   6.361   3.826   0.443
  891SOL    HW1 3572   6.321   3.763   0.509
  891SOL    HW2 3573   6.373   3.780   0.355
  892SOL     OW 3574   3.884   4.169   5.089
  892SOL    HW1 3575   3.984   4.177   5.088
  892SOL    HW2 3576   3.843   4.260   5.083
  893SOL     OW 3577   1.916   0.395   2.849
  893SOL    HW1 3578   2.005   0.351   2.851
  893SOL    HW2 3579   1.923   0.483   2.803
  894SOL     OW 3580   1.305   2.910   3.131
  894SOL    HW1 3581   1.326   2.864   3.044
  894SOL    HW2 3582   1.376   2.977   3.150
  895SOL     OW 3583   1.555   5.656   3.359
  895SOL    HW1 3584   1.521   5.738   3.405
  895SOL    HW2 3585   1.621   5.610   3.418
  896SOL     OW 3586   5.910   6.044   1.627
  896SOL    HW1 3587   5.972   6.068   1.702
  896SOL    HW2 3588   5.846   6.119   1.611
  897SOL     OW 3589   4.671   0.547   6.920
  897SOL    HW1 3590   4.594   0.564   6.982
  897SOL    HW2 3591   4.638   0.548   6.825
  898SOL     OW 3592   3.554   6.056   2.746
  898SOL    HW1 3593   3.518   6.061   2.839
  898SOL    HW2 3594   3.528   5.969   2.705
  899SOL     OW 3595   0.184   5.614   0.672
  899SOL    HW1 3596   0.138   5.681   0.731
  899SOL    HW2 3597   0.256   5.660   0.620
  900SOL     OW 3598   4.479   6.005   6.446
  900SOL    HW1 3599   4.424   5.982   6.526
  900SOL    HW2 3600   4.565   6.047   6.475
  901SOL     OW 3601   1.379   0.749   4.752
  901SOL    HW1 3602   1.336   0.816   4.813
  901SOL    HW2 3603   1.354   0.657   4.779
  902SOL     OW 3604   0.706   2.764   1.122
  902SOL    HW1 3605   0.797   2.722   1.125
  902SOL    HW2 3606   0.700   2.824   1.042
  903SOL     OW 3607   0.453   2.761   6.439
  903SOL    HW1 3608   0.379   2.697   6.463
  903SOL    HW2 3609   0.420   2.826   6.370
  904SOL     OW 3610   2.388   2.531   2.598
  904SOL    HW1 3611   2.435   2.517   2.511
  904SOL    HW2 3612   2.390   2.628   2.623
  905SOL     OW 3613   5.623   4.466   6.216
  905SOL    HW1 3614   5.546   4.520   6.182
  905SOL    HW2 3615   5.687   4.448   6.141
  906SOL     OW 3616   0.786   2.937   6.447
  906SOL    HW1 3617   0.827   2.974   6.364
  906SOL    HW2 3618   0.740   3.011   6.497
  907SOL     OW 3619   5.258   2.724   2.005
  907SOL    HW1 3620   5.225   2.714   2.099
  907SOL    HW2 3621   5.312   2.808   1.998
  908SOL     OW 3622   2.730   5.006   2.811
  908SOL    HW1 3623   2.652   5.064   2.785
  908SOL    HW2 3624   2.706   4.910   2.797
  909SOL     OW 3625   3.081   6.063   1.934
  909SOL    HW1 3626   2.997   6.066   1.988
  909SOL    HW2 3627   3.158   6.091   1.992
  910SOL     OW 3628   2.766   0.679   0.728
  910SOL    HW1 3629   2.731   0.713   0.641
  910SOL    HW2 3630   2.691   0.643   0.783
  911SOL     OW 3631   0.598   5.557   6.745
  911SOL    HW1 3632   0.685   5.508   6.731
  911SOL    HW2 3633   0.611   5.630   6.812
  912SOL     OW 3634   4.958   0.623   3.514
  912SOL    HW1 3635   5.035   0.569   3.547
  912SOL    HW2 3636   4.936   0.695   3.580
  913SOL     OW 3637   2.708   0.967   3.905
  913SOL    HW1 3638   2.734   0.873   3.879
  913SOL    HW2 3639   2.771   1.031   3.861
  914SOL     OW 3640   2.559   5.688   5.370
  914SOL    HW1 3641   2.609   5.648   5.293
  914SOL    HW2 3642   2.470   5.720   5.338
  915SOL     OW 3643   1.241   3.273   0.981
  915SOL    HW1 3644   1.339   3.283   0.963
  915SOL    HW2 3645   1.222   3.298   1.076
  916SOL     OW 3646   2.160   3.051   2.344
  916SOL    HW1 3647   2.116   3.127   2.295
  916SOL    HW2 3648   2.205   2.990   2.278
  917SOL     OW 3649   5.856   1.274   2.646
  917SOL    HW1 3650   5.949   1.298   2.673
  917SOL    HW2 3651   5.792   1.337   2.690
  918SOL     OW 3652   3.006   0.228   1.015
  918SOL    HW1 3653   3.053   0.269   1.093
  918SOL    HW2 3654   3.057   0.249   0.931
  919SOL     OW 3655   6.458   6.129   3.618
  919SOL    HW1 3656   6.455   6.135   3.518
  919SOL    HW2 3657   6.417   6.043   3.648
  920SOL     OW 3658   1.929   4.705   2.831
  920SOL    HW1 3659   2.024   4.726   2.811
  920SOL    HW2 3660   1.917   4.606   2.837
  921SOL     OW 3661   4.386   4.722   3.212
  921SOL    HW1 3662   4.383   4.812   3.169
  921SOL    HW2 3663   4.481   4.692   3.219
  922SOL     OW 3664   3.379   3.778   5.435
  922SOL    HW1 3665   3.467   3.731   5.435
  922SOL    HW2 3666   3.393   3.876   5.431
  923SOL     OW 3667   2.986   4.406   6.023
  923SOL    HW1 3668   3.023   4.382   5.933
  923SOL    HW2 3669   2.911   4.471   6.012
  924SOL     OW 3670   5.882   2.549   3.044
  924SOL    HW1 3671   5.977   2.560   3.016
  924SOL    HW2 3672   5.822   2.575   2.968
  925SOL     OW 3673   0.290   1.385   6.570
  925SOL    HW1 3674   0.256   1.328   6.644
  925SOL    HW2 3675   0.377   1.427   6.597
  926SOL     OW 3676   6.204   1.264   0.852
  926SOL    HW1 3677   6.233   1.168   0.848
  926SOL    HW2 3678   6.284   1.322   0.873
  927SOL     OW 3679   5.759   4.007   3.420
  927SOL    HW1 3680   5.687   4.065   3.457
  927SOL    HW2 3681   5.803   3.956   3.493
  928SOL     OW 3682   0.931   6.204   0.515
  928SOL    HW1 3683   0.945   6.222   0.417
  928SOL    HW2 3684   1.005   6.247   0.568
  929SOL     OW 3685   0.447   1.003   1.162
  929SOL    HW1 3686   0.486   0.912   1.148
  929SOL    HW2 3687   0.352   1.004   1.131
  930SOL     OW 3688   5.461   6.149   3.695
  930SOL    HW1 3689   5.374   6.114   3.730
  930SOL    HW2 3690   5.468   6.247   3.715
  931SOL     OW 3691   5.620   2.008   3.940
  931SOL    HW1 3692   5.693   2.046   3.884
  931SOL    HW2 3693   5.623   1.908   3.936
  932SOL     OW 3694   2.639   6.682   3.436
  932SOL    HW1 3695   2.618   6.692   3.339
  932SOL    HW2 3696   2.588   6.751   3.487
  933SOL     OW 3697   1.773   5.892   3.536
  933SOL    HW1 3698   1.772   5.835   3.618
  933SOL    HW2 3699   1.678   5.910   3.507
  934SOL     OW 3700   1.455   0.020   6.466
  934SOL    HW1 3701   1.440   6.943   6.489
  934SOL    HW2 3702   1.492   0.026   6.373
  935SOL     OW 3703   4.334   4.873   4.553
  935SOL    HW1 3704   4.407   4.905   4.612
  935SOL    HW2 3705   4.360   4.787   4.510
  936SOL     OW 3706   1.191   0.057   6.574
  936SOL    HW1 3707   1.183   6.980   6.601
  936SOL    HW2 3708   1.288   0.082   6.570
  937SOL     OW 3709   5.196   1.235   4.950
  937SOL    HW1 3710   5.126   1.288   4.903
  937SOL    HW2 3711   5.172   1.138   4.947
  938SOL     OW 3712   6.529   5.501   6.106
  938SOL    HW1 3713   6.525   5.557   6.188
  938SOL    HW2 3714   6.436   5.489   6.070
  939SOL     OW 3715   6.683   6.576   5.298
  939SOL    HW1 3716   6.618   6.506   5.266
  939SOL    HW2 3717   6.652   6.665   5.265
  940SOL     OW 3718   0.402   3.198   2.176
  940SOL    HW1 3719   0.382   3.114   2.126
  940SOL    HW2 3720   0.334   3.268   2.151
  941SOL     OW 3721   5.333   1.082   6.071
  941SOL    HW1 3722   5.341   0.982   6.064
  941SOL    HW2 3723   5.424   1.121   6.085
  942SOL     OW 3724   4.726   0.249   3.210
  942SOL    HW1 3725   4.755   0.314   3.140
  942SOL    HW2 3726   4.771   0.161   3.195
  943SOL     OW 3727   2.102   3.515   4.186
  943SOL    HW1 3728   2.128   3.418   4.180
  943SOL    HW2 3729   2.059   3.543   4.100
  944SOL     OW 3730   0.427   4.743   5.939
  944SOL    HW1 3731   0.485   4.772   5.863
  944SOL    HW2 3732   0.443   4.802   6.018
  945SOL     OW 3733   6.156   5.026   5.221
  945SOL    HW1 3734   6.207   4.961   5.165
  945SOL    HW2 3735   6.157   4.998   5.316
  946SOL     OW 3736   5.273   2.819   6.003
  946SOL    HW1 3737   5.234   2.849   5.915
  946SOL    HW2 3738   5.330   2.892   6.040
  947SOL     OW 3739   3.692   2.922   3.634
  947SOL    HW1 3740   3.610   2.887   3.679
  947SOL    HW2 3741   3.746   2.976   3.699
  948SOL     OW 3742   3.875   6.949   1.912
  948SOL    HW1 3743   3.882   6.902   1.824
  948SOL    HW2 3744   3.927   6.898   1.981
  949SOL     OW 3745   1.202   6.294   6.089
  949SOL    HW1 3746   1.223   6.196   6.092
  949SOL    HW2 3747   1.140   6.317   6.164
  950SOL     OW 3748   4.627   5.333   2.307
  950SOL    HW1 3749   4.658   5.242   2.277
  950SOL    HW2 3750   4.594   5.385   2.229
  951SOL     OW 3751   2.355   0.920   4.016
  951SOL    HW1 3752   2.416   0.907   3.938
  951SOL    HW2 3753   2.291   0.843   4.021
  952SOL     OW 3754   4.813   1.505   2.878
  952SOL    HW1 3755   4.798   1.530   2.782
  952SOL    HW2 3756   4.879   1.430   2.882
  953SOL     OW 3757   5.521   4.614   4.086
  953SOL    HW1 3758   5.571   4.552   4.026
  953SOL    HW2 3759   5.586   4.667   4.141
  954SOL     OW 3760   3.757   4.847   1.242
  954SOL    HW1 3761   3.825   4.921   1.245
  954SOL    HW2 3762   3.665   4.887   1.251
  955SOL     OW 3763   0.058   3.557   3.164
  955SOL    HW1 3764   0.078   3.648   3.202
  955SOL    HW2 3765   0.141   3.501   3.167
  956SOL     OW 3766   6.100   1.379   2.696
  956SOL    HW1 3767   6.132   1.460   2.746
  956SOL    HW2 3768   6.084   1.403   2.600
  957SOL     OW 3769   6.183   3.927   4.936
  957SOL    HW1 3770   6.190   3.956   5.031
  957SOL    HW2 3771   6.094   3.884   4.921
  958SOL     OW 3772   4.308   1.987   1.419
  958SOL    HW1 3773   4.403   1.958   1.405
  958SOL    HW2 3774   4.276   2.036   1.338
  959SOL     OW 3775   4.648   6.063   2.406
  959SOL    HW1 3776   4.706   6.089   2.329
  959SOL    HW2 3777   4.625   5.966   2.398
  960SOL     OW 3778   1.210   6.198   1.473
  960SOL    HW1 3779   1.122   6.162   1.504
  960SOL    HW2 3780   1.274   6.200   1.549
  961SOL     OW 3781   4.712   0.024   3.930
  961SOL    HW1 3782   4.634   0.007   3.991
  961SOL    HW2 3783   4.730   0.122   3.927
  962SOL     OW 3784   0.570   1.342   5.572
  962SOL    HW1 3785   0.650   1.359   5.514
  962SOL    HW2 3786   0.531   1.254   5.549
  963SOL     OW 3787   6.665   1.645   6.724
  963SOL    HW1 3788   6.741   1.685   6.775
  963SOL    HW2 3789   6.608   1.590   6.785
  964SOL     OW 3790   5.499   4.074   0.245
  964SOL    HW1 3791   5.575   4.080   0.311
  964SOL    HW2 3792   5.438   4.000   0.271
  965SOL     OW 3793   5.052   2.381   1.126
  965SOL    HW1 3794   5.032   2.425   1.039
  965SOL    HW2 3795   5.051   2.450   1.199
  966SOL     OW 3796   5.313   2.404   1.688
  966SOL    HW1 3797   5.401   2.380   1.727
  966SOL    HW2 3798   5.248   2.422   1.762
  967SOL     OW 3799   2.631   4.335   1.361
  967SOL    HW1 3800   2.575   4.316   1.280
  967SOL    HW2 3801   2.639   4.433   1.374
  968SOL     OW 3802   3.654   0.627   1.370
  968SOL    HW1 3803   3.561   0.641   1.404
  968SOL    HW2 3804   3.677   0.530   1.375
  969SOL     OW 3805   3.256   6.467   6.361
  969SOL    HW1 3806   3.318   6.516   6.422
  969SOL    HW2 3807   3.302   6.387   6.324
  970SOL     OW 3808   5.348   0.825   6.017
  970SOL    HW1 3809   5.375   0.731   6.033
  970SOL    HW2 3810   5.251   0.828   5.990
  971SOL     OW 3811   6.744   1.982   3.215
  971SOL    HW1 3812   6.691   2.038   3.280
  971SOL    HW2 3813   6.840   2.007   3.220
  972SOL     OW 3814   5.191   3.376   2.559
  972SOL    HW1 3815   5.237   3.419   2.637
  972SOL    HW2 3816   5.092   3.385   2.569
  973SOL     OW 3817   0.310   4.742   6.739
  973SOL    HW1 3818   0.252   4.821   6.720
  973SOL    HW2 3819   0.340   4.701   6.653
  974SOL     OW 3820   5.343   6.500   2.293
  974SOL    HW1 3821   5.278   6.466   2.360
  974SOL    HW2 3822   5.411   6.429   2.273
  975SOL     OW 3823   1.446   0.146   6.816
  975SOL    HW1 3824   1.427   0.239   6.783
  975SOL    HW2 3825   1.377   0.122   6.885
  976SOL     OW 3826   6.649   3.642   3.100
  976SOL    HW1 3827   6.566   3.586   3.092
  976SOL    HW2 3828   6.706   3.605   3.173
  977SOL     OW 3829   1.129   0.794   2.430
  977SOL    HW1 3830   1.065   0.833   2.364
  977SOL    HW2 3831   1.119   0.841   2.518
  978SOL     OW 3832   4.654   3.465   5.999
  978SOL    HW1 3833   4.702   3.432   5.918
  978SOL    HW2 3834   4.677   3.562   6.014
  979SOL     OW 3835   0.129   2.042   1.133
  979SOL    HW1 3836   0.114   1.947   1.160
  979SOL    HW2 3837   0.167   2.046   1.041
  980SOL     OW 3838   4.268   2.258   3.756
  980SOL    HW1 3839   4.277   2.330   3.687
  980SOL    HW2 3840   4.345   2.194   3.747
  981SOL     OW 3841   0.438   1.645   4.389
  981SOL    HW1 3842   0.352   1.652   4.440
  981SOL    HW2 3843   0.457   1.549   4.369
  982SOL     OW 3844   2.180   2.136   4.691
  982SOL    HW1 3845   2.150   2.178   4.605
  982SOL    HW2 3846   2.174   2.203   4.765
  983SOL     OW 3847   6.269   2.947   4.831
  983SOL    HW1 3848   6.236   2.870   4.776
  983SOL    HW2 3849   6.340   2.995   4.780
  984SOL     OW 3850   2.357   1.939   4.774
  984SOL    HW1 3851   2.339   1.923   4.871
  984SOL    HW2 3852   2.271   1.956   4.726
  985SOL     OW 3853   5.474   4.343   5.099
  985SOL    HW1 3854   5.381   4.377   5.087
  985SOL    HW2 3855   5.532   4.379   5.026
  986SOL     OW 3856   5.929   4.928   1.563
  986SOL    HW1 3857   5.855   4.921   1.497
  986SOL    HW2 3858   5.893   4.959   1.651
  987SOL     OW 3859   4.553   6.783   2.172
  987SOL    HW1 3860   4.542   6.788   2.271
  987SOL    HW2 3861   4.551   6.687   2.143
  988SOL     OW 3862   3.593   3.153   2.267
  988SOL    HW1 3863   3.595   3.230   2.203
  988SOL    HW2 3864   3.505   3.150   2.314
  989SOL     OW 3865   6.163   1.333   6.185
  989SOL    HW1 3866   6.165   1.392   6.104
  989SOL    HW2 3867   6.091   1.364   6.247
  990SOL     OW 3868   4.291   1.671   2.110
  990SOL    HW1 3869   4.226   1.605   2.145
  990SOL    HW2 3870   4.278   1.682   2.011
  991SOL     OW 3871   0.656   3.351   5.307
  991SOL    HW1 3872   0.672   3.432   5.364
  991SOL    HW2 3873   0.569   3.309   5.333
  992SOL     OW 3874   7.009   2.918   2.353
  992SOL    HW1 3875   6.934   2.858   2.380
  992SOL    HW2 3876   0.008   2.984   2.426
  993SOL     OW 3877   0.616   4.756   0.955
  993SOL    HW1 3878   0.683   4.822   0.991
  993SOL    HW2 3879   0.652   4.714   0.872
  994SOL     OW 3880   4.579   4.670   1.020
  994SOL    HW1 3881   4.596   4.730   0.942
  994SOL    HW2 3882   4.538   4.584   0.988
  995SOL     OW 3883   3.641   3.022   5.230
  995SOL    HW1 3884   3.707   3.071   5.288
  995SOL    HW2 3885   3.592   3.087   5.172
  996SOL     OW 3886   3.286   5.304   4.882
  996SOL    HW1 3887   3.291   5.396   4.919
  996SOL    HW2 3888   3.220   5.250   4.933
  997SOL     OW 3889   1.115   0.138   3.435
  997SOL    HW1 3890   1.086   0.233   3.448
  997SOL    HW2 3891   1.204   0.125   3.477
  998SOL     OW 3892   4.900   0.429   4.776
  998SOL    HW1 3893   4.894   0.332   4.755
  998SOL    HW2 3894   4.879   0.482   4.693
  999SOL     OW 3895   4.912   4.317   2.424
  999SOL    HW1 3896   4.835   4.377   2.448
  999SOL    HW2 3897   4.884   4.253   2.353
 1000SOL     OW 3898   2.633   1.545   1.480
 1000SOL    HW1 3899   2.563   1.531   1.551
 1000SOL    HW2 3900   2.713   1.588   1.521
 1001SOL     OW 3901   4.730   5.799   0.747
 1001SOL    HW1 3902   4.768   5.811   0.656
 1001SOL    HW2 3903   4.706   5.888   0.786
 1002SOL     OW 3904   6.270   1.593   1.265
 1002SOL    HW1 3905   6.268   1.537   1.183
 1002SOL    HW2 3906   6.349   1.567   1.321
 1003SOL     OW 3907   2.137   6.490   2.685
 1003SOL    HW1 3908   2.229   6.515   2.654
 1003SOL    HW2 3909   2.134   6.492   2.785
 1004SOL     OW 3910   0.507   0.016   2.517
 1004SOL    HW1 3911   0.416   6.994   2.513
 1004SOL    HW2 3912   0.569   6.985   2.456
 1005SOL     OW 3913   2.233   3.054   4.007
 1005SOL    HW1 3914   2.188   2.980   4.059
 1005SOL    HW2 3915   2.253   3.022   3.915
 1006SOL     OW 3916   0.766   4.514   1.277
 1006SOL    HW1 3917   0.675   4.475   1.294
 1006SOL    HW2 3918   0.809   4.536   1.365
 1007SOL     OW 3919   4.567   0.231   5.398
 1007SOL    HW1 3920   4.548   0.197   5.306
 1007SOL    HW2 3921   4.546   0.329   5.402
 1008SOL     OW 3922   1.172   3.341   5.955
 1008SOL    HW1 3923   1.203   3.389   6.037
 1008SOL    HW2 3924   1.096   3.280   5.979
 1009SOL     OW 3925   0.369   5.596   4.701
 1009SOL    HW1 3926   0.347   5.546   4.785
 1009SOL    HW2 3927   0.296   5.662   4.681
 1010SOL     OW 3928   3.860   2.395   6.229
 1010SOL    HW1 3929   3.875   2.494   6.224
 1010SOL    HW2 3930   3.773   2.372   6.187
 1011SOL     OW 3931   2.176   4.620   2.391
 1011SOL    HW1 3932   2.104   4.677   2.351
 1011SOL    HW2 3933   2.138   4.565   2.465
 1012SOL     OW 3934   6.675   6.956   2.594
 1012SOL    HW1 3935   6.767   6.938   2.560
 1012SOL    HW2 3936   6.618   6.990   2.519
 1013SOL     OW 3937   1.000   1.215   5.830
 1013SOL    HW1 3938   1.058   1.282   5.785
 1013SOL    HW2 3939   0.908   1.218   5.790
 1014SOL     OW 3940   6.202   5.542   6.060
 1014SOL    HW1 3941   6.211   5.561   5.962
 1014SOL    HW2 3942   6.186   5.444   6.074
 1015SOL     OW 3943   2.545   6.857   5.825
 1015SOL    HW1 3944   2.554   6.762   5.855
 1015SOL    HW2 3945   2.461   6.868   5.772
 1016SOL     OW 3946   4.004   3.202   0.170
 1016SOL    HW1 3947   4.074   3.130   0.164
 1016SOL    HW2 3948   3.915   3.164   0.148
 1017SOL     OW 3949   4.147   3.027   1.216
 1017SOL    HW1 3950   4.155   3.037   1.316
 1017SOL    HW2 3951   4.190   2.941   1.188
 1018SOL     OW 3952   0.248   4.317   4.062
 1018SOL    HW1 3953   0.315   4.267   4.007
 1018SOL    HW2 3954   0.174   4.350   4.004
 1019SOL     OW 3955   6.891   6.746   0.844
 1019SOL    HW1 3956   6.926   6.839   0.846
 1019SOL    HW2 3957   6.801   6.742   0.887
 1020SOL     OW 3958   6.949   0.893   1.240
 1020SOL    HW1 3959   6.866   0.886   1.186
 1020SOL    HW2 3960   6.984   0.801   1.260
 1021SOL     OW 3961   5.413   0.072   1.625
 1021SOL    HW1 3962   5.439   7.000   1.658
 1021SOL    HW2 3963   5.472   0.098   1.549
 1022SOL     OW 3964   3.471   4.473   5.301
 1022SOL    HW1 3965   3.375   4.501   5.295
 1022SOL    HW2 3966   3.528   4.554   5.313
 1023SOL     OW 3967   0.843   0.177   2.650
 1023SOL    HW1 3968   0.748   0.209   2.643
 1023SOL    HW2 3969   0.892   0.199   2.566
 1024SOL     OW 3970   0.900   2.573   4.178
 1024SOL    HW1 3971   0.965   2.608   4.111
 1024SOL    HW2 3972   0.824   2.528   4.131
 1025SOL     OW 3973   3.487   3.638   1.412
 1025SOL    HW1 3974   3.407   3.697   1.422
 1025SOL    HW2 3975   3.532   3.627   1.500
 1026SOL     OW 3976   1.934   2.871   0.978
 1026SOL    HW1 3977   1.981   2.917   1.054
 1026SOL    HW2 3978   1.959   2.774   0.978
 1027SOL     OW 3979   3.255   6.361   1.740
 1027SOL    HW1 3980   3.333   6.415   1.709
 1027SOL    HW2 3981   3.242   6.283   1.679
 1028SOL     OW 3982   2.850   6.185   1.251
 1028SOL    HW1 3983   2.864   6.254   1.321
 1028SOL    HW2 3984   2.845   6.228   1.161
 1029SOL     OW 3985   1.609   6.930   6.767
 1029SOL    HW1 3986   1.562   7.008   6.809
 1029SOL    HW2 3987   1.542   6.873   6.719
 1030SOL     OW 3988   3.098   2.666   1.763
 1030SOL    HW1 3989   3.035   2.603   1.808
 1030SOL    HW2 3990   3.137   2.621   1.682
 1031SOL     OW 3991   5.298   4.170   1.359
 1031SOL    HW1 3992   5.334   4.083   1.393
 1031SOL    HW2 3993   5.310   4.175   1.260
 1032SOL     OW 3994   2.059   2.545   5.448
 1032SOL    HW1 3995   2.098   2.584   5.531
 1032SOL    HW2 3996   2.046   2.619   5.381
 1033SOL     OW 3997   1.477   6.649   1.614
 1033SOL    HW1 3998   1.456   6.617   1.521
 1033SOL    HW2 3999   1.437   6.740   1.627
 1034SOL     OW 4000   0.401   4.668   4.731
 1034SOL    HW1 4001   0.431   4.591   4.787
 1034SOL    HW2 4002   0.382   4.746   4.790
 1035SOL     OW 4003   6.945   0.925   5.029
 1035SOL    HW1 4004   6.906   1.010   4.992
 1035SOL    HW2 4005   0.025   0.929   5.023
 1036SOL     OW 4006   3.839   0.757   1.531
 1036SOL    HW1 4007   3.811   0.731   1.623
 1036SOL    HW2 4008   3.780   0.714   1.464
 1037SOL     OW 4009   1.685   1.250   1.958
 1037SOL    HW1 4010   1.696   1.186   2.035
 1037SOL    HW2 4011   1.590   1.252   1.930
 1038SOL     OW 4012   1.327   0.760   5.198
 1038SOL    HW1 4013   1.236   0.801   5.190
 1038SOL    HW2 4014   1.347   0.706   5.117
 1039SOL     OW 4015   3.727   3.855   4.832
 1039SOL    HW1 4016   3.764   3.918   4.764
 1039SOL    HW2 4017   3.700   3.907   4.914
 1040SOL     OW 4018   4.968   1.286   2.814
 1040SOL    HW1 4019   5.017   1.211   2.859
 1040SOL    HW2 4020   4.881   1.252   2.780
 1041SOL     OW 4021   7.003   6.639   3.866
 1041SOL    HW1 4022   0.005   6.723   3.816
 1041SOL    HW2 4023   0.069   6.602   3.904
 1042SOL     OW 4024   4.338   5.169   2.417
 1042SOL    HW1 4025   4.392   5.201   2.339
 1042SOL    HW2 4026   4.388   5.187   2.502
 1043SOL     OW 4027   3.117   1.982   4.517
 1043SOL    HW1 4028   3.049   2.029   4.574
 1043SOL    HW2 4029   3.209   2.005   4.548
 1044SOL     OW 4030   5.988   5.280   2.948
 1044SOL    HW1 4031   6.083   5.279   2.917
 1044SOL    HW2 4032   5.984   5.314   3.042
 1045SOL     OW 4033   4.195   0.229   2.234
 1045SOL    HW1 4034   4.272   0.225   2.171
 1045SOL    HW2 4035   4.113   0.193   2.189
 1046SOL     OW 4036   1.936   0.579   0.534
 1046SOL    HW1 4037   1.844   0.593   0.571
 1046SOL    HW2 4038   2.001   0.567   0.610
 1047SOL     OW 4039   1.609   1.021   3.609
 1047SOL    HW1 4040   1.637   0.958   3.536
 1047SOL    HW2 4041   1.639   0.986   3.697
 1048SOL     OW 4042   4.090   6.452   3.715
 1048SOL    HW1 4043   4.031   6.381   3.678
 1048SOL    HW2 4044   4.051   6.486   3.801
 1049SOL     OW 4045   6.556   6.288   3.848
 1049SOL    HW1 4046   6.632   6.237   3.888
 1049SOL    HW2 4047   6.522   6.240   3.767
 1050SOL     OW 4048   4.050   4.793   1.507
 1050SOL    HW1 4049   4.104   4.749   1.435
 1050SOL    HW2 4050   4.059   4.893   1.500
 1051SOL     OW 4051   1.628   5.968   0.653
 1051SOL    HW1 4052   1.688   5.993   0.729
 1051SOL    HW2 4053   1.660   6.013   0.570
 1052SOL     OW 4054   3.954   0.621   4.733
 1052SOL    HW1 4055   4.038   0.673   4.748
 1052SOL    HW2 4056   3.972   0.544   4.672
 1053SOL     OW 4057   6.215   5.247   2.796
 1053SOL    HW1 4058   6.187   5.162   2.751
 1053SOL    HW2 4059   6.306   5.274   2.763
 1054SOL     OW 4060   3.291   3.803   6.291
 1054SOL    HW1 4061   3.215   3.843   6.341
 1054SOL    HW2 4062   3.256   3.742   6.220
 1055SOL     OW 4063   3.607   6.469   4.443
 1055SOL    HW1 4064   3.561   6.419   4.369
 1055SOL    HW2 4065   3.550   6.545   4.473
 1056SOL     OW 4066   2.242   4.696   6.493
 1056SOL    HW1 4067   2.297   4.659   6.419
 1056SOL    HW2 4068   2.162   4.638   6.508
 1057SOL     OW 4069   2.833   3.093   1.710
 1057SOL    HW1 4070   2.843   3.156   1.788
 1057SOL    HW2 4071   2.892   3.014   1.725
 1058SOL     OW 4072   5.127   1.635   3.056
 1058SOL    HW1 4073   5.160   1.725   3.085
 1058SOL    HW2 4074   5.058   1.646   2.985
 1059SOL     OW 4075   2.779   0.642   1.655
 1059SOL    HW1 4076   2.815   0.651   1.748
 1059SOL    HW2 4077   2.786   0.730   1.608
 1060SOL     OW 4078   0.102   4.254   4.819
 1060SOL    HW1 4079   0.087   4.287   4.726
 1060SOL    HW2 4080   0.134   4.160   4.816
 1061SOL     OW 4081   6.387   3.034   0.561
 1061SOL    HW1 4082   6.365   3.087   0.643
 1061SOL    HW2 4083   6.360   2.939   0.574
 1062SOL     OW 4084   5.300   4.906   6.114
 1062SOL    HW1 4085   5.368   4.840   6.083
 1062SOL    HW2 4086   5.312   4.992   6.063
 1063SOL     OW 4087   1.149   4.727   1.432
 1063SOL    HW1 4088   1.235   4.740   1.481
 1063SOL    HW2 4089   1.094   4.658   1.478
 1064SOL     OW 4090   1.541   4.152   2.352
 1064SOL    HW1 4091   1.601   4.095   2.409
 1064SOL    HW2 4092   1.522   4.104   2.266
 1065SOL     OW 4093   3.836   0.362   3.428
 1065SOL    HW1 4094   3.863   0.393   3.519
 1065SOL    HW2 4095   3.833   0.262   3.426
 1066SOL     OW 4096   4.976   6.769   3.511
 1066SOL    HW1 4097   4.996   6.678   3.548
 1066SOL    HW2 4098   4.956   6.762   3.413
 1067SOL     OW 4099   0.253   3.517   0.873
 1067SOL    HW1 4100   0.272   3.482   0.965
 1067SOL    HW2 4101   0.337   3.555   0.834
 1068SOL     OW 4102   5.955   5.434   3.177
 1068SOL    HW1 4103   5.926   5.529   3.170
 1068SOL    HW2 4104   5.951   5.404   3.272
 1069SOL     OW 4105   4.228   5.240   1.227
 1069SOL    HW1 4106   4.283   5.174   1.278
 1069SOL    HW2 4107   4.210   5.205   1.135
 1070SOL     OW 4108   6.950   6.929   2.494
 1070SOL    HW1 4109   6.969   6.893   2.586
 1070SOL    HW2 4110   7.015   7.001   2.472
 1071SOL     OW 4111   1.120   0.104   4.104
 1071SOL    HW1 4112   1.090   0.072   4.014
 1071SOL    HW2 4113   1.207   0.151   4.096
 1072SOL     OW 4114   1.524   0.803   0.826
 1072SOL    HW1 4115   1.453   0.735   0.842
 1072SOL    HW2 4116   1.494   0.891   0.864
 1073SOL     OW 4117   5.512   6.730   2.406
 1073SOL    HW1 4118   5.562   6.781   2.336
 1073SOL    HW2 4119   5.472   6.648   2.364
 1074SOL     OW 4120   2.144   5.322   1.602
 1074SOL    HW1 4121   2.229   5.369   1.577
 1074SOL    HW2 4122   2.102   5.284   1.519
 1075SOL     OW 4123   5.028   0.188   3.967
 1075SOL    HW1 4124   4.970   0.153   4.041
 1075SOL    HW2 4125   5.010   0.137   3.883
 1076SOL     OW 4126   6.932   2.231   5.462
 1076SOL    HW1 4127   6.944   2.134   5.484
 1076SOL    HW2 4128   6.837   2.249   5.438
 1077SOL     OW 4129   5.513   0.581   1.429
 1077SOL    HW1 4130   5.544   0.547   1.517
 1077SOL    HW2 4131   5.559   0.531   1.355
 1078SOL     OW 4132   1.302   1.122   2.567
 1078SOL    HW1 4133   1.390   1.102   2.610
 1078SOL    HW2 4134   1.230   1.069   2.611
 1079SOL     OW 4135   2.086   6.645   2.010
 1079SOL    HW1 4136   2.114   6.715   1.944
 1079SOL    HW2 4137   1.994   6.667   2.044
 1080SOL     OW 4138   1.881   4.504   3.373
 1080SOL    HW1 4139   1.908   4.438   3.444
 1080SOL    HW2 4140   1.929   4.590   3.388
 1081SOL     OW 4141   0.503   5.666   5.651
 1081SOL    HW1 4142   0.557   5.594   5.695
 1081SOL    HW2 4143   0.407   5.636   5.645
 1082SOL     OW 4144   4.226   2.067   5.257
 1082SOL    HW1 4145   4.172   2.046   5.175
 1082SOL    HW2 4146   4.265   1.983   5.294
 1083SOL     OW 4147   3.973   3.728   0.380
 1083SOL    HW1 4148   3.907   3.741   0.305
 1083SOL    HW2 4149   4.050   3.790   0.367
 1084SOL     OW 4150   5.919   6.250   6.947
 1084SOL    HW1 4151   5.959   6.237   0.019
 1084SOL    HW2 4152   5.860   6.172   6.926
 1085SOL     OW 4153   1.622   3.685   4.126
 1085SOL    HW1 4154   1.543   3.736   4.161
 1085SOL    HW2 4155   1.591   3.598   4.086
 1086SOL     OW 4156   0.006   5.988   0.531
 1086SOL    HW1 4157   0.007   5.936   0.445
 1086SOL    HW2 4158   6.940   6.040   0.537
 1087SOL     OW 4159   5.665   1.709   4.777
 1087SOL    HW1 4160   5.640   1.805   4.760
 1087SOL    HW2 4161   5.748   1.706   4.832
 1088SOL     OW 4162   0.283   4.430   3.292
 1088SOL    HW1 4163   0.267   4.442   3.390
 1088SOL    HW2 4164   0.241   4.345   3.261
 1089SOL     OW 4165   0.951   6.437   4.341
 1089SOL    HW1 4166   1.021   6.391   4.396
 1089SOL    HW2 4167   0.862   6.394   4.356
 1090SOL     OW 4168   2.719   2.408   3.641
 1090SOL    HW1 4169   2.790   2.368   3.699
 1090SOL    HW2 4170   2.745   2.400   3.545
 1091SOL     OW 4171   3.200   2.042   4.844
 1091SOL    HW1 4172   3.171   1.963   4.899
 1091SOL    HW2 4173   3.176   2.126   4.892
 1092SOL     OW 4174   1.767   3.533   1.184
 1092SOL    HW1 4175   1.687   3.593   1.175
 1092SOL    HW2 4176   1.820   3.535   1.099
 1093SOL     OW 4177   2.270   1.370   2.021
 1093SOL    HW1 4178   2.193   1.320   2.061
 1093SOL    HW2 4179   2.355   1.331   2.053
 1094SOL     OW 4180   0.111   6.768   3.407
 1094SOL    HW1 4181   0.151   6.697   3.464
 1094SOL    HW2 4182   0.041   6.728   3.348
 1095SOL     OW 4183   1.172   2.925   6.375
 1095SOL    HW1 4184   1.253   2.916   6.318
 1095SOL    HW2 4185   1.114   2.845   6.364
 1096SOL     OW 4186   3.458   4.221   1.734
 1096SOL    HW1 4187   3.528   4.164   1.779
 1096SOL    HW2 4188   3.396   4.258   1.803
 1097SOL     OW 4189   2.244   4.559   4.387
 1097SOL    HW1 4190   2.343   4.554   4.404
 1097SOL    HW2 4191   2.195   4.559   4.474
 1098SOL     OW 4192   4.157   3.450   0.211
 1098SOL    HW1 4193   4.099   3.530   0.199
 1098SOL    HW2 4194   4.111   3.369   0.175
 1099SOL     OW 4195   4.095   1.275   5.363
 1099SOL    HW1 4196   4.141   1.359   5.334
 1099SOL    HW2 4197   4.100   1.266   5.462
 1100SOL     OW 4198   3.048   1.732   4.689
 1100SOL    HW1 4199   2.985   1.696   4.619
 1100SOL    HW2 4200   3.139   1.743   4.649
 1101SOL     OW 4201   5.969   2.597   6.606
 1101SOL    HW1 4202   5.985   2.551   6.519
 1101SOL    HW2 4203   6.054   2.643   6.635
 1102SOL     OW 4204   0.448   6.612   4.946
 1102SOL    HW1 4205   0.537   6.596   4.987
 1102SOL    HW2 4206   0.445   6.570   4.855
 1103SOL     OW 4207   3.974   1.505   0.333
 1103SOL    HW1 4208   3.954   1.564   0.411
 1103SOL    HW2 4209   3.908   1.523   0.260
 1104SOL     OW 4210   2.014   2.858   5.695
 1104SOL    HW1 4211   2.108   2.824   5.691
 1104SOL    HW2 4212   1.996   2.895   5.786
 1105SOL     OW 4213   6.705   3.629   5.090
 1105SOL    HW1 4214   6.697   3.536   5.052
 1105SOL    HW2 4215   6.634   3.687   5.051
 1106SOL     OW 4216   0.143   2.536   2.076
 1106SOL    HW1 4217   0.178   2.611   2.132
 1106SOL    HW2 4218   0.201   2.524   1.995
 1107SOL     OW 4219   0.524   0.776   6.877
 1107SOL    HW1 4220   0.519   0.700   6.812
 1107SOL    HW2 4221   0.554   0.741   6.966
 1108SOL     OW 4222   3.688   0.044   5.444
 1108SOL    HW1 4223   3.666   0.107   5.370
 1108SOL    HW2 4224   3.651   0.079   5.530
 1109SOL     OW 4225   4.855   1.299   4.482
 1109SOL    HW1 4226   4.925   1.353   4.434
 1109SOL    HW2 4227   4.880   1.202   4.479
 1110SOL     OW 4228   3.152   1.642   3.087
 1110SOL    HW1 4229   3.222   1.594   3.034
 1110SOL    HW2 4230   3.197   1.702   3.154
 1111SOL     OW 4231   4.521   5.237   6.208
 1111SOL    HW1 4232   4.448   5.230   6.140
 1111SOL    HW2 4233   4.610   5.235   6.162
 1112SOL     OW 4234   4.985   1.547   2.113
 1112SOL    HW1 4235   4.981   1.600   2.028
 1112SOL    HW2 4236   5.065   1.575   2.166
 1113SOL     OW 4237   5.996   4.015   2.222
 1113SOL    HW1 4238   5.942   4.009   2.306
 1113SOL    HW2 4239   6.050   4.100   2.222
 1114SOL     OW 4240   3.736   1.876   6.313
 1114SOL    HW1 4241   3.713   1.781   6.332
 1114SOL    HW2 4242   3.654   1.925   6.283
 1115SOL     OW 4243   4.447   3.057   6.118
 1115SOL    HW1 4244   4.359   3.092   6.086
 1115SOL    HW2 4245   4.503   3.029   6.039
 1116SOL     OW 4246   5.056   0.072   5.647
 1116SOL    HW1 4247   5.071   7.003   5.603
 1116SOL    HW2 4248   4.966   0.107   5.620
 1117SOL     OW 4249   2.670   1.977   2.585
 1117SOL    HW1 4250   2.610   1.914   2.634
 1117SOL    HW2 4251   2.617   2.054   2.551
 1118SOL     OW 4252   2.535   4.524   0.557
 1118SOL    HW1 4253   2.621   4.477   0.534
 1118SOL    HW2 4254   2.462   4.492   0.496
 1119SOL     OW 4255   4.257   4.710   1.351
 1119SOL    HW1 4256   4.273   4.771   1.273
 1119SOL    HW2 4257   4.211   4.627   1.319
 1120SOL     OW 4258   6.125   6.726   6.749
 1120SOL    HW1 4259   6.213   6.775   6.746
 1120SOL    HW2 4260   6.067   6.767   6.819
 1121SOL     OW 4261   5.613   5.063   3.991
 1121SOL    HW1 4262   5.564   5.004   3.926
 1121SOL    HW2 4263   5.692   5.013   4.027
 1122SOL     OW 4264   5.828   2.776   0.623
 1122SOL    HW1 4265   5.823   2.681   0.655
 1122SOL    HW2 4266   5.857   2.835   0.699
 1123SOL     OW 4267   5.216   1.430   2.808
 1123SOL    HW1 4268   5.241   1.342   2.769
 1123SOL    HW2 4269   5.135   1.419   2.866
 1124SOL     OW 4270   0.629   3.414   4.747
 1124SOL    HW1 4271   0.531   3.410   4.763
 1124SOL    HW2 4272   0.652   3.358   4.667
 1125SOL     OW 4273   2.915   2.271   4.033
 1125SOL    HW1 4274   2.945   2.195   4.091
 1125SOL    HW2 4275   2.835   2.314   4.074
 1126SOL     OW 4276   5.986   4.924   7.017
 1126SOL    HW1 4277   5.978   4.885   0.090
 1126SOL    HW2 4278   5.911   4.988   7.001
 1127SOL     OW 4279   5.046   5.547   4.828
 1127SOL    HW1 4280   4.953   5.515   4.842
 1127SOL    HW2 4281   5.106   5.507   4.898
 1128SOL     OW 4282   5.611   1.885   5.161
 1128SOL    HW1 4283   5.672   1.928   5.094
 1128SOL    HW2 4284   5.516   1.897   5.132
 1129SOL     OW 4285   1.539   0.256   0.273
 1129SOL    HW1 4286   1.636   0.253   0.250
 1129SOL    HW2 4287   1.516   0.178   0.330
 1130SOL     OW 4288   2.927   4.730   0.889
 1130SOL    HW1 4289   2.830   4.728   0.863
 1130SOL    HW2 4290   2.934   4.741   0.988
 1131SOL     OW 4291   1.036   5.492   5.179
 1131SOL    HW1 4292   0.954   5.454   5.136
 1131SOL    HW2 4293   1.036   5.471   5.277
 1132SOL     OW 4294   5.158   0.093   2.480
 1132SOL    HW1 4295   5.214   0.114   2.561
 1132SOL    HW2 4296   5.189   0.007   2.440
 1133SOL     OW 4297   1.461   0.446   1.066
 1133SOL    HW1 4298   1.531   0.378   1.088
 1133SOL    HW2 4299   1.459   0.515   1.138
 1134SOL     OW 4300   5.121   0.632   1.914
 1134SOL    HW1 4301   5.182   0.702   1.953
 1134SOL    HW2 4302   5.040   0.677   1.875
 1135SOL     OW 4303   2.931   0.177   2.686
 1135SOL    HW1 4304   2.872   0.207   2.611
 1135SOL    HW2 4305   2.906   0.228   2.769
 1136SOL     OW 4306   4.204   4.763   2.967
 1136SOL    HW1 4307   4.124   4.713   3.002
 1136SOL    HW2 4308   4.284   4.702   2.967
 1137SOL     OW 4309   0.983   0.649   6.835
 1137SOL    HW1 4310   0.896   0.604   6.853
 1137SOL    HW2 4311   0.993   0.728   6.896
 1138SOL     OW 4312   0.030   0.491   5.995
 1138SOL    HW1 4313   7.008   0.579   6.021
 1138SOL    HW2 4314   0.038   0.486   5.896
 1139SOL     OW 4315   3.046   4.874   2.121
 1139SOL    HW1 4316   3.001   4.794   2.160
 1139SOL    HW2 4317   3.119   4.846   2.060
 1140SOL     OW 4318   3.673   1.332   1.216
 1140SOL    HW1 4319   3.749   1.272   1.239
 1140SOL    HW2 4320   3.611   1.339   1.295
 1141SOL     OW 4321   6.948   6.376   6.378
 1141SOL    HW1 4322   6.872   6.344   6.321
 1141SOL    HW2 4323   6.928   6.356   6.474
 1142SOL     OW 4324   3.039   6.868   4.609
 1142SOL    HW1 4325   3.121   6.878   4.552
 1142SOL    HW2 4326   2.998   6.958   4.624
 1143SOL     OW 4327   1.880   3.280   3.339
 1143SOL    HW1 4328   1.813   3.247   3.405
 1143SOL    HW2 4329   1.838   3.348   3.279
 1144SOL     OW 4330   6.423   4.745   4.410
 1144SOL    HW1 4331   6.479   4.792   4.479
 1144SOL    HW2 4332   6.426   4.796   4.324
 1145SOL     OW 4333   6.571   3.449   2.452
 1145SOL    HW1 4334   6.537   3.365   2.409
 1145SOL    HW2 4335   6.498   3.491   2.506
 1146SOL     OW 4336   0.083   0.129   2.460
 1146SOL    HW1 4337   0.183   0.122   2.461
 1146SOL    HW2 4338   0.050   0.124   2.366
 1147SOL     OW 4339   2.493   5.013   1.608
 1147SOL    HW1 4340   2.496   5.112   1.596
 1147SOL    HW2 4341   2.477   4.992   1.704
 1148SOL     OW 4342   5.233   6.209   0.574
 1148SOL    HW1 4343   5.199   6.132   0.628
 1148SOL    HW2 4344   5.197   6.294   0.611
 1149SOL     OW 4345   6.754   3.831   2.934
 1149SOL    HW1 4346   6.731   3.927   2.947
 1149SOL    HW2 4347   6.702   3.774   2.998
 1150SOL     OW 4348   2.199   3.888   0.442
 1150SOL    HW1 4349   2.191   3.986   0.427
 1150SOL    HW2 4350   2.233   3.870   0.534
 1151SOL     OW 4351   4.976   4.433   0.015
 1151SOL    HW1 4352   4.946   4.350   0.061
 1151SOL    HW2 4353   5.058   4.414   6.981
 1152SOL     OW 4354   5.663   4.788   6.429
 1152SOL    HW1 4355   5.658   4.688   6.429
 1152SOL    HW2 4356   5.721   4.818   6.505
 1153SOL     OW 4357   1.539   0.605   1.542
 1153SOL    HW1 4358   1.600   0.648   1.608
 1153SOL    HW2 4359   1.446   0.603   1.579
 1154SOL     OW 4360   6.769   4.527   0.902
 1154SOL    HW1 4361   6.678   4.555   0.872
 1154SOL    HW2 4362   6.765   4.500   0.998
 1155SOL     OW 4363   2.853   5.265   6.184
 1155SOL    HW1 4364   2.822   5.351   6.225
 1155SOL    HW2 4365   2.906   5.285   6.102
 1156SOL     OW 4366   4.226   1.607   4.798
 1156SOL    HW1 4367   4.251   1.684   4.856
 1156SOL    HW2 4368   4.244   1.521   4.846
 1157SOL     OW 4369   5.787   1.882   5.863
 1157SOL    HW1 4370   5.830   1.961   5.908
 1157SOL    HW2 4371   5.688   1.897   5.858
 1158SOL     OW 4372   0.341   4.944   5.238
 1158SOL    HW1 4373   0.274   4.871   5.250
 1158SOL    HW2 4374   0.385   4.935   5.149
 1159SOL     OW 4375   6.593   6.925   3.907
 1159SOL    HW1 4376   6.685   6.952   3.932
 1159SOL    HW2 4377   6.574   6.832   3.941
 1160SOL     OW 4378   5.237   4.473   0.730
 1160SOL    HW1 4379   5.327   4.488   0.771
 1160SOL    HW2 4380   5.246   4.468   0.631
 1161SOL     OW 4381   6.197   7.012   5.935
 1161SOL    HW1 4382   6.190   6.932   5.875
 1161SOL    HW2 4383   6.121   7.011   6.000
 1162SOL     OW 4384   3.204   2.327   6.810
 1162SOL    HW1 4385   3.246   2.327   6.720
 1162SOL    HW2 4386   3.182   2.420   6.837
 1163SOL     OW 4387   6.927   3.582   1.794
 1163SOL    HW1 4388   6.934   3.619   1.887
 1163SOL    HW2 4389   6.942   3.655   1.728
 1164SOL     OW 4390   6.552   3.276   4.667
 1164SOL    HW1 4391   6.465   3.301   4.710
 1164SOL    HW2 4392   6.579   3.185   4.697
 1165SOL     OW 4393   3.052   4.939   3.682
 1165SOL    HW1 4394   3.072   4.917   3.778
 1165SOL    HW2 4395   3.088   5.031   3.662
 1166SOL     OW 4396   3.938   6.799   6.961
 1166SOL    HW1 4397   3.880   6.850   0.006
 1166SOL    HW2 4398   3.950   6.852   6.878
 1167SOL     OW 4399   4.443   6.572   6.900
 1167SOL    HW1 4400   4.430   6.505   6.972
 1167SOL    HW2 4401   4.414   6.533   6.812
 1168SOL     OW 4402   4.880   2.298   3.180
 1168SOL    HW1 4403   4.790   2.316   3.142
 1168SOL    HW2 4404   4.922   2.221   3.132
 1169SOL     OW 4405   4.837   2.071   6.259
 1169SOL    HW1 4406   4.809   2.139   6.192
 1169SOL    HW2 4407   4.830   1.979   6.219
 1170SOL     OW 4408   5.057   0.831   3.183
 1170SOL    HW1 4409   5.043   0.735   3.207
 1170SOL    HW2 4410   5.148   0.860   3.212
 1171SOL     OW 4411   2.388   5.844   6.775
 1171SOL    HW1 4412   2.433   5.820   6.861
 1171SOL    HW2 4413   2.291   5.822   6.780
 1172SOL     OW 4414   2.933   4.202   1.664
 1172SOL    HW1 4415   2.921   4.238   1.572
 1172SOL    HW2 4416   2.953   4.278   1.727
 1173SOL     OW 4417   2.737   0.460   6.662
 1173SOL    HW1 4418   2.642   0.431   6.676
 1173SOL    HW2 4419   2.738   0.556   6.634
 1174SOL     OW 4420   2.962   4.450   1.145
 1174SOL    HW1 4421   2.918   4.424   1.231
 1174SOL    HW2 4422   2.939   4.382   1.075
 1175SOL     OW 4423   3.868   3.865   6.565
 1175SOL    HW1 4424   3.940   3.816   6.515
 1175SOL    HW2 4425   3.900   3.958   6.585
 1176SOL     OW 4426   5.978   4.685   6.837
 1176SOL    HW1 4427   5.971   4.770   6.888
 1176SOL    HW2 4428   5.942   4.609   6.892
 1177SOL     OW 4429   0.137   2.712   4.328
 1177SOL    HW1 4430   0.068   2.717   4.256
 1177SOL    HW2 4431   0.228   2.728   4.289
 1178SOL     OW 4432   2.852   3.922   0.811
 1178SOL    HW1 4433   2.842   3.837   0.863
 1178SOL    HW2 4434   2.946   3.955   0.819
 1179SOL     OW 4435   3.204   5.878   0.905
 1179SOL    HW1 4436   3.126   5.856   0.964
 1179SOL    HW2 4437   3.242   5.794   0.867
 1180SOL     OW 4438   2.583   6.122   4.557
 1180SOL    HW1 4439   2.569   6.207   4.507
 1180SOL    HW2 4440   2.677   6.120   4.592
 1181SOL     OW 4441   0.021   3.647   5.967
 1181SOL    HW1 4442   0.005   3.587   5.889
 1181SOL    HW2 4443   6.973   3.721   5.968
 1182SOL     OW 4444   3.295   4.853   2.896
 1182SOL    HW1 4445   3.318   4.801   2.813
 1182SOL    HW2 4446   3.373   4.854   2.958
 1183SOL     OW 4447   3.214   5.110   1.308
 1183SOL    HW1 4448   3.124   5.119   1.352
 1183SOL    HW2 4449   3.224   5.179   1.237
 1184SOL     OW 4450   6.194   0.293   5.974
 1184SOL    HW1 4451   6.189   0.196   5.951
 1184SOL    HW2 4452   6.185   0.347   5.891
 1185SOL     OW 4453   0.758   0.802   0.638
 1185SOL    HW1 4454   0.841   0.854   0.617
 1185SOL    HW2 4455   0.782   0.705   0.648
 1186SOL     OW 4456   5.492   6.399   5.127
 1186SOL    HW1 4457   5.504   6.378   5.224
 1186SOL    HW2 4458   5.516   6.318   5.073
 1187SOL     OW 4459   5.416   6.734   5.310
 1187SOL    HW1 4460   5.413   6.693   5.402
 1187SOL    HW2 4461   5.511   6.740   5.280
 1188SOL     OW 4462   2.950   5.828   6.298
 1188SOL    HW1 4463   2.934   5.770   6.218
 1188SOL    HW2 4464   2.980   5.771   6.375
 1189SOL     OW 4465   6.099   1.079   1.252
 1189SOL    HW1 4466   6.163   1.004   1.270
 1189SOL    HW2 4467   6.075   1.123   1.338
 1190SOL     OW 4468   2.698   5.639   2.940
 1190SOL    HW1 4469   2.736   5.562   2.890
 1190SOL    HW2 4470   2.649   5.605   3.021
 1191SOL     OW 4471   2.940   6.216   4.023
 1191SOL    HW1 4472   2.956   6.190   4.118
 1191SOL    HW2 4473   3.017   6.185   3.966
 1192SOL     OW 4474   5.597   6.035   3.429
 1192SOL    HW1 4475   5.673   5.984   3.468
 1192SOL    HW2 4476   5.525   6.046   3.498
 1193SOL     OW 4477   0.074   0.981   5.409
 1193SOL    HW1 4478   0.078   0.900   5.351
 1193SOL    HW2 4479   0.077   1.063   5.352
 1194SOL     OW 4480   6.648   1.704   1.683
 1194SOL    HW1 4481   6.693   1.662   1.604
 1194SOL    HW2 4482   6.717   1.736   1.748
 1195SOL     OW 4483   0.462   3.412   0.255
 1195SOL    HW1 4484   0.366   3.384   0.260
 1195SOL    HW2 4485   0.487   3.458   0.341
 1196SOL     OW 4486   6.849   4.347   3.115
 1196SOL    HW1 4487   6.765   4.392   3.083
 1196SOL    HW2 4488   6.922   4.415   3.120
 1197SOL     OW 4489   4.496   5.861   4.183
 1197SOL    HW1 4490   4.459   5.773   4.153
 1197SOL    HW2 4491   4.554   5.900   4.111
 1198SOL     OW 4492   1.417   3.651   1.918
 1198SOL    HW1 4493   1.470   3.736   1.910
 1198SOL    HW2 4494   1.357   3.643   1.839
 1199SOL     OW 4495   3.054   4.018   2.873
 1199SOL    HW1 4496   3.125   4.019   2.802
 1199SOL    HW2 4497   2.968   4.051   2.835
 1200SOL     OW 4498   3.683   4.170   4.088
 1200SOL    HW1 4499   3.671   4.217   4.001
 1200SOL    HW2 4500   3.596   4.165   4.136
 1201SOL     OW 4501   6.793   1.114   4.921
 1201SOL    HW1 4502   6.735   1.178   4.971
 1201SOL    HW2 4503   6.870   1.163   4.880
 1202SOL     OW 4504   0.636   5.856   5.315
 1202SOL    HW1 4505   0.696   5.936   5.310
 1202SOL    HW2 4506   0.690   5.776   5.342
 1203SOL     OW 4507   0.574   6.066   0.033
 1203SOL    HW1 4508   0.654   6.101   7.003
 1203SOL    HW2 4509   0.588   6.079   0.131
 1204SOL     OW 4510   4.846   1.502   1.259
 1204SOL    HW1 4511   4.812   1.589   1.224
 1204SOL    HW2 4512   4.906   1.460   1.192
 1205SOL     OW 4513   3.235   3.352   0.250
 1205SOL    HW1 4514   3.182   3.431   0.281
 1205SOL    HW2 4515   3.332   3.377   0.245
 1206SOL     OW 4516   1.246   3.145   5.041
 1206SOL    HW1 4517   1.275   3.078   4.973
 1206SOL    HW2 4518   1.326   3.181   5.090
 1207SOL     OW 4519   0.448   0.152   0.937
 1207SOL    HW1 4520   0.403   0.145   0.848
 1207SOL    HW2 4521   0.514   0.078   0.946
 1208SOL     OW 4522   2.942   3.383   1.537
 1208SOL    HW1 4523   2.913   3.330   1.616
 1208SOL    HW2 4524   2.923   3.332   1.453
 1209SOL     OW 4525   5.249   0.693   4.267
 1209SOL    HW1 4526   5.181   0.765   4.283
 1209SOL    HW2 4527   5.244   0.662   4.172
 1210SOL     OW 4528   3.791   6.538   3.556
 1210SOL    HW1 4529   3.890   6.552   3.559
 1210SOL    HW2 4530   3.752   6.594   3.483
 1211SOL     OW 4531   1.037   2.937   3.272
 1211SOL    HW1 4532   1.037   2.845   3.311
 1211SOL    HW2 4533   1.128   2.978   3.283
 1212SOL     OW 4534   6.766   7.011   5.906
 1212SOL    HW1 4535   6.707   6.936   5.876
 1212SOL    HW2 4536   6.710   0.065   5.946
 1213SOL     OW 4537   6.336   2.705   1.980
 1213SOL    HW1 4538   6.355   2.786   2.035
 1213SOL    HW2 4539   6.293   2.733   1.894
 1214SOL     OW 4540   0.966   2.557   6.944
 1214SOL    HW1 4541   0.980   2.623   7.018
 1214SOL    HW2 4542   0.868   2.546   6.927
 1215SOL     OW 4543   1.039   4.643   3.378
 1215SOL    HW1 4544   1.122   4.636   3.321
 1215SOL    HW2 4545   0.987   4.723   3.350
 1216SOL     OW 4546   5.406   1.492   0.067
 1216SOL    HW1 4547   5.442   1.415   0.120
 1216SOL    HW2 4548   5.407   1.574   0.123
 1217SOL     OW 4549   2.742   4.720   0.448
 1217SOL    HW1 4550   2.788   4.658   0.512
 1217SOL    HW2 4551   2.732   4.675   0.359
 1218SOL     OW 4552   1.927   2.990   5.235
 1218SOL    HW1 4553   1.992   3.056   5.198
 1218SOL    HW2 4554   1.869   2.955   5.161
 1219SOL     OW 4555   5.929   5.721   1.838
 1219SOL    HW1 4556   6.018   5.766   1.827
 1219SOL    HW2 4557   5.907   5.716   1.935
 1220SOL     OW 4558   0.450   4.430   2.350
 1220SOL    HW1 4559   0.385   4.498   2.383
 1220SOL    HW2 4560   0.503   4.395   2.427
 1221SOL     OW 4561   4.877   3.134   6.458
 1221SOL    HW1 4562   4.864   3.166   6.364
 1221SOL    HW2 4563   4.827   3.048   6.470
 1222SOL     OW 4564   6.667   1.138   6.238
 1222SOL    HW1 4565   6.577   1.108   6.268
 1222SOL    HW2 4566   6.683   1.233   6.266
 1223SOL     OW 4567   3.998   1.236   0.198
 1223SOL    HW1 4568   3.920   1.176   0.216
 1223SOL    HW2 4569   3.984   1.323   0.246
 1224SOL     OW 4570   3.080   6.320   6.944
 1224SOL    HW1 4571   3.124   6.274   6.868
 1224SOL    HW2 4572   2.985   6.289   6.953
 1225SOL     OW 4573   3.233   2.755   6.610
 1225SOL    HW1 4574   3.271   2.750   6.518
 1225SOL    HW2 4575   3.223   2.851   6.637
 1226SOL     OW 4576   3.232   6.652   1.157
 1226SOL    HW1 4577   3.212   6.744   1.191
 1226SOL    HW2 4578   3.168   6.629   1.083
 1227SOL     OW 4579   4.988   4.795   6.040
 1227SOL    HW1 4580   4.990   4.751   5.951
 1227SOL    HW2 4581   5.078   4.835   6.060
 1228SOL     OW 4582   2.658   1.871   6.182
 1228SOL    HW1 4583   2.708   1.886   6.267
 1228SOL    HW2 4584   2.699   1.927   6.109
 1229SOL     OW 4585   3.252   5.208   0.111
 1229SOL    HW1 4586   3.312   5.164   0.178
 1229SOL    HW2 4587   3.206   5.138   0.056
 1230SOL     OW 4588   5.611   6.447   1.861
 1230SOL    HW1 4589   5.533   6.387   1.845
 1230SOL    HW2 4590   5.578   6.541   1.875
 1231SOL     OW 4591   1.907   2.176   5.694
 1231SOL    HW1 4592   1.858   2.096   5.728
 1231SOL    HW2 4593   1.841   2.243   5.658
 1232SOL     OW 4594   6.751   1.863   5.105
 1232SOL    HW1 4595   6.787   1.779   5.064
 1232SOL    HW2 4596   6.777   1.867   5.202
 1233SOL     OW 4597   0.944   5.587   4.865
 1233SOL    HW1 4598   0.959   5.655   4.938
 1233SOL    HW2 4599   0.856   5.604   4.822
 1234SOL     OW 4600   5.666   3.066   5.447
 1234SOL    HW1 4601   5.604   3.072   5.369
 1234SOL    HW2 4602   5.726   2.987   5.436
 1235SOL     OW 4603   5.864   5.777   2.383
 1235SOL    HW1 4604   5.914   5.860   2.406
 1235SOL    HW2 4605   5.929   5.701   2.372
 1236SOL     OW 4606   4.376   0.416   0.780
 1236SOL    HW1 4607   4.408   0.502   0.740
 1236SOL    HW2 4608   4.326   0.363   0.711
 1237SOL     OW 4609   1.964   4.485   6.011
 1237SOL    HW1 4610   1.872   4.472   5.975
 1237SOL    HW2 4611   2.018   4.401   5.998
 1238SOL     OW 4612   1.186   0.789   6.522
 1238SOL    HW1 4613   1.138   0.876   6.512
 1238SOL    HW2 4614   1.272   0.792   6.471
 1239SOL     OW 4615   6.598   6.643   6.785
 1239SOL    HW1 4616   6.691   6.670   6.764
 1239SOL    HW2 4617   6.573   6.563   6.730
 1240SOL     OW 4618   5.429   6.264   0.973
 1240SOL    HW1 4619   5.360   6.301   0.910
 1240SOL    HW2 4620   5.395   6.271   1.067
 1241SOL     OW 4621   5.514   4.684   4.881
 1241SOL    HW1 4622   5.517   4.767   4.936
 1241SOL    HW2 4623   5.586   4.622   4.912
 1242SOL     OW 4624   1.157   3.821   1.348
 1242SOL    HW1 4625   1.222   3.760   1.303
 1242SOL    HW2 4626   1.205   3.897   1.390
 1243SOL     OW 4627   0.561   0.619   5.113
 1243SOL    HW1 4628   0.649   0.574   5.099
 1243SOL    HW2 4629   0.510   0.620   5.027
 1244SOL     OW 4630   5.713   6.366   4.009
 1244SOL    HW1 4631   5.709   6.437   3.938
 1244SOL    HW2 4632   5.671   6.282   3.975
 1245SOL     OW 4633   6.282   4.272   0.519
 1245SOL    HW1 4634   6.250   4.223   0.438
 1245SOL    HW2 4635   6.353   4.218   0.565
 1246SOL     OW 4636   2.741   0.942   1.206
 1246SOL    HW1 4637   2.685   0.983   1.278
 1246SOL    HW2 4638   2.688   0.939   1.121
 1247SOL     OW 4639   0.183   6.449   6.063
 1247SOL    HW1 4640   0.213   6.532   6.016
 1247SOL    HW2 4641   0.198   6.370   6.003
 1248SOL     OW 4642   2.110   0.193   4.536
 1248SOL    HW1 4643   2.020   0.206   4.577
 1248SOL    HW2 4644   2.175   0.166   4.607
 1249SOL     OW 4645   6.721   1.792   2.440
 1249SOL    HW1 4646   6.739   1.845   2.523
 1249SOL    HW2 4647   6.696   1.853   2.366
 1250SOL     OW 4648   5.556   5.488   3.436
 1250SOL    HW1 4649   5.592   5.401   3.402
 1250SOL    HW2 4650   5.473   5.471   3.488
 1251SOL     OW 4651   2.995   0.762   3.261
 1251SOL    HW1 4652   2.923   0.719   3.315
 1251SOL    HW2 4653   3.066   0.695   3.239
 1252SOL     OW 4654   4.768   3.962   6.415
 1252SOL    HW1 4655   4.742   3.916   6.330
 1252SOL    HW2 4656   4.692   4.018   6.447
 1253SOL     OW 4657   3.038   6.333   2.144
 1253SOL    HW1 4658   3.121   6.347   2.198
 1253SOL    HW2 4659   3.054   6.363   2.050
 1254SOL     OW 4660   0.909   3.388   2.963
 1254SOL    HW1 4661   0.935   3.300   3.002
 1254SOL    HW2 4662   0.991   3.442   2.944
 1255SOL     OW 4663   6.088   1.666   6.673
 1255SOL    HW1 4664   5.999   1.628   6.698
 1255SOL    HW2 4665   6.155   1.646   6.746
 1256SOL     OW 4666   6.516   6.369   3.059
 1256SOL    HW1 4667   6.484   6.437   2.993
 1256SOL    HW2 4668   6.457   6.369   3.139
 1257SOL     OW 4669   6.487   5.552   4.913
 1257SOL    HW1 4670   6.430   5.609   4.973
 1257SOL    HW2 4671   6.579   5.589   4.910
 1258SOL     OW 4672   1.557   4.923   3.102
 1258SOL    HW1 4673   1.582   5.004   3.155
 1258SOL    HW2 4674   1.500   4.950   3.024
 1259SOL     OW 4675   3.248   0.404   4.429
 1259SOL    HW1 4676   3.302   0.453   4.498
 1259SOL    HW2 4677   3.282   0.425   4.338
 1260SOL     OW 4678   2.682   2.718   6.965
 1260SOL    HW1 4679   2.633   2.658   0.010
 1260SOL    HW2 4680   2.625   2.798   6.944
 1261SOL     OW 4681   0.319   5.677   6.810
 1261SOL    HW1 4682   0.301   5.625   6.727
 1261SOL    HW2 4683   0.418   5.690   6.821
 1262SOL     OW 4684   5.861   4.063   1.537
 1262SOL    HW1 4685   5.919   4.131   1.491
 1262SOL    HW2 4686   5.850   4.087   1.633
 1263SOL     OW 4687   0.040   2.335   1.467
 1263SOL    HW1 4688   0.093   2.411   1.430
 1263SOL    HW2 4689   0.044   2.338   1.567
 1264SOL     OW 4690   6.859   4.065   1.708
 1264SOL    HW1 4691   6.900   3.974   1.703
 1264SOL    HW2 4692   6.783   4.071   1.643
 1265SOL     OW 4693   4.690   5.443   3.903
 1265SOL    HW1 4694   4.733   5.436   3.814
 1265SOL    HW2 4695   4.594   5.416   3.896
 1266SOL     OW 4696   0.154   1.563   4.143
 1266SOL    HW1 4697   0.248   1.529   4.137
 1266SOL    HW2 4698   0.154   1.654   4.184
 1267SOL     OW 4699   4.679   6.610   1.283
 1267SOL    HW1 4700   4.580   6.601   1.289
 1267SOL    HW2 4701   4.707   6.612   1.187
 1268SOL     OW 4702   2.742   2.731   0.511
 1268SOL    HW1 4703   2.654   2.763   0.477
 1268SOL    HW2 4704   2.728   2.670   0.589
 1269SOL     OW 4705   5.928   5.685   5.206
 1269SOL    HW1 4706   5.837   5.726   5.199
 1269SOL    HW2 4707   5.930   5.599   5.156
 1270SOL     OW 4708   1.497   3.386   3.450
 1270SOL    HW1 4709   1.582   3.337   3.429
 1270SOL    HW2 4710   1.426   3.321   3.477
 1271SOL     OW 4711   2.600   1.954   3.893
 1271SOL    HW1 4712   2.671   1.901   3.845
 1271SOL    HW2 4713   2.558   2.018   3.829
 1272SOL     OW 4714   5.551   5.073   0.335
 1272SOL    HW1 4715   5.646   5.041   0.342
 1272SOL    HW2 4716   5.535   5.145   0.402
 1273SOL     OW 4717   0.775   2.914   0.252
 1273SOL    HW1 4718   0.772   3.006   0.292
 1273SOL    HW2 4719   0.791   2.847   0.325
 1274SOL     OW 4720   6.269   4.366   1.518
 1274SOL    HW1 4721   6.210   4.364   1.599
 1274SOL    HW2 4722   6.364   4.350   1.545
 1275SOL     OW 4723   4.110   1.883   4.444
 1275SOL    HW1 4724   4.205   1.875   4.473
 1275SOL    HW2 4725   4.052   1.827   4.504
 1276SOL     OW 4726   6.806   6.123   5.126
 1276SOL    HW1 4727   6.851   6.053   5.070
 1276SOL    HW2 4728   6.713   6.138   5.093
 1277SOL     OW 4729   1.242   5.786   6.178
 1277SOL    HW1 4730   1.190   5.706   6.151
 1277SOL    HW2 4731   1.334   5.758   6.206
 1278SOL     OW 4732   0.654   0.196   4.406
 1278SOL    HW1 4733   0.748   0.231   4.400
 1278SOL    HW2 4734   0.595   0.252   4.347
 1279SOL     OW 4735   2.443   5.431   0.875
 1279SOL    HW1 4736   2.451   5.531   0.875
 1279SOL    HW2 4737   2.534   5.390   0.875
 1280SOL     OW 4738   3.454   6.632   4.581
 1280SOL    HW1 4739   3.458   6.579   4.665
 1280SOL    HW2 4740   3.428   6.726   4.601
 1281SOL     OW 4741   2.283   5.995   3.319
 1281SOL    HW1 4742   2.187   6.017   3.301
 1281SOL    HW2 4743   2.324   5.955   3.237
 1282SOL     OW 4744   0.433   2.415   6.766
 1282SOL    HW1 4745   0.388   2.331   6.736
 1282SOL    HW2 4746   0.431   2.420   6.865
 1283SOL     OW 4747   0.421   3.539   5.755
 1283SOL    HW1 4748   0.371   3.464   5.711
 1283SOL    HW2 4749   0.515   3.538   5.722
 1284SOL     OW 4750   4.871   1.998   0.972
 1284SOL    HW1 4751   4.908   1.995   0.879
 1284SOL    HW2 4752   4.933   2.050   1.030
 1285SOL     OW 4753   4.633   2.288   6.420
 1285SOL    HW1 4754   4.640   2.192   6.393
 1285SOL    HW2 4755   4.559   2.298   6.487
 1286SOL     OW 4756   4.671   3.773   1.480
 1286SOL    HW1 4757   4.708   3.742   1.568
 1286SOL    HW2 4758   4.649   3.871   1.486
 1287SOL     OW 4759   5.687   5.847   5.270
 1287SOL    HW1 4760   5.676   5.815   5.364
 1287SOL    HW2 4761   5.626   5.796   5.210
 1288SOL     OW 4762   4.015   2.821   5.835
 1288SOL    HW1 4763   3.971   2.733   5.855
 1288SOL    HW2 4764   4.097   2.805   5.780
 1289SOL     OW 4765   6.854   6.970   1.150
 1289SOL    HW1 4766   6.836   0.028   1.211
 1289SOL    HW2 4767   6.879   6.889   1.204
 1290SOL     OW 4768   1.006   6.355   6.265
 1290SOL    HW1 4769   0.907   6.351   6.249
 1290SOL    HW2 4770   1.024   6.368   6.362
 1291SOL     OW 4771   6.932   4.015   4.661
 1291SOL    HW1 4772   6.998   3.963   4.605
 1291SOL    HW2 4773   6.890   4.086   4.605
 1292SOL     OW 4774   0.671   5.698   2.222
 1292SOL    HW1 4775   0.669   5.605   2.186
 1292SOL    HW2 4776   0.764   5.722   2.249
 1293SOL     OW 4777   0.834   1.687   6.693
 1293SOL    HW1 4778   0.878   1.622   6.755
 1293SOL    HW2 4779   0.787   1.638   6.620
 1294SOL     OW 4780   0.853   3.580   6.026
 1294SOL    HW1 4781   0.867   3.679   6.023
 1294SOL    HW2 4782   0.900   3.538   5.948
 1295SOL     OW 4783   0.496   3.578   1.697
 1295SOL    HW1 4784   0.553   3.588   1.779
 1295SOL    HW2 4785   0.541   3.516   1.633
 1296SOL     OW 4786   3.943   6.257   5.757
 1296SOL    HW1 4787   4.013   6.263   5.829
 1296SOL    HW2 4788   3.909   6.349   5.737
 1297SOL     OW 4789   0.074   0.679   1.321
 1297SOL    HW1 4790   0.048   0.588   1.290
 1297SOL    HW2 4791   0.143   0.671   1.394
 1298SOL     OW 4792   5.795   5.453   2.834
 1298SOL    HW1 4793   5.883   5.405   2.834
 1298SOL    HW2 4794   5.737   5.417   2.907
 1299SOL     OW 4795   1.780   3.709   3.505
 1299SOL    HW1 4796   1.755   3.767   3.582
 1299SOL    HW2 4797   1.697   3.673   3.463
 1300SOL     OW 4798   2.301   3.148   1.202
 1300SOL    HW1 4799   2.223   3.115   1.255
 1300SOL    HW2 4800   2.277   3.235   1.158
 1301SOL     OW 4801   0.218   0.076   1.154
 1301SOL    HW1 4802   0.158   0.003   1.122
 1301SOL    HW2 4803   0.194   0.162   1.107
 1302SOL     OW 4804   4.277   1.058   6.049
 1302SOL    HW1 4805   4.200   1.064   5.986
 1302SOL    HW2 4806   4.361   1.086   6.002
 1303SOL     OW 4807   3.799   1.999   1.047
 1303SOL    HW1 4808   3.798   1.900   1.055
 1303SOL    HW2 4809   3.869   2.037   1.106
 1304SOL     OW 4810   2.207   0.772   0.089
 1304SOL    HW1 4811   2.142   0.699   0.070
 1304SOL    HW2 4812   2.158   0.859   0.096
 1305SOL     OW 4813   5.754   3.842   0.920
 1305SOL    HW1 4814   5.657   3.839   0.897
 1305SOL    HW2 4815   5.798   3.757   0.892
 1306SOL     OW 4816   1.041   5.024   4.275
 1306SOL    HW1 4817   1.058   5.120   4.299
 1306SOL    HW2 4818   1.112   4.966   4.315
 1307SOL     OW 4819   1.347   4.298   3.826
 1307SOL    HW1 4820   1.310   4.379   3.780
 1307SOL    HW2 4821   1.437   4.319   3.864
 1308SOL     OW 4822   6.567   6.811   5.208
 1308SOL    HW1 4823   6.475   6.776   5.191
 1308SOL    HW2 4824   6.569   6.909   5.190
 1309SOL     OW 4825   5.559   4.495   5.490
 1309SOL    HW1 4826   5.605   4.518   5.576
 1309SOL    HW2 4827   5.585   4.403   5.461
 1310SOL     OW 4828   6.290   3.969   3.724
 1310SOL    HW1 4829   6.372   3.938   3.675
 1310SOL    HW2 4830   6.303   4.064   3.753
 1311SOL     OW 4831   0.708   6.310   5.124
 1311SOL    HW1 4832   0.718   6.271   5.032
 1311SOL    HW2 4833   0.686   6.407   5.117
 1312SOL     OW 4834   0.528   6.751   6.605
 1312SOL    HW1 4835   0.447   6.718   6.654
 1312SOL    HW2 4836   0.567   6.830   6.654
 1313SOL     OW 4837   0.688   4.791   2.896
 1313SOL    HW1 4838   0.696   4.768   2.799
 1313SOL    HW2 4839   0.716   4.885   2.910
 1314SOL     OW 4840   4.629   1.254   5.534
 1314SOL    HW1 4841   4.570   1.319   5.485
 1314SOL    HW2 4842   4.671   1.299   5.612
 1315SOL     OW 4843   0.718   1.246   2.195
 1315SOL    HW1 4844   0.790   1.231   2.264
 1315SOL    HW2 4845   0.740   1.327   2.141
 1316SOL     OW 4846   2.378   5.880   5.197
 1316SOL    HW1 4847   2.391   5.809   5.128
 1316SOL    HW2 4848   2.295   5.860   5.250
 1317SOL     OW 4849   2.289   4.347   6.299
 1317SOL    HW1 4850   2.215   4.281   6.285
 1317SOL    HW2 4851   2.376   4.307   6.270
 1318SOL     OW 4852   0.603   1.902   1.088
 1318SOL    HW1 4853   0.696   1.881   1.118
 1318SOL    HW2 4854   0.590   1.870   0.994
 1319SOL     OW 4855   6.705   6.672   7.019
 1319SOL    HW1 4856   6.660   6.682   6.930
 1319SOL    HW2 4857   6.804   6.670   7.005
 1320SOL     OW 4858   4.103   4.580   0.197
 1320SOL    HW1 4859   4.085   4.520   0.120
 1320SOL    HW2 4860   4.200   4.577   0.221
 1321SOL     OW 4861   5.709   1.788   6.733
 1321SOL    HW1 4862   5.685   1.862   6.670
 1321SOL    HW2 4863   5.626   1.748   6.771
 1322SOL     OW 4864   4.135   0.782   3.022
 1322SOL    HW1 4865   4.127   0.847   2.946
 1322SOL    HW2 4866   4.213   0.807   3.079
 1323SOL     OW 4867   4.035   0.234   5.694
 1323SOL    HW1 4868   4.125   0.213   5.731
 1323SOL    HW2 4869   4.036   0.224   5.594
 1324SOL     OW 4870   0.678   4.231   6.586
 1324SOL    HW1 4871   0.679   4.132   6.597
 1324SOL    HW2 4872   0.584   4.265   6.590
 1325SOL     OW 4873   2.399   0.210   3.270
 1325SOL    HW1 4874   2.493   0.205   3.304
 1325SOL    HW2 4875   2.336   0.180   3.342
 1326SOL     OW 4876   5.030   3.734   5.075
 1326SOL    HW1 4877   5.108   3.686   5.114
 1326SOL    HW2 4878   4.949   3.676   5.082
 1327SOL     OW 4879   0.683   6.106   1.377
 1327SOL    HW1 4880   0.653   6.012   1.395
 1327SOL    HW2 4881   0.765   6.104   1.320
 1328SOL     OW 4882   1.726   3.215   1.092
 1328SOL    HW1 4883   1.825   3.218   1.110
 1328SOL    HW2 4884   1.680   3.168   1.167
 1329SOL     OW 4885   0.334   2.157   1.758
 1329SOL    HW1 4886   0.408   2.163   1.692
 1329SOL    HW2 4887   0.370   2.172   1.850
 1330SOL     OW 4888   0.640   1.158   1.661
 1330SOL    HW1 4889   0.663   1.073   1.708
 1330SOL    HW2 4890   0.541   1.164   1.649
 1331SOL     OW 4891   4.896   3.382   2.496
 1331SOL    HW1 4892   4.867   3.288   2.513
 1331SOL    HW2 4893   4.919   3.393   2.399
 1332SOL     OW 4894   2.879   7.000   6.755
 1332SOL    HW1 4895   2.926   6.989   6.667
 1332SOL    HW2 4896   2.809   0.051   6.746
 1333SOL     OW 4897   2.936   3.497   4.400
 1333SOL    HW1 4898   2.857   3.557   4.390
 1333SOL    HW2 4899   3.010   3.546   4.445
 1334SOL     OW 4900   6.437   2.091   4.294
 1334SOL    HW1 4901   6.391   2.016   4.341
 1334SOL    HW2 4902   6.526   2.108   4.337
 1335SOL     OW 4903   2.385   1.743   2.677
 1335SOL    HW1 4904   2.393   1.781   2.585
 1335SOL    HW2 4905   2.443   1.662   2.684
 1336SOL     OW 4906   2.028   2.735   5.243
 1336SOL    HW1 4907   2.008   2.825   5.281
 1336SOL    HW2 4908   2.106   2.742   5.181
 1337SOL     OW 4909   1.650   2.221   4.332
 1337SOL    HW1 4910   1.636   2.173   4.418
 1337SOL    HW2 4911   1.666   2.318   4.350
 1338SOL     OW 4912   5.181   2.300   4.916
 1338SOL    HW1 4913   5.273   2.260   4.908
 1338SOL    HW2 4914   5.157   2.344   4.830
 1339SOL     OW 4915   6.898   1.875   6.539
 1339SOL    HW1 4916   6.875   1.899   6.634
 1339SOL    HW2 4917   6.942   1.786   6.537
 1340SOL     OW 4918   6.355   1.672   2.182
 1340SOL    HW1 4919   6.342   1.719   2.094
 1340SOL    HW2 4920   6.289   1.597   2.190
 1341SOL     OW 4921   5.082   6.709   6.295
 1341SOL    HW1 4922   5.104   6.722   6.391
 1341SOL    HW2 4923   4.994   6.662   6.287
 1342SOL     OW 4924   2.921   5.805   5.723
 1342SOL    HW1 4925   3.020   5.807   5.707
 1342SOL    HW2 4926   2.876   5.867   5.659
 1343SOL     OW 4927   4.963   5.642   2.441
 1343SOL    HW1 4928   4.977   5.625   2.539
 1343SOL    HW2 4929   4.918   5.730   2.428
 1344SOL     OW 4930   6.449   5.530   4.529
 1344SOL    HW1 4931   6.507   5.461   4.572
 1344SOL    HW2 4932   6.373   5.485   4.481
 1345SOL     OW 4933   1.738   0.284   2.639
 1345SOL    HW1 4934   1.798   0.205   2.622
 1345SOL    HW2 4935   1.739   0.306   2.736
 1346SOL     OW 4936   1.090   5.913   4.741
 1346SOL    HW1 4937   1.136   5.887   4.826
 1346SOL    HW2 4938   1.145   5.884   4.663
 1347SOL     OW 4939   6.962   6.646   5.185
 1347SOL    HW1 4940   7.013   6.625   5.102
 1347SOL    HW2 4941   6.873   6.600   5.182
 1348SOL     OW 4942   5.450   5.858   2.669
 1348SOL    HW1 4943   5.433   5.857   2.767
 1348SOL    HW2 4944   5.549   5.865   2.652
 1349SOL     OW 4945   4.511   2.677   5.615
 1349SOL    HW1 4946   4.453   2.699   5.694
 1349SOL    HW2 4947   4.532   2.580   5.615
 1350SOL     OW 4948   5.193   5.374   4.989
 1350SOL    HW1 4949   5.150   5.287   5.011
 1350SOL    HW2 4950   5.197   5.431   5.072
 1351SOL     OW 4951   5.877   1.625   3.461
 1351SOL    HW1 4952   5.844   1.533   3.439
 1351SOL    HW2 4953   5.967   1.618   3.505
 1352SOL     OW 4954   7.008   6.156   2.303
 1352SOL    HW1 4955   6.929   6.186   2.250
 1352SOL    HW2 4956   7.012   6.056   2.304
 1353SOL     OW 4957   0.679   2.452   0.463
 1353SOL    HW1 4958   0.725   2.424   0.378
 1353SOL    HW2 4959   0.587   2.414   0.465
 1354SOL     OW 4960   0.793   3.981   1.931
 1354SOL    HW1 4961   0.752   4.000   1.841
 1354SOL    HW2 4962   0.878   3.930   1.919
 1355SOL     OW 4963   6.225   2.720   4.674
 1355SOL    HW1 4964   6.192   2.634   4.714
 1355SOL    HW2 4965   6.285   2.699   4.597
 1356SOL     OW 4966   3.076   3.042   2.712
 1356SOL    HW1 4967   3.076   3.122   2.771
 1356SOL    HW2 4968   3.025   3.061   2.629
 1357SOL     OW 4969   0.633   3.401   5.921
 1357SOL    HW1 4970   0.622   3.386   5.822
 1357SOL    HW2 4971   0.723   3.442   5.938
 1358SOL     OW 4972   4.415   6.933   6.034
 1358SOL    HW1 4973   4.444   6.937   6.130
 1358SOL    HW2 4974   4.364   6.848   6.018
 1359SOL     OW 4975   5.579   4.744   2.263
 1359SOL    HW1 4976   5.515   4.698   2.201
 1359SOL    HW2 4977   5.574   4.843   2.250
 1360SOL     OW 4978   3.225   2.702   0.121
 1360SOL    HW1 4979   3.173   2.785   0.138
 1360SOL    HW2 4980   3.211   2.637   0.196
 1361SOL     OW 4981   0.113   5.462   5.407
 1361SOL    HW1 4982   0.146   5.401   5.335
 1361SOL    HW2 4983   0.072   5.407   5.481
 1362SOL     OW 4984   3.177   4.028   3.710
 1362SOL    HW1 4985   3.260   3.972   3.712
 1362SOL    HW2 4986   3.137   4.031   3.802
 1363SOL     OW 4987   0.012   5.608   2.776
 1363SOL    HW1 4988   6.932   5.606   2.786
 1363SOL    HW2 4989   0.039   5.545   2.704
 1364SOL     OW 4990   6.795   3.208   1.103
 1364SOL    HW1 4991   6.738   3.273   1.153
 1364SOL    HW2 4992   6.866   3.258   1.053
 1365SOL     OW 4993   0.653   3.137   6.598
 1365SOL    HW1 4994   0.677   3.207   6.665
 1365SOL    HW2 4995   0.636   3.051   6.645
 1366SOL     OW 4996   0.965   4.639   0.022
 1366SOL    HW1 4997   0.946   4.737   0.015
 1366SOL    HW2 4998   1.064   4.624   0.023
 1367SOL     OW 4999   2.281   0.114   3.038
 1367SOL    HW1 5000   2.326   0.174   3.104
 1367SOL    HW2 5001   2.262   0.165   2.955
 1368SOL     OW 5002   5.939   0.310   3.507
 1368SOL    HW1 5003   5.948   0.297   3.606
 1368SOL    HW2 5004   5.853   0.356   3.487
 1369SOL     OW 5005   2.554   6.865   1.575
 1369SOL    HW1 5006   2.498   6.812   1.511
 1369SOL    HW2 5007   2.620   6.920   1.523
 1370SOL     OW 5008   4.165   1.189   0.811
 1370SOL    HW1 5009   4.256   1.223   0.786
 1370SOL    HW2 5010   4.107   1.184   0.729
 1371SOL     OW 5011   6.020   1.452   4.779
 1371SOL    HW1 5012   5.993   1.533   4.832
 1371SOL    HW2 5013   6.116   1.461   4.751
 1372SOL     OW 5014   1.104   3.134   0.553
 1372SOL    HW1 5015   1.119   3.037   0.571
 1372SOL    HW2 5016   1.060   3.146   0.464
 1373SOL     OW 5017   5.109   2.834   0.424
 1373SOL    HW1 5018   5.103   2.738   0.453
 1373SOL    HW2 5019   5.028   2.858   0.371
 1374SOL     OW 5020   5.254   1.878   0.010
 1374SOL    HW1 5021   5.291   1.853   0.099
 1374SOL    HW2 5022   5.277   1.973   7.009
 1375SOL     OW 5023   0.452   4.256   6.155
 1375SOL    HW1 5024   0.498   4.336   6.117
 1375SOL    HW2 5025   0.431   4.191   6.081
 1376SOL     OW 5026   4.214   4.792   4.860
 1376SOL    HW1 5027   4.246   4.713   4.912
 1376SOL    HW2 5028   4.232   4.777   4.762
 1377SOL     OW 5029   0.215   3.796   5.651
 1377SOL    HW1 5030   0.288   3.855   5.686
 1377SOL    HW2 5031   0.249   3.745   5.572
 1378SOL     OW 5032   5.789   1.019   4.848
 1378SOL    HW1 5033   5.814   1.107   4.810
 1378SOL    HW2 5034   5.870   0.961   4.857
 1379SOL     OW 5035   3.727   6.849   2.682
 1379SOL    HW1 5036   3.769   6.796   2.608
 1379SOL    HW2 5037   3.783   6.842   2.764
 1380SOL     OW 5038   0.020   6.476   2.732
 1380SOL    HW1 5039   0.081   6.398   2.744
 1380SOL    HW2 5040   0.074   6.557   2.708
 1381SOL     OW 5041   5.907   2.443   0.056
 1381SOL    HW1 5042   5.817   2.401   0.042
 1381SOL    HW2 5043   5.972   2.405   7.010
 1382SOL     OW 5044   4.651   4.395   0.591
 1382SOL    HW1 5045   4.706   4.433   0.517
 1382SOL    HW2 5046   4.561   4.439   0.593
 1383SOL     OW 5047   1.126   0.405   1.307
 1383SOL    HW1 5048   1.124   0.401   1.207
 1383SOL    HW2 5049   1.147   0.315   1.344
 1384SOL     OW 5050   4.282   6.989   1.678
 1384SOL    HW1 5051   4.311   6.936   1.598
 1384SOL    HW2 5052   4.356   0.032   1.705
 1385SOL     OW 5053   1.412   3.641   3.868
 1385SOL    HW1 5054   1.462   3.565   3.910
 1385SOL    HW2 5055   1.315   3.635   3.891
 1386SOL     OW 5056   2.963   0.623   4.709
 1386SOL    HW1 5057   2.939   0.707   4.662
 1386SOL    HW2 5058   2.882   0.564   4.714
 1387SOL     OW 5059   4.110   5.750   2.633
 1387SOL    HW1 5060   4.102   5.677   2.700
 1387SOL    HW2 5061   4.025   5.803   2.631
 1388SOL     OW 5062   0.360   6.643   3.260
 1388SOL    HW1 5063   0.451   6.683   3.247
 1388SOL    HW2 5064   0.324   6.670   3.349
 1389SOL     OW 5065   0.335   0.803   3.482
 1389SOL    HW1 5066   0.331   0.745   3.564
 1389SOL    HW2 5067   0.357   0.896   3.509
 1390SOL     OW 5068   5.610   2.760   5.972
 1390SOL    HW1 5069   5.683   2.791   6.033
 1390SOL    HW2 5070   5.558   2.688   6.016
 1391SOL     OW 5071   6.397   0.355   5.230
 1391SOL    HW1 5072   6.328   0.383   5.296
 1391SOL    HW2 5073   6.444   0.273   5.263
 1392SOL     OW 5074   5.241   6.264   6.716
 1392SOL    HW1 5075   5.263   6.177   6.761
 1392SOL    HW2 5076   5.318   6.327   6.724
 1393SOL     OW 5077   6.145   3.862   5.867
 1393SOL    HW1 5078   6.144   3.782   5.927
 1393SOL    HW2 5079   6.198   3.841   5.785
 1394SOL     OW 5080   3.918   6.060   4.230
 1394SOL    HW1 5081   3.989   6.124   4.202
 1394SOL    HW2 5082   3.898   5.997   4.156
 1395SOL     OW 5083   1.340   4.482   4.207
 1395SOL    HW1 5084   1.423   4.438   4.241
 1395SOL    HW2 5085   1.365   4.547   4.134
 1396SOL     OW 5086   1.532   0.678   3.713
 1396SOL    HW1 5087   1.500   0.604   3.773
 1396SOL    HW2 5088   1.488   0.669   3.624
 1397SOL     OW 5089   0.680   5.996   4.533
 1397SOL    HW1 5090   0.724   5.956   4.614
 1397SOL    HW2 5091   0.631   6.079   4.559
 1398SOL     OW 5092   1.857   1.970   6.709
 1398SOL    HW1 5093   1.782   1.905   6.705
 1398SOL    HW2 5094   1.894   1.973   6.802
 1399SOL     OW 5095   4.363   0.123   6.769
 1399SOL    HW1 5096   4.321   0.166   6.690
 1399SOL    HW2 5097   4.384   0.027   6.748
 1400SOL     OW 5098   0.337   1.936   4.425
 1400SOL    HW1 5099   0.293   2.022   4.453
 1400SOL    HW2 5100   0.343   1.875   4.504
 1401SOL     OW 5101   6.305   6.677   4.275
 1401SOL    HW1 5102   6.256   6.595   4.242
 1401SOL    HW2 5103   6.264   6.758   4.233
 1402SOL     OW 5104   5.914   4.266   0.177
 1402SOL    HW1 5105   5.864   4.225   0.101
 1402SOL    HW2 5106   5.968   4.196   0.223
 1403SOL     OW 5107   1.619   2.422   1.534
 1403SOL    HW1 5108   1.521   2.404   1.535
 1403SOL    HW2 5109   1.638   2.502   1.476
 1404SOL     OW 5110   6.260   0.121   0.258
 1404SOL    HW1 5111   6.272   0.047   0.192
 1404SOL    HW2 5112   6.249   0.208   0.209
 1405SOL     OW 5113   2.512   3.636   0.573
 1405SOL    HW1 5114   2.431   3.602   0.526
 1405SOL    HW2 5115   2.591   3.629   0.512
 1406SOL     OW 5116   2.466   4.967   1.341
 1406SOL    HW1 5117   2.555   4.926   1.323
 1406SOL    HW2 5118   2.461   4.995   1.437
 1407SOL     OW 5119   1.610   4.265   3.646
 1407SOL    HW1 5120   1.574   4.228   3.560
 1407SOL    HW2 5121   1.625   4.190   3.711
 1408SOL     OW 5122   5.155   6.516   6.713
 1408SOL    HW1 5123   5.245   6.559   6.722
 1408SOL    HW2 5124   5.166   6.418   6.696
 1409SOL     OW 5125   6.734   0.344   5.115
 1409SOL    HW1 5126   6.676   0.421   5.143
 1409SOL    HW2 5127   6.775   0.364   5.026
 1410SOL     OW 5128   2.863   3.815   0.289
 1410SOL    HW1 5129   2.952   3.838   0.251
 1410SOL    HW2 5130   2.797   3.803   0.214
 1411SOL     OW 5131   3.554   5.493   6.632
 1411SOL    HW1 5132   3.472   5.449   6.597
 1411SOL    HW2 5133   3.634   5.435   6.613
 1412SOL     OW 5134   1.053   4.211   1.553
 1412SOL    HW1 5135   1.139   4.191   1.599
 1412SOL    HW2 5136   0.993   4.260   1.616
 1413SOL     OW 5137   1.696   1.565   4.612
 1413SOL    HW1 5138   1.712   1.489   4.676
 1413SOL    HW2 5139   1.779   1.620   4.605
 1414SOL     OW 5140   2.048   2.054   1.939
 1414SOL    HW1 5141   2.108   2.035   2.017
 1414SOL    HW2 5142   2.100   2.097   1.866
 1415SOL     OW 5143   3.136   1.342   4.584
 1415SOL    HW1 5144   3.123   1.435   4.619
 1415SOL    HW2 5145   3.153   1.280   4.660
 1416SOL     OW 5146   3.664   0.207   4.343
 1416SOL    HW1 5147   3.579   0.242   4.304
 1416SOL    HW2 5148   3.655   0.108   4.357
 1417SOL     OW 5149   3.088   3.003   6.185
 1417SOL    HW1 5150   3.067   2.924   6.244
 1417SOL    HW2 5151   3.179   2.991   6.146
 1418SOL     OW 5152   2.768   3.618   0.442
 1418SOL    HW1 5153   2.821   3.679   0.384
 1418SOL    HW2 5154   2.804   3.621   0.535
 1419SOL     OW 5155   2.724   5.433   3.959
 1419SOL    HW1 5156   2.804   5.389   3.999
 1419SOL    HW2 5157   2.752   5.498   3.889
 1420SOL     OW 5158   3.769   5.610   3.098
 1420SOL    HW1 5159   3.855   5.657   3.080
 1420SOL    HW2 5160   3.696   5.678   3.110
 1421SOL     OW 5161   1.065   4.435   4.090
 1421SOL    HW1 5162   1.132   4.466   4.158
 1421SOL    HW2 5163   0.991   4.502   4.083
 1422SOL     OW 5164   3.544   4.612   6.213
 1422SOL    HW1 5165   3.603   4.533   6.197
 1422SOL    HW2 5166   3.597   4.696   6.206
 1423SOL     OW 5167   3.172   0.818   4.902
 1423SOL    HW1 5168   3.266   0.823   4.936
 1423SOL    HW2 5169   3.172   0.809   4.803
 1424SOL     OW 5170   6.679   3.574   6.800
 1424SOL    HW1 5171   6.736   3.593   6.719
 1424SOL    HW2 5172   6.653   3.478   6.801
 1425SOL     OW 5173   2.186   5.452   5.586
 1425SOL    HW1 5174   2.283   5.427   5.581
 1425SOL    HW2 5175   2.152   5.475   5.495
 1426SOL     OW 5176   2.382   2.024   5.862
 1426SOL    HW1 5177   2.407   2.017   5.959
 1426SOL    HW2 5178   2.283   2.033   5.854
 1427SOL     OW 5179   0.277   0.012   3.908
 1427SOL    HW1 5180   0.217   0.087   3.938
 1427SOL    HW2 5181   0.372   0.037   3.927
 1428SOL     OW 5182   0.179   1.858   1.873
 1428SOL    HW1 5183   0.144   1.951   1.875
 1428SOL    HW2 5184   0.170   1.817   1.963
 1429SOL     OW 5185   6.488   1.536   6.897
 1429SOL    HW1 5186   6.539   1.483   6.965
 1429SOL    HW2 5187   6.390   1.530   6.917
 1430SOL     OW 5188   2.003   4.663   4.193
 1430SOL    HW1 5189   2.031   4.734   4.128
 1430SOL    HW2 5190   2.079   4.601   4.208
 1431SOL     OW 5191   2.560   2.420   6.048
 1431SOL    HW1 5192   2.632   2.369   6.002
 1431SOL    HW2 5193   2.600   2.475   6.122
 1432SOL     OW 5194   1.993   1.086   1.430
 1432SOL    HW1 5195   2.081   1.124   1.458
 1432SOL    HW2 5196   1.982   0.994   1.468
 1433SOL     OW 5197   4.279   0.095   4.495
 1433SOL    HW1 5198   4.282   0.147   4.580
 1433SOL    HW2 5199   4.364   0.108   4.445
 1434SOL     OW 5200   0.292   0.728   6.267
 1434SOL    HW1 5201   0.287   0.778   6.180
 1434SOL    HW2 5202   0.218   0.758   6.327
 1435SOL     OW 5203   6.869   0.146   3.229
 1435SOL    HW1 5204   6.770   0.144   3.245
 1435SOL    HW2 5205   6.887   0.184   3.139
 1436SOL     OW 5206   6.043   3.443   0.338
 1436SOL    HW1 5207   6.135   3.403   0.336
 1436SOL    HW2 5208   6.020   3.479   0.248
 1437SOL     OW 5209   3.095   0.366   5.833
 1437SOL    HW1 5210   3.052   0.347   5.744
 1437SOL    HW2 5211   3.136   0.456   5.832
 1438SOL     OW 5212   2.588   0.332   1.512
 1438SOL    HW1 5213   2.578   0.382   1.426
 1438SOL    HW2 5214   2.562   0.391   1.588
 1439SOL     OW 5215   0.894   4.974   0.754
 1439SOL    HW1 5216   0.799   4.995   0.733
 1439SOL    HW2 5217   0.948   5.058   0.753
 1440SOL     OW 5218   3.414   3.740   5.103
 1440SOL    HW1 5219   3.502   3.699   5.080
 1440SOL    HW2 5220   3.402   3.740   5.203
 1441SOL     OW 5221   6.325   3.569   4.455
 1441SOL    HW1 5222   6.362   3.501   4.518
 1441SOL    HW2 5223   6.263   3.524   4.390
 1442SOL     OW 5224   0.058   4.967   6.939
 1442SOL    HW1 5225   7.002   5.026   6.966
 1442SOL    HW2 5226   0.099   4.924   0.001
 1443SOL     OW 5227   0.981   2.650   4.826
 1443SOL    HW1 5228   0.931   2.564   4.827
 1443SOL    HW2 5229   0.916   2.726   4.817
 1444SOL     OW 5230   4.196   5.744   1.493
 1444SOL    HW1 5231   4.174   5.653   1.457
 1444SOL    HW2 5232   4.186   5.812   1.420
 1445SOL     OW 5233   0.202   2.656   2.484
 1445SOL    HW1 5234   0.145   2.576   2.468
 1445SOL    HW2 5235   0.152   2.738   2.454
 1446SOL     OW 5236   5.199   2.035   6.621
 1446SOL    HW1 5237   5.115   2.072   6.582
 1446SOL    HW2 5238   5.194   2.038   6.721
 1447SOL     OW 5239   6.553   6.349   5.187
 1447SOL    HW1 5240   6.493   6.285   5.139
 1447SOL    HW2 5241   6.599   6.407   5.120
 1448SOL     OW 5242   6.960   2.330   0.006
 1448SOL    HW1 5243   7.010   2.300   6.944
 1448SOL    HW2 5244   6.869   2.362   6.999
 1449SOL     OW 5245   5.632   0.896   6.932
 1449SOL    HW1 5246   5.582   0.894   6.845
 1449SOL    HW2 5247   5.640   0.803   6.967
 1450SOL     OW 5248   0.498   2.084   2.324
 1450SOL    HW1 5249   0.432   2.072   2.398
 1450SOL    HW2 5250   0.460   2.045   2.239
 1451SOL     OW 5251   3.326   1.107   1.756
 1451SOL    HW1 5252   3.278   1.046   1.820
 1451SOL    HW2 5253   3.412   1.064   1.728
 1452SOL     OW 5254   4.016   1.714   4.634
 1452SOL    HW1 5255   3.948   1.686   4.702
 1452SOL    HW2 5256   4.107   1.714   4.676
 1453SOL     OW 5257   0.286   3.626   5.403
 1453SOL    HW1 5258   0.378   3.625   5.364
 1453SOL    HW2 5259   0.237   3.706   5.371
 1454SOL     OW 5260   6.400   2.459   2.968
 1454SOL    HW1 5261   6.392   2.360   2.974
 1454SOL    HW2 5262   6.486   2.483   2.923
 1455SOL     OW 5263   1.741   0.001   1.828
 1455SOL    HW1 5264   1.786   6.931   1.836
 1455SOL    HW2 5265   1.724   0.021   1.732
 1456SOL     OW 5266   6.480   0.181   5.568
 1456SOL    HW1 5267   6.512   0.168   5.474
 1456SOL    HW2 5268   6.520   0.265   5.605
 1457SOL     OW 5269   1.519   0.206   0.912
 1457SOL    HW1 5270   1.597   0.241   0.964
 1457SOL    HW2 5271   1.440   0.265   0.926
 1458SOL     OW 5272   5.283   6.330   3.367
 1458SOL    HW1 5273   5.378   6.302   3.351
 1458SOL    HW2 5274   5.278   6.383   3.452
 1459SOL     OW 5275   3.143   4.638   5.728
 1459SOL    HW1 5276   3.061   4.620   5.782
 1459SOL    HW2 5277   3.142   4.733   5.697
 1460SOL     OW 5278   0.416   5.401   5.864
 1460SOL    HW1 5279   0.375   5.346   5.791
 1460SOL    HW2 5280   0.358   5.479   5.884
 1461SOL     OW 5281   0.576   5.308   3.125
 1461SOL    HW1 5282   0.654   5.350   3.079
 1461SOL    HW2 5283   0.604   5.276   3.215
 1462SOL     OW 5284   0.782   1.019   6.092
 1462SOL    HW1 5285   0.790   1.108   6.135
 1462SOL    HW2 5286   0.805   1.027   5.995
 1463SOL     OW 5287   0.457   5.857   6.287
 1463SOL    HW1 5288   0.522   5.801   6.339
 1463SOL    HW2 5289   0.364   5.826   6.306
 1464SOL     OW 5290   6.410   6.990   0.781
 1464SOL    HW1 5291   6.456   6.991   0.692
 1464SOL    HW2 5292   6.431   0.055   0.830
 1465SOL     OW 5293   1.968   1.517   3.583
 1465SOL    HW1 5294   2.034   1.579   3.624
 1465SOL    HW2 5295   1.886   1.513   3.640
 1466SOL     OW 5296   1.516   0.975   2.641
 1466SOL    HW1 5297   1.556   0.897   2.593
 1466SOL    HW2 5298   1.563   0.988   2.728
 1467SOL     OW 5299   2.368   1.361   2.293
 1467SOL    HW1 5300   2.324   1.350   2.382
 1467SOL    HW2 5301   2.442   1.294   2.284
 1468SOL     OW 5302   5.120   5.228   3.375
 1468SOL    HW1 5303   5.136   5.143   3.325
 1468SOL    HW2 5304   5.206   5.263   3.411
 1469SOL     OW 5305   1.010   0.855   1.920
 1469SOL    HW1 5306   1.025   0.758   1.936
 1469SOL    HW2 5307   0.982   0.870   1.825
 1470SOL     OW 5308   1.866   1.005   2.862
 1470SOL    HW1 5309   1.771   0.991   2.887
 1470SOL    HW2 5310   1.875   1.092   2.812
 1471SOL     OW 5311   0.579   0.360   0.668
 1471SOL    HW1 5312   0.535   0.401   0.588
 1471SOL    HW2 5313   0.548   0.265   0.677
 1472SOL     OW 5314   3.988   5.658   5.040
 1472SOL    HW1 5315   3.922   5.586   5.062
 1472SOL    HW2 5316   3.938   5.738   5.007
 1473SOL     OW 5317   5.732   5.876   3.654
 1473SOL    HW1 5318   5.714   5.813   3.578
 1473SOL    HW2 5319   5.646   5.904   3.695
 1474SOL     OW 5320   6.188   6.082   3.285
 1474SOL    HW1 5321   6.088   6.090   3.291
 1474SOL    HW2 5322   6.218   6.107   3.193
 1475SOL     OW 5323   6.752   0.446   1.529
 1475SOL    HW1 5324   6.754   0.389   1.611
 1475SOL    HW2 5325   6.732   0.540   1.554
 1476SOL     OW 5326   1.883   1.627   1.559
 1476SOL    HW1 5327   1.880   1.527   1.568
 1476SOL    HW2 5328   1.844   1.654   1.471
 1477SOL     OW 5329   2.441   0.298   6.954
 1477SOL    HW1 5330   2.460   0.395   6.968
 1477SOL    HW2 5331   2.366   0.288   6.888
 1478SOL     OW 5332   5.470   4.315   0.049
 1478SOL    HW1 5333   5.502   4.220   0.052
 1478SOL    HW2 5334   5.463   4.351   0.142
 1479SOL     OW 5335   1.600   3.505   6.923
 1479SOL    HW1 5336   1.528   3.560   6.880
 1479SOL    HW2 5337   1.678   3.564   6.943
 1480SOL     OW 5338   2.732   0.170   6.207
 1480SOL    HW1 5339   2.827   0.178   6.176
 1480SOL    HW2 5340   2.730   0.130   6.299
 1481SOL     OW 5341   6.994   1.856   5.449
 1481SOL    HW1 5342   0.042   1.839   5.377
 1481SOL    HW2 5343   6.917   1.793   5.437
 1482SOL     OW 5344   4.882   2.293   0.862
 1482SOL    HW1 5345   4.912   2.389   0.856
 1482SOL    HW2 5346   4.806   2.286   0.925
 1483SOL     OW 5347   6.035   2.467   6.360
 1483SOL    HW1 5348   5.967   2.465   6.286
 1483SOL    HW2 5349   6.127   2.472   6.320
 1484SOL     OW 5350   6.075   4.612   4.320
 1484SOL    HW1 5351   6.151   4.580   4.264
 1484SOL    HW2 5352   6.109   4.643   4.409
 1485SOL     OW 5353   4.148   2.231   2.490
 1485SOL    HW1 5354   4.179   2.141   2.520
 1485SOL    HW2 5355   4.224   2.281   2.448
 1486SOL     OW 5356   5.099   2.277   2.605
 1486SOL    HW1 5357   5.120   2.286   2.507
 1486SOL    HW2 5358   5.005   2.245   2.616
 1487SOL     OW 5359   6.778   2.630   6.690
 1487SOL    HW1 5360   6.743   2.713   6.647
 1487SOL    HW2 5361   6.704   2.564   6.699
 1488SOL     OW 5362   5.523   2.354   3.118
 1488SOL    HW1 5363   5.498   2.450   3.130
 1488SOL    HW2 5364   5.507   2.326   3.024
 1489SOL     OW 5365   4.150   5.097   3.691
 1489SOL    HW1 5366   4.147   5.133   3.598
 1489SOL    HW2 5367   4.095   5.155   3.751
 1490SOL     OW 5368   1.359   3.148   1.606
 1490SOL    HW1 5369   1.416   3.126   1.686
 1490SOL    HW2 5370   1.287   3.079   1.598
 1491SOL     OW 5371   5.915   3.638   4.271
 1491SOL    HW1 5372   5.952   3.723   4.310
 1491SOL    HW2 5373   5.842   3.603   4.329
 1492SOL     OW 5374   5.751   1.909   2.769
 1492SOL    HW1 5375   5.711   1.986   2.819
 1492SOL    HW2 5376   5.725   1.823   2.814
 1493SOL     OW 5377   4.974   0.064   3.734
 1493SOL    HW1 5378   4.977   6.983   3.741
 1493SOL    HW2 5379   4.958   0.090   3.639
 1494SOL     OW 5380   5.303   1.869   5.885
 1494SOL    HW1 5381   5.212   1.872   5.843
 1494SOL    HW2 5382   5.300   1.912   5.975
 1495SOL     OW 5383   6.798   2.590   4.419
 1495SOL    HW1 5384   6.861   2.542   4.358
 1495SOL    HW2 5385   6.710   2.542   4.421
 1496SOL     OW 5386   0.967   1.621   2.475
 1496SOL    HW1 5387   1.045   1.600   2.533
 1496SOL    HW2 5388   0.883   1.589   2.519
 1497SOL     OW 5389   0.051   2.914   3.351
 1497SOL    HW1 5390   0.081   2.866   3.433
 1497SOL    HW2 5391   6.975   2.889   3.330
 1498SOL     OW 5392   2.002   4.348   6.589
 1498SOL    HW1 5393   1.981   4.368   6.685
 1498SOL    HW2 5394   2.099   4.364   6.571
 1499SOL     OW 5395   1.228   3.958   5.763
 1499SOL    HW1 5396   1.180   3.871   5.756
 1499SOL    HW2 5397   1.219   3.994   5.856
 1500SOL     OW 5398   6.479   6.539   0.089
 1500SOL    HW1 5399   6.566   6.561   0.046
 1500SOL    HW2 5400   6.490   6.543   0.189
 1501SOL     OW 5401   5.237   1.188   6.316
 1501SOL    HW1 5402   5.268   1.145   6.232
 1501SOL    HW2 5403   5.139   1.208   6.310
 1502SOL     OW 5404   5.822   6.558   1.513
 1502SOL    HW1 5405   5.906   6.600   1.545
 1502SOL    HW2 5406   5.744   6.617   1.535
 1503SOL     OW 5407   2.788   1.310   2.059
 1503SOL    HW1 5408   2.848   1.383   2.026
 1503SOL    HW2 5409   2.803   1.295   2.156
 1504SOL     OW 5410   0.808   1.072   4.608
 1504SOL    HW1 5411   0.759   0.989   4.635
 1504SOL    HW2 5412   0.904   1.051   4.594
 1505SOL     OW 5413   5.991   0.705   6.497
 1505SOL    HW1 5414   6.032   0.794   6.516
 1505SOL    HW2 5415   5.967   0.698   6.400
 1506SOL     OW 5416   1.594   4.927   1.709
 1506SOL    HW1 5417   1.533   4.969   1.775
 1506SOL    HW2 5418   1.673   4.986   1.694
 1507SOL     OW 5419   0.758   2.201   5.307
 1507SOL    HW1 5420   0.729   2.117   5.352
 1507SOL    HW2 5421   0.834   2.241   5.358
 1508SOL     OW 5422   6.321   0.454   1.787
 1508SOL    HW1 5423   6.363   0.510   1.715
 1508SOL    HW2 5424   6.288   0.368   1.747
 1509SOL     OW 5425   4.645   2.390   6.162
 1509SOL    HW1 5426   4.686   2.480   6.164
 1509SOL    HW2 5427   4.626   2.359   6.255
 1510SOL     OW 5428   6.144   2.530   4.856
 1510SOL    HW1 5429   6.060   2.581   4.871
 1510SOL    HW2 5430   6.175   2.490   4.942
 1511SOL     OW 5431   3.255   2.284   1.244
 1511SOL    HW1 5432   3.200   2.243   1.317
 1511SOL    HW2 5433   3.316   2.353   1.284
 1512SOL     OW 5434   6.830   6.409   1.705
 1512SOL    HW1 5435   6.837   6.508   1.714
 1512SOL    HW2 5436   6.766   6.373   1.773
 1513SOL     OW 5437   4.094   0.509   4.010
 1513SOL    HW1 5438   4.049   0.584   3.962
 1513SOL    HW2 5439   4.190   0.532   4.026
 1514SOL     OW 5440   4.879   2.841   5.754
 1514SOL    HW1 5441   4.852   2.826   5.659
 1514SOL    HW2 5442   4.849   2.764   5.810
 1515SOL     OW 5443   6.454   3.116   5.208
 1515SOL    HW1 5444   6.364   3.117   5.250
 1515SOL    HW2 5445   6.500   3.204   5.222
 1516SOL     OW 5446   0.347   0.168   0.683
 1516SOL    HW1 5447   0.301   0.120   0.608
 1516SOL    HW2 5448   0.318   0.263   0.685
 1517SOL     OW 5449   3.652   5.800   3.465
 1517SOL    HW1 5450   3.748   5.822   3.447
 1517SOL    HW2 5451   3.593   5.870   3.425
 1518SOL     OW 5452   0.816   2.707   0.443
 1518SOL    HW1 5453   0.826   2.740   0.537
 1518SOL    HW2 5454   0.773   2.617   0.444
 1519SOL     OW 5455   6.812   4.837   1.996
 1519SOL    HW1 5456   6.889   4.795   1.949
 1519SOL    HW2 5457   6.788   4.923   1.951
 1520SOL     OW 5458   0.977   3.790   2.661
 1520SOL    HW1 5459   1.004   3.870   2.715
 1520SOL    HW2 5460   0.927   3.819   2.580
 1521SOL     OW 5461   3.112   3.887   0.128
 1521SOL    HW1 5462   3.073   3.955   0.066
 1521SOL    HW2 5463   3.185   3.930   0.181
 1522SOL     OW 5464   6.465   0.552   4.943
 1522SOL    HW1 5465   6.521   0.564   5.025
 1522SOL    HW2 5466   6.459   0.455   4.921
 1523SOL     OW 5467   4.937   3.595   0.536
 1523SOL    HW1 5468   4.838   3.609   0.529
 1523SOL    HW2 5469   4.969   3.540   0.459
 1524SOL     OW 5470   1.219   2.045   2.151
 1524SOL    HW1 5471   1.311   2.048   2.112
 1524SOL    HW2 5472   1.202   1.956   2.194
 1525SOL     OW 5473   6.595   2.164   0.116
 1525SOL    HW1 5474   6.509   2.124   0.083
 1525SOL    HW2 5475   6.614   2.131   0.208
 1526SOL     OW 5476   1.406   0.555   6.440
 1526SOL    HW1 5477   1.392   0.630   6.375
 1526SOL    HW2 5478   1.317   0.523   6.473
 1527SOL     OW 5479   3.707   1.135   5.584
 1527SOL    HW1 5480   3.760   1.217   5.603
 1527SOL    HW2 5481   3.756   1.077   5.519
 1528SOL     OW 5482   5.203   5.647   1.657
 1528SOL    HW1 5483   5.270   5.592   1.608
 1528SOL    HW2 5484   5.196   5.737   1.615
 1529SOL     OW 5485   3.435   0.631   0.239
 1529SOL    HW1 5486   3.515   0.577   0.263
 1529SOL    HW2 5487   3.352   0.581   0.264
 1530SOL     OW 5488   2.894   0.877   2.065
 1530SOL    HW1 5489   2.966   0.942   2.043
 1530SOL    HW2 5490   2.909   0.792   2.015
 1531SOL     OW 5491   5.787   0.711   4.599
 1531SOL    HW1 5492   5.733   0.715   4.683
 1531SOL    HW2 5493   5.849   0.789   4.596
 1532SOL     OW 5494   2.702   3.329   5.796
 1532SOL    HW1 5495   2.775   3.262   5.806
 1532SOL    HW2 5496   2.638   3.321   5.872
 1533SOL     OW 5497   0.382   2.867   0.027
 1533SOL    HW1 5498   0.344   2.879   6.955
 1533SOL    HW2 5499   0.332   2.923   0.092
 1534SOL     OW 5500   1.621   4.906   6.600
 1534SOL    HW1 5501   1.665   4.991   6.628
 1534SOL    HW2 5502   1.639   4.835   6.668
 1535SOL     OW 5503   4.970   6.040   4.600
 1535SOL    HW1 5504   4.944   5.994   4.686
 1535SOL    HW2 5505   4.989   5.971   4.530
 1536SOL     OW 5506   4.129   4.404   5.481
 1536SOL    HW1 5507   4.102   4.396   5.576
 1536SOL    HW2 5508   4.081   4.481   5.438
 1537SOL     OW 5509   3.747   6.394   3.199
 1537SOL    HW1 5510   3.847   6.383   3.204
 1537SOL    HW2 5511   3.717   6.375   3.106
 1538SOL     OW 5512   3.868   5.491   6.465
 1538SOL    HW1 5513   3.861   5.590   6.476
 1538SOL    HW2 5514   3.953   5.468   6.418
 1539SOL     OW 5515   4.345   4.219   1.520
 1539SOL    HW1 5516   4.373   4.184   1.610
 1539SOL    HW2 5517   4.332   4.318   1.525
 1540SOL     OW 5518   1.263   0.071   5.496
 1540SOL    HW1 5519   1.191   0.128   5.456
 1540SOL    HW2 5520   1.337   0.061   5.429
 1541SOL     OW 5521   3.473   2.917   1.951
 1541SOL    HW1 5522   3.396   2.924   2.014
 1541SOL    HW2 5523   3.557   2.898   2.002
 1542SOL     OW 5524   6.877   6.190   1.381
 1542SOL    HW1 5525   6.942   6.266   1.380
 1542SOL    HW2 5526   6.902   6.124   1.310
 1543SOL     OW 5527   2.996   3.785   4.125
 1543SOL    HW1 5528   3.050   3.701   4.137
 1543SOL    HW2 5529   2.974   3.823   4.215
 1544SOL     OW 5530   2.993   3.815   1.831
 1544SOL    HW1 5531   2.988   3.844   1.927
 1544SOL    HW2 5532   3.011   3.716   1.828
 1545SOL     OW 5533   5.301   0.956   4.716
 1545SOL    HW1 5534   5.266   1.017   4.645
 1545SOL    HW2 5535   5.389   0.990   4.749
 1546SOL     OW 5536   5.310   0.031   6.248
 1546SOL    HW1 5537   5.229   7.003   6.214
 1546SOL    HW2 5538   5.369   0.058   6.172
 1547SOL     OW 5539   2.214   4.239   2.627
 1547SOL    HW1 5540   2.218   4.246   2.727
 1547SOL    HW2 5541   2.138   4.294   2.593
 1548SOL     OW 5542   4.844   3.569   5.846
 1548SOL    HW1 5543   4.925   3.592   5.792
 1548SOL    HW2 5544   4.762   3.601   5.800
 1549SOL     OW 5545   4.905   1.741   2.469
 1549SOL    HW1 5546   4.960   1.712   2.390
 1549SOL    HW2 5547   4.836   1.808   2.439
 1550SOL     OW 5548   3.345   5.662   6.132
 1550SOL    HW1 5549   3.363   5.631   6.039
 1550SOL    HW2 5550   3.275   5.604   6.173
 1551SOL     OW 5551   2.519   3.517   0.102
 1551SOL    HW1 5552   2.419   3.514   0.109
 1551SOL    HW2 5553   2.559   3.460   0.173
 1552SOL     OW 5554   0.182   0.353   1.493
 1552SOL    HW1 5555   0.241   0.275   1.469
 1552SOL    HW2 5556   0.221   0.437   1.454
 1553SOL     OW 5557   6.114   0.967   5.479
 1553SOL    HW1 5558   6.061   0.887   5.505
 1553SOL    HW2 5559   6.059   1.026   5.420
 1554SOL     OW 5560   3.831   1.971   3.267
 1554SOL    HW1 5561   3.773   1.923   3.333
 1554SOL    HW2 5562   3.792   2.061   3.248
 1555SOL     OW 5563   4.852   1.656   5.872
 1555SOL    HW1 5564   4.928   1.660   5.938
 1555SOL    HW2 5565   4.765   1.657   5.922
 1556SOL     OW 5566   4.038   0.869   0.367
 1556SOL    HW1 5567   4.082   0.954   0.396
 1556SOL    HW2 5568   4.020   0.812   0.448
 1557SOL     OW 5569   1.959   1.259   6.756
 1557SOL    HW1 5570   2.034   1.200   6.785
 1557SOL    HW2 5571   1.897   1.208   6.697
 1558SOL     OW 5572   5.630   1.688   3.974
 1558SOL    HW1 5573   5.540   1.646   3.959
 1558SOL    HW2 5574   5.687   1.672   3.893
 1559SOL     OW 5575   0.287   2.671   0.662
 1559SOL    HW1 5576   0.351   2.678   0.738
 1559SOL    HW2 5577   0.270   2.761   0.623
 1560SOL     OW 5578   2.460   1.157   6.479
 1560SOL    HW1 5579   2.421   1.211   6.404
 1560SOL    HW2 5580   2.441   1.202   6.566
 1561SOL     OW 5581   5.864   6.462   2.879
 1561SOL    HW1 5582   5.894   6.394   2.947
 1561SOL    HW2 5583   5.888   6.431   2.788
 1562SOL     OW 5584   3.757   6.555   0.791
 1562SOL    HW1 5585   3.779   6.472   0.841
 1562SOL    HW2 5586   3.720   6.623   0.854
 1563SOL     OW 5587   2.230   1.568   6.115
 1563SOL    HW1 5588   2.302   1.567   6.185
 1563SOL    HW2 5589   2.271   1.580   6.025
 1564SOL     OW 5590   1.634   2.370   2.625
 1564SOL    HW1 5591   1.535   2.383   2.626
 1564SOL    HW2 5592   1.678   2.451   2.588
 1565SOL     OW 5593   3.892   5.465   4.028
 1565SOL    HW1 5594   3.931   5.463   4.121
 1565SOL    HW2 5595   3.793   5.454   4.034
 1566SOL     OW 5596   6.299   5.226   4.684
 1566SOL    HW1 5597   6.371   5.156   4.688
 1566SOL    HW2 5598   6.304   5.273   4.596
 1567SOL     OW 5599   6.175   5.937   0.017
 1567SOL    HW1 5600   6.168   5.978   6.946
 1567SOL    HW2 5601   6.247   5.867   0.016
 1568SOL     OW 5602   1.699   6.493   2.293
 1568SOL    HW1 5603   1.681   6.552   2.214
 1568SOL    HW2 5604   1.797   6.475   2.299
 1569SOL     OW 5605   3.570   6.815   3.449
 1569SOL    HW1 5606   3.611   6.748   3.387
 1569SOL    HW2 5607   3.478   6.837   3.418
 1570SOL     OW 5608   1.997   6.205   0.654
 1570SOL    HW1 5609   1.899   6.199   0.674
 1570SOL    HW2 5610   2.012   6.275   0.585
 1571SOL     OW 5611   6.286   1.817   3.421
 1571SOL    HW1 5612   6.210   1.759   3.451
 1571SOL    HW2 5613   6.259   1.863   3.336
 1572SOL     OW 5614   2.075   5.820   0.890
 1572SOL    HW1 5615   1.982   5.788   0.905
 1572SOL    HW2 5616   2.133   5.790   0.966
 1573SOL     OW 5617   6.323   4.693   1.552
 1573SOL    HW1 5618   6.417   4.714   1.582
 1573SOL    HW2 5619   6.308   4.594   1.558
 1574SOL     OW 5620   6.319   2.197   3.896
 1574SOL    HW1 5621   6.250   2.189   3.823
 1574SOL    HW2 5622   6.272   2.202   3.985
 1575SOL     OW 5623   2.220   1.956   1.680
 1575SOL    HW1 5624   2.158   1.879   1.696
 1575SOL    HW2 5625   2.255   1.989   1.767
 1576SOL     OW 5626   1.130   0.018   3.191
 1576SOL    HW1 5627   1.225   0.006   3.161
 1576SOL    HW2 5628   1.130   0.053   3.285
 1577SOL     OW 5629   2.694   0.354   5.689
 1577SOL    HW1 5630   2.624   0.424   5.699
 1577SOL    HW2 5631   2.672   0.275   5.747
 1578SOL     OW 5632   5.068   1.708   5.353
 1578SOL    HW1 5633   5.062   1.788   5.293
 1578SOL    HW2 5634   5.114   1.733   5.438
 1579SOL     OW 5635   0.083   1.491   2.188
 1579SOL    HW1 5636   0.122   1.400   2.200
 1579SOL    HW2 5637   7.004   1.484   2.167
 1580SOL     OW 5638   3.273   4.139   3.452
 1580SOL    HW1 5639   3.232   4.137   3.543
 1580SOL    HW2 5640   3.291   4.046   3.421
 1581SOL     OW 5641   6.314   5.260   5.231
 1581SOL    HW1 5642   6.243   5.197   5.265
 1581SOL    HW2 5643   6.285   5.299   5.144
 1582SOL     OW 5644   1.898   6.680   4.474
 1582SOL    HW1 5645   1.944   6.675   4.385
 1582SOL    HW2 5646   1.940   6.614   4.537
 1583SOL     OW 5647   0.728   5.821   3.399
 1583SOL    HW1 5648   0.754   5.783   3.488
 1583SOL    HW2 5649   0.629   5.817   3.389
 1584SOL     OW 5650   0.905   5.730   5.340
 1584SOL    HW1 5651   0.953   5.734   5.253
 1584SOL    HW2 5652   0.970   5.745   5.415
 1585SOL     OW 5653   4.720   2.459   3.342
 1585SOL    HW1 5654   4.809   2.425   3.310
 1585SOL    HW2 5655   4.733   2.546   3.389
 1586SOL     OW 5656   2.990   5.147   1.994
 1586SOL    HW1 5657   2.981   5.097   2.080
 1586SOL    HW2 5658   3.086   5.147   1.966
 1587SOL     OW 5659   2.739   5.722   5.891
 1587SOL    HW1 5660   2.722   5.798   5.955
 1587SOL    HW2 5661   2.814   5.746   5.830
 1588SOL     OW 5662   4.695   1.279   1.976
 1588SOL    HW1 5663   4.628   1.306   2.044
 1588SOL    HW2 5664   4.652   1.275   1.886
 1589SOL     OW 5665   6.878   3.370   2.602
 1589SOL    HW1 5666   6.970   3.373   2.641
 1589SOL    HW2 5667   6.839   3.279   2.618
 1590SOL     OW 5668   4.543   0.153   4.365
 1590SOL    HW1 5669   4.619   0.137   4.427
 1590SOL    HW2 5670   4.551   0.244   4.324
 1591SOL     OW 5671   6.978   5.335   1.277
 1591SOL    HW1 5672   0.051   5.370   1.287
 1591SOL    HW2 5673   6.923   5.362   1.357
 1592SOL     OW 5674   2.339   3.548   6.343
 1592SOL    HW1 5675   2.279   3.487   6.395
 1592SOL    HW2 5676   2.345   3.636   6.389
 1593SOL     OW 5677   1.317   6.811   4.811
 1593SOL    HW1 5678   1.295   6.725   4.765
 1593SOL    HW2 5679   1.376   6.792   4.890
 1594SOL     OW 5680   0.804   6.176   1.764
 1594SOL    HW1 5681   0.882   6.144   1.818
 1594SOL    HW2 5682   0.719   6.155   1.812
 1595SOL     OW 5683   0.977   5.309   0.540
 1595SOL    HW1 5684   1.025   5.312   0.627
 1595SOL    HW2 5685   0.910   5.383   0.536
 1596SOL     OW 5686   6.987   3.343   3.783
 1596SOL    HW1 5687   6.978   3.272   3.713
 1596SOL    HW2 5688   6.912   3.333   3.849
 1597SOL     OW 5689   1.091   5.863   0.862
 1597SOL    HW1 5690   1.167   5.799   0.870
 1597SOL    HW2 5691   1.005   5.816   0.882
 1598SOL     OW 5692   6.910   4.541   5.631
 1598SOL    HW1 5693   6.920   4.634   5.665
 1598SOL    HW2 5694   7.000   4.503   5.610
 1599SOL     OW 5695   5.243   5.224   4.670
 1599SOL    HW1 5696   5.257   5.262   4.578
 1599SOL    HW2 5697   5.305   5.270   4.734
 1600SOL     OW 5698   3.057   1.172   3.573
 1600SOL    HW1 5699   3.017   1.085   3.601
 1600SOL    HW2 5700   3.079   1.226   3.654
 1601SOL     OW 5701   6.498   6.362   4.279
 1601SOL    HW1 5702   6.421   6.401   4.228
 1601SOL    HW2 5703   6.501   6.403   4.370
 1602SOL     OW 5704   4.054   5.119   4.191
 1602SOL    HW1 5705   4.060   5.152   4.286
 1602SOL    HW2 5706   4.027   5.195   4.132
 1603SOL     OW 5707   1.702   6.430   3.151
 1603SOL    HW1 5708   1.610   6.451   3.116
 1603SOL    HW2 5709   1.700   6.433   3.251
 1604SOL     OW 5710   5.219   4.517   1.664
 1604SOL    HW1 5711   5.167   4.535   1.748
 1604SOL    HW2 5712   5.312   4.550   1.674
 1605SOL     OW 5713   6.479   5.294   1.943
 1605SOL    HW1 5714   6.484   5.364   1.872
 1605SOL    HW2 5715   6.407   5.229   1.920
 1606SOL     OW 5716   4.376   6.265   6.016
 1606SOL    HW1 5717   4.407   6.171   6.030
 1606SOL    HW2 5718   4.417   6.300   5.931
 1607SOL     OW 5719   3.591   7.011   0.631
 1607SOL    HW1 5720   3.630   0.061   0.570
 1607SOL    HW2 5721   3.645   7.006   0.715
 1608SOL     OW 5722   0.613   1.014   3.383
 1608SOL    HW1 5723   0.685   1.077   3.356
 1608SOL    HW2 5724   0.575   1.042   3.471
 1609SOL     OW 5725   3.984   0.054   0.482
 1609SOL    HW1 5726   4.054   0.121   0.456
 1609SOL    HW2 5727   3.961   7.017   0.403
 1610SOL     OW 5728   6.160   5.289   0.474
 1610SOL    HW1 5729   6.102   5.357   0.430
 1610SOL    HW2 5730   6.105   5.230   0.532
 1611SOL     OW 5731   2.271   3.611   0.406
 1611SOL    HW1 5732   2.239   3.706   0.412
 1611SOL    HW2 5733   2.265   3.580   0.312
 1612SOL     OW 5734   2.580   0.283   0.324
 1612SOL    HW1 5735   2.577   0.233   0.237
 1612SOL    HW2 5736   2.651   0.244   0.382
 1613SOL     OW 5737   1.350   5.274   2.101
 1613SOL    HW1 5738   1.411   5.343   2.141
 1613SOL    HW2 5739   1.333   5.297   2.005
 1614SOL     OW 5740   4.831   1.839   6.105
 1614SOL    HW1 5741   4.924   1.807   6.120
 1614SOL    HW2 5742   4.821   1.869   6.010
 1615SOL     OW 5743   6.576   5.846   0.458
 1615SOL    HW1 5744   6.663   5.798   0.463
 1615SOL    HW2 5745   6.505   5.782   0.427
 1616SOL     OW 5746   3.600   0.850   4.749
 1616SOL    HW1 5747   3.548   0.932   4.771
 1616SOL    HW2 5748   3.578   0.818   4.657
 1617SOL     OW 5749   5.496   6.589   3.112
 1617SOL    HW1 5750   5.523   6.558   3.021
 1617SOL    HW2 5751   5.566   6.561   3.178
 1618SOL     OW 5752   1.948   6.546   3.150
 1618SOL    HW1 5753   1.854   6.514   3.159
 1618SOL    HW2 5754   2.003   6.479   3.100
 1619SOL     OW 5755   0.478   4.245   1.465
 1619SOL    HW1 5756   0.431   4.157   1.481
 1619SOL    HW2 5757   0.547   4.233   1.394
 1620SOL     OW 5758   3.241   4.396   1.209
 1620SOL    HW1 5759   3.151   4.417   1.169
 1620SOL    HW2 5760   3.228   4.355   1.299
 1621SOL     OW 5761   6.157   0.877   0.535
 1621SOL    HW1 5762   6.229   0.818   0.572
 1621SOL    HW2 5763   6.183   0.973   0.546
 1622SOL     OW 5764   0.404   3.347   5.440
 1622SOL    HW1 5765   0.337   3.275   5.461
 1622SOL    HW2 5766   0.362   3.436   5.456
 1623SOL     OW 5767   1.168   2.927   5.513
 1623SOL    HW1 5768   1.140   2.912   5.418
 1623SOL    HW2 5769   1.239   2.997   5.516
 1624SOL     OW 5770   3.643   1.464   4.886
 1624SOL    HW1 5771   3.677   1.372   4.868
 1624SOL    HW2 5772   3.548   1.459   4.916
 1625SOL     OW 5773   1.431   4.866   0.148
 1625SOL    HW1 5774   1.423   4.906   0.239
 1625SOL    HW2 5775   1.408   4.935   0.079
 1626SOL     OW 5776   3.396   0.974   0.775
 1626SOL    HW1 5777   3.422   0.883   0.808
 1626SOL    HW2 5778   3.398   0.975   0.675
 1627SOL     OW 5779   6.005   3.255   4.181
 1627SOL    HW1 5780   5.979   3.194   4.256
 1627SOL    HW2 5781   5.943   3.334   4.178
 1628SOL     OW 5782   4.721   5.114   0.337
 1628SOL    HW1 5783   4.812   5.152   0.352
 1628SOL    HW2 5784   4.723   5.015   0.347
 1629SOL     OW 5785   2.817   1.280   3.896
 1629SOL    HW1 5786   2.901   1.321   3.862
 1629SOL    HW2 5787   2.750   1.273   3.822
 1630SOL     OW 5788   0.374   4.961   6.139
 1630SOL    HW1 5789   0.465   4.974   6.178
 1630SOL    HW2 5790   0.305   4.983   6.208
 1631SOL     OW 5791   0.985   2.683   1.071
 1631SOL    HW1 5792   1.076   2.705   1.037
 1631SOL    HW2 5793   0.991   2.644   1.162
 1632SOL     OW 5794   5.835   2.895   1.610
 1632SOL    HW1 5795   5.792   2.974   1.566
 1632SOL    HW2 5796   5.764   2.827   1.631
 1633SOL     OW 5797   4.810   4.223   4.595
 1633SOL    HW1 5798   4.745   4.195   4.525
 1633SOL    HW2 5799   4.863   4.144   4.626
 1634SOL     OW 5800   4.913   5.866   4.801
 1634SOL    HW1 5801   4.833   5.885   4.744
 1634SOL    HW2 5802   4.883   5.841   4.893
 1635SOL     OW 5803   0.630   5.138   6.718
 1635SOL    HW1 5804   0.720   5.174   6.743
 1635SOL    HW2 5805   0.559   5.188   6.767
 1636SOL     OW 5806   2.944   4.254   0.937
 1636SOL    HW1 5807   3.025   4.259   0.878
 1636SOL    HW2 5808   2.873   4.315   0.902
 1637SOL     OW 5809   6.628   0.494   3.268
 1637SOL    HW1 5810   6.583   0.555   3.202
 1637SOL    HW2 5811   6.704   0.448   3.223
 1638SOL     OW 5812   0.025   3.823   2.867
 1638SOL    HW1 5813   6.948   3.835   2.892
 1638SOL    HW2 5814   0.067   3.912   2.851
 1639SOL     OW 5815   5.679   5.468   1.262
 1639SOL    HW1 5816   5.594   5.486   1.312
 1639SOL    HW2 5817   5.663   5.480   1.164
 1640SOL     OW 5818   6.142   0.101   6.781
 1640SOL    HW1 5819   6.075   0.154   6.835
 1640SOL    HW2 5820   6.234   0.136   6.799
 1641SOL     OW 5821   4.729   1.951   2.544
 1641SOL    HW1 5822   4.779   2.036   2.525
 1641SOL    HW2 5823   4.701   1.949   2.640
 1642SOL     OW 5824   0.157   3.510   0.104
 1642SOL    HW1 5825   0.205   3.573   0.165
 1642SOL    HW2 5826   0.083   3.558   0.057
 1643SOL     OW 5827   2.555   4.995   4.393
 1643SOL    HW1 5828   2.645   4.996   4.348
 1643SOL    HW2 5829   2.558   4.933   4.471
 1644SOL     OW 5830   5.724   3.812   6.900
 1644SOL    HW1 5831   5.776   3.731   6.928
 1644SOL    HW2 5832   5.777   3.864   6.833
 1645SOL     OW 5833   3.158   5.510   6.265
 1645SOL    HW1 5834   3.104   5.467   6.337
 1645SOL    HW2 5835   3.100   5.570   6.210
 1646SOL     OW 5836   2.180   6.856   0.663
 1646SOL    HW1 5837   2.198   6.954   0.659
 1646SOL    HW2 5838   2.227   6.816   0.742
 1647SOL     OW 5839   5.857   3.228   4.721
 1647SOL    HW1 5840   5.879   3.320   4.689
 1647SOL    HW2 5841   5.829   3.171   4.643
 1648SOL     OW 5842   5.227   5.851   0.444
 1648SOL    HW1 5843   5.224   5.766   0.392
 1648SOL    HW2 5844   5.147   5.907   0.422
 1649SOL     OW 5845   3.514   1.156   4.203
 1649SOL    HW1 5846   3.562   1.074   4.171
 1649SOL    HW2 5847   3.577   1.212   4.256
 1650SOL     OW 5848   0.821   5.838   4.769
 1650SOL    HW1 5849   0.786   5.871   4.857
 1650SOL    HW2 5850   0.918   5.858   4.762
 1651SOL     OW 5851   0.073   2.133   1.701
 1651SOL    HW1 5852   0.164   2.158   1.734
 1651SOL    HW2 5853   0.075   2.040   1.666
 1652SOL     OW 5854   1.133   3.529   2.898
 1652SOL    HW1 5855   1.228   3.510   2.920
 1652SOL    HW2 5856   1.128   3.591   2.820
 1653SOL     OW 5857   0.804   6.458   0.066
 1653SOL    HW1 5858   0.857   6.485   0.146
 1653SOL    HW2 5859   0.841   6.372   0.029
 1654SOL     OW 5860   6.979   3.814   1.635
 1654SOL    HW1 5861   6.884   3.793   1.612
 1654SOL    HW2 5862   0.016   3.811   1.552
 1655SOL     OW 5863   0.247   2.038   4.849
 1655SOL    HW1 5864   0.308   2.076   4.779
 1655SOL    HW2 5865   0.209   2.113   4.905
 1656SOL     OW 5866   2.325   4.610   2.946
 1656SOL    HW1 5867   2.403   4.624   3.008
 1656SOL    HW2 5868   2.241   4.640   2.992
 1657SOL     OW 5869   6.180   1.160   4.590
 1657SOL    HW1 5870   6.278   1.149   4.575
 1657SOL    HW2 5871   6.154   1.254   4.565
 1658SOL     OW 5872   5.864   0.824   1.506
 1658SOL    HW1 5873   5.783   0.883   1.514
 1658SOL    HW2 5874   5.936   0.859   1.565
 1659SOL     OW 5875   3.278   0.133   6.654
 1659SOL    HW1 5876   3.191   0.169   6.689
 1659SOL    HW2 5877   3.316   0.068   6.720
 1660SOL     OW 5878   1.707   6.108   2.774
 1660SOL    HW1 5879   1.655   6.113   2.689
 1660SOL    HW2 5880   1.805   6.102   2.754
 1661SOL     OW 5881   2.335   6.246   1.256
 1661SOL    HW1 5882   2.391   6.205   1.184
 1661SOL    HW2 5883   2.375   6.333   1.284
 1662SOL     OW 5884   0.374   1.277   4.125
 1662SOL    HW1 5885   0.469   1.300   4.145
 1662SOL    HW2 5886   0.372   1.202   4.059
 1663SOL     OW 5887   4.043   5.810   3.245
 1663SOL    HW1 5888   4.125   5.860   3.217
 1663SOL    HW2 5889   4.006   5.760   3.167
 1664SOL     OW 5890   2.301   6.535   4.926
 1664SOL    HW1 5891   2.308   6.591   5.008
 1664SOL    HW2 5892   2.326   6.441   4.947
 1665SOL     OW 5893   6.570   2.699   2.339
 1665SOL    HW1 5894   6.576   2.771   2.270
 1665SOL    HW2 5895   6.491   2.641   2.320
 1666SOL     OW 5896   5.035   1.641   6.496
 1666SOL    HW1 5897   5.086   1.625   6.581
 1666SOL    HW2 5898   4.937   1.640   6.515
 1667SOL     OW 5899   0.336   6.824   1.301
 1667SOL    HW1 5900   0.362   6.920   1.312
 1667SOL    HW2 5901   0.417   6.770   1.276
 1668SOL     OW 5902   4.970   5.554   3.686
 1668SOL    HW1 5903   4.895   5.513   3.634
 1668SOL    HW2 5904   4.997   5.640   3.644
 1669SOL     OW 5905   6.351   4.819   6.171
 1669SOL    HW1 5906   6.420   4.834   6.242
 1669SOL    HW2 5907   6.262   4.804   6.214
 1670SOL     OW 5908   0.217   3.875   5.310
 1670SOL    HW1 5909   0.180   3.882   5.217
 1670SOL    HW2 5910   0.234   3.967   5.345
 1671SOL     OW 5911   5.221   2.229   2.852
 1671SOL    HW1 5912   5.198   2.135   2.877
 1671SOL    HW2 5913   5.168   2.256   2.771
 1672SOL     OW 5914   1.422   3.348   1.403
 1672SOL    HW1 5915   1.519   3.352   1.427
 1672SOL    HW2 5916   1.376   3.281   1.461
 1673SOL     OW 5917   0.297   1.451   5.165
 1673SOL    HW1 5918   0.250   1.484   5.084
 1673SOL    HW2 5919   0.269   1.504   5.245
 1674SOL     OW 5920   1.031   3.065   2.722
 1674SOL    HW1 5921   1.019   3.133   2.650
 1674SOL    HW2 5922   1.059   2.978   2.681
 1675SOL     OW 5923   5.357   0.188   0.178
 1675SOL    HW1 5924   5.281   0.252   0.176
 1675SOL    HW2 5925   5.326   0.099   0.211
 1676SOL     OW 5926   2.366   2.577   1.445
 1676SOL    HW1 5927   2.290   2.603   1.504
 1676SOL    HW2 5928   2.428   2.517   1.496
 1677SOL     OW 5929   2.985   3.294   3.582
 1677SOL    HW1 5930   2.953   3.379   3.624
 1677SOL    HW2 5931   3.000   3.225   3.653
 1678SOL     OW 5932   6.396   4.188   3.455
 1678SOL    HW1 5933   6.380   4.091   3.440
 1678SOL    HW2 5934   6.308   4.236   3.458
 1679SOL     OW 5935   2.198   2.571   4.673
 1679SOL    HW1 5936   2.120   2.608   4.623
 1679SOL    HW2 5937   2.171   2.485   4.718
 1680SOL     OW 5938   0.402   2.891   5.498
 1680SOL    HW1 5939   0.359   2.901   5.408
 1680SOL    HW2 5940   0.446   2.801   5.504
 1681SOL     OW 5941   0.188   5.201   6.863
 1681SOL    HW1 5942   0.150   5.275   6.918
 1681SOL    HW2 5943   0.141   5.116   6.885
 1682SOL     OW 5944   1.555   0.754   5.621
 1682SOL    HW1 5945   1.481   0.769   5.686
 1682SOL    HW2 5946   1.516   0.735   5.531
 1683SOL     OW 5947   5.470   5.345   2.636
 1683SOL    HW1 5948   5.450   5.314   2.543
 1683SOL    HW2 5949   5.519   5.432   2.632
 1684SOL     OW 5950   0.919   6.402   1.985
 1684SOL    HW1 5951   0.995   6.391   2.050
 1684SOL    HW2 5952   0.891   6.312   1.953
 1685SOL     OW 5953   1.873   0.802   5.434
 1685SOL    HW1 5954   1.874   0.779   5.336
 1685SOL    HW2 5955   1.956   0.853   5.457
 1686SOL     OW 5956   2.243   6.203   4.068
 1686SOL    HW1 5957   2.276   6.184   3.976
 1686SOL    HW2 5958   2.144   6.218   4.066
 1687SOL     OW 5959   1.855   2.797   1.914
 1687SOL    HW1 5960   1.882   2.825   2.006
 1687SOL    HW2 5961   1.894   2.708   1.893
 1688SOL     OW 5962   2.419   1.768   3.700
 1688SOL    HW1 5963   2.479   1.813   3.634
 1688SOL    HW2 5964   2.474   1.728   3.774
 1689SOL     OW 5965   6.262   0.508   2.899
 1689SOL    HW1 5966   6.251   0.603   2.927
 1689SOL    HW2 5967   6.266   0.449   2.979
 1690SOL     OW 5968   1.306   2.266   4.442
 1690SOL    HW1 5969   1.390   2.270   4.497
 1690SOL    HW2 5970   1.302   2.346   4.382
 1691SOL     OW 5971   5.106   3.042   3.538
 1691SOL    HW1 5972   5.094   2.956   3.587
 1691SOL    HW2 5973   5.192   3.086   3.567
 1692SOL     OW 5974   5.101   6.314   0.854
 1692SOL    HW1 5975   5.068   6.356   0.938
 1692SOL    HW2 5976   5.167   6.374   0.810
 1693SOL     OW 5977   5.983   1.961   2.644
 1693SOL    HW1 5978   5.907   1.945   2.708
 1693SOL    HW2 5979   6.027   1.874   2.621
 1694SOL     OW 5980   5.270   1.388   3.240
 1694SOL    HW1 5981   5.276   1.487   3.235
 1694SOL    HW2 5982   5.361   1.348   3.226
 1695SOL     OW 5983   4.116   0.804   6.400
 1695SOL    HW1 5984   4.140   0.899   6.420
 1695SOL    HW2 5985   4.018   0.790   6.414
 1696SOL     OW 5986   4.203   6.235   1.067
 1696SOL    HW1 5987   4.185   6.144   1.030
 1696SOL    HW2 5988   4.280   6.276   1.018
 1697SOL     OW 5989   6.182   1.168   0.522
 1697SOL    HW1 5990   6.093   1.189   0.563
 1697SOL    HW2 5991   6.245   1.244   0.537
 1698SOL     OW 5992   3.089   0.128   0.288
 1698SOL    HW1 5993   3.136   0.133   0.200
 1698SOL    HW2 5994   3.042   0.040   0.296
 1699SOL     OW 5995   2.371   1.056   0.016
 1699SOL    HW1 5996   2.297   1.106   0.061
 1699SOL    HW2 5997   2.458   1.081   0.058
 1700SOL     OW 5998   6.713   4.079   3.388
 1700SOL    HW1 5999   6.725   3.981   3.406
 1700SOL    HW2 6000   6.702   4.127   3.475
 1701SOL     OW 6001   5.723   4.985   5.675
 1701SOL    HW1 6002   5.788   5.027   5.739
 1701SOL    HW2 6003   5.687   5.056   5.614
 1702SOL     OW 6004   6.462   1.372   0.910
 1702SOL    HW1 6005   6.453   1.465   0.946
 1702SOL    HW2 6006   6.536   1.370   0.842
 1703SOL     OW 6007   3.290   1.717   0.437
 1703SOL    HW1 6008   3.364   1.689   0.498
 1703SOL    HW2 6009   3.228   1.778   0.486
 1704SOL     OW 6010   0.872   1.853   1.148
 1704SOL    HW1 6011   0.919   1.887   1.229
 1704SOL    HW2 6012   0.938   1.843   1.073
 1705SOL     OW 6013   3.126   2.052   2.555
 1705SOL    HW1 6014   3.032   2.057   2.591
 1705SOL    HW2 6015   3.124   2.062   2.456
 1706SOL     OW 6016   4.984   1.221   1.954
 1706SOL    HW1 6017   4.900   1.275   1.957
 1706SOL    HW2 6018   5.044   1.256   1.882
 1707SOL     OW 6019   4.425   2.007   1.804
 1707SOL    HW1 6020   4.339   2.033   1.759
 1707SOL    HW2 6021   4.449   2.077   1.871
 1708SOL     OW 6022   4.991   5.638   1.835
 1708SOL    HW1 6023   4.903   5.598   1.811
 1708SOL    HW2 6024   5.048   5.645   1.753
 1709SOL     OW 6025   3.336   6.318   2.620
 1709SOL    HW1 6026   3.294   6.370   2.546
 1709SOL    HW2 6027   3.264   6.283   2.681
 1710SOL     OW 6028   4.640   5.000   3.883
 1710SOL    HW1 6029   4.654   4.907   3.916
 1710SOL    HW2 6030   4.676   5.066   3.949
 1711SOL     OW 6031   1.782   4.836   4.646
 1711SOL    HW1 6032   1.798   4.806   4.552
 1711SOL    HW2 6033   1.684   4.853   4.659
 1712SOL     OW 6034   6.444   2.713   4.488
 1712SOL    HW1 6035   6.513   2.746   4.553
 1712SOL    HW2 6036   6.445   2.770   4.406
 1713SOL     OW 6037   4.641   2.604   1.710
 1713SOL    HW1 6038   4.702   2.683   1.716
 1713SOL    HW2 6039   4.689   2.523   1.743
 1714SOL     OW 6040   3.451   1.469   6.328
 1714SOL    HW1 6041   3.472   1.440   6.422
 1714SOL    HW2 6042   3.376   1.414   6.292
 1715SOL     OW 6043   1.719   5.233   2.955
 1715SOL    HW1 6044   1.780   5.281   3.018
 1715SOL    HW2 6045   1.624   5.258   2.975
 1716SOL     OW 6046   4.487   0.053   2.904
 1716SOL    HW1 6047   4.442   0.105   2.831
 1716SOL    HW2 6048   4.482   0.105   2.989
 1717SOL     OW 6049   2.809   6.101   5.276
 1717SOL    HW1 6050   2.816   6.179   5.214
 1717SOL    HW2 6051   2.715   6.092   5.308
 1718SOL     OW 6052   3.192   1.355   1.842
 1718SOL    HW1 6053   3.186   1.262   1.806
 1718SOL    HW2 6054   3.186   1.420   1.767
 1719SOL     OW 6055   2.000   3.208   1.140
 1719SOL    HW1 6056   2.026   3.261   1.221
 1719SOL    HW2 6057   2.070   3.139   1.122
 1720SOL     OW 6058   0.111   3.333   0.718
 1720SOL    HW1 6059   0.148   3.402   0.780
 1720SOL    HW2 6060   0.024   3.299   0.753
 1721SOL     OW 6061   2.090   6.538   1.476
 1721SOL    HW1 6062   2.140   6.508   1.557
 1721SOL    HW2 6063   2.122   6.628   1.448
 1722SOL     OW 6064   2.948   1.665   4.129
 1722SOL    HW1 6065   3.040   1.629   4.117
 1722SOL    HW2 6066   2.947   1.730   4.206
 1723SOL     OW 6067   6.128   2.545   0.372
 1723SOL    HW1 6068   6.146   2.486   0.451
 1723SOL    HW2 6069   6.204   2.538   0.307
 1724SOL     OW 6070   0.082   3.076   2.535
 1724SOL    HW1 6071   0.170   3.090   2.490
 1724SOL    HW2 6072   0.098   3.047   2.630
 1725SOL     OW 6073   2.164   4.702   6.107
 1725SOL    HW1 6074   2.125   4.619   6.065
 1725SOL    HW2 6075   2.093   4.752   6.155
 1726SOL     OW 6076   6.001   4.754   5.392
 1726SOL    HW1 6077   6.074   4.715   5.336
 1726SOL    HW2 6078   6.032   4.840   5.432
 1727SOL     OW 6079   3.421   3.042   3.558
 1727SOL    HW1 6080   3.383   2.983   3.488
 1727SOL    HW2 6081   3.510   3.077   3.528
 1728SOL     OW 6082   5.634   6.125   5.343
 1728SOL    HW1 6083   5.708   6.098   5.282
 1728SOL    HW2 6084   5.549   6.081   5.315
 1729SOL     OW 6085   2.292   4.187   3.389
 1729SOL    HW1 6086   2.389   4.162   3.386
 1729SOL    HW2 6087   2.237   4.107   3.365
 1730SOL     OW 6088   1.876   0.034   4.989
 1730SOL    HW1 6089   1.806   6.982   4.987
 1730SOL    HW2 6090   1.909   0.050   4.896
 1731SOL     OW 6091   0.613   4.324   4.108
 1731SOL    HW1 6092   0.557   4.325   4.025
 1731SOL    HW2 6093   0.696   4.378   4.094
 1732SOL     OW 6094   2.176   4.716   5.671
 1732SOL    HW1 6095   2.243   4.750   5.737
 1732SOL    HW2 6096   2.192   4.760   5.582
 1733SOL     OW 6097   1.545   4.403   1.813
 1733SOL    HW1 6098   1.490   4.426   1.733
 1733SOL    HW2 6099   1.485   4.375   1.888
 1734SOL     OW 6100   4.519   2.911   1.197
 1734SOL    HW1 6101   4.487   2.990   1.249
 1734SOL    HW2 6102   4.585   2.859   1.251
 1735SOL     OW 6103   4.335   5.098   6.873
 1735SOL    HW1 6104   4.360   5.006   6.903
 1735SOL    HW2 6105   4.287   5.092   6.785
 1736SOL     OW 6106   3.666   3.559   1.206
 1736SOL    HW1 6107   3.691   3.463   1.214
 1736SOL    HW2 6108   3.580   3.576   1.254
 1737SOL     OW 6109   4.432   1.084   4.706
 1737SOL    HW1 6110   4.500   1.154   4.685
 1737SOL    HW2 6111   4.358   1.089   4.638
 1738SOL     OW 6112   1.867   2.856   4.265
 1738SOL    HW1 6113   1.884   2.902   4.352
 1738SOL    HW2 6114   1.954   2.839   4.218
 1739SOL     OW 6115   6.947   1.513   5.274
 1739SOL    HW1 6116   6.858   1.486   5.313
 1739SOL    HW2 6117   6.991   1.433   5.234
 1740SOL     OW 6118   0.070   2.133   5.061
 1740SOL    HW1 6119   0.084   2.172   5.152
 1740SOL    HW2 6120   7.014   2.180   5.016
 1741SOL     OW 6121   2.436   0.515   4.027
 1741SOL    HW1 6122   2.496   0.549   4.099
 1741SOL    HW2 6123   2.367   0.455   4.067
 1742SOL     OW 6124   5.785   0.693   5.685
 1742SOL    HW1 6125   5.720   0.666   5.756
 1742SOL    HW2 6126   5.761   0.784   5.651
 1743SOL     OW 6127   0.845   2.259   2.600
 1743SOL    HW1 6128   0.759   2.244   2.649
 1743SOL    HW2 6129   0.836   2.224   2.507
 1744SOL     OW 6130   5.973   2.946   3.190
 1744SOL    HW1 6131   6.022   3.017   3.139
 1744SOL    HW2 6132   5.878   2.973   3.202
 1745SOL     OW 6133   5.253   5.594   2.373
 1745SOL    HW1 6134   5.156   5.615   2.379
 1745SOL    HW2 6135   5.288   5.622   2.283
 1746SOL     OW 6136   1.393   4.266   4.499
 1746SOL    HW1 6137   1.301   4.252   4.461
 1746SOL    HW2 6138   1.453   4.303   4.428
 1747SOL     OW 6139   4.553   1.718   2.781
 1747SOL    HW1 6140   4.458   1.707   2.753
 1747SOL    HW2 6141   4.611   1.659   2.725
 1748SOL     OW 6142   0.111   1.841   5.146
 1748SOL    HW1 6143   0.068   1.758   5.112
 1748SOL    HW2 6144   0.065   1.921   5.109
 1749SOL     OW 6145   2.284   6.883   5.304
 1749SOL    HW1 6146   2.281   6.808   5.237
 1749SOL    HW2 6147   2.198   6.934   5.299
 1750SOL     OW 6148   5.006   6.108   3.703
 1750SOL    HW1 6149   5.033   6.154   3.619
 1750SOL    HW2 6150   4.909   6.126   3.721
 1751SOL     OW 6151   4.108   0.609   3.549
 1751SOL    HW1 6152   4.019   0.575   3.580
 1751SOL    HW2 6153   4.176   0.595   3.621
 1752SOL     OW 6154   6.074   1.298   2.385
 1752SOL    HW1 6155   6.171   1.279   2.395
 1752SOL    HW2 6156   6.057   1.395   2.403
 1753SOL     OW 6157   0.106   1.051   1.403
 1753SOL    HW1 6158   0.027   0.996   1.378
 1753SOL    HW2 6159   0.180   0.991   1.435
 1754SOL     OW 6160   1.861   4.627   0.061
 1754SOL    HW1 6161   1.918   4.548   0.036
 1754SOL    HW2 6162   1.891   4.661   0.150
 1755SOL     OW 6163   0.088   6.060   1.064
 1755SOL    HW1 6164   0.094   6.159   1.077
 1755SOL    HW2 6165   0.076   6.041   0.966
 1756SOL     OW 6166   4.272   5.536   5.447
 1756SOL    HW1 6167   4.174   5.519   5.435
 1756SOL    HW2 6168   4.289   5.634   5.449
 1757SOL     OW 6169   2.589   5.508   4.811
 1757SOL    HW1 6170   2.607   5.419   4.769
 1757SOL    HW2 6171   2.671   5.565   4.803
 1758SOL     OW 6172   2.157   1.066   4.606
 1758SOL    HW1 6173   2.160   1.097   4.701
 1758SOL    HW2 6174   2.088   1.119   4.556
 1759SOL     OW 6175   2.194   6.018   5.607
 1759SOL    HW1 6176   2.185   5.922   5.577
 1759SOL    HW2 6177   2.197   6.077   5.526
 1760SOL     OW 6178   5.781   0.682   3.556
 1760SOL    HW1 6179   5.826   0.704   3.469
 1760SOL    HW2 6180   5.686   0.714   3.553
 1761SOL     OW 6181   6.969   0.556   1.856
 1761SOL    HW1 6182   6.878   0.594   1.872
 1761SOL    HW2 6183   0.011   0.630   1.827
 1762SOL     OW 6184   0.454   1.105   3.940
 1762SOL    HW1 6185   0.549   1.117   3.911
 1762SOL    HW2 6186   0.425   1.011   3.920
 1763SOL     OW 6187   0.505   4.306   4.405
 1763SOL    HW1 6188   0.538   4.250   4.329
 1763SOL    HW2 6189   0.546   4.397   4.399
 1764SOL     OW 6190   2.046   3.243   2.186
 1764SOL    HW1 6191   2.003   3.333   2.187
 1764SOL    HW2 6192   2.115   3.240   2.113
 1765SOL     OW 6193   4.168   0.951   1.582
 1765SOL    HW1 6194   4.155   0.858   1.617
 1765SOL    HW2 6195   4.116   0.962   1.497
 1766SOL     OW 6196   5.365   4.739   3.752
 1766SOL    HW1 6197   5.337   4.696   3.838
 1766SOL    HW2 6198   5.358   4.672   3.678
 1767SOL     OW 6199   0.941   4.213   3.180
 1767SOL    HW1 6200   0.896   4.253   3.100
 1767SOL    HW2 6201   0.909   4.260   3.262
 1768SOL     OW 6202   3.563   0.793   6.834
 1768SOL    HW1 6203   3.506   0.868   6.868
 1768SOL    HW2 6204   3.521   0.754   6.752
 1769SOL     OW 6205   4.811   1.407   6.865
 1769SOL    HW1 6206   4.799   1.313   6.835
 1769SOL    HW2 6207   4.735   1.462   6.831
 1770SOL     OW 6208   6.492   4.449   4.670
 1770SOL    HW1 6209   6.437   4.427   4.750
 1770SOL    HW2 6210   6.463   4.391   4.593
 1771SOL     OW 6211   1.595   5.378   0.830
 1771SOL    HW1 6212   1.500   5.378   0.863
 1771SOL    HW2 6213   1.627   5.472   0.821
 1772SOL     OW 6214   3.627   5.883   3.720
 1772SOL    HW1 6215   3.645   5.875   3.622
 1772SOL    HW2 6216   3.695   5.942   3.762
 1773SOL     OW 6217   2.971   2.882   5.971
 1773SOL    HW1 6218   3.018   2.904   6.056
 1773SOL    HW2 6219   2.900   2.814   5.988
 1774SOL     OW 6220   5.269   5.909   1.780
 1774SOL    HW1 6221   5.218   5.949   1.855
 1774SOL    HW2 6222   5.276   5.810   1.792
 1775SOL     OW 6223   1.967   4.964   5.546
 1775SOL    HW1 6224   1.988   5.061   5.534
 1775SOL    HW2 6225   2.038   4.909   5.503
 1776SOL     OW 6226   4.805   0.735   6.459
 1776SOL    HW1 6227   4.864   0.661   6.428
 1776SOL    HW2 6228   4.710   0.707   6.453
 1777SOL     OW 6229   3.088   6.427   6.127
 1777SOL    HW1 6230   3.149   6.472   6.192
 1777SOL    HW2 6231   3.031   6.359   6.174
 1778SOL     OW 6232   5.131   1.970   4.202
 1778SOL    HW1 6233   5.156   1.881   4.163
 1778SOL    HW2 6234   5.211   2.010   4.246
 1779SOL     OW 6235   4.880   1.013   4.896
 1779SOL    HW1 6236   4.970   1.008   4.940
 1779SOL    HW2 6237   4.889   0.990   4.799
 1780SOL     OW 6238   1.973   3.748   5.909
 1780SOL    HW1 6239   1.958   3.845   5.888
 1780SOL    HW2 6240   2.012   3.703   5.829
 1781SOL     OW 6241   5.950   5.944   4.297
 1781SOL    HW1 6242   5.974   5.987   4.210
 1781SOL    HW2 6243   5.913   6.013   4.359
 1782SOL     OW 6244   3.135   1.102   2.604
 1782SOL    HW1 6245   3.211   1.058   2.653
 1782SOL    HW2 6246   3.170   1.180   2.553
 1783SOL     OW 6247   2.721   2.907   6.276
 1783SOL    HW1 6248   2.714   2.945   6.184
 1783SOL    HW2 6249   2.630   2.904   6.318
 1784SOL     OW 6250   2.027   1.434   1.768
 1784SOL    HW1 6251   2.066   1.450   1.677
 1784SOL    HW2 6252   2.100   1.406   1.831
 1785SOL     OW 6253   5.871   6.198   3.710
 1785SOL    HW1 6254   5.827   6.156   3.789
 1785SOL    HW2 6255   5.927   6.130   3.663
 1786SOL     OW 6256   1.857   4.093   0.265
 1786SOL    HW1 6257   1.832   4.134   0.178
 1786SOL    HW2 6258   1.917   4.015   0.249
 1787SOL     OW 6259   2.623   2.072   5.482
 1787SOL    HW1 6260   2.597   2.010   5.555
 1787SOL    HW2 6261   2.546   2.086   5.420
 1788SOL     OW 6262   4.073   4.099   0.268
 1788SOL    HW1 6263   3.979   4.122   0.243
 1788SOL    HW2 6264   4.081   3.999   0.276
 1789SOL     OW 6265   5.828   2.826   2.275
 1789SOL    HW1 6266   5.906   2.793   2.328
 1789SOL    HW2 6267   5.750   2.764   2.289
 1790SOL     OW 6268   2.908   0.871   4.588
 1790SOL    HW1 6269   2.836   0.828   4.533
 1790SOL    HW2 6270   2.870   0.950   4.635
 1791SOL     OW 6271   6.500   1.806   4.119
 1791SOL    HW1 6272   6.516   1.797   4.020
 1791SOL    HW2 6273   6.412   1.765   4.142
 1792SOL     OW 6274   0.036   1.175   4.287
 1792SOL    HW1 6275   0.013   1.116   4.364
 1792SOL    HW2 6276   7.001   1.259   4.291
 1793SOL     OW 6277   6.649   1.312   4.218
 1793SOL    HW1 6278   6.669   1.347   4.127
 1793SOL    HW2 6279   6.680   1.217   4.225
 1794SOL     OW 6280   4.731   6.615   5.426
 1794SOL    HW1 6281   4.758   6.691   5.485
 1794SOL    HW2 6282   4.801   6.543   5.431
 1795SOL     OW 6283   6.634   5.421   2.129
 1795SOL    HW1 6284   6.563   5.367   2.085
 1795SOL    HW2 6285   6.628   5.516   2.099
 1796SOL     OW 6286   2.287   1.499   5.039
 1796SOL    HW1 6287   2.344   1.534   4.965
 1796SOL    HW2 6288   2.193   1.533   5.027
 1797SOL     OW 6289   1.857   0.018   5.473
 1797SOL    HW1 6290   1.862   0.033   5.374
 1797SOL    HW2 6291   1.767   0.045   5.506
 1798SOL     OW 6292   3.883   3.126   5.030
 1798SOL    HW1 6293   3.824   3.104   4.952
 1798SOL    HW2 6294   3.970   3.163   4.997
 1799SOL     OW 6295   6.046   2.927   6.319
 1799SOL    HW1 6296   6.088   2.965   6.402
 1799SOL    HW2 6297   6.100   2.954   6.239
 1800SOL     OW 6298   4.822   4.593   3.370
 1800SOL    HW1 6299   4.808   4.538   3.452
 1800SOL    HW2 6300   4.841   4.688   3.395
 1801SOL     OW 6301   1.408   1.365   3.022
 1801SOL    HW1 6302   1.394   1.376   2.923
 1801SOL    HW2 6303   1.502   1.337   3.039
 1802SOL     OW 6304   6.716   6.162   3.452
 1802SOL    HW1 6305   6.624   6.134   3.424
 1802SOL    HW2 6306   6.739   6.119   3.539
 1803SOL     OW 6307   0.004   6.792   2.276
 1803SOL    HW1 6308   6.978   6.835   2.355
 1803SOL    HW2 6309   6.993   6.697   2.269
 1804SOL     OW 6310   4.096   3.519   5.374
 1804SOL    HW1 6311   4.075   3.421   5.378
 1804SOL    HW2 6312   4.084   3.552   5.281
 1805SOL     OW 6313   1.074   5.007   5.694
 1805SOL    HW1 6314   1.169   5.035   5.701
 1805SOL    HW2 6315   1.022   5.078   5.648
 1806SOL     OW 6316   0.440   2.537   2.025
 1806SOL    HW1 6317   0.459   2.504   2.118
 1806SOL    HW2 6318   0.526   2.545   1.975
 1807SOL     OW 6319   6.567   2.286   6.349
 1807SOL    HW1 6320   6.475   2.298   6.312
 1807SOL    HW2 6321   6.632   2.273   6.274
 1808SOL     OW 6322   5.861   4.466   4.343
 1808SOL    HW1 6323   5.824   4.486   4.434
 1808SOL    HW2 6324   5.943   4.521   4.328
 1809SOL     OW 6325   2.687   2.243   4.940
 1809SOL    HW1 6326   2.706   2.229   4.843
 1809SOL    HW2 6327   2.763   2.209   4.994
 1810SOL     OW 6328   0.726   0.915   4.984
 1810SOL    HW1 6329   0.816   0.876   5.000
 1810SOL    HW2 6330   0.728   1.012   5.006
 1811SOL     OW 6331   5.185   4.793   2.624
 1811SOL    HW1 6332   5.224   4.779   2.715
 1811SOL    HW2 6333   5.253   4.835   2.564
 1812SOL     OW 6334   4.998   6.974   6.700
 1812SOL    HW1 6335   4.924   6.982   6.632
 1812SOL    HW2 6336   4.959   6.980   6.792
 1813SOL     OW 6337   4.960   4.903   2.057
 1813SOL    HW1 6338   4.876   4.849   2.058
 1813SOL    HW2 6339   4.983   4.931   2.150
 1814SOL     OW 6340   6.209   0.777   0.868
 1814SOL    HW1 6341   6.151   0.760   0.789
 1814SOL    HW2 6342   6.158   0.756   0.952
 1815SOL     OW 6343   6.273   0.254   3.064
 1815SOL    HW1 6344   6.278   0.249   3.164
 1815SOL    HW2 6345   6.231   0.170   3.029
 1816SOL     OW 6346   3.045   4.845   0.238
 1816SOL    HW1 6347   2.981   4.777   0.201
 1816SOL    HW2 6348   3.045   4.841   0.338
 1817SOL     OW 6349   4.100   0.425   2.378
 1817SOL    HW1 6350   4.123   0.351   2.315
 1817SOL    HW2 6351   4.042   0.492   2.331
 1818SOL     OW 6352   1.827   6.474   0.847
 1818SOL    HW1 6353   1.861   6.543   0.911
 1818SOL    HW2 6354   1.771   6.518   0.777
 1819SOL     OW 6355   1.401   5.945   1.828
 1819SOL    HW1 6356   1.479   5.895   1.789
 1819SOL    HW2 6357   1.373   6.018   1.764
 1820SOL     OW 6358   3.492   0.027   2.077
 1820SOL    HW1 6359   3.398   0.055   2.060
 1820SOL    HW2 6360   3.530   0.080   2.154
 1821SOL     OW 6361   2.817   1.271   1.549
 1821SOL    HW1 6362   2.898   1.214   1.535
 1821SOL    HW2 6363   2.799   1.324   1.466
 1822SOL     OW 6364   0.808   2.781   1.864
 1822SOL    HW1 6365   0.812   2.784   1.764
 1822SOL    HW2 6366   0.712   2.787   1.893
 1823SOL     OW 6367   3.076   6.137   3.112
 1823SOL    HW1 6368   3.171   6.159   3.135
 1823SOL    HW2 6369   3.059   6.040   3.129
 1824SOL     OW 6370   3.690   4.281   0.843
 1824SOL    HW1 6371   3.765   4.238   0.794
 1824SOL    HW2 6372   3.664   4.223   0.921
 1825SOL     OW 6373   0.847   2.392   4.574
 1825SOL    HW1 6374   0.785   2.343   4.513
 1825SOL    HW2 6375   0.812   2.388   4.667
 1826SOL     OW 6376   2.991   1.046   1.093
 1826SOL    HW1 6377   2.922   1.024   1.162
 1826SOL    HW2 6378   3.022   0.962   1.048
 1827SOL     OW 6379   6.035   5.335   1.174
 1827SOL    HW1 6380   6.108   5.272   1.201
 1827SOL    HW2 6381   6.012   5.394   1.252
 1828SOL     OW 6382   1.579   2.891   6.784
 1828SOL    HW1 6383   1.555   2.797   6.810
 1828SOL    HW2 6384   1.534   2.914   6.698
 1829SOL     OW 6385   3.898   0.417   2.726
 1829SOL    HW1 6386   3.957   0.424   2.806
 1829SOL    HW2 6387   3.862   0.508   2.702
 1830SOL     OW 6388   5.510   6.264   4.696
 1830SOL    HW1 6389   5.608   6.271   4.676
 1830SOL    HW2 6390   5.494   6.284   4.793
 1831SOL     OW 6391   5.734   6.799   2.733
 1831SOL    HW1 6392   5.689   6.711   2.718
 1831SOL    HW2 6393   5.665   6.868   2.757
 1832SOL     OW 6394   3.691   1.597   0.740
 1832SOL    HW1 6395   3.720   1.668   0.805
 1832SOL    HW2 6396   3.665   1.515   0.791
 1833SOL     OW 6397   5.784   0.999   2.108
 1833SOL    HW1 6398   5.797   0.921   2.047
 1833SOL    HW2 6399   5.855   1.067   2.090
 1834SOL     OW 6400   1.905   4.268   1.088
 1834SOL    HW1 6401   1.991   4.264   1.037
 1834SOL    HW2 6402   1.919   4.231   1.180
 1835SOL     OW 6403   0.639   4.921   2.031
 1835SOL    HW1 6404   0.645   4.846   1.965
 1835SOL    HW2 6405   0.546   4.926   2.067
 1836SOL     OW 6406   5.479   2.553   2.010
 1836SOL    HW1 6407   5.402   2.614   1.990
 1836SOL    HW2 6408   5.449   2.481   2.073
 1837SOL     OW 6409   1.288   6.679   5.716
 1837SOL    HW1 6410   1.310   6.756   5.775
 1837SOL    HW2 6411   1.261   6.600   5.772
 1838SOL     OW 6412   5.843   0.978   5.954
 1838SOL    HW1 6413   5.842   1.078   5.957
 1838SOL    HW2 6414   5.749   0.944   5.950
 1839SOL     OW 6415   6.656   1.149   5.603
 1839SOL    HW1 6416   6.569   1.164   5.651
 1839SOL    HW2 6417   6.730   1.193   5.654
 1840SOL     OW 6418   4.259   0.017   1.958
 1840SOL    HW1 6419   4.280   7.012   1.863
 1840SOL    HW2 6420   4.259   0.117   1.967
 1841SOL     OW 6421   2.285   0.498   2.900
 1841SOL    HW1 6422   2.296   0.532   2.993
 1841SOL    HW2 6423   2.313   0.569   2.835
 1842SOL     OW 6424   1.090   5.822   1.292
 1842SOL    HW1 6425   1.076   5.830   1.391
 1842SOL    HW2 6426   1.091   5.725   1.267
 1843SOL     OW 6427   5.418   0.539   4.612
 1843SOL    HW1 6428   5.450   0.571   4.523
 1843SOL    HW2 6429   5.496   0.516   4.670
 1844SOL     OW 6430   4.268   0.244   5.107
 1844SOL    HW1 6431   4.355   0.196   5.100
 1844SOL    HW2 6432   4.206   0.211   5.036
 1845SOL     OW 6433   2.961   6.620   4.250
 1845SOL    HW1 6434   2.911   6.706   4.266
 1845SOL    HW2 6435   2.944   6.589   4.157
 1846SOL     OW 6436   4.425   1.329   2.634
 1846SOL    HW1 6437   4.463   1.368   2.718
 1846SOL    HW2 6438   4.385   1.402   2.579
 1847SOL     OW 6439   1.532   6.812   5.988
 1847SOL    HW1 6440   1.562   6.773   5.901
 1847SOL    HW2 6441   1.447   6.861   5.975
 1848SOL     OW 6442   2.214   6.519   3.542
 1848SOL    HW1 6443   2.254   6.448   3.484
 1848SOL    HW2 6444   2.120   6.537   3.513
 1849SOL     OW 6445   4.070   2.502   1.346
 1849SOL    HW1 6446   4.061   2.550   1.433
 1849SOL    HW2 6447   4.164   2.473   1.333
 1850SOL     OW 6448   6.650   2.196   2.432
 1850SOL    HW1 6449   6.662   2.103   2.397
 1850SOL    HW2 6450   6.568   2.199   2.490
 1851SOL     OW 6451   1.010   3.365   0.070
 1851SOL    HW1 6452   0.976   3.334   7.000
 1851SOL    HW2 6453   1.016   3.288   0.132
 1852SOL     OW 6454   0.346   4.863   2.654
 1852SOL    HW1 6455   0.287   4.916   2.593
 1852SOL    HW2 6456   0.292   4.826   2.729
 1853SOL     OW 6457   6.738   2.381   3.133
 1853SOL    HW1 6458   6.752   2.461   3.075
 1853SOL    HW2 6459   6.643   2.379   3.165
 1854SOL     OW 6460   1.958   5.305   2.471
 1854SOL    HW1 6461   1.980   5.223   2.418
 1854SOL    HW2 6462   2.016   5.310   2.552
 1855SOL     OW 6463   5.501   3.623   5.165
 1855SOL    HW1 6464   5.405   3.641   5.144
 1855SOL    HW2 6465   5.508   3.542   5.224
 1856SOL     OW 6466   4.825   2.970   6.144
 1856SOL    HW1 6467   4.767   3.045   6.174
 1856SOL    HW2 6468   4.905   3.006   6.096
 1857SOL     OW 6469   4.263   1.277   0.121
 1857SOL    HW1 6470   4.309   1.219   0.053
 1857SOL    HW2 6471   4.172   1.239   0.141
 1858SOL     OW 6472   5.350   2.619   3.011
 1858SOL    HW1 6473   5.259   2.658   2.999
 1858SOL    HW2 6474   5.381   2.634   3.104
 1859SOL     OW 6475   4.227   1.646   3.665
 1859SOL    HW1 6476   4.222   1.555   3.705
 1859SOL    HW2 6477   4.235   1.715   3.737
 1860SOL     OW 6478   6.864   1.744   5.685
 1860SOL    HW1 6479   6.785   1.759   5.626
 1860SOL    HW2 6480   6.947   1.776   5.639
 1861SOL     OW 6481   4.602   0.717   2.554
 1861SOL    HW1 6482   4.526   0.750   2.611
 1861SOL    HW2 6483   4.603   0.768   2.468
 1862SOL     OW 6484   2.195   6.650   0.134
 1862SOL    HW1 6485   2.239   6.721   0.079
 1862SOL    HW2 6486   2.238   6.647   0.224
 1863SOL     OW 6487   6.876   2.714   2.744
 1863SOL    HW1 6488   6.895   2.695   2.648
 1863SOL    HW2 6489   6.940   2.783   2.778
 1864SOL     OW 6490   3.560   6.075   4.341
 1864SOL    HW1 6491   3.497   6.106   4.413
 1864SOL    HW2 6492   3.623   6.008   4.379
 1865SOL     OW 6493   3.474   0.727   0.875
 1865SOL    HW1 6494   3.421   0.670   0.812
 1865SOL    HW2 6495   3.433   0.721   0.966
 1866SOL     OW 6496   0.135   4.756   3.624
 1866SOL    HW1 6497   0.200   4.683   3.600
 1866SOL    HW2 6498   0.096   4.794   3.540
 1867SOL     OW 6499   1.935   4.136   1.635
 1867SOL    HW1 6500   2.029   4.104   1.643
 1867SOL    HW2 6501   1.895   4.147   1.726
 1868SOL     OW 6502   5.290   3.774   6.452
 1868SOL    HW1 6503   5.334   3.700   6.503
 1868SOL    HW2 6504   5.347   3.799   6.373
 1869SOL     OW 6505   6.276   3.274   4.761
 1869SOL    HW1 6506   6.261   3.368   4.791
 1869SOL    HW2 6507   6.223   3.256   4.678
 1870SOL     OW 6508   0.998   3.056   5.103
 1870SOL    HW1 6509   1.082   3.101   5.073
 1870SOL    HW2 6510   1.021   2.970   5.150
 1871SOL     OW 6511   6.610   6.993   1.004
 1871SOL    HW1 6512   6.554   0.046   1.044
 1871SOL    HW2 6513   6.687   6.974   1.064
 1872SOL     OW 6514   4.425   1.996   6.957
 1872SOL    HW1 6515   4.333   1.965   6.933
 1872SOL    HW2 6516   4.437   1.990   0.037
 1873SOL     OW 6517   6.589   0.614   5.460
 1873SOL    HW1 6518   6.594   0.534   5.520
 1873SOL    HW2 6519   6.656   0.682   5.489
 1874SOL     OW 6520   1.049   1.030   6.488
 1874SOL    HW1 6521   1.001   1.087   6.555
 1874SOL    HW2 6522   1.093   1.089   6.421
 1875SOL     OW 6523   6.662   0.132   0.794
 1875SOL    HW1 6524   6.648   0.076   0.876
 1875SOL    HW2 6525   6.748   0.108   0.751
 1876SOL     OW 6526   3.864   5.975   6.440
 1876SOL    HW1 6527   3.915   6.057   6.414
 1876SOL    HW2 6528   3.915   5.893   6.413
 1877SOL     OW 6529   1.011   1.945   3.243
 1877SOL    HW1 6530   0.965   2.008   3.180
 1877SOL    HW2 6531   0.989   1.971   3.337
 1878SOL     OW 6532   6.536   3.902   3.627
 1878SOL    HW1 6533   6.600   3.887   3.552
 1878SOL    HW2 6534   6.553   3.834   3.699
 1879SOL     OW 6535   2.706   6.039   3.932
 1879SOL    HW1 6536   2.792   6.087   3.949
 1879SOL    HW2 6537   2.724   5.942   3.919
 1880SOL     OW 6538   0.265   1.734   3.023
 1880SOL    HW1 6539   0.321   1.814   3.047
 1880SOL    HW2 6540   0.242   1.737   2.925
 1881SOL     OW 6541   1.894   1.914   3.814
 1881SOL    HW1 6542   1.915   2.005   3.849
 1881SOL    HW2 6543   1.971   1.853   3.833
 1882SOL     OW 6544   0.679   4.856   6.767
 1882SOL    HW1 6545   0.633   4.943   6.747
 1882SOL    HW2 6546   0.658   4.790   6.696
 1883SOL     OW 6547   1.013   3.631   4.272
 1883SOL    HW1 6548   0.928   3.588   4.243
 1883SOL    HW2 6549   1.021   3.624   4.371
 1884SOL     OW 6550   6.128   2.590   1.320
 1884SOL    HW1 6551   6.165   2.666   1.374
 1884SOL    HW2 6552   6.138   2.611   1.223
 1885SOL     OW 6553   7.016   2.175   0.838
 1885SOL    HW1 6554   0.010   2.223   0.751
 1885SOL    HW2 6555   0.073   2.112   0.854
 1886SOL     OW 6556   2.413   2.523   7.013
 1886SOL    HW1 6557   2.360   2.590   6.962
 1886SOL    HW2 6558   2.485   2.485   6.955
 1887SOL     OW 6559   0.490   4.422   5.629
 1887SOL    HW1 6560   0.469   4.357   5.556
 1887SOL    HW2 6561   0.583   4.458   5.616
 1888SOL     OW 6562   2.797   2.276   5.566
 1888SOL    HW1 6563   2.870   2.294   5.500
 1888SOL    HW2 6564   2.734   2.209   5.528
 1889SOL     OW 6565   5.212   3.160   6.225
 1889SOL    HW1 6566   5.266   3.080   6.253
 1889SOL    HW2 6567   5.221   3.232   6.294
 1890SOL     OW 6568   1.597   5.971   5.292
 1890SOL    HW1 6569   1.532   6.036   5.252
 1890SOL    HW2 6570   1.659   6.019   5.354
 1891SOL     OW 6571   5.513   3.257   4.191
 1891SOL    HW1 6572   5.571   3.175   4.199
 1891SOL    HW2 6573   5.418   3.231   4.203
 1892SOL     OW 6574   3.448   0.123   1.011
 1892SOL    HW1 6575   3.437   0.026   0.991
 1892SOL    HW2 6576   3.544   0.144   1.026
 1893SOL     OW 6577   3.210   1.681   5.465
 1893SOL    HW1 6578   3.166   1.771   5.460
 1893SOL    HW2 6579   3.143   1.610   5.445
 1894SOL     OW 6580   4.050   3.803   1.731
 1894SOL    HW1 6581   4.078   3.899   1.728
 1894SOL    HW2 6582   4.128   3.745   1.753
 1895SOL     OW 6583   5.855   0.695   2.727
 1895SOL    HW1 6584   5.940   0.657   2.763
 1895SOL    HW2 6585   5.851   0.793   2.747
 1896SOL     OW 6586   0.591   0.637   3.081
 1896SOL    HW1 6587   0.539   0.690   3.148
 1896SOL    HW2 6588   0.656   0.578   3.129
 1897SOL     OW 6589   0.009   5.169   2.856
 1897SOL    HW1 6590   6.995   5.076   2.869
 1897SOL    HW2 6591   6.950   5.230   2.842
 1898SOL     OW 6592   3.243   5.241   1.675
 1898SOL    HW1 6593   3.315   5.276   1.615
 1898SOL    HW2 6594   3.156   5.284   1.652
 1899SOL     OW 6595   0.921   2.620   3.099
 1899SOL    HW1 6596   0.923   2.654   3.005
 1899SOL    HW2 6597   0.842   2.657   3.146
 1900SOL     OW 6598   0.723   0.465   5.494
 1900SOL    HW1 6599   0.821   0.462   5.478
 1900SOL    HW2 6600   0.681   0.380   5.462
 1901SOL     OW 6601   2.169   1.474   1.527
 1901SOL    HW1 6602   2.223   1.432   1.453
 1901SOL    HW2 6603   2.122   1.554   1.492
 1902SOL     OW 6604   2.452   2.599   5.046
 1902SOL    HW1 6605   2.463   2.662   5.124
 1902SOL    HW2 6606   2.539   2.551   5.031
 1903SOL     OW 6607   0.010   3.803   3.572
 1903SOL    HW1 6608   0.103   3.785   3.541
 1903SOL    HW2 6609   6.975   3.719   3.567
 1904SOL     OW 6610   5.814   6.868   4.063
 1904SOL    HW1 6611   5.877   6.849   4.138
 1904SOL    HW2 6612   5.840   6.954   4.018
 1905SOL     OW 6613   1.086   1.727   4.222
 1905SOL    HW1 6614   1.099   1.775   4.309
 1905SOL    HW2 6615   1.174   1.709   4.180
 1906SOL     OW 6616   2.847   6.975   5.235
 1906SOL    HW1 6617   2.844   6.898   5.172
 1906SOL    HW2 6618   2.808   6.948   5.323
 1907SOL     OW 6619   3.281   6.584   3.288
 1907SOL    HW1 6620   3.235   6.520   3.226
 1907SOL    HW2 6621   3.318   6.534   3.366
 1908SOL     OW 6622   4.406   0.886   4.916
 1908SOL    HW1 6623   4.491   0.836   4.930
 1908SOL    HW2 6624   4.419   0.957   4.847
 1909SOL     OW 6625   1.547   3.646   3.187
 1909SOL    HW1 6626   1.478   3.693   3.242
 1909SOL    HW2 6627   1.622   3.709   3.167
 1910SOL     OW 6628   6.835   2.210   6.519
 1910SOL    HW1 6629   6.901   2.232   6.447
 1910SOL    HW2 6630   6.754   2.267   6.508
 1911SOL     OW 6631   5.723   2.355   5.488
 1911SOL    HW1 6632   5.777   2.438   5.480
 1911SOL    HW2 6633   5.720   2.326   5.584
 1912SOL     OW 6634   3.649   6.594   1.430
 1912SOL    HW1 6635   3.637   6.686   1.392
 1912SOL    HW2 6636   3.742   6.563   1.413
 1913SOL     OW 6637   1.846   6.239   5.704
 1913SOL    HW1 6638   1.802   6.307   5.647
 1913SOL    HW2 6639   1.941   6.266   5.723
 1914SOL     OW 6640   3.163   2.584   6.875
 1914SOL    HW1 6641   3.184   2.613   6.968
 1914SOL    HW2 6642   3.192   2.654   6.811
 1915SOL     OW 6643   4.443   1.331   5.311
 1915SOL    HW1 6644   4.360   1.329   5.367
 1915SOL    HW2 6645   4.430   1.273   5.230
 1916SOL     OW 6646   3.406   6.208   1.034
 1916SOL    HW1 6647   3.399   6.289   1.092
 1916SOL    HW2 6648   3.489   6.157   1.058
 1917SOL     OW 6649   3.690   2.940   4.357
 1917SOL    HW1 6650   3.678   2.907   4.450
 1917SOL    HW2 6651   3.609   2.919   4.303
 1918SOL     OW 6652   0.203   0.378   6.380
 1918SOL    HW1 6653   0.117   0.330   6.394
 1918SOL    HW2 6654   0.200   0.426   6.292
 1919SOL     OW 6655   2.377   6.387   1.588
 1919SOL    HW1 6656   2.311   6.313   1.573
 1919SOL    HW2 6657   2.410   6.384   1.682
 1920SOL     OW 6658   0.536   5.093   2.683
 1920SOL    HW1 6659   0.473   5.108   2.759
 1920SOL    HW2 6660   0.547   4.995   2.666
 1921SOL     OW 6661   1.438   4.478   6.890
 1921SOL    HW1 6662   1.429   4.530   6.805
 1921SOL    HW2 6663   1.507   4.520   6.948
 1922SOL     OW 6664   3.427   4.329   0.709
 1922SOL    HW1 6665   3.498   4.369   0.652
 1922SOL    HW2 6666   3.460   4.318   0.803
 1923SOL     OW 6667   3.428   1.088   6.088
 1923SOL    HW1 6668   3.380   1.168   6.126
 1923SOL    HW2 6669   3.473   1.113   6.003
 1924SOL     OW 6670   5.852   5.446   1.985
 1924SOL    HW1 6671   5.773   5.418   1.930
 1924SOL    HW2 6672   5.936   5.418   1.939
 1925SOL     OW 6673   2.906   3.182   1.992
 1925SOL    HW1 6674   3.002   3.153   1.992
 1925SOL    HW2 6675   2.858   3.138   2.067
 1926SOL     OW 6676   0.977   6.978   3.597
 1926SOL    HW1 6677   0.963   6.898   3.539
 1926SOL    HW2 6678   0.991   0.040   3.540
 1927SOL     OW 6679   3.300   5.101   6.099
 1927SOL    HW1 6680   3.352   5.172   6.147
 1927SOL    HW2 6681   3.360   5.022   6.083
 1928SOL     OW 6682   6.838   3.835   5.976
 1928SOL    HW1 6683   6.818   3.846   6.074
 1928SOL    HW2 6684   6.755   3.809   5.928
 1929SOL     OW 6685   0.763   5.976   0.917
 1929SOL    HW1 6686   0.678   5.968   0.970
 1929SOL    HW2 6687   0.823   5.899   0.940
 1930SOL     OW 6688   3.716   4.085   6.952
 1930SOL    HW1 6689   3.769   4.124   6.878
 1930SOL    HW2 6690   3.742   3.990   6.967
 1931SOL     OW 6691   6.854   2.259   3.345
 1931SOL    HW1 6692   6.817   2.294   3.431
 1931SOL    HW2 6693   6.802   2.298   3.269
 1932SOL     OW 6694   4.919   3.623   2.984
 1932SOL    HW1 6695   4.913   3.585   2.892
 1932SOL    HW2 6696   4.904   3.551   3.051
 1933SOL     OW 6697   2.607   4.653   0.837
 1933SOL    HW1 6698   2.567   4.606   0.759
 1933SOL    HW2 6699   2.538   4.711   0.880
 1934SOL     OW 6700   0.525   0.345   4.218
 1934SOL    HW1 6701   0.446   0.285   4.232
 1934SOL    HW2 6702   0.493   0.434   4.186
 1935SOL     OW 6703   3.837   0.444   4.911
 1935SOL    HW1 6704   3.869   0.518   4.851
 1935SOL    HW2 6705   3.889   0.361   4.892
 1936SOL     OW 6706   6.590   4.245   4.084
 1936SOL    HW1 6707   6.550   4.335   4.066
 1936SOL    HW2 6708   6.599   4.195   3.998
 1937SOL     OW 6709   5.092   0.252   0.991
 1937SOL    HW1 6710   5.057   0.159   0.998
 1937SOL    HW2 6711   5.018   0.314   0.964
 1938SOL     OW 6712   3.616   1.050   1.829
 1938SOL    HW1 6713   3.593   1.141   1.864
 1938SOL    HW2 6714   3.646   0.992   1.904
 1939SOL     OW 6715   0.993   0.028   4.321
 1939SOL    HW1 6716   1.039   0.063   4.239
 1939SOL    HW2 6717   1.050   6.977   4.364
 1940SOL     OW 6718   4.339   4.705   6.505
 1940SOL    HW1 6719   4.348   4.743   6.413
 1940SOL    HW2 6720   4.274   4.629   6.503
 1941SOL     OW 6721   0.018   3.862   3.200
 1941SOL    HW1 6722   0.022   3.962   3.193
 1941SOL    HW2 6723   7.003   3.824   3.114
 1942SOL     OW 6724   5.499   0.474   2.051
 1942SOL    HW1 6725   5.438   0.396   2.035
 1942SOL    HW2 6726   5.483   0.543   1.981
 1943SOL     OW 6727   2.588   6.213   2.367
 1943SOL    HW1 6728   2.587   6.295   2.309
 1943SOL    HW2 6729   2.640   6.141   2.321
 1944SOL     OW 6730   5.972   2.194   0.572
 1944SOL    HW1 6731   6.014   2.104   0.580
 1944SOL    HW2 6732   6.041   2.265   0.583
 1945SOL     OW 6733   3.610   5.958   2.434
 1945SOL    HW1 6734   3.663   6.001   2.361
 1945SOL    HW2 6735   3.549   5.889   2.395
 1946SOL     OW 6736   6.288   0.878   1.325
 1946SOL    HW1 6737   6.352   0.802   1.315
 1946SOL    HW2 6738   6.279   0.901   1.422
 1947SOL     OW 6739   4.458   6.302   4.232
 1947SOL    HW1 6740   4.494   6.360   4.159
 1947SOL    HW2 6741   4.519   6.307   4.311
 1948SOL     OW 6742   5.506   5.990   4.048
 1948SOL    HW1 6743   5.407   5.986   4.060
 1948SOL    HW2 6744   5.549   5.912   4.093
 1949SOL     OW 6745   3.961   4.511   6.302
 1949SOL    HW1 6746   3.959   4.540   6.206
 1949SOL    HW2 6747   3.893   4.563   6.354
 1950SOL     OW 6748   3.735   4.614   1.036
 1950SOL    HW1 6749   3.636   4.612   1.025
 1950SOL    HW2 6750   3.759   4.681   1.107
 1951SOL     OW 6751   5.892   3.822   0.169
 1951SOL    HW1 6752   5.845   3.902   0.131
 1951SOL    HW2 6753   5.983   3.814   0.128
 1952SOL     OW 6754   4.170   2.464   6.743
 1952SOL    HW1 6755   4.189   2.482   6.840
 1952SOL    HW2 6756   4.116   2.539   6.705
 1953SOL     OW 6757   5.807   2.897   0.019
 1953SOL    HW1 6758   5.853   2.839   0.085
 1953SOL    HW2 6759   5.751   2.965   0.067
 1954SOL     OW 6760   5.611   1.283   3.571
 1954SOL    HW1 6761   5.705   1.273   3.603
 1954SOL    HW2 6762   5.566   1.357   3.620
 1955SOL     OW 6763   1.909   1.179   2.640
 1955SOL    HW1 6764   1.821   1.187   2.593
 1955SOL    HW2 6765   1.948   1.270   2.653
 1956SOL     OW 6766   4.898   6.548   2.169
 1956SOL    HW1 6767   4.847   6.524   2.251
 1956SOL    HW2 6768   4.890   6.646   2.152
 1957SOL     OW 6769   6.248   5.638   4.764
 1957SOL    HW1 6770   6.171   5.656   4.824
 1957SOL    HW2 6771   6.320   5.591   4.815
 1958SOL     OW 6772   5.386   2.330   2.541
 1958SOL    HW1 6773   5.314   2.382   2.496
 1958SOL    HW2 6774   5.352   2.238   2.562
 1959SOL     OW 6775   0.155   1.131   5.123
 1959SOL    HW1 6776   0.156   1.193   5.202
 1959SOL    HW2 6777   0.175   1.038   5.154
 1960SOL     OW 6778   6.694   4.620   1.760
 1960SOL    HW1 6779   6.633   4.560   1.812
 1960SOL    HW2 6780   6.670   4.716   1.777
 1961SOL     OW 6781   5.728   4.872   4.550
 1961SOL    HW1 6782   5.822   4.905   4.546
 1961SOL    HW2 6783   5.682   4.914   4.629
 1962SOL     OW 6784   2.474   6.870   3.560
 1962SOL    HW1 6785   2.377   6.890   3.572
 1962SOL    HW2 6786   2.526   6.955   3.566
 1963SOL     OW 6787   1.026   1.470   1.745
 1963SOL    HW1 6788   1.001   1.566   1.759
 1963SOL    HW2 6789   1.009   1.419   1.830
 1964SOL     OW 6790   4.915   4.014   1.323
 1964SOL    HW1 6791   4.832   4.035   1.273
 1964SOL    HW2 6792   4.960   4.099   1.351
 1965SOL     OW 6793   0.776   3.478   4.492
 1965SOL    HW1 6794   0.793   3.559   4.548
 1965SOL    HW2 6795   0.848   3.411   4.509
 1966SOL     OW 6796   6.797   6.162   0.127
 1966SOL    HW1 6797   6.730   6.186   0.056
 1966SOL    HW2 6798   6.752   6.106   0.197
 1967SOL     OW 6799   4.514   2.218   4.560
 1967SOL    HW1 6800   4.559   2.305   4.580
 1967SOL    HW2 6801   4.415   2.234   4.549
 1968SOL     OW 6802   3.294   6.903   0.126
 1968SOL    HW1 6803   3.345   6.980   0.165
 1968SOL    HW2 6804   3.228   6.869   0.193
 1969SOL     OW 6805   0.802   1.617   1.876
 1969SOL    HW1 6806   0.724   1.583   1.824
 1969SOL    HW2 6807   0.808   1.567   1.962
 1970SOL     OW 6808   2.175   6.985   6.009
 1970SOL    HW1 6809   2.079   6.997   5.982
 1970SOL    HW2 6810   2.179   6.951   6.103
 1971SOL     OW 6811   0.328   6.942   5.738
 1971SOL    HW1 6812   0.405   6.987   5.785
 1971SOL    HW2 6813   0.346   6.940   5.640
 1972SOL     OW 6814   5.633   2.430   2.623
 1972SOL    HW1 6815   5.702   2.427   2.550
 1972SOL    HW2 6816   5.546   2.397   2.588
 1973SOL     OW 6817   2.449   2.850   0.462
 1973SOL    HW1 6818   2.372   2.913   0.470
 1973SOL    HW2 6819   2.415   2.756   0.455
 1974SOL     OW 6820   5.236   6.065   4.097
 1974SOL    HW1 6821   5.138   6.078   4.083
 1974SOL    HW2 6822   5.251   6.016   4.183
 1975SOL     OW 6823   2.197   1.612   3.682
 1975SOL    HW1 6824   2.288   1.652   3.666
 1975SOL    HW2 6825   2.208   1.522   3.725
 1976SOL     OW 6826   0.788   6.496   6.796
 1976SOL    HW1 6827   0.825   6.580   6.836
 1976SOL    HW2 6828   0.764   6.511   6.700
 1977SOL     OW 6829   0.648   3.712   4.088
 1977SOL    HW1 6830   0.709   3.785   4.118
 1977SOL    HW2 6831   0.667   3.629   4.140
 1978SOL     OW 6832   0.995   0.557   2.941
 1978SOL    HW1 6833   1.014   0.490   3.013
 1978SOL    HW2 6834   0.898   0.579   2.940
 1979SOL     OW 6835   6.040   4.589   5.798
 1979SOL    HW1 6836   5.968   4.636   5.747
 1979SOL    HW2 6837   6.121   4.648   5.803
 1980SOL     OW 6838   2.735   0.574   5.187
 1980SOL    HW1 6839   2.757   0.670   5.205
 1980SOL    HW2 6840   2.779   0.545   5.103
 1981SOL     OW 6841   6.413   2.154   2.580
 1981SOL    HW1 6842   6.450   2.125   2.668
 1981SOL    HW2 6843   6.344   2.224   2.595
 1982SOL     OW 6844   0.369   4.127   5.133
 1982SOL    HW1 6845   0.457   4.164   5.105
 1982SOL    HW2 6846   0.320   4.092   5.053
 1983SOL     OW 6847   0.607   1.387   2.720
 1983SOL    HW1 6848   0.647   1.447   2.650
 1983SOL    HW2 6849   0.605   1.435   2.808
 1984SOL     OW 6850   6.320   1.916   5.141
 1984SOL    HW1 6851   6.323   1.859   5.223
 1984SOL    HW2 6852   6.410   1.918   5.098
 1985SOL     OW 6853   1.214   6.319   2.463
 1985SOL    HW1 6854   1.305   6.346   2.431
 1985SOL    HW2 6855   1.176   6.391   2.521
 1986SOL     OW 6856   1.066   0.552   0.315
 1986SOL    HW1 6857   1.055   0.550   0.414
 1986SOL    HW2 6858   1.162   0.566   0.292
 1987SOL     OW 6859   1.951   2.554   2.029
 1987SOL    HW1 6860   1.911   2.519   1.945
 1987SOL    HW2 6861   1.964   2.479   2.094
 1988SOL     OW 6862   5.810   4.465   1.074
 1988SOL    HW1 6863   5.780   4.514   0.992
 1988SOL    HW2 6864   5.788   4.368   1.065
 1989SOL     OW 6865   2.267   6.737   4.336
 1989SOL    HW1 6866   2.231   6.768   4.424
 1989SOL    HW2 6867   2.195   6.742   4.267
 1990SOL     OW 6868   3.074   6.514   0.114
 1990SOL    HW1 6869   3.059   6.440   0.049
 1990SOL    HW2 6870   3.171   6.520   0.135
 1991SOL     OW 6871   4.294   4.484   6.166
 1991SOL    HW1 6872   4.328   4.523   6.251
 1991SOL    HW2 6873   4.330   4.536   6.089
 1992SOL     OW 6874   0.784   0.443   6.885
 1992SOL    HW1 6875   0.849   0.437   6.961
 1992SOL    HW2 6876   0.780   0.356   6.837
 1993SOL     OW 6877   3.901   3.039   4.509
 1993SOL    HW1 6878   3.892   3.009   4.604
 1993SOL    HW2 6879   3.832   2.994   4.453
 1994SOL     OW 6880   0.521   0.934   0.750
 1994SOL    HW1 6881   0.609   0.915   0.707
 1994SOL    HW2 6882   0.473   0.847   0.768
 1995SOL     OW 6883   5.635   2.615   2.835
 1995SOL    HW1 6884   5.654   2.535   2.777
 1995SOL    HW2 6885   5.558   2.595   2.895
 1996SOL     OW 6886   2.157   3.608   0.845
 1996SOL    HW1 6887   2.198   3.649   0.926
 1996SOL    HW2 6888   2.117   3.519   0.869
 1997SOL     OW 6889   3.999   0.941   4.728
 1997SOL    HW1 6890   4.051   0.856   4.733
 1997SOL    HW2 6891   3.944   0.941   4.644
 1998SOL     OW 6892   2.656   3.936   6.296
 1998SOL    HW1 6893   2.730   3.887   6.251
 1998SOL    HW2 6894   2.676   3.944   6.394
 1999SOL     OW 6895   3.017   6.708   1.482
 1999SOL    HW1 6896   3.113   6.682   1.469
 1999SOL    HW2 6897   3.006   6.805   1.460
 2000SOL     OW 6898   4.418   2.266   5.348
 2000SOL    HW1 6899   4.512   2.265   5.316
 2000SOL    HW2 6900   4.413   2.221   5.437
 2001SOL     OW 6901   2.933   1.317   1.253
 2001SOL    HW1 6902   2.834   1.313   1.265
 2001SOL    HW2 6903   2.964   1.238   1.201
 2002SOL     OW 6904   0.862   4.463   6.378
 2002SOL    HW1 6905   0.773   4.497   6.346
 2002SOL    HW2 6906   0.848   4.405   6.459
 2003SOL     OW 6907   6.121   5.993   2.779
 2003SOL    HW1 6908   6.041   5.948   2.740
 2003SOL    HW2 6909   6.162   6.054   2.712
 2004SOL     OW 6910   4.891   1.276   5.351
 2004SOL    HW1 6911   4.842   1.190   5.339
 2004SOL    HW2 6912   4.908   1.291   5.449
 2005SOL     OW 6913   1.140   5.044   6.804
 2005SOL    HW1 6914   1.205   5.074   6.734
 2005SOL    HW2 6915   1.094   4.961   6.773
 2006SOL     OW 6916   4.978   5.571   3.986
 2006SOL    HW1 6917   4.950   5.547   4.079
 2006SOL    HW2 6918   4.915   5.529   3.920
 2007SOL     OW 6919   4.337   4.852   1.104
 2007SOL    HW1 6920   4.407   4.788   1.073
 2007SOL    HW2 6921   4.281   4.880   1.027
 2008SOL     OW 6922   2.154   4.972   3.409
 2008SOL    HW1 6923   2.148   4.935   3.316
 2008SOL    HW2 6924   2.181   4.900   3.473
 2009SOL     OW 6925   5.795   0.172   2.182
 2009SOL    HW1 6926   5.710   0.181   2.130
 2009SOL    HW2 6927   5.806   0.252   2.241
 2010SOL     OW 6928   1.975   1.653   1.115
 2010SOL    HW1 6929   2.075   1.648   1.107
 2010SOL    HW2 6930   1.940   1.721   1.051
 2011SOL     OW 6931   6.725   1.146   4.634
 2011SOL    HW1 6932   6.668   1.074   4.671
 2011SOL    HW2 6933   6.671   1.202   4.571
 2012SOL     OW 6934   1.821   3.476   2.188
 2012SOL    HW1 6935   1.756   3.419   2.137
 2012SOL    HW2 6936   1.785   3.493   2.280
 2013SOL     OW 6937   6.347   2.069   3.543
 2013SOL    HW1 6938   6.427   2.054   3.601
 2013SOL    HW2 6939   6.321   1.983   3.499
 2014SOL     OW 6940   1.907   4.941   3.114
 2014SOL    HW1 6941   1.911   5.021   3.174
 2014SOL    HW2 6942   1.981   4.878   3.136
 2015SOL     OW 6943   1.502   1.509   0.421
 2015SOL    HW1 6944   1.530   1.592   0.469
 2015SOL    HW2 6945   1.529   1.515   0.325
 2016SOL     OW 6946   0.599   6.265   4.626
 2016SOL    HW1 6947   0.592   6.362   4.650
 2016SOL    HW2 6948   0.630   6.213   4.706
 2017SOL     OW 6949   3.002   0.391   4.349
 2017SOL    HW1 6950   2.979   0.304   4.392
 2017SOL    HW2 6951   3.080   0.432   4.397
 2018SOL     OW 6952   5.308   6.786   5.737
 2018SOL    HW1 6953   5.293   6.848   5.814
 2018SOL    HW2 6954   5.402   6.794   5.705
 2019SOL     OW 6955   5.335   2.392   1.261
 2019SOL    HW1 6956   5.364   2.473   1.209
 2019SOL    HW2 6957   5.277   2.335   1.203
 2020SOL     OW 6958   0.952   6.174   4.998
 2020SOL    HW1 6959   1.003   6.260   4.998
 2020SOL    HW2 6960   1.002   6.105   5.051
 2021SOL     OW 6961   1.744   5.539   3.535
 2021SOL    HW1 6962   1.796   5.455   3.521
 2021SOL    HW2 6963   1.771   5.580   3.623
 2022SOL     OW 6964   1.906   4.104   3.670
 2022SOL    HW1 6965   1.871   4.068   3.584
 2022SOL    HW2 6966   1.835   4.098   3.740
 2023SOL     OW 6967   6.466   0.898   6.576
 2023SOL    HW1 6968   6.510   0.913   6.487
 2023SOL    HW2 6969   6.372   0.933   6.573
 2024SOL     OW 6970   0.309   6.696   3.616
 2024SOL    HW1 6971   0.343   6.748   3.694
 2024SOL    HW2 6972   0.352   6.605   3.614
 2025SOL     OW 6973   2.844   2.189   2.879
 2025SOL    HW1 6974   2.801   2.103   2.904
 2025SOL    HW2 6975   2.831   2.255   2.953
 2026SOL     OW 6976   0.199   3.186   5.871
 2026SOL    HW1 6977   0.103   3.214   5.882
 2026SOL    HW2 6978   0.246   3.196   5.958
 2027SOL     OW 6979   0.510   0.536   0.474
 2027SOL    HW1 6980   0.532   0.629   0.445
 2027SOL    HW2 6981   0.451   0.493   0.406
 2028SOL     OW 6982   2.894   0.334   4.987
 2028SOL    HW1 6983   2.963   0.404   5.005
 2028SOL    HW2 6984   2.934   0.243   4.999
 2029SOL     OW 6985   6.460   0.674   1.292
 2029SOL    HW1 6986   6.440   0.576   1.301
 2029SOL    HW2 6987   6.551   0.686   1.254
 2030SOL     OW 6988   2.635   0.630   2.713
 2030SOL    HW1 6989   2.612   0.640   2.616
 2030SOL    HW2 6990   2.597   0.707   2.764
 2031SOL     OW 6991   6.600   5.985   1.703
 2031SOL    HW1 6992   6.629   5.891   1.685
 2031SOL    HW2 6993   6.601   6.037   1.618
 2032SOL     OW 6994   4.891   6.363   1.671
 2032SOL    HW1 6995   4.935   6.336   1.757
 2032SOL    HW2 6996   4.851   6.454   1.681
 2033SOL     OW 6997   3.667   3.795   6.990
 2033SOL    HW1 6998   3.571   3.806   6.963
 2033SOL    HW2 6999   3.714   3.739   6.922
 2034SOL     OW 7000   3.006   6.607   5.380
 2034SOL    HW1 7001   2.920   6.581   5.424
 2034SOL    HW2 7002   3.035   6.534   5.318
 2035SOL     OW 7003   0.245   0.545   2.458
 2035SOL    HW1 7004   0.290   0.499   2.382
 2035SOL    HW2 7005   0.249   0.487   2.539
 2036SOL     OW 7006   1.540   5.148   2.663
 2036SOL    HW1 7007   1.552   5.180   2.757
 2036SOL    HW2 7008   1.623   5.103   2.632
 2037SOL     OW 7009   6.547   3.346   5.404
 2037SOL    HW1 7010   6.644   3.366   5.414
 2037SOL    HW2 7011   6.496   3.432   5.399
 2038SOL     OW 7012   1.094   1.984   6.560
 2038SOL    HW1 7013   1.029   1.995   6.635
 2038SOL    HW2 7014   1.187   1.988   6.597
 2039SOL     OW 7015   1.127   5.674   3.422
 2039SOL    HW1 7016   1.190   5.684   3.345
 2039SOL    HW2 7017   1.176   5.694   3.507
 2040SOL     OW 7018   3.324   2.923   4.254
 2040SOL    HW1 7019   3.392   2.908   4.182
 2040SOL    HW2 7020   3.247   2.860   4.240
 2041SOL     OW 7021   0.776   6.095   5.327
 2041SOL    HW1 7022   0.749   6.171   5.268
 2041SOL    HW2 7023   0.864   6.116   5.371
 2042SOL     OW 7024   5.018   5.096   6.423
 2042SOL    HW1 7025   5.101   5.040   6.428
 2042SOL    HW2 7026   4.980   5.105   6.515
 2043SOL     OW 7027   6.355   3.452   3.420
 2043SOL    HW1 7028   6.453   3.453   3.442
 2043SOL    HW2 7029   6.334   3.528   3.357
 2044SOL     OW 7030   5.549   6.549   1.207
 2044SOL    HW1 7031   5.626   6.538   1.145
 2044SOL    HW2 7032   5.582   6.578   1.297
 2045SOL     OW 7033   3.150   4.907   3.944
 2045SOL    HW1 7034   3.098   4.954   4.015
 2045SOL    HW2 7035   3.246   4.935   3.950
 2046SOL     OW 7036   6.584   1.799   3.853
 2046SOL    HW1 7037   6.566   1.732   3.781
 2046SOL    HW2 7038   6.682   1.817   3.857
 2047SOL     OW 7039   6.081   2.322   6.915
 2047SOL    HW1 7040   6.019   2.315   6.836
 2047SOL    HW2 7041   6.174   2.297   6.886
 2048SOL     OW 7042   1.651   6.457   6.827
 2048SOL    HW1 7043   1.740   6.502   6.828
 2048SOL    HW2 7044   1.579   6.523   6.845
 2049SOL     OW 7045   5.537   1.661   6.053
 2049SOL    HW1 7046   5.507   1.738   5.997
 2049SOL    HW2 7047   5.634   1.671   6.074
 2050SOL     OW 7048   0.511   2.934   3.418
 2050SOL    HW1 7049   0.585   2.987   3.459
 2050SOL    HW2 7050   0.449   2.995   3.369
 2051SOL     OW 7051   1.085   6.177   0.764
 2051SOL    HW1 7052   1.075   6.088   0.809
 2051SOL    HW2 7053   1.162   6.174   0.701
 2052SOL     OW 7054   1.088   3.606   1.011
 2052SOL    HW1 7055   1.036   3.569   1.088
 2052SOL    HW2 7056   1.073   3.549   0.931
 2053SOL     OW 7057   5.837   6.697   5.058
 2053SOL    HW1 7058   5.925   6.743   5.074
 2053SOL    HW2 7059   5.787   6.691   5.145
 2054SOL     OW 7060   3.405   3.702   2.417
 2054SOL    HW1 7061   3.409   3.604   2.439
 2054SOL    HW2 7062   3.476   3.750   2.468
 2055SOL     OW 7063   5.819   3.642   3.313
 2055SOL    HW1 7064   5.726   3.678   3.313
 2055SOL    HW2 7065   5.847   3.622   3.219
 2056SOL     OW 7066   3.008   6.488   2.575
 2056SOL    HW1 7067   3.026   6.524   2.667
 2056SOL    HW2 7068   3.085   6.509   2.516
 2057SOL     OW 7069   5.735   3.791   5.048
 2057SOL    HW1 7070   5.705   3.878   5.010
 2057SOL    HW2 7071   5.657   3.744   5.090
 2058SOL     OW 7072   0.586   1.477   3.213
 2058SOL    HW1 7073   0.588   1.539   3.291
 2058SOL    HW2 7074   0.590   1.383   3.246
 2059SOL     OW 7075   2.171   5.818   6.418
 2059SOL    HW1 7076   2.148   5.850   6.326
 2059SOL    HW2 7077   2.269   5.826   6.432
 2060SOL     OW 7078   0.032   3.895   1.068
 2060SOL    HW1 7079   0.056   3.808   1.024
 2060SOL    HW2 7080   6.975   3.937   1.018
 2061SOL     OW 7081   0.135   1.420   3.457
 2061SOL    HW1 7082   0.078   1.430   3.539
 2061SOL    HW2 7083   0.096   1.475   3.383
 2062SOL     OW 7084   6.203   0.238   3.875
 2062SOL    HW1 7085   6.170   0.188   3.955
 2062SOL    HW2 7086   6.128   0.250   3.810
 2063SOL     OW 7087   2.031   6.928   6.257
 2063SOL    HW1 7088   1.950   6.906   6.312
 2063SOL    HW2 7089   2.101   6.969   6.315
 2064SOL     OW 7090   0.765   2.454   5.625
 2064SOL    HW1 7091   0.713   2.377   5.661
 2064SOL    HW2 7092   0.791   2.515   5.700
 2065SOL     OW 7093   6.808   2.698   4.886
 2065SOL    HW1 7094   6.798   2.764   4.959
 2065SOL    HW2 7095   6.840   2.611   4.923
 2066SOL     OW 7096   0.704   4.801   3.844
 2066SOL    HW1 7097   0.771   4.850   3.788
 2066SOL    HW2 7098   0.715   4.702   3.829
 2067SOL     OW 7099   6.440   5.324   1.209
 2067SOL    HW1 7100   6.516   5.261   1.192
 2067SOL    HW2 7101   6.357   5.272   1.229
 2068SOL     OW 7102   2.102   1.110   4.871
 2068SOL    HW1 7103   2.146   1.103   4.961
 2068SOL    HW2 7104   2.008   1.143   4.884
 2069SOL     OW 7105   0.563   2.657   3.398
 2069SOL    HW1 7106   0.545   2.755   3.390
 2069SOL    HW2 7107   0.487   2.614   3.448
 2070SOL     OW 7108   1.504   0.977   1.999
 2070SOL    HW1 7109   1.497   0.948   2.094
 2070SOL    HW2 7110   1.468   0.906   1.940
 2071SOL     OW 7111   6.768   6.004   6.017
 2071SOL    HW1 7112   6.791   6.094   6.056
 2071SOL    HW2 7113   6.840   5.976   5.953
 2072SOL     OW 7114   4.150   6.156   4.060
 2072SOL    HW1 7115   4.156   6.125   3.966
 2072SOL    HW2 7116   4.206   6.097   4.118
 2073SOL     OW 7117   4.001   0.093   4.312
 2073SOL    HW1 7118   4.022   0.177   4.262
 2073SOL    HW2 7119   4.082   0.034   4.315
 2074SOL     OW 7120   1.769   2.571   0.621
 2074SOL    HW1 7121   1.722   2.656   0.645
 2074SOL    HW2 7122   1.765   2.507   0.698
 2075SOL     OW 7123   5.681   3.127   1.991
 2075SOL    HW1 7124   5.678   3.057   1.920
 2075SOL    HW2 7125   5.651   3.214   1.953
 2076SOL     OW 7126   6.216   0.363   0.137
 2076SOL    HW1 7127   6.188   0.444   0.086
 2076SOL    HW2 7128   6.140   0.331   0.193
 2077SOL     OW 7129   5.263   2.522   2.741
 2077SOL    HW1 7130   5.245   2.435   2.695
 2077SOL    HW2 7131   5.325   2.507   2.818
 2078SOL     OW 7132   1.159   5.787   5.775
 2078SOL    HW1 7133   1.242   5.822   5.820
 2078SOL    HW2 7134   1.164   5.806   5.677
 2079SOL     OW 7135   5.410   2.135   3.663
 2079SOL    HW1 7136   5.382   2.082   3.742
 2079SOL    HW2 7137   5.432   2.229   3.691
 2080SOL     OW 7138   1.880   6.769   4.783
 2080SOL    HW1 7139   1.958   6.784   4.722
 2080SOL    HW2 7140   1.813   6.842   4.769
 2081SOL     OW 7141   1.531   5.459   4.498
 2081SOL    HW1 7142   1.493   5.394   4.565
 2081SOL    HW2 7143   1.622   5.428   4.471
 2082SOL     OW 7144   0.750   0.412   2.354
 2082SOL    HW1 7145   0.729   0.426   2.451
 2082SOL    HW2 7146   0.713   0.324   2.324
 2083SOL     OW 7147   6.384   5.137   6.269
 2083SOL    HW1 7148   6.381   5.070   6.195
 2083SOL    HW2 7149   6.370   5.229   6.232
 2084SOL     OW 7150   1.446   4.001   3.446
 2084SOL    HW1 7151   1.418   4.003   3.542
 2084SOL    HW2 7152   1.412   3.917   3.403
 2085SOL     OW 7153   4.589   0.518   6.660
 2085SOL    HW1 7154   4.624   0.445   6.601
 2085SOL    HW2 7155   4.543   0.587   6.605
 2086SOL     OW 7156   4.247   6.360   5.649
 2086SOL    HW1 7157   4.339   6.352   5.686
 2086SOL    HW2 7158   4.182   6.312   5.708
 2087SOL     OW 7159   5.260   0.689   0.991
 2087SOL    HW1 7160   5.207   0.686   0.906
 2087SOL    HW2 7161   5.358   0.691   0.969
 2088SOL     OW 7162   1.134   6.154   0.254
 2088SOL    HW1 7163   1.131   6.252   0.277
 2088SOL    HW2 7164   1.111   6.100   0.335
 2089SOL     OW 7165   5.322   1.961   6.394
 2089SOL    HW1 7166   5.312   1.864   6.372
 2089SOL    HW2 7167   5.261   1.985   6.469
 2090SOL     OW 7168   3.815   2.615   5.833
 2090SOL    HW1 7169   3.852   2.524   5.851
 2090SOL    HW2 7170   3.801   2.627   5.735
 2091SOL     OW 7171   0.545   5.449   0.194
 2091SOL    HW1 7172   0.483   5.474   0.120
 2091SOL    HW2 7173   0.622   5.398   0.156
 2092SOL     OW 7174   5.461   3.676   0.362
 2092SOL    HW1 7175   5.422   3.588   0.335
 2092SOL    HW2 7176   5.557   3.679   0.334
 2093SOL     OW 7177   2.592   2.254   1.348
 2093SOL    HW1 7178   2.560   2.320   1.417
 2093SOL    HW2 7179   2.643   2.302   1.278
 2094SOL     OW 7180   5.795   1.823   1.873
 2094SOL    HW1 7181   5.887   1.861   1.868
 2094SOL    HW2 7182   5.732   1.895   1.904
 2095SOL     OW 7183   5.840   6.958   5.330
 2095SOL    HW1 7184   5.760   7.019   5.326
 2095SOL    HW2 7185   5.809   6.864   5.342
 2096SOL     OW 7186   4.808   3.975   2.865
 2096SOL    HW1 7187   4.794   3.876   2.866
 2096SOL    HW2 7188   4.787   4.013   2.955
 2097SOL     OW 7189   3.184   3.625   6.552
 2097SOL    HW1 7190   3.108   3.687   6.534
 2097SOL    HW2 7191   3.258   3.675   6.596
 2098SOL     OW 7192   3.402   5.903   1.963
 2098SOL    HW1 7193   3.481   5.881   2.019
 2098SOL    HW2 7194   3.323   5.851   1.994
 2099SOL     OW 7195   3.341   2.981   6.068
 2099SOL    HW1 7196   3.385   3.060   6.110
 2099SOL    HW2 7197   3.401   2.942   5.998
 2100SOL     OW 7198   4.983   2.395   6.808
 2100SOL    HW1 7199   5.059   2.362   6.753
 2100SOL    HW2 7200   4.969   2.333   6.885
 2101SOL     OW 7201   1.072   6.329   1.742
 2101SOL    HW1 7202   1.162   6.355   1.775
 2101SOL    HW2 7203   1.003   6.357   1.809
 2102SOL     OW 7204   5.640   4.496   2.901
 2102SOL    HW1 7205   5.659   4.398   2.909
 2102SOL    HW2 7206   5.595   4.528   2.985
 2103SOL     OW 7207   3.964   4.228   5.952
 2103SOL    HW1 7208   3.880   4.184   5.921
 2103SOL    HW2 7209   4.006   4.174   6.024
 2104SOL     OW 7210   1.528   4.591   1.380
 2104SOL    HW1 7211   1.617   4.629   1.403
 2104SOL    HW2 7212   1.497   4.630   1.292
 2105SOL     OW 7213   5.383   6.088   5.243
 2105SOL    HW1 7214   5.322   6.166   5.258
 2105SOL    HW2 7215   5.410   6.086   5.147
 2106SOL     OW 7216   5.032   4.251   1.388
 2106SOL    HW1 7217   5.004   4.281   1.479
 2106SOL    HW2 7218   5.132   4.242   1.386
 2107SOL     OW 7219   4.756   3.111   5.502
 2107SOL    HW1 7220   4.751   3.016   5.472
 2107SOL    HW2 7221   4.669   3.157   5.482
 2108SOL     OW 7222   5.983   5.497   4.945
 2108SOL    HW1 7223   5.888   5.471   4.957
 2108SOL    HW2 7224   6.041   5.416   4.954
 2109SOL     OW 7225   4.159   6.075   2.144
 2109SOL    HW1 7226   4.117   6.158   2.180
 2109SOL    HW2 7227   4.210   6.029   2.217
 2110SOL     OW 7228   1.816   1.639   0.718
 2110SOL    HW1 7229   1.749   1.687   0.661
 2110SOL    HW2 7230   1.896   1.697   0.732
 2111SOL     OW 7231   1.838   2.870   6.589
 2111SOL    HW1 7232   1.833   2.923   6.674
 2111SOL    HW2 7233   1.801   2.778   6.605
 2112SOL     OW 7234   5.571   3.203   0.769
 2112SOL    HW1 7235   5.551   3.288   0.818
 2112SOL    HW2 7236   5.644   3.219   0.702
 2113SOL     OW 7237   2.422   2.164   4.939
 2113SOL    HW1 7238   2.517   2.190   4.919
 2113SOL    HW2 7239   2.390   2.098   4.872
 2114SOL     OW 7240   2.046   2.148   6.386
 2114SOL    HW1 7241   2.071   2.062   6.430
 2114SOL    HW2 7242   2.013   2.212   6.455
 2115SOL     OW 7243   2.058   3.729   3.306
 2115SOL    HW1 7244   2.019   3.789   3.237
 2115SOL    HW2 7245   2.080   3.640   3.265
 2116SOL     OW 7246   0.792   5.410   2.985
 2116SOL    HW1 7247   0.768   5.500   2.949
 2116SOL    HW2 7248   0.880   5.415   3.032
 2117SOL     OW 7249   0.060   4.767   1.422
 2117SOL    HW1 7250   0.079   4.780   1.325
 2117SOL    HW2 7251   0.144   4.777   1.474
 2118SOL     OW 7252   6.438   2.881   2.851
 2118SOL    HW1 7253   6.415   2.976   2.827
 2118SOL    HW2 7254   6.525   2.856   2.807
 2119SOL     OW 7255   1.294   0.168   1.180
 2119SOL    HW1 7256   1.378   0.116   1.166
 2119SOL    HW2 7257   1.250   0.139   1.265
 2120SOL     OW 7258   0.273   5.225   3.388
 2120SOL    HW1 7259   0.222   5.173   3.319
 2120SOL    HW2 7260   0.350   5.170   3.420
 2121SOL     OW 7261   1.530   4.172   5.803
 2121SOL    HW1 7262   1.554   4.136   5.713
 2121SOL    HW2 7263   1.535   4.099   5.871
 2122SOL     OW 7264   5.525   4.230   5.708
 2122SOL    HW1 7265   5.624   4.249   5.707
 2122SOL    HW2 7266   5.479   4.287   5.640
 2123SOL     OW 7267   0.029   5.881   2.317
 2123SOL    HW1 7268   6.986   5.808   2.345
 2123SOL    HW2 7269   0.120   5.864   2.354
 2124SOL     OW 7270   3.133   2.259   0.989
 2124SOL    HW1 7271   3.180   2.245   1.076
 2124SOL    HW2 7272   3.183   2.213   0.916
 2125SOL     OW 7273   1.863   0.622   2.198
 2125SOL    HW1 7274   1.864   0.551   2.269
 2125SOL    HW2 7275   1.829   0.708   2.237
 2126SOL     OW 7276   3.492   2.080   6.298
 2126SOL    HW1 7277   3.509   2.151   6.230
 2126SOL    HW2 7278   3.423   2.016   6.264
 2127SOL     OW 7279   0.902   3.120   5.376
 2127SOL    HW1 7280   0.980   3.089   5.322
 2127SOL    HW2 7281   0.822   3.129   5.316
 2128SOL     OW 7282   6.096   3.634   4.024
 2128SOL    HW1 7283   6.132   3.727   4.024
 2128SOL    HW2 7284   6.007   3.633   4.071
 2129SOL     OW 7285   4.254   3.188   5.279
 2129SOL    HW1 7286   4.254   3.101   5.328
 2129SOL    HW2 7287   4.173   3.193   5.221
 2130SOL     OW 7288   3.643   0.313   2.746
 2130SOL    HW1 7289   3.737   0.342   2.728
 2130SOL    HW2 7290   3.634   0.215   2.728
 2131SOL     OW 7291   4.777   1.088   0.468
 2131SOL    HW1 7292   4.791   1.054   0.375
 2131SOL    HW2 7293   4.784   1.187   0.468
 2132SOL     OW 7294   3.408   0.321   1.472
 2132SOL    HW1 7295   3.314   0.325   1.505
 2132SOL    HW2 7296   3.468   0.291   1.546
 2133SOL     OW 7297   3.151   2.599   0.514
 2133SOL    HW1 7298   3.162   2.663   0.590
 2133SOL    HW2 7299   3.098   2.642   0.441
 2134SOL     OW 7300   0.482   1.003   5.926
 2134SOL    HW1 7301   0.441   1.072   5.986
 2134SOL    HW2 7302   0.573   0.979   5.960
 2135SOL     OW 7303   1.507   3.461   5.338
 2135SOL    HW1 7304   1.439   3.523   5.377
 2135SOL    HW2 7305   1.569   3.513   5.279
 2136SOL     OW 7306   0.912   4.010   4.132
 2136SOL    HW1 7307   0.991   4.071   4.130
 2136SOL    HW2 7308   0.937   3.922   4.091
 2137SOL     OW 7309   2.356   5.538   4.698
 2137SOL    HW1 7310   2.338   5.618   4.641
 2137SOL    HW2 7311   2.441   5.552   4.749
 2138SOL     OW 7312   6.336   0.403   2.596
 2138SOL    HW1 7313   6.330   0.303   2.594
 2138SOL    HW2 7314   6.322   0.435   2.690
 2139SOL     OW 7315   3.347   0.528   3.013
 2139SOL    HW1 7316   3.405   0.605   2.985
 2139SOL    HW2 7317   3.400   0.443   3.006
 2140SOL     OW 7318   4.002   6.572   4.138
 2140SOL    HW1 7319   4.037   6.628   4.064
 2140SOL    HW2 7320   3.976   6.630   4.215
 2141SOL     OW 7321   6.518   3.735   2.740
 2141SOL    HW1 7322   6.603   3.696   2.774
 2141SOL    HW2 7323   6.442   3.708   2.799
 2142SOL     OW 7324   1.817   2.412   3.179
 2142SOL    HW1 7325   1.789   2.395   3.084
 2142SOL    HW2 7326   1.738   2.404   3.239
 2143SOL     OW 7327   2.495   4.613   1.253
 2143SOL    HW1 7328   2.464   4.606   1.348
 2143SOL    HW2 7329   2.564   4.685   1.246
 2144SOL     OW 7330   1.309   5.463   4.325
 2144SOL    HW1 7331   1.297   5.549   4.275
 2144SOL    HW2 7332   1.395   5.466   4.377
 2145SOL     OW 7333   4.056   6.307   4.560
 2145SOL    HW1 7334   4.123   6.248   4.516
 2145SOL    HW2 7335   3.964   6.273   4.542
 2146SOL     OW 7336   2.608   3.595   1.743
 2146SOL    HW1 7337   2.695   3.568   1.785
 2146SOL    HW2 7338   2.534   3.543   1.784
 2147SOL     OW 7339   6.438   1.588   5.834
 2147SOL    HW1 7340   6.502   1.584   5.911
 2147SOL    HW2 7341   6.380   1.669   5.843
 2148SOL     OW 7342   5.501   2.152   5.643
 2148SOL    HW1 7343   5.402   2.151   5.661
 2148SOL    HW2 7344   5.516   2.175   5.547
 2149SOL     OW 7345   3.630   2.460   1.211
 2149SOL    HW1 7346   3.681   2.377   1.189
 2149SOL    HW2 7347   3.565   2.440   1.285
 2150SOL     OW 7348   2.878   2.235   2.611
 2150SOL    HW1 7349   2.927   2.317   2.581
 2150SOL    HW2 7350   2.879   2.230   2.711
 2151SOL     OW 7351   1.465   0.459   5.137
 2151SOL    HW1 7352   1.542   0.427   5.192
 2151SOL    HW2 7353   1.379   0.438   5.184
 2152SOL     OW 7354   3.726   5.811   1.070
 2152SOL    HW1 7355   3.703   5.746   1.143
 2152SOL    HW2 7356   3.815   5.853   1.089
 2153SOL     OW 7357   3.549   0.707   2.897
 2153SOL    HW1 7358   3.505   0.709   2.808
 2153SOL    HW2 7359   3.605   0.789   2.909
 2154SOL     OW 7360   4.803   0.026   5.159
 2154SOL    HW1 7361   4.888   0.057   5.115
 2154SOL    HW2 7362   4.795   6.946   5.152
 2155SOL     OW 7363   2.417   5.784   0.333
 2155SOL    HW1 7364   2.335   5.793   0.276
 2155SOL    HW2 7365   2.490   5.742   0.279
 2156SOL     OW 7366   2.017   1.572   4.995
 2156SOL    HW1 7367   2.021   1.592   5.093
 2156SOL    HW2 7368   1.954   1.635   4.950
 2157SOL     OW 7369   6.113   0.666   3.598
 2157SOL    HW1 7370   6.013   0.671   3.596
 2157SOL    HW2 7371   6.142   0.615   3.679
 2158SOL     OW 7372   4.020   5.834   1.054
 2158SOL    HW1 7373   4.043   5.742   1.021
 2158SOL    HW2 7374   4.005   5.894   0.976
 2159SOL     OW 7375   1.736   6.420   5.166
 2159SOL    HW1 7376   1.719   6.448   5.071
 2159SOL    HW2 7377   1.743   6.321   5.170
 2160SOL     OW 7378   3.754   4.032   0.439
 2160SOL    HW1 7379   3.820   3.960   0.463
 2160SOL    HW2 7380   3.666   4.013   0.484
 2161SOL     OW 7381   5.323   5.110   3.188
 2161SOL    HW1 7382   5.371   5.197   3.195
 2161SOL    HW2 7383   5.303   5.090   3.092
 2162SOL     OW 7384   1.907   1.198   1.828
 2162SOL    HW1 7385   1.934   1.288   1.794
 2162SOL    HW2 7386   1.808   1.194   1.837
 2163SOL     OW 7387   1.079   4.604   6.268
 2163SOL    HW1 7388   1.016   4.537   6.308
 2163SOL    HW2 7389   1.086   4.589   6.170
 2164SOL     OW 7390   1.371   2.784   0.054
 2164SOL    HW1 7391   1.407   2.692   0.066
 2164SOL    HW2 7392   1.446   2.846   0.031
 2165SOL     OW 7393   0.564   1.956   2.866
 2165SOL    HW1 7394   0.515   1.913   2.790
 2165SOL    HW2 7395   0.512   2.034   2.900
 2166SOL     OW 7396   1.486   2.262   5.272
 2166SOL    HW1 7397   1.439   2.293   5.189
 2166SOL    HW2 7398   1.460   2.321   5.349
 2167SOL     OW 7399   1.972   1.460   3.897
 2167SOL    HW1 7400   1.968   1.483   3.994
 2167SOL    HW2 7401   1.894   1.501   3.849
 2168SOL     OW 7402   0.774   1.843   3.857
 2168SOL    HW1 7403   0.726   1.762   3.890
 2168SOL    HW2 7404   0.816   1.890   3.935
 2169SOL     OW 7405   5.487   1.352   6.333
 2169SOL    HW1 7406   5.399   1.304   6.338
 2169SOL    HW2 7407   5.471   1.450   6.318
 2170SOL     OW 7408   6.852   5.226   5.723
 2170SOL    HW1 7409   6.786   5.290   5.762
 2170SOL    HW2 7410   6.856   5.240   5.624
 2171SOL     OW 7411   0.251   4.247   1.828
 2171SOL    HW1 7412   0.291   4.165   1.788
 2171SOL    HW2 7413   0.318   4.321   1.827
 2172SOL     OW 7414   2.354   2.610   0.419
 2172SOL    HW1 7415   2.380   2.526   0.372
 2172SOL    HW2 7416   2.255   2.612   0.432
 2173SOL     OW 7417   4.204   0.672   5.521
 2173SOL    HW1 7418   4.235   0.658   5.615
 2173SOL    HW2 7419   4.214   0.768   5.497
 2174SOL     OW 7420   5.164   6.282   5.322
 2174SOL    HW1 7421   5.177   6.337   5.240
 2174SOL    HW2 7422   5.136   6.342   5.397
 2175SOL     OW 7423   2.258   2.931   4.384
 2175SOL    HW1 7424   2.280   2.888   4.472
 2175SOL    HW2 7425   2.335   2.922   4.322
 2176SOL     OW 7426   0.243   2.004   0.470
 2176SOL    HW1 7427   0.147   1.978   0.481
 2176SOL    HW2 7428   0.249   2.095   0.431
 2177SOL     OW 7429   5.766   1.875   3.509
 2177SOL    HW1 7430   5.795   1.887   3.604
 2177SOL    HW2 7431   5.802   1.789   3.474
 2178SOL     OW 7432   1.780   2.361   0.819
 2178SOL    HW1 7433   1.829   2.370   0.906
 2178SOL    HW2 7434   1.718   2.283   0.823
 2179SOL     OW 7435   2.123   5.176   4.947
 2179SOL    HW1 7436   2.075   5.260   4.919
 2179SOL    HW2 7437   2.107   5.159   5.044
 2180SOL     OW 7438   1.970   2.793   2.153
 2180SOL    HW1 7439   1.960   2.698   2.122
 2180SOL    HW2 7440   2.068   2.816   2.155
 2181SOL     OW 7441   4.065   5.083   4.722
 2181SOL    HW1 7442   4.134   5.041   4.663
 2181SOL    HW2 7443   4.108   5.117   4.806
 2182SOL     OW 7444   1.062   3.591   4.535
 2182SOL    HW1 7445   1.052   3.493   4.554
 2182SOL    HW2 7446   1.102   3.636   4.615
 2183SOL     OW 7447   3.125   4.008   6.107
 2183SOL    HW1 7448   3.211   3.983   6.062
 2183SOL    HW2 7449   3.115   3.954   6.191
 2184SOL     OW 7450   4.497   2.268   6.890
 2184SOL    HW1 7451   4.586   2.236   6.860
 2184SOL    HW2 7452   4.445   2.191   6.929
 2185SOL     OW 7453   1.349   1.894   1.043
 2185SOL    HW1 7454   1.441   1.919   1.070
 2185SOL    HW2 7455   1.299   1.857   1.122
 2186SOL     OW 7456   0.213   5.890   1.832
 2186SOL    HW1 7457   0.292   5.950   1.817
 2186SOL    HW2 7458   0.150   5.935   1.896
 2187SOL     OW 7459   6.632   0.454   2.813
 2187SOL    HW1 7460   6.638   0.452   2.713
 2187SOL    HW2 7461   6.583   0.536   2.842
 2188SOL     OW 7462   6.328   6.691   5.160
 2188SOL    HW1 7463   6.274   6.700   5.244
 2188SOL    HW2 7464   6.301   6.608   5.112
 2189SOL     OW 7465   1.695   0.247   0.685
 2189SOL    HW1 7466   1.687   0.192   0.602
 2189SOL    HW2 7467   1.614   0.233   0.742
 2190SOL     OW 7468   0.142   2.786   2.200
 2190SOL    HW1 7469   0.086   2.769   2.119
 2190SOL    HW2 7470   0.095   2.849   2.261
 2191SOL     OW 7471   2.894   2.236   6.628
 2191SOL    HW1 7472   2.929   2.184   6.705
 2191SOL    HW2 7473   2.959   2.233   6.552
 2192SOL     OW 7474   3.991   1.173   2.573
 2192SOL    HW1 7475   3.916   1.126   2.619
 2192SOL    HW2 7476   3.963   1.198   2.480
 2193SOL     OW 7477   6.227   5.792   6.462
 2193SOL    HW1 7478   6.274   5.871   6.503
 2193SOL    HW2 7479   6.210   5.724   6.533
 2194SOL     OW 7480   2.765   4.575   6.033
 2194SOL    HW1 7481   2.686   4.542   5.983
 2194SOL    HW2 7482   2.735   4.621   6.116
 2195SOL     OW 7483   0.239   0.541   3.904
 2195SOL    HW1 7484   0.252   0.448   3.867
 2195SOL    HW2 7485   0.159   0.583   3.860
 2196SOL     OW 7486   3.519   0.118   5.046
 2196SOL    HW1 7487   3.427   0.126   5.007
 2196SOL    HW2 7488   3.524   0.035   5.103
 2197SOL     OW 7489   3.124   3.477   0.971
 2197SOL    HW1 7490   3.039   3.423   0.979
 2197SOL    HW2 7491   3.155   3.504   1.063
 2198SOL     OW 7492   6.264   1.562   0.432
 2198SOL    HW1 7493   6.178   1.517   0.406
 2198SOL    HW2 7494   6.262   1.658   0.404
 2199SOL     OW 7495   5.242   1.173   3.451
 2199SOL    HW1 7496   5.273   1.246   3.390
 2199SOL    HW2 7497   5.143   1.161   3.441
 2200SOL     OW 7498   2.332   0.663   5.096
 2200SOL    HW1 7499   2.279   0.601   5.038
 2200SOL    HW2 7500   2.355   0.746   5.046
 2201SOL     OW 7501   6.604   2.692   3.408
 2201SOL    HW1 7502   6.547   2.613   3.385
 2201SOL    HW2 7503   6.549   2.775   3.408
 2202SOL     OW 7504   2.647   5.113   2.022
 2202SOL    HW1 7505   2.688   5.201   2.045
 2202SOL    HW2 7506   2.718   5.043   2.014
 2203SOL     OW 7507   1.869   2.662   1.314
 2203SOL    HW1 7508   1.915   2.645   1.401
 2203SOL    HW2 7509   1.925   2.624   1.239
 2204SOL     OW 7510   3.745   0.950   0.536
 2204SOL    HW1 7511   3.686   0.914   0.608
 2204SOL    HW2 7512   3.777   0.875   0.478
 2205SOL     OW 7513   1.083   0.141   6.353
 2205SOL    HW1 7514   1.133   0.106   6.432
 2205SOL    HW2 7515   1.144   0.196   6.296
 2206SOL     OW 7516   3.218   4.477   6.165
 2206SOL    HW1 7517   3.132   4.426   6.157
 2206SOL    HW2 7518   3.260   4.486   6.075
 2207SOL     OW 7519   3.365   4.436   6.664
 2207SOL    HW1 7520   3.347   4.339   6.682
 2207SOL    HW2 7521   3.394   4.446   6.568
 2208SOL     OW 7522   1.733   6.621   2.768
 2208SOL    HW1 7523   1.717   6.690   2.838
 2208SOL    HW2 7524   1.738   6.531   2.811
 2209SOL     OW 7525   1.589   6.185   5.526
 2209SOL    HW1 7526   1.641   6.242   5.590
 2209SOL    HW2 7527   1.510   6.236   5.493
 2210SOL     OW 7528   6.399   5.019   3.789
 2210SOL    HW1 7529   6.434   5.113   3.793
 2210SOL    HW2 7530   6.414   4.983   3.697
 2211SOL     OW 7531   5.352   1.120   0.134
 2211SOL    HW1 7532   5.255   1.095   0.133
 2211SOL    HW2 7533   5.403   1.056   0.192
 2212SOL     OW 7534   1.397   6.193   0.163
 2212SOL    HW1 7535   1.300   6.187   0.188
 2212SOL    HW2 7536   1.427   6.288   0.168
 2213SOL     OW 7537   3.665   2.732   5.237
 2213SOL    HW1 7538   3.721   2.728   5.154
 2213SOL    HW2 7539   3.650   2.828   5.262
 2214SOL     OW 7540   3.372   2.845   5.109
 2214SOL    HW1 7541   3.362   2.764   5.167
 2214SOL    HW2 7542   3.422   2.915   5.159
 2215SOL     OW 7543   6.503   1.752   0.507
 2215SOL    HW1 7544   6.521   1.696   0.425
 2215SOL    HW2 7545   6.410   1.737   0.539
 2216SOL     OW 7546   1.808   0.668   6.050
 2216SOL    HW1 7547   1.894   0.701   6.089
 2216SOL    HW2 7548   1.800   0.570   6.066
 2217SOL     OW 7549   3.956   6.685   1.177
 2217SOL    HW1 7550   3.887   6.718   1.243
 2217SOL    HW2 7551   3.987   6.595   1.205
 2218SOL     OW 7552   0.255   6.580   6.764
 2218SOL    HW1 7553   0.160   6.599   6.741
 2218SOL    HW2 7554   0.297   6.661   6.806
 2219SOL     OW 7555   5.632   1.461   1.710
 2219SOL    HW1 7556   5.698   1.528   1.675
 2219SOL    HW2 7557   5.540   1.499   1.705
 2220SOL     OW 7558   1.225   0.443   4.494
 2220SOL    HW1 7559   1.145   0.387   4.514
 2220SOL    HW2 7560   1.307   0.387   4.500
 2221SOL     OW 7561   5.884   0.813   5.227
 2221SOL    HW1 7562   5.944   0.777   5.299
 2221SOL    HW2 7563   5.865   0.909   5.245
 2222SOL     OW 7564   4.821   0.289   0.882
 2222SOL    HW1 7565   4.799   0.238   0.965
 2222SOL    HW2 7566   4.739   0.336   0.849
 2223SOL     OW 7567   5.918   1.198   4.685
 2223SOL    HW1 7568   5.907   1.290   4.725
 2223SOL    HW2 7569   6.013   1.184   4.660
 2224SOL     OW 7570   1.728   4.001   1.041
 2224SOL    HW1 7571   1.822   3.967   1.041
 2224SOL    HW2 7572   1.723   4.084   0.987
 2225SOL     OW 7573   6.454   6.094   3.345
 2225SOL    HW1 7574   6.503   6.126   3.264
 2225SOL    HW2 7575   6.360   6.071   3.319
 2226SOL     OW 7576   3.980   4.422   1.022
 2226SOL    HW1 7577   3.893   4.470   1.008
 2226SOL    HW2 7578   3.966   4.324   1.004
 2227SOL     OW 7579   5.570   3.333   0.344
 2227SOL    HW1 7580   5.628   3.400   0.391
 2227SOL    HW2 7581   5.530   3.376   0.263
 2228SOL     OW 7582   2.896   5.097   1.126
 2228SOL    HW1 7583   2.963   5.052   1.067
 2228SOL    HW2 7584   2.933   5.104   1.219
 2229SOL     OW 7585   4.218   1.596   4.220
 2229SOL    HW1 7586   4.251   1.524   4.159
 2229SOL    HW2 7587   4.138   1.564   4.270
 2230SOL     OW 7588   5.668   5.651   6.556
 2230SOL    HW1 7589   5.717   5.720   6.502
 2230SOL    HW2 7590   5.569   5.665   6.547
 2231SOL     OW 7591   0.448   0.441   2.228
 2231SOL    HW1 7592   0.400   0.476   2.148
 2231SOL    HW2 7593   0.545   0.426   2.206
 2232SOL     OW 7594   0.583   3.011   4.916
 2232SOL    HW1 7595   0.573   3.064   4.831
 2232SOL    HW2 7596   0.615   3.071   4.989
 2233SOL     OW 7597   2.372   4.082   0.942
 2233SOL    HW1 7598   2.467   4.103   0.967
 2233SOL    HW2 7599   2.369   3.993   0.897
 2234SOL     OW 7600   4.297   1.749   1.852
 2234SOL    HW1 7601   4.366   1.821   1.859
 2234SOL    HW2 7602   4.209   1.790   1.829
 2235SOL     OW 7603   2.824   0.262   1.718
 2235SOL    HW1 7604   2.772   0.203   1.780
 2235SOL    HW2 7605   2.767   0.286   1.639
 2236SOL     OW 7606   1.436   4.661   6.708
 2236SOL    HW1 7607   1.428   4.746   6.761
 2236SOL    HW2 7608   1.376   4.667   6.627
 2237SOL     OW 7609   5.797   4.870   4.072
 2237SOL    HW1 7610   5.855   4.802   4.027
 2237SOL    HW2 7611   5.749   4.827   4.149
 2238SOL     OW 7612   5.457   4.597   0.867
 2238SOL    HW1 7613   5.486   4.533   0.938
 2238SOL    HW2 7614   5.393   4.663   0.906
 2239SOL     OW 7615   3.554   4.884   3.034
 2239SOL    HW1 7616   3.579   4.912   2.942
 2239SOL    HW2 7617   3.591   4.948   3.101
 2240SOL     OW 7618   4.941   5.821   3.451
 2240SOL    HW1 7619   4.963   5.794   3.357
 2240SOL    HW2 7620   4.891   5.908   3.450
 2241SOL     OW 7621   0.263   6.637   3.010
 2241SOL    HW1 7622   0.271   6.538   3.000
 2241SOL    HW2 7623   0.284   6.663   3.104
 2242SOL     OW 7624   5.201   1.944   2.891
 2242SOL    HW1 7625   5.291   1.902   2.888
 2242SOL    HW2 7626   5.144   1.906   2.818
 2243SOL     OW 7627   2.713   6.366   5.871
 2243SOL    HW1 7628   2.810   6.370   5.849
 2243SOL    HW2 7629   2.664   6.320   5.797
 2244SOL     OW 7630   2.532   6.482   2.209
 2244SOL    HW1 7631   2.614   6.480   2.151
 2244SOL    HW2 7632   2.467   6.548   2.172
 2245SOL     OW 7633   0.370   1.792   1.705
 2245SOL    HW1 7634   0.435   1.868   1.714
 2245SOL    HW2 7635   0.301   1.799   1.776
 2246SOL     OW 7636   0.605   1.948   5.299
 2246SOL    HW1 7637   0.579   1.858   5.334
 2246SOL    HW2 7638   0.552   1.968   5.217
 2247SOL     OW 7639   3.204   3.480   4.638
 2247SOL    HW1 7640   3.148   3.404   4.671
 2247SOL    HW2 7641   3.291   3.482   4.688
 2248SOL     OW 7642   4.154   4.102   5.555
 2248SOL    HW1 7643   4.203   4.180   5.515
 2248SOL    HW2 7644   4.215   4.051   5.614
 2249SOL     OW 7645   6.422   6.298   2.759
 2249SOL    HW1 7646   6.508   6.344   2.778
 2249SOL    HW2 7647   6.421   6.209   2.804
 2250SOL     OW 7648   4.138   3.345   6.939
 2250SOL    HW1 7649   4.096   3.255   6.940
 2250SOL    HW2 7650   4.236   3.336   6.959
 2251SOL     OW 7651   5.266   0.715   0.187
 2251SOL    HW1 7652   5.211   0.758   0.116
 2251SOL    HW2 7653   5.212   0.708   0.271
 2252SOL     OW 7654   5.285   2.768   2.641
 2252SOL    HW1 7655   5.196   2.813   2.629
 2252SOL    HW2 7656   5.271   2.675   2.673
 2253SOL     OW 7657   1.057   3.174   6.568
 2253SOL    HW1 7658   1.060   3.224   6.482
 2253SOL    HW2 7659   1.085   3.079   6.553
 2254SOL     OW 7660   3.706   3.098   4.798
 2254SOL    HW1 7661   3.631   3.152   4.838
 2254SOL    HW2 7662   3.771   3.159   4.754
 2255SOL     OW 7663   4.761   2.532   6.717
 2255SOL    HW1 7664   4.755   2.560   6.621
 2255SOL    HW2 7665   4.823   2.454   6.725
 2256SOL     OW 7666   4.990   5.769   1.479
 2256SOL    HW1 7667   4.971   5.703   1.407
 2256SOL    HW2 7668   5.012   5.857   1.439
 2257SOL     OW 7669   0.363   2.378   3.760
 2257SOL    HW1 7670   0.379   2.292   3.807
 2257SOL    HW2 7671   0.411   2.452   3.808
 2258SOL     OW 7672   1.254   5.536   5.680
 2258SOL    HW1 7673   1.214   5.622   5.709
 2258SOL    HW2 7674   1.349   5.551   5.650
 2259SOL     OW 7675   5.389   3.481   6.827
 2259SOL    HW1 7676   5.300   3.508   6.864
 2259SOL    HW2 7677   5.399   3.518   6.735
 2260SOL     OW 7678   6.062   4.233   2.863
 2260SOL    HW1 7679   5.964   4.220   2.850
 2260SOL    HW2 7680   6.084   4.221   2.960
 2261SOL     OW 7681   6.715   5.541   6.916
 2261SOL    HW1 7682   6.793   5.585   6.873
 2261SOL    HW2 7683   6.670   5.605   6.978
 2262SOL     OW 7684   5.505   1.508   2.026
 2262SOL    HW1 7685   5.563   1.426   2.028
 2262SOL    HW2 7686   5.459   1.514   1.938
 2263SOL     OW 7687   2.900   5.647   7.011
 2263SOL    HW1 7688   2.985   5.653   0.043
 2263SOL    HW2 7689   2.906   5.572   6.944
 2264SOL     OW 7690   3.425   3.445   0.678
 2264SOL    HW1 7691   3.395   3.350   0.677
 2264SOL    HW2 7692   3.359   3.500   0.729
 2265SOL     OW 7693   0.595   1.088   4.377
 2265SOL    HW1 7694   0.624   1.133   4.461
 2265SOL    HW2 7695   0.619   1.144   4.298
 2266SOL     OW 7696   6.028   2.348   0.870
 2266SOL    HW1 7697   6.047   2.256   0.903
 2266SOL    HW2 7698   5.949   2.385   0.918
 2267SOL     OW 7699   4.818   2.489   4.693
 2267SOL    HW1 7700   4.856   2.487   4.786
 2267SOL    HW2 7701   4.772   2.402   4.674
 2268SOL     OW 7702   6.612   3.934   6.670
 2268SOL    HW1 7703   6.560   3.939   6.585
 2268SOL    HW2 7704   6.709   3.917   6.650
 2269SOL     OW 7705   6.030   5.869   4.815
 2269SOL    HW1 7706   5.952   5.829   4.767
 2269SOL    HW2 7707   6.089   5.916   4.750
 2270SOL     OW 7708   3.504   2.246   6.092
 2270SOL    HW1 7709   3.405   2.246   6.108
 2270SOL    HW2 7710   3.522   2.253   5.994
 2271SOL     OW 7711   5.930   4.288   0.642
 2271SOL    HW1 7712   5.944   4.383   0.613
 2271SOL    HW2 7713   6.016   4.238   0.637
 2272SOL     OW 7714   6.249   2.191   6.364
 2272SOL    HW1 7715   6.153   2.163   6.367
 2272SOL    HW2 7716   6.255   2.284   6.327
 2273SOL     OW 7717   1.835   0.173   2.344
 2273SOL    HW1 7718   1.779   0.149   2.264
 2273SOL    HW2 7719   1.822   0.105   2.416
 2274SOL     OW 7720   0.332   3.233   6.414
 2274SOL    HW1 7721   0.373   3.265   6.500
 2274SOL    HW2 7722   0.296   3.140   6.427
 2275SOL     OW 7723   6.213   0.543   3.804
 2275SOL    HW1 7724   6.153   0.588   3.870
 2275SOL    HW2 7725   6.211   0.444   3.818
 2276SOL     OW 7726   2.657   5.455   1.324
 2276SOL    HW1 7727   2.714   5.424   1.247
 2276SOL    HW2 7728   2.569   5.408   1.321
 2277SOL     OW 7729   4.145   3.286   5.017
 2277SOL    HW1 7730   4.244   3.292   5.014
 2277SOL    HW2 7731   4.106   3.318   4.931
 2278SOL     OW 7732   6.907   5.174   3.623
 2278SOL    HW1 7733   6.915   5.207   3.529
 2278SOL    HW2 7734   6.847   5.093   3.625
 2279SOL     OW 7735   4.819   5.877   5.093
 2279SOL    HW1 7736   4.842   5.968   5.059
 2279SOL    HW2 7737   4.895   5.842   5.148
 2280SOL     OW 7738   6.853   6.503   4.067
 2280SOL    HW1 7739   6.907   6.545   3.994
 2280SOL    HW2 7740   6.911   6.490   4.147
 2281SOL     OW 7741   3.171   1.442   1.558
 2281SOL    HW1 7742   3.270   1.443   1.566
 2281SOL    HW2 7743   3.138   1.534   1.535
 2282SOL     OW 7744   4.647   6.544   5.035
 2282SOL    HW1 7745   4.656   6.538   4.936
 2282SOL    HW2 7746   4.591   6.467   5.069
 2283SOL     OW 7747   6.906   4.423   2.120
 2283SOL    HW1 7748   6.948   4.445   2.032
 2283SOL    HW2 7749   6.844   4.345   2.109
 2284SOL     OW 7750   1.717   2.306   0.477
 2284SOL    HW1 7751   1.801   2.252   0.485
 2284SOL    HW2 7752   1.723   2.386   0.536
 2285SOL     OW 7753   1.994   2.306   0.998
 2285SOL    HW1 7754   1.928   2.267   1.063
 2285SOL    HW2 7755   2.079   2.254   1.002
 2286SOL     OW 7756   6.735   0.796   4.089
 2286SOL    HW1 7757   6.814   0.848   4.056
 2286SOL    HW2 7758   6.658   0.808   4.026
 2287SOL     OW 7759   1.537   1.308   3.696
 2287SOL    HW1 7760   1.567   1.266   3.782
 2287SOL    HW2 7761   1.556   1.246   3.620
 2288SOL     OW 7762   6.305   5.286   4.417
 2288SOL    HW1 7763   6.368   5.218   4.381
 2288SOL    HW2 7764   6.227   5.296   4.355
 2289SOL     OW 7765   0.108   4.292   2.627
 2289SOL    HW1 7766   0.085   4.389   2.630
 2289SOL    HW2 7767   0.080   4.253   2.539
 2290SOL     OW 7768   1.448   3.998   2.145
 2290SOL    HW1 7769   1.358   3.985   2.186
 2290SOL    HW2 7770   1.449   3.957   2.054
 2291SOL     OW 7771   2.076   2.618   6.375
 2291SOL    HW1 7772   2.015   2.608   6.297
 2291SOL    HW2 7773   2.022   2.628   6.458
 2292SOL     OW 7774   5.827   2.789   4.454
 2292SOL    HW1 7775   5.728   2.808   4.452
 2292SOL    HW2 7776   5.869   2.838   4.530
 2293SOL     OW 7777   5.388   6.776   1.060
 2293SOL    HW1 7778   5.455   6.709   1.092
 2293SOL    HW2 7779   5.387   6.854   1.122
 2294SOL     OW 7780   3.496   0.853   6.354
 2294SOL    HW1 7781   3.412   0.868   6.405
 2294SOL    HW2 7782   3.542   0.940   6.338
 2295SOL     OW 7783   0.517   1.137   2.635
 2295SOL    HW1 7784   0.508   1.179   2.544
 2295SOL    HW2 7785   0.572   1.196   2.693
 2296SOL     OW 7786   3.252   5.667   2.056
 2296SOL    HW1 7787   3.285   5.608   1.983
 2296SOL    HW2 7788   3.223   5.611   2.133
 2297SOL     OW 7789   4.428   4.186   5.637
 2297SOL    HW1 7790   4.479   4.258   5.684
 2297SOL    HW2 7791   4.424   4.206   5.539
 2298SOL     OW 7792   4.241   3.498   1.810
 2298SOL    HW1 7793   4.302   3.419   1.806
 2298SOL    HW2 7794   4.291   3.580   1.781
 2299SOL     OW 7795   4.804   4.862   4.967
 2299SOL    HW1 7796   4.826   4.958   4.949
 2299SOL    HW2 7797   4.888   4.812   4.986
 2300SOL     OW 7798   2.312   5.957   1.972
 2300SOL    HW1 7799   2.265   5.871   1.957
 2300SOL    HW2 7800   2.309   6.012   1.888
 2301SOL     OW 7801   3.413   2.869   2.987
 2301SOL    HW1 7802   3.506   2.860   2.951
 2301SOL    HW2 7803   3.347   2.855   2.914
 2302SOL     OW 7804   3.126   0.386   1.239
 2302SOL    HW1 7805   3.130   0.485   1.248
 2302SOL    HW2 7806   3.219   0.350   1.225
 2303SOL     OW 7807   2.149   3.344   6.608
 2303SOL    HW1 7808   2.159   3.286   6.688
 2303SOL    HW2 7809   2.179   3.294   6.526
 2304SOL     OW 7810   5.342   6.683   4.128
 2304SOL    HW1 7811   5.401   6.713   4.203
 2304SOL    HW2 7812   5.398   6.662   4.048
 2305SOL     OW 7813   2.935   6.750   2.547
 2305SOL    HW1 7814   2.903   6.656   2.538
 2305SOL    HW2 7815   2.859   6.813   2.534
 2306SOL     OW 7816   1.898   4.983   1.684
 2306SOL    HW1 7817   1.885   4.940   1.595
 2306SOL    HW2 7818   1.952   4.922   1.743
 2307SOL     OW 7819   6.768   3.332   3.938
 2307SOL    HW1 7820   6.721   3.252   3.976
 2307SOL    HW2 7821   6.700   3.394   3.898
 2308SOL     OW 7822   1.805   4.657   1.775
 2308SOL    HW1 7823   1.757   4.706   1.848
 2308SOL    HW2 7824   1.903   4.676   1.781
 2309SOL     OW 7825   1.170   0.814   6.073
 2309SOL    HW1 7826   1.172   0.912   6.094
 2309SOL    HW2 7827   1.076   0.783   6.065
 2310SOL     OW 7828   5.926   5.782   0.543
 2310SOL    HW1 7829   5.899   5.813   0.634
 2310SOL    HW2 7830   5.849   5.792   0.480
 2311SOL     OW 7831   2.371   0.027   1.712
 2311SOL    HW1 7832   2.446   6.988   1.681
 2311SOL    HW2 7833   2.408   0.113   1.748
 2312SOL     OW 7834   4.197   6.035   2.819
 2312SOL    HW1 7835   4.155   6.073   2.737
 2312SOL    HW2 7836   4.223   6.109   2.881
 2313SOL     OW 7837   6.197   5.899   1.401
 2313SOL    HW1 7838   6.128   5.839   1.442
 2313SOL    HW2 7839   6.244   5.951   1.472
 2314SOL     OW 7840   5.279   6.494   3.556
 2314SOL    HW1 7841   5.338   6.469   3.633
 2314SOL    HW2 7842   5.329   6.556   3.495
 2315SOL     OW 7843   5.441   3.605   6.059
 2315SOL    HW1 7844   5.513   3.633   5.995
 2315SOL    HW2 7845   5.400   3.520   6.027
 2316SOL     OW 7846   4.115   1.253   3.586
 2316SOL    HW1 7847   4.188   1.321   3.578
 2316SOL    HW2 7848   4.029   1.292   3.551
 2317SOL     OW 7849   0.888   6.768   2.862
 2317SOL    HW1 7850   0.938   6.687   2.831
 2317SOL    HW2 7851   0.795   6.742   2.890
 2318SOL     OW 7852   1.628   2.815   3.711
 2318SOL    HW1 7853   1.576   2.901   3.715
 2318SOL    HW2 7854   1.620   2.767   3.798
 2319SOL     OW 7855   1.755   5.335   3.940
 2319SOL    HW1 7856   1.849   5.304   3.927
 2319SOL    HW2 7857   1.755   5.431   3.969
 2320SOL     OW 7858   0.834   2.390   4.902
 2320SOL    HW1 7859   0.756   2.423   4.956
 2320SOL    HW2 7860   0.819   2.295   4.877
 2321SOL     OW 7861   2.634   0.149   6.780
 2321SOL    HW1 7862   2.615   0.195   6.693
 2321SOL    HW2 7863   2.612   0.211   6.856
 2322SOL     OW 7864   3.087   1.567   4.911
 2322SOL    HW1 7865   3.077   1.638   4.841
 2322SOL    HW2 7866   3.079   1.608   5.002
 2323SOL     OW 7867   2.847   5.054   1.755
 2323SOL    HW1 7868   2.873   5.094   1.843
 2323SOL    HW2 7869   2.822   4.958   1.768
 2324SOL     OW 7870   6.332   6.286   1.584
 2324SOL    HW1 7871   6.395   6.340   1.641
 2324SOL    HW2 7872   6.315   6.335   1.499
 2325SOL     OW 7873   0.960   4.746   2.449
 2325SOL    HW1 7874   0.890   4.691   2.403
 2325SOL    HW2 7875   1.049   4.729   2.407
 2326SOL     OW 7876   3.386   5.623   5.883
 2326SOL    HW1 7877   3.293   5.606   5.851
 2326SOL    HW2 7878   3.451   5.592   5.813
 2327SOL     OW 7879   6.409   3.280   4.992
 2327SOL    HW1 7880   6.374   3.251   4.903
 2327SOL    HW2 7881   6.399   3.206   5.058
 2328SOL     OW 7882   3.400   2.035   2.466
 2328SOL    HW1 7883   3.311   2.048   2.510
 2328SOL    HW2 7884   3.472   2.074   2.524
 2329SOL     OW 7885   1.812   3.560   5.272
 2329SOL    HW1 7886   1.754   3.615   5.212
 2329SOL    HW2 7887   1.779   3.465   5.272
 2330SOL     OW 7888   1.138   3.961   2.084
 2330SOL    HW1 7889   1.090   3.935   2.168
 2330SOL    HW2 7890   1.122   4.057   2.063
 2331SOL     OW 7891   6.023   4.256   1.427
 2331SOL    HW1 7892   5.959   4.329   1.404
 2331SOL    HW2 7893   6.110   4.296   1.457
 2332SOL     OW 7894   3.963   1.609   5.556
 2332SOL    HW1 7895   3.956   1.691   5.612
 2332SOL    HW2 7896   4.056   1.574   5.558
 2333SOL     OW 7897   0.632   6.141   2.864
 2333SOL    HW1 7898   0.710   6.111   2.918
 2333SOL    HW2 7899   0.604   6.067   2.803
 2334SOL     OW 7900   2.032   0.323   6.883
 2334SOL    HW1 7901   2.038   0.289   6.977
 2334SOL    HW2 7902   1.976   0.260   6.829
 2335SOL     OW 7903   6.097   1.217   3.205
 2335SOL    HW1 7904   6.110   1.170   3.293
 2335SOL    HW2 7905   6.080   1.150   3.133
 2336SOL     OW 7906   4.506   1.662   4.963
 2336SOL    HW1 7907   4.484   1.758   4.984
 2336SOL    HW2 7908   4.596   1.640   5.002
 2337SOL     OW 7909   4.407   1.133   3.286
 2337SOL    HW1 7910   4.453   1.168   3.368
 2337SOL    HW2 7911   4.475   1.099   3.221
 2338SOL     OW 7912   1.347   1.310   5.939
 2338SOL    HW1 7913   1.286   1.385   5.964
 2338SOL    HW2 7914   1.361   1.250   6.019
 2339SOL     OW 7915   3.792   4.127   4.791
 2339SOL    HW1 7916   3.787   4.135   4.890
 2339SOL    HW2 7917   3.754   4.209   4.749
 2340SOL     OW 7918   5.250   4.717   6.849
 2340SOL    HW1 7919   5.256   4.624   6.887
 2340SOL    HW2 7920   5.211   4.713   6.757
 2341SOL     OW 7921   5.692   4.289   1.374
 2341SOL    HW1 7922   5.757   4.363   1.356
 2341SOL    HW2 7923   5.714   4.210   1.316
 2342SOL     OW 7924   0.382   6.315   5.086
 2342SOL    HW1 7925   0.354   6.404   5.051
 2342SOL    HW2 7926   0.306   6.274   5.138
 2343SOL     OW 7927   1.682   6.193   2.196
 2343SOL    HW1 7928   1.642   6.120   2.140
 2343SOL    HW2 7929   1.714   6.155   2.282
 2344SOL     OW 7930   2.028   0.597   1.411
 2344SOL    HW1 7931   2.125   0.588   1.432
 2344SOL    HW2 7932   1.996   0.688   1.438
 2345SOL     OW 7933   2.808   5.384   5.505
 2345SOL    HW1 7934   2.763   5.343   5.584
 2345SOL    HW2 7935   2.848   5.472   5.530
 2346SOL     OW 7936   4.717   2.830   4.961
 2346SOL    HW1 7937   4.674   2.915   4.991
 2346SOL    HW2 7938   4.814   2.846   4.942
 2347SOL     OW 7939   2.168   3.659   1.698
 2347SOL    HW1 7940   2.231   3.611   1.760
 2347SOL    HW2 7941   2.074   3.638   1.724
 2348SOL     OW 7942   3.644   6.119   4.031
 2348SOL    HW1 7943   3.572   6.054   4.009
 2348SOL    HW2 7944   3.684   6.095   4.119
 2349SOL     OW 7945   0.647   5.097   5.956
 2349SOL    HW1 7946   0.580   5.136   6.020
 2349SOL    HW2 7947   0.618   5.114   5.862
 2350SOL     OW 7948   5.351   6.924   6.507
 2350SOL    HW1 7949   5.286   6.850   6.525
 2350SOL    HW2 7950   5.317   6.979   6.431
 2351SOL     OW 7951   3.887   5.100   2.012
 2351SOL    HW1 7952   3.806   5.071   1.962
 2351SOL    HW2 7953   3.862   5.169   2.080
 2352SOL     OW 7954   1.183   3.694   2.304
 2352SOL    HW1 7955   1.085   3.711   2.299
 2352SOL    HW2 7956   1.231   3.780   2.322
 2353SOL     OW 7957   3.068   4.833   5.208
 2353SOL    HW1 7958   3.010   4.898   5.158
 2353SOL    HW2 7959   3.038   4.740   5.186
 2354SOL     OW 7960   3.009   1.706   6.172
 2354SOL    HW1 7961   3.084   1.685   6.110
 2354SOL    HW2 7962   2.999   1.806   6.179
 2355SOL     OW 7963   1.265   5.441   6.470
 2355SOL    HW1 7964   1.353   5.432   6.424
 2355SOL    HW2 7965   1.198   5.381   6.426
 2356SOL     OW 7966   2.257   4.169   0.015
 2356SOL    HW1 7967   2.327   4.114   0.061
 2356SOL    HW2 7968   2.273   4.266   0.035
 2357SOL     OW 7969   4.106   5.116   3.399
 2357SOL    HW1 7970   4.101   5.047   3.326
 2357SOL    HW2 7971   4.019   5.119   3.448
 2358SOL     OW 7972   2.614   5.290   5.333
 2358SOL    HW1 7973   2.674   5.314   5.409
 2358SOL    HW2 7974   2.624   5.194   5.310
 2359SOL     OW 7975   0.060   1.015   5.658
 2359SOL    HW1 7976   0.153   1.035   5.687
 2359SOL    HW2 7977   0.061   0.978   5.565
 2360SOL     OW 7978   5.112   6.014   6.048
 2360SOL    HW1 7979   5.077   6.107   6.060
 2360SOL    HW2 7980   5.194   6.002   6.103
 2361SOL     OW 7981   2.906   0.106   4.642
 2361SOL    HW1 7982   2.990   0.154   4.665
 2361SOL    HW2 7983   2.851   0.094   4.725
 2362SOL     OW 7984   3.031   0.115   5.139
 2362SOL    HW1 7985   3.064   0.186   5.201
 2362SOL    HW2 7986   2.972   0.052   5.189
 2363SOL     OW 7987   4.153   2.653   5.648
 2363SOL    HW1 7988   4.066   2.648   5.599
 2363SOL    HW2 7989   4.152   2.586   5.723
 2364SOL     OW 7990   0.151   2.430   3.306
 2364SOL    HW1 7991   0.187   2.470   3.222
 2364SOL    HW2 7992   0.090   2.354   3.284
 2365SOL     OW 7993   6.288   2.451   6.253
 2365SOL    HW1 7994   6.309   2.471   6.157
 2365SOL    HW2 7995   6.333   2.518   6.312
 2366SOL     OW 7996   1.353   4.802   5.570
 2366SOL    HW1 7997   1.344   4.896   5.538
 2366SOL    HW2 7998   1.448   4.773   5.563
 2367SOL     OW 7999   3.400   3.589   6.988
 2367SOL    HW1 8000   3.418   3.668   6.930
 2367SOL    HW2 8001   3.468   3.584   0.042
 2368SOL     OW 8002   4.467   0.240   3.879
 2368SOL    HW1 8003   4.422   0.228   3.968
 2368SOL    HW2 8004   4.411   0.198   3.808
 2369SOL     OW 8005   2.055   2.371   4.783
 2369SOL    HW1 8006   2.038   2.398   4.878
 2369SOL    HW2 8007   1.973   2.389   4.728
 2370SOL     OW 8008   4.813   4.259   6.366
 2370SOL    HW1 8009   4.871   4.186   6.402
 2370SOL    HW2 8010   4.769   4.307   6.442
 2371SOL     OW 8011   1.376   6.189   1.713
 2371SOL    HW1 8012   1.331   6.244   1.782
 2371SOL    HW2 8013   1.472   6.216   1.705
 2372SOL     OW 8014   0.543   2.173   1.582
 2372SOL    HW1 8015   0.643   2.178   1.589
 2372SOL    HW2 8016   0.518   2.141   1.490
 2373SOL     OW 8017   6.493   0.318   0.142
 2373SOL    HW1 8018   6.548   0.393   0.106
 2373SOL    HW2 8019   6.396   0.340   0.131
 2374SOL     OW 8020   6.079   1.107   4.063
 2374SOL    HW1 8021   6.088   1.020   4.015
 2374SOL    HW2 8022   6.059   1.090   4.160
 2375SOL     OW 8023   1.595   6.488   4.413
 2375SOL    HW1 8024   1.508   6.536   4.424
 2375SOL    HW2 8025   1.623   6.449   4.501
 2376SOL     OW 8026   6.260   2.673   4.232
 2376SOL    HW1 8027   6.319   2.665   4.151
 2376SOL    HW2 8028   6.251   2.583   4.276
 2377SOL     OW 8029   3.307   3.900   3.340
 2377SOL    HW1 8030   3.283   3.852   3.256
 2377SOL    HW2 8031   3.329   3.834   3.411
 2378SOL     OW 8032   5.466   2.227   6.355
 2378SOL    HW1 8033   5.405   2.287   6.303
 2378SOL    HW2 8034   5.425   2.136   6.363
 2379SOL     OW 8035   7.002   1.609   6.544
 2379SOL    HW1 8036   6.909   1.579   6.523
 2379SOL    HW2 8037   0.011   1.571   6.632
 2380SOL     OW 8038   6.349   6.396   6.230
 2380SOL    HW1 8039   6.252   6.401   6.253
 2380SOL    HW2 8040   6.367   6.310   6.182
 2381SOL     OW 8041   2.282   4.395   4.163
 2381SOL    HW1 8042   2.278   4.442   4.251
 2381SOL    HW2 8043   2.244   4.303   4.173
 2382SOL     OW 8044   2.010   4.848   2.552
 2382SOL    HW1 8045   2.095   4.835   2.604
 2382SOL    HW2 8046   1.941   4.785   2.586
 2383SOL     OW 8047   4.941   5.735   6.868
 2383SOL    HW1 8048   4.883   5.804   6.912
 2383SOL    HW2 8049   4.893   5.696   6.790
 2384SOL     OW 8050   1.024   0.224   2.344
 2384SOL    HW1 8051   1.050   0.308   2.393
 2384SOL    HW2 8052   1.004   0.246   2.248
 2385SOL     OW 8053   6.019   7.007   0.998
 2385SOL    HW1 8054   5.930   0.006   1.040
 2385SOL    HW2 8055   6.037   0.055   0.927
 2386SOL     OW 8056   4.511   5.225   4.133
 2386SOL    HW1 8057   4.606   5.229   4.104
 2386SOL    HW2 8058   4.506   5.228   4.233
 2387SOL     OW 8059   0.225   1.821   3.645
 2387SOL    HW1 8060   0.157   1.840   3.575
 2387SOL    HW2 8061   0.284   1.901   3.658
 2388SOL     OW 8062   1.118   1.452   4.597
 2388SOL    HW1 8063   1.203   1.475   4.644
 2388SOL    HW2 8064   1.080   1.534   4.555
 2389SOL     OW 8065   5.376   3.957   3.759
 2389SOL    HW1 8066   5.445   3.948   3.831
 2389SOL    HW2 8067   5.288   3.924   3.793
 2390SOL     OW 8068   3.571   3.258   4.461
 2390SOL    HW1 8069   3.475   3.230   4.465
 2390SOL    HW2 8070   3.619   3.201   4.395
 2391SOL     OW 8071   4.527   4.369   5.801
 2391SOL    HW1 8072   4.494   4.460   5.824
 2391SOL    HW2 8073   4.483   4.301   5.859
 2392SOL     OW 8074   3.617   5.853   5.762
 2392SOL    HW1 8075   3.518   5.853   5.749
 2392SOL    HW2 8076   3.653   5.944   5.743
 2393SOL     OW 8077   3.832   5.462   0.409
 2393SOL    HW1 8078   3.900   5.459   0.482
 2393SOL    HW2 8079   3.839   5.379   0.353
 2394SOL     OW 8080   1.763   3.301   5.240
 2394SOL    HW1 8081   1.812   3.268   5.160
 2394SOL    HW2 8082   1.785   3.242   5.318
 2395SOL     OW 8083   6.571   2.426   6.723
 2395SOL    HW1 8084   6.595   2.330   6.708
 2395SOL    HW2 8085   6.547   2.468   6.636
 2396SOL     OW 8086   4.526   6.029   6.964
 2396SOL    HW1 8087   4.442   6.066   6.926
 2396SOL    HW2 8088   4.504   5.961   0.015
 2397SOL     OW 8089   0.212   4.096   0.298
 2397SOL    HW1 8090   0.113   4.085   0.286
 2397SOL    HW2 8091   0.249   4.151   0.223
 2398SOL     OW 8092   2.771   4.807   5.890
 2398SOL    HW1 8093   2.779   4.715   5.927
 2398SOL    HW2 8094   2.702   4.859   5.941
 2399SOL     OW 8095   4.610   1.757   2.422
 2399SOL    HW1 8096   4.678   1.691   2.390
 2399SOL    HW2 8097   4.654   1.825   2.480
 2400SOL     OW 8098   4.277   4.838   0.619
 2400SOL    HW1 8099   4.251   4.758   0.564
 2400SOL    HW2 8100   4.284   4.918   0.560
 2401SOL     OW 8101   4.087   0.522   6.013
 2401SOL    HW1 8102   4.148   0.593   6.048
 2401SOL    HW2 8103   4.113   0.434   6.052
 2402SOL     OW 8104   0.386   2.679   3.986
 2402SOL    HW1 8105   0.384   2.699   4.084
 2402SOL    HW2 8106   0.327   2.601   3.967
 2403SOL     OW 8107   2.954   2.797   0.022
 2403SOL    HW1 8108   2.868   2.747   0.008
 2403SOL    HW2 8109   2.993   2.819   6.952
 2404SOL     OW 8110   5.547   1.579   2.566
 2404SOL    HW1 8111   5.552   1.547   2.471
 2404SOL    HW2 8112   5.569   1.503   2.627
 2405SOL     OW 8113   3.238   3.962   4.253
 2405SOL    HW1 8114   3.140   3.956   4.274
 2405SOL    HW2 8115   3.271   3.874   4.221
 2406SOL     OW 8116   1.401   0.476   3.973
 2406SOL    HW1 8117   1.302   0.464   3.976
 2406SOL    HW2 8118   1.440   0.416   3.902
 2407SOL     OW 8119   4.841   2.949   2.939
 2407SOL    HW1 8120   4.836   2.862   2.987
 2407SOL    HW2 8121   4.799   2.940   2.849
 2408SOL     OW 8122   3.486   5.155   2.234
 2408SOL    HW1 8123   3.498   5.058   2.252
 2408SOL    HW2 8124   3.505   5.207   2.317
 2409SOL     OW 8125   1.694   2.912   2.330
 2409SOL    HW1 8126   1.772   2.938   2.387
 2409SOL    HW2 8127   1.706   2.818   2.297
 2410SOL     OW 8128   5.897   2.874   5.784
 2410SOL    HW1 8129   5.833   2.940   5.825
 2410SOL    HW2 8130   5.956   2.836   5.856
 2411SOL     OW 8131   4.372   4.964   5.487
 2411SOL    HW1 8132   4.339   5.039   5.544
 2411SOL    HW2 8133   4.324   4.880   5.512
 2412SOL     OW 8134   3.260   4.160   0.228
 2412SOL    HW1 8135   3.220   4.178   0.318
 2412SOL    HW2 8136   3.217   4.220   0.160
 2413SOL     OW 8137   0.170   3.031   6.546
 2413SOL    HW1 8138   0.078   3.070   6.540
 2413SOL    HW2 8139   0.197   2.995   6.456
 2414SOL     OW 8140   5.736   4.059   2.160
 2414SOL    HW1 8141   5.668   4.015   2.218
 2414SOL    HW2 8142   5.827   4.028   2.186
 2415SOL     OW 8143   0.648   6.943   0.989
 2415SOL    HW1 8144   0.585   6.948   1.065
 2415SOL    HW2 8145   0.716   6.872   1.006
 2416SOL     OW 8146   2.787   1.793   5.464
 2416SOL    HW1 8147   2.800   1.822   5.559
 2416SOL    HW2 8148   2.690   1.791   5.442
 2417SOL     OW 8149   4.362   2.460   0.243
 2417SOL    HW1 8150   4.418   2.523   0.298
 2417SOL    HW2 8151   4.303   2.406   0.304
 2418SOL     OW 8152   2.927   3.765   3.841
 2418SOL    HW1 8153   2.965   3.779   3.932
 2418SOL    HW2 8154   2.841   3.815   3.832
 2419SOL     OW 8155   0.492   6.190   4.089
 2419SOL    HW1 8156   0.528   6.096   4.096
 2419SOL    HW2 8157   0.449   6.201   4.000
 2420SOL     OW 8158   4.190   0.422   1.990
 2420SOL    HW1 8159   4.104   0.438   2.039
 2420SOL    HW2 8160   4.251   0.500   2.005
 2421SOL     OW 8161   2.720   0.789   4.941
 2421SOL    HW1 8162   2.814   0.764   4.961
 2421SOL    HW2 8163   2.719   0.870   4.881
 2422SOL     OW 8164   5.591   0.243   1.465
 2422SOL    HW1 8165   5.606   0.278   1.373
 2422SOL    HW2 8166   5.599   0.317   1.531
 2423SOL     OW 8167   1.415   6.522   3.327
 2423SOL    HW1 8168   1.436   6.498   3.232
 2423SOL    HW2 8169   1.447   6.450   3.388
 2424SOL     OW 8170   5.733   5.747   5.998
 2424SOL    HW1 8171   5.634   5.741   5.990
 2424SOL    HW2 8172   5.767   5.675   6.058
 2425SOL     OW 8173   5.811   0.313   4.231
 2425SOL    HW1 8174   5.876   0.261   4.286
 2425SOL    HW2 8175   5.806   0.407   4.264
 2426SOL     OW 8176   0.886   4.544   4.409
 2426SOL    HW1 8177   0.885   4.461   4.353
 2426SOL    HW2 8178   0.880   4.519   4.506
 2427SOL     OW 8179   6.020   5.504   6.983
 2427SOL    HW1 8180   5.948   5.436   6.973
 2427SOL    HW2 8181   6.073   5.509   6.898
 2428SOL     OW 8182   0.447   6.981   3.156
 2428SOL    HW1 8183   0.399   6.984   3.244
 2428SOL    HW2 8184   0.531   6.927   3.166
 2429SOL     OW 8185   6.347   5.718   4.185
 2429SOL    HW1 8186   6.409   5.640   4.199
 2429SOL    HW2 8187   6.302   5.741   4.271
 2430SOL     OW 8188   6.528   2.576   1.792
 2430SOL    HW1 8189   6.506   2.646   1.860
 2430SOL    HW2 8190   6.549   2.620   1.705
 2431SOL     OW 8191   4.043   0.124   1.707
 2431SOL    HW1 8192   4.108   0.054   1.675
 2431SOL    HW2 8193   4.010   0.100   1.798
 2432SOL     OW 8194   4.284   6.348   2.658
 2432SOL    HW1 8195   4.309   6.284   2.585
 2432SOL    HW2 8196   4.267   6.297   2.742
 2433SOL     OW 8197   3.000   0.019   0.838
 2433SOL    HW1 8198   2.947   0.086   0.787
 2433SOL    HW2 8199   3.003   0.045   0.935
 2434SOL     OW 8200   4.226   1.436   3.255
 2434SOL    HW1 8201   4.238   1.438   3.355
 2434SOL    HW2 8202   4.315   1.427   3.211
 2435SOL     OW 8203   4.694   5.527   5.750
 2435SOL    HW1 8204   4.710   5.571   5.839
 2435SOL    HW2 8205   4.602   5.551   5.718
 2436SOL     OW 8206   1.739   6.892   0.629
 2436SOL    HW1 8207   1.756   6.946   0.711
 2436SOL    HW2 8208   1.826   6.854   0.596
 2437SOL     OW 8209   4.636   5.407   0.465
 2437SOL    HW1 8210   4.677   5.319   0.488
 2437SOL    HW2 8211   4.643   5.422   0.367
 2438SOL     OW 8212   3.532   1.417   5.512
 2438SOL    HW1 8213   3.509   1.427   5.416
 2438SOL    HW2 8214   3.592   1.338   5.524
 2439SOL     OW 8215   1.295   4.276   0.337
 2439SOL    HW1 8216   1.335   4.192   0.373
 2439SOL    HW2 8217   1.332   4.294   0.245
 2440SOL     OW 8218   3.666   6.169   4.984
 2440SOL    HW1 8219   3.608   6.238   5.027
 2440SOL    HW2 8220   3.758   6.174   5.024
 2441SOL     OW 8221   6.258   1.085   6.855
 2441SOL    HW1 8222   6.193   1.126   6.919
 2441SOL    HW2 8223   6.272   1.146   6.777
 2442SOL     OW 8224   6.325   6.166   3.911
 2442SOL    HW1 8225   6.337   6.074   3.949
 2442SOL    HW2 8226   6.413   6.215   3.915
 2443SOL     OW 8227   3.021   0.227   6.248
 2443SOL    HW1 8228   3.016   0.289   6.170
 2443SOL    HW2 8229   3.085   0.153   6.229
 2444SOL     OW 8230   3.948   4.218   6.317
 2444SOL    HW1 8231   3.956   4.176   6.408
 2444SOL    HW2 8232   3.934   4.317   6.327
 2445SOL     OW 8233   6.477   0.854   2.654
 2445SOL    HW1 8234   6.448   0.776   2.598
 2445SOL    HW2 8235   6.397   0.897   2.695
 2446SOL     OW 8236   0.779   2.794   4.437
 2446SOL    HW1 8237   0.862   2.741   4.454
 2446SOL    HW2 8238   0.768   2.863   4.508
 2447SOL     OW 8239   2.311   1.139   0.960
 2447SOL    HW1 8240   2.275   1.077   0.890
 2447SOL    HW2 8241   2.314   1.091   1.048
 2448SOL     OW 8242   0.671   0.711   4.007
 2448SOL    HW1 8243   0.695   0.651   3.931
 2448SOL    HW2 8244   0.583   0.682   4.046
 2449SOL     OW 8245   0.032   4.099   2.790
 2449SOL    HW1 8246   0.082   4.161   2.730
 2449SOL    HW2 8247   6.953   4.107   2.772
 2450SOL     OW 8248   3.014   5.243   5.017
 2450SOL    HW1 8249   2.978   5.325   5.063
 2450SOL    HW2 8250   2.967   5.162   5.053
 2451SOL     OW 8251   0.810   0.245   3.559
 2451SOL    HW1 8252   0.759   0.184   3.498
 2451SOL    HW2 8253   0.748   0.285   3.625
 2452SOL     OW 8254   3.070   2.188   3.420
 2452SOL    HW1 8255   2.986   2.143   3.451
 2452SOL    HW2 8256   3.147   2.156   3.475
 2453SOL     OW 8257   6.734   3.371   0.604
 2453SOL    HW1 8258   6.690   3.329   0.524
 2453SOL    HW2 8259   6.664   3.403   0.668
 2454SOL     OW 8260   2.969   0.727   6.826
 2454SOL    HW1 8261   3.009   0.691   6.741
 2454SOL    HW2 8262   2.995   0.668   6.902
 2455SOL     OW 8263   5.011   1.038   1.275
 2455SOL    HW1 8264   5.102   1.024   1.236
 2455SOL    HW2 8265   4.969   0.949   1.294
 2456SOL     OW 8266   5.764   1.382   0.246
 2456SOL    HW1 8267   5.798   1.288   0.240
 2456SOL    HW2 8268   5.672   1.382   0.283
 2457SOL     OW 8269   6.329   6.043   6.559
 2457SOL    HW1 8270   6.408   6.056   6.620
 2457SOL    HW2 8271   6.280   6.129   6.549
 2458SOL     OW 8272   2.301   6.102   3.801
 2458SOL    HW1 8273   2.247   6.018   3.797
 2458SOL    HW2 8274   2.371   6.101   3.729
 2459SOL     OW 8275   2.652   6.603   6.467
 2459SOL    HW1 8276   2.694   6.549   6.394
 2459SOL    HW2 8277   2.722   6.634   6.531
 2460SOL     OW 8278   1.697   1.706   1.988
 2460SOL    HW1 8279   1.712   1.800   1.958
 2460SOL    HW2 8280   1.701   1.645   1.910
 2461SOL     OW 8281   4.574   6.921   3.164
 2461SOL    HW1 8282   4.546   6.977   3.087
 2461SOL    HW2 8283   4.498   6.909   3.228
 2462SOL     OW 8284   2.075   5.515   0.487
 2462SOL    HW1 8285   2.025   5.558   0.412
 2462SOL    HW2 8286   2.066   5.570   0.570
 2463SOL     OW 8287   6.551   2.568   5.110
 2463SOL    HW1 8288   6.535   2.632   5.186
 2463SOL    HW2 8289   6.528   2.612   5.024
 2464SOL     OW 8290   1.590   4.126   1.779
 2464SOL    HW1 8291   1.559   4.066   1.853
 2464SOL    HW2 8292   1.594   4.220   1.812
 2465SOL     OW 8293   1.183   0.600   1.704
 2465SOL    HW1 8294   1.090   0.575   1.731
 2465SOL    HW2 8295   1.186   0.611   1.604
 2466SOL     OW 8296   2.760   1.699   1.888
 2466SOL    HW1 8297   2.691   1.628   1.893
 2466SOL    HW2 8298   2.797   1.704   1.795
 2467SOL     OW 8299   5.367   1.630   4.775
 2467SOL    HW1 8300   5.300   1.688   4.822
 2467SOL    HW2 8301   5.449   1.684   4.755
 2468SOL     OW 8302   5.520   6.062   1.991
 2468SOL    HW1 8303   5.470   5.981   1.959
 2468SOL    HW2 8304   5.562   6.042   2.079
 2469SOL     OW 8305   4.154   4.257   5.264
 2469SOL    HW1 8306   4.122   4.308   5.344
 2469SOL    HW2 8307   4.188   4.321   5.196
 2470SOL     OW 8308   3.775   4.830   5.653
 2470SOL    HW1 8309   3.817   4.874   5.574
 2470SOL    HW2 8310   3.784   4.731   5.644
 2471SOL     OW 8311   2.857   6.059   0.651
 2471SOL    HW1 8312   2.769   6.093   0.617
 2471SOL    HW2 8313   2.923   6.058   0.576
 2472SOL     OW 8314   4.548   2.225   3.992
 2472SOL    HW1 8315   4.473   2.274   4.038
 2472SOL    HW2 8316   4.566   2.140   4.041
 2473SOL     OW 8317   2.067   4.106   5.138
 2473SOL    HW1 8318   2.137   4.054   5.088
 2473SOL    HW2 8319   2.055   4.066   5.229
 2474SOL     OW 8320   0.609   5.719   6.947
 2474SOL    HW1 8321   0.542   5.752   7.013
 2474SOL    HW2 8322   0.698   5.708   6.992
 2475SOL     OW 8323   5.347   1.023   1.474
 2475SOL    HW1 8324   5.345   1.053   1.378
 2475SOL    HW2 8325   5.334   0.924   1.479
 2476SOL     OW 8326   0.758   2.489   3.645
 2476SOL    HW1 8327   0.702   2.510   3.726
 2476SOL    HW2 8328   0.730   2.547   3.569
 2477SOL     OW 8329   5.097   1.421   2.509
 2477SOL    HW1 8330   5.125   1.421   2.605
 2477SOL    HW2 8331   5.167   1.469   2.455
 2478SOL     OW 8332   6.242   1.061   1.972
 2478SOL    HW1 8333   6.162   1.090   2.025
 2478SOL    HW2 8334   6.225   1.080   1.875
 2479SOL     OW 8335   1.260   3.766   1.696
 2479SOL    HW1 8336   1.258   3.690   1.630
 2479SOL    HW2 8337   1.342   3.821   1.679
 2480SOL     OW 8338   6.234   4.135   1.289
 2480SOL    HW1 8339   6.223   4.091   1.200
 2480SOL    HW2 8340   6.146   4.171   1.319
 2481SOL     OW 8341   2.932   0.765   0.279
 2481SOL    HW1 8342   2.840   0.793   0.307
 2481SOL    HW2 8343   2.967   0.696   0.343
 2482SOL     OW 8344   4.606   2.935   5.910
 2482SOL    HW1 8345   4.682   2.871   5.923
 2482SOL    HW2 8346   4.637   3.013   5.855
 2483SOL     OW 8347   2.385   1.809   6.945
 2483SOL    HW1 8348   2.337   1.727   6.913
 2483SOL    HW2 8349   2.395   1.874   6.871
 2484SOL     OW 8350   2.104   0.320   0.172
 2484SOL    HW1 8351   2.076   0.225   0.158
 2484SOL    HW2 8352   2.174   0.324   0.243
 2485SOL     OW 8353   5.082   3.616   2.404
 2485SOL    HW1 8354   5.166   3.585   2.360
 2485SOL    HW2 8355   5.048   3.544   2.465
 2486SOL     OW 8356   2.726   5.042   3.835
 2486SOL    HW1 8357   2.779   5.123   3.811
 2486SOL    HW2 8358   2.780   4.960   3.816
 2487SOL     OW 8359   3.638   5.896   0.146
 2487SOL    HW1 8360   3.617   5.805   0.110
 2487SOL    HW2 8361   3.582   5.964   0.099
 2488SOL     OW 8362   1.551   4.688   2.430
 2488SOL    HW1 8363   1.552   4.754   2.505
 2488SOL    HW2 8364   1.523   4.598   2.466
 2489SOL     OW 8365   2.139   5.645   3.317
 2489SOL    HW1 8366   2.171   5.681   3.405
 2489SOL    HW2 8367   2.040   5.650   3.312
 2490SOL     OW 8368   6.720   5.304   1.433
 2490SOL    HW1 8369   6.666   5.294   1.516
 2490SOL    HW2 8370   6.675   5.253   1.358
 2491SOL     OW 8371   2.941   5.771   1.033
 2491SOL    HW1 8372   2.895   5.832   1.097
 2491SOL    HW2 8373   2.968   5.687   1.081
 2492SOL     OW 8374   4.422   2.990   6.844
 2492SOL    HW1 8375   4.475   2.928   6.786
 2492SOL    HW2 8376   4.399   3.073   6.793
 2493SOL     OW 8377   6.026   0.413   2.734
 2493SOL    HW1 8378   6.046   0.414   2.636
 2493SOL    HW2 8379   6.096   0.466   2.782
 2494SOL     OW 8380   5.881   3.689   2.579
 2494SOL    HW1 8381   5.903   3.626   2.653
 2494SOL    HW2 8382   5.806   3.749   2.608
 2495SOL     OW 8383   5.343   0.449   5.120
 2495SOL    HW1 8384   5.438   0.478   5.105
 2495SOL    HW2 8385   5.306   0.414   5.035
 2496SOL     OW 8386   0.222   4.455   6.092
 2496SOL    HW1 8387   0.196   4.404   6.174
 2496SOL    HW2 8388   0.322   4.462   6.087
 2497SOL     OW 8389   0.163   1.262   1.245
 2497SOL    HW1 8390   0.151   1.211   1.160
 2497SOL    HW2 8391   0.141   1.203   1.323
 2498SOL     OW 8392   3.640   2.031   3.630
 2498SOL    HW1 8393   3.720   2.086   3.604
 2498SOL    HW2 8394   3.602   2.067   3.715
 2499SOL     OW 8395   4.893   2.118   4.187
 2499SOL    HW1 8396   4.833   2.088   4.261
 2499SOL    HW2 8397   4.978   2.065   4.189
 2500SOL     OW 8398   4.337   2.847   5.889
 2500SOL    HW1 8399   4.436   2.849   5.877
 2500SOL    HW2 8400   4.293   2.870   5.803
 2501SOL     OW 8401   6.425   6.141   0.024
 2501SOL    HW1 8402   6.344   6.199   0.029
 2501SOL    HW2 8403   6.407   6.053   0.069
 2502SOL     OW 8404   2.414   6.020   3.078
 2502SOL    HW1 8405   2.496   5.979   3.038
 2502SOL    HW2 8406   2.408   6.116   3.051
 2503SOL     OW 8407   3.522   5.413   5.377
 2503SOL    HW1 8408   3.493   5.509   5.376
 2503SOL    HW2 8409   3.474   5.363   5.305
 2504SOL     OW 8410   3.161   5.368   5.518
 2504SOL    HW1 8411   3.153   5.290   5.456
 2504SOL    HW2 8412   3.088   5.433   5.498
 2505SOL     OW 8413   1.842   6.429   4.290
 2505SOL    HW1 8414   1.838   6.466   4.197
 2505SOL    HW2 8415   1.761   6.458   4.341
 2506SOL     OW 8416   6.100   3.607   6.421
 2506SOL    HW1 8417   6.059   3.604   6.513
 2506SOL    HW2 8418   6.038   3.563   6.356
 2507SOL     OW 8419   0.539   4.023   0.347
 2507SOL    HW1 8420   0.518   4.118   0.322
 2507SOL    HW2 8421   0.515   4.008   0.443
 2508SOL     OW 8422   3.008   1.269   2.313
 2508SOL    HW1 8423   3.094   1.244   2.358
 2508SOL    HW2 8424   3.023   1.350   2.256
 2509SOL     OW 8425   5.905   2.659   2.634
 2509SOL    HW1 8426   5.903   2.755   2.608
 2509SOL    HW2 8427   5.875   2.602   2.557
 2510SOL     OW 8428   3.471   4.472   1.093
 2510SOL    HW1 8429   3.553   4.416   1.090
 2510SOL    HW2 8430   3.400   4.425   1.146
 2511SOL     OW 8431   2.348   1.859   4.180
 2511SOL    HW1 8432   2.300   1.897   4.100
 2511SOL    HW2 8433   2.317   1.765   4.195
 2512SOL     OW 8434   5.052   5.260   5.203
 2512SOL    HW1 8435   4.970   5.242   5.149
 2512SOL    HW2 8436   5.029   5.316   5.282
 2513SOL     OW 8437   0.950   3.163   5.631
 2513SOL    HW1 8438   0.930   3.151   5.534
 2513SOL    HW2 8439   1.019   3.234   5.642
 2514SOL     OW 8440   6.417   4.272   4.447
 2514SOL    HW1 8441   6.321   4.293   4.466
 2514SOL    HW2 8442   6.423   4.188   4.394
 2515SOL     OW 8443   1.326   0.028   0.621
 2515SOL    HW1 8444   1.242   7.015   0.577
 2515SOL    HW2 8445   1.303   0.093   0.693
 2516SOL     OW 8446   5.880   0.106   3.295
 2516SOL    HW1 8447   5.799   0.151   3.332
 2516SOL    HW2 8448   5.961   0.139   3.343
 2517SOL     OW 8449   1.809   5.721   5.344
 2517SOL    HW1 8450   1.734   5.779   5.313
 2517SOL    HW2 8451   1.827   5.739   5.441
 2518SOL     OW 8452   2.569   3.270   6.633
 2518SOL    HW1 8453   2.494   3.335   6.644
 2518SOL    HW2 8454   2.542   3.182   6.670
 2519SOL     OW 8455   4.863   5.505   4.237
 2519SOL    HW1 8456   4.925   5.503   4.315
 2519SOL    HW2 8457   4.775   5.465   4.263
 2520SOL     OW 8458   1.204   3.026   1.267
 2520SOL    HW1 8459   1.195   2.970   1.350
 2520SOL    HW2 8460   1.204   2.966   1.187
 2521SOL     OW 8461   0.815   6.415   5.509
 2521SOL    HW1 8462   0.795   6.486   5.577
 2521SOL    HW2 8463   0.883   6.352   5.547
 2522SOL     OW 8464   0.190   3.356   5.645
 2522SOL    HW1 8465   0.169   3.291   5.573
 2522SOL    HW2 8466   0.188   3.310   5.734
 2523SOL     OW 8467   0.164   3.388   1.375
 2523SOL    HW1 8468   0.167   3.382   1.275
 2523SOL    HW2 8469   0.110   3.467   1.402
 2524SOL     OW 8470   0.455   5.863   4.356
 2524SOL    HW1 8471   0.373   5.835   4.407
 2524SOL    HW2 8472   0.524   5.897   4.420
 2525SOL     OW 8473   1.140   2.347   4.859
 2525SOL    HW1 8474   1.056   2.345   4.912
 2525SOL    HW2 8475   1.186   2.259   4.865
 2526SOL     OW 8476   1.615   3.556   6.123
 2526SOL    HW1 8477   1.591   3.461   6.106
 2526SOL    HW2 8478   1.556   3.592   6.196
 2527SOL     OW 8479   5.076   6.800   5.056
 2527SOL    HW1 8480   4.978   6.796   5.077
 2527SOL    HW2 8481   5.126   6.837   5.135
 2528SOL     OW 8482   6.441   4.687   1.051
 2528SOL    HW1 8483   6.350   4.711   1.016
 2528SOL    HW2 8484   6.482   4.618   0.991
 2529SOL     OW 8485   6.500   5.673   6.371
 2529SOL    HW1 8486   6.503   5.634   6.463
 2529SOL    HW2 8487   6.436   5.749   6.369
 2530SOL     OW 8488   1.106   6.234   4.454
 2530SOL    HW1 8489   1.105   6.226   4.554
 2530SOL    HW2 8490   1.118   6.143   4.414
 2531SOL     OW 8491   5.524   5.744   4.158
 2531SOL    HW1 8492   5.587   5.701   4.094
 2531SOL    HW2 8493   5.440   5.690   4.163
 2532SOL     OW 8494   0.708   6.044   0.677
 2532SOL    HW1 8495   0.765   6.084   0.606
 2532SOL    HW2 8496   0.762   6.030   0.760
 2533SOL     OW 8497   4.674   6.173   3.890
 2533SOL    HW1 8498   4.600   6.234   3.860
 2533SOL    HW2 8499   4.636   6.098   3.945
 2534SOL     OW 8500   2.410   0.503   3.156
 2534SOL    HW1 8501   2.432   0.421   3.209
 2534SOL    HW2 8502   2.403   0.582   3.218
 2535SOL     OW 8503   2.430   2.660   6.625
 2535SOL    HW1 8504   2.371   2.598   6.573
 2535SOL    HW2 8505   2.392   2.673   6.717
 2536SOL     OW 8506   0.159   2.201   3.555
 2536SOL    HW1 8507   0.181   2.275   3.492
 2536SOL    HW2 8508   0.239   2.179   3.610
 2537SOL     OW 8509   5.424   6.471   6.734
 2537SOL    HW1 8510   5.478   6.487   6.651
 2537SOL    HW2 8511   5.462   6.525   6.809
 2538SOL     OW 8512   1.586   4.159   4.654
 2538SOL    HW1 8513   1.603   4.211   4.738
 2538SOL    HW2 8514   1.510   4.200   4.604
 2539SOL     OW 8515   4.374   0.209   5.650
 2539SOL    HW1 8516   4.473   0.218   5.654
 2539SOL    HW2 8517   4.343   0.213   5.555
 2540SOL     OW 8518   4.899   1.383   1.538
 2540SOL    HW1 8519   4.820   1.444   1.550
 2540SOL    HW2 8520   4.914   1.366   1.441
 2541SOL     OW 8521   1.624   0.374   5.823
 2541SOL    HW1 8522   1.545   0.436   5.823
 2541SOL    HW2 8523   1.672   0.381   5.911
 2542SOL     OW 8524   4.296   1.477   5.516
 2542SOL    HW1 8525   4.396   1.484   5.508
 2542SOL    HW2 8526   4.271   1.454   5.610
 2543SOL     OW 8527   1.996   0.802   3.213
 2543SOL    HW1 8528   2.039   0.800   3.122
 2543SOL    HW2 8529   1.904   0.839   3.205
 2544SOL     OW 8530   0.453   5.278   2.442
 2544SOL    HW1 8531   0.389   5.343   2.402
 2544SOL    HW2 8532   0.514   5.326   2.506
 2545SOL     OW 8533   1.870   0.529   1.199
 2545SOL    HW1 8534   1.933   0.541   1.275
 2545SOL    HW2 8535   1.776   0.524   1.233
 2546SOL     OW 8536   0.053   2.443   2.429
 2546SOL    HW1 8537   0.006   2.447   2.341
 2546SOL    HW2 8538   7.013   2.398   2.496
 2547SOL     OW 8539   5.741   5.578   0.124
 2547SOL    HW1 8540   5.780   5.501   0.174
 2547SOL    HW2 8541   5.811   5.648   0.111
 2548SOL     OW 8542   2.987   6.837   4.890
 2548SOL    HW1 8543   2.963   6.806   4.798
 2548SOL    HW2 8544   3.086   6.840   4.900
 2549SOL     OW 8545   2.069   1.754   1.743
 2549SOL    HW1 8546   2.041   1.668   1.700
 2549SOL    HW2 8547   1.989   1.799   1.782
 2550SOL     OW 8548   6.323   0.878   7.016
 2550SOL    HW1 8549   6.234   0.839   0.022
 2550SOL    HW2 8550   6.309   0.953   6.951
 2551SOL     OW 8551   2.857   5.162   0.246
 2551SOL    HW1 8552   2.931   5.195   0.304
 2551SOL    HW2 8553   2.894   5.106   0.172
 2552SOL     OW 8554   1.481   5.623   5.548
 2552SOL    HW1 8555   1.528   5.540   5.519
 2552SOL    HW2 8556   1.542   5.678   5.604
 2553SOL     OW 8557   2.910   3.440   0.111
 2553SOL    HW1 8558   2.987   3.503   0.107
 2553SOL    HW2 8559   2.877   3.420   0.019
 2554SOL     OW 8560   1.600   5.759   6.470
 2554SOL    HW1 8561   1.586   5.851   6.507
 2554SOL    HW2 8562   1.596   5.692   6.544
 2555SOL     OW 8563   6.341   6.190   6.045
 2555SOL    HW1 8564   6.252   6.236   6.048
 2555SOL    HW2 8565   6.327   6.094   6.021
 2556SOL     OW 8566   3.907   5.955   0.825
 2556SOL    HW1 8567   3.955   6.037   0.794
 2556SOL    HW2 8568   3.808   5.971   0.822
 2557SOL     OW 8569   2.076   1.938   6.534
 2557SOL    HW1 8570   2.083   1.840   6.516
 2557SOL    HW2 8571   1.995   1.955   6.591
 2558SOL     OW 8572   3.647   3.511   6.222
 2558SOL    HW1 8573   3.587   3.549   6.293
 2558SOL    HW2 8574   3.696   3.432   6.259
 2559SOL     OW 8575   6.449   2.939   4.276
 2559SOL    HW1 8576   6.496   3.019   4.312
 2559SOL    HW2 8577   6.350   2.952   4.281
 2560SOL     OW 8578   4.908   3.229   4.222
 2560SOL    HW1 8579   4.909   3.129   4.224
 2560SOL    HW2 8580   4.892   3.264   4.315
 2561SOL     OW 8581   3.922   0.385   3.157
 2561SOL    HW1 8582   3.843   0.440   3.129
 2561SOL    HW2 8583   3.955   0.416   3.246
 2562SOL     OW 8584   2.305   5.262   2.516
 2562SOL    HW1 8585   2.308   5.171   2.475
 2562SOL    HW2 8586   2.253   5.257   2.602
 2563SOL     OW 8587   3.730   2.031   0.226
 2563SOL    HW1 8588   3.767   1.947   0.185
 2563SOL    HW2 8589   3.632   2.019   0.241
 2564SOL     OW 8590   1.219   6.972   6.158
 2564SOL    HW1 8591   1.261   0.039   6.128
 2564SOL    HW2 8592   1.121   6.987   6.174
 2565SOL     OW 8593   0.043   0.568   0.782
 2565SOL    HW1 8594   7.000   0.645   0.763
 2565SOL    HW2 8595   0.079   0.578   0.875
 2566SOL     OW 8596   1.691   6.820   1.014
 2566SOL    HW1 8597   1.774   6.869   0.987
 2566SOL    HW2 8598   1.715   6.744   1.073
 2567SOL     OW 8599   1.328   1.337   2.734
 2567SOL    HW1 8600   1.414   1.348   2.683
 2567SOL    HW2 8601   1.281   1.255   2.702
 2568SOL     OW 8602   2.690   0.920   0.171
 2568SOL    HW1 8603   2.720   0.878   0.086
 2568SOL    HW2 8604   2.734   1.010   0.181
 2569SOL     OW 8605   2.549   1.149   2.296
 2569SOL    HW1 8606   2.642   1.135   2.332
 2569SOL    HW2 8607   2.549   1.130   2.198
 2570SOL     OW 8608   5.747   0.420   6.371
 2570SOL    HW1 8609   5.834   0.417   6.420
 2570SOL    HW2 8610   5.673   0.393   6.432
 2571SOL     OW 8611   2.884   3.371   5.138
 2571SOL    HW1 8612   2.791   3.343   5.111
 2571SOL    HW2 8613   2.951   3.314   5.090
 2572SOL     OW 8614   1.855   6.731   1.794
 2572SOL    HW1 8615   1.915   6.656   1.765
 2572SOL    HW2 8616   1.775   6.693   1.841
 2573SOL     OW 8617   6.074   1.546   2.493
 2573SOL    HW1 8618   6.119   1.630   2.465
 2573SOL    HW2 8619   5.993   1.568   2.548
 2574SOL     OW 8620   0.033   2.589   0.265
 2574SOL    HW1 8621   7.003   2.508   0.295
 2574SOL    HW2 8622   0.110   2.562   0.208
 2575SOL     OW 8623   5.245   3.800   0.291
 2575SOL    HW1 8624   5.201   3.754   0.213
 2575SOL    HW2 8625   5.326   3.748   0.318
 2576SOL     OW 8626   3.790   0.045   3.410
 2576SOL    HW1 8627   3.715   0.024   3.472
 2576SOL    HW2 8628   3.760   0.030   3.316
 2577SOL     OW 8629   4.513   6.489   2.675
 2577SOL    HW1 8630   4.423   6.446   2.671
 2577SOL    HW2 8631   4.581   6.422   2.704
 2578SOL     OW 8632   4.698   2.631   5.133
 2578SOL    HW1 8633   4.712   2.705   5.067
 2578SOL    HW2 8634   4.609   2.643   5.178
 2579SOL     OW 8635   1.278   1.123   3.851
 2579SOL    HW1 8636   1.316   1.059   3.918
 2579SOL    HW2 8637   1.258   1.211   3.896
 2580SOL     OW 8638   2.161   2.951   6.660
 2580SOL    HW1 8639   2.083   2.892   6.687
 2580SOL    HW2 8640   2.182   2.935   6.564
 2581SOL     OW 8641   6.245   4.725   1.919
 2581SOL    HW1 8642   6.167   4.686   1.869
 2581SOL    HW2 8643   6.260   4.819   1.888
 2582SOL     OW 8644   1.432   4.391   2.309
 2582SOL    HW1 8645   1.472   4.301   2.324
 2582SOL    HW2 8646   1.430   4.441   2.395
 2583SOL     OW 8647   0.406   1.689   1.204
 2583SOL    HW1 8648   0.393   1.694   1.303
 2583SOL    HW2 8649   0.477   1.752   1.176
 2584SOL     OW 8650   4.063   5.754   0.721
 2584SOL    HW1 8651   4.004   5.831   0.746
 2584SOL    HW2 8652   4.127   5.783   0.649
 2585SOL     OW 8653   3.810   0.785   0.176
 2585SOL    HW1 8654   3.891   0.799   0.233
 2585SOL    HW2 8655   3.838   0.771   0.081
 2586SOL     OW 8656   4.592   1.991   3.374
 2586SOL    HW1 8657   4.511   2.006   3.429
 2586SOL    HW2 8658   4.673   1.989   3.433
 2587SOL     OW 8659   6.511   0.864   3.976
 2587SOL    HW1 8660   6.514   0.855   3.876
 2587SOL    HW2 8661   6.473   0.954   4.000
 2588SOL     OW 8662   4.843   0.054   0.477
 2588SOL    HW1 8663   4.830   6.974   0.472
 2588SOL    HW2 8664   4.754   0.099   0.477
 2589SOL     OW 8665   0.428   5.824   5.092
 2589SOL    HW1 8666   0.345   5.826   5.146
 2589SOL    HW2 8667   0.504   5.860   5.146
 2590SOL     OW 8668   3.327   6.349   2.197
 2590SOL    HW1 8669   3.333   6.257   2.236
 2590SOL    HW2 8670   3.391   6.358   2.121
 2591SOL     OW 8671   6.358   5.887   2.460
 2591SOL    HW1 8672   6.438   5.904   2.518
 2591SOL    HW2 8673   6.387   5.871   2.366
 2592SOL     OW 8674   2.426   6.698   1.403
 2592SOL    HW1 8675   2.459   6.759   1.331
 2592SOL    HW2 8676   2.420   6.605   1.368
 2593SOL     OW 8677   2.592   6.329   1.435
 2593SOL    HW1 8678   2.524   6.339   1.508
 2593SOL    HW2 8679   2.680   6.305   1.475
 2594SOL     OW 8680   0.210   5.845   6.015
 2594SOL    HW1 8681   0.203   5.809   6.108
 2594SOL    HW2 8682   0.299   5.889   6.003
 2595SOL     OW 8683   6.294   1.200   5.331
 2595SOL    HW1 8684   6.262   1.122   5.277
 2595SOL    HW2 8685   6.278   1.285   5.279
 2596SOL     OW 8686   3.875   2.156   1.776
 2596SOL    HW1 8687   3.860   2.132   1.680
 2596SOL    HW2 8688   3.800   2.213   1.809
 2597SOL     OW 8689   1.822   3.875   6.955
 2597SOL    HW1 8690   1.760   3.876   0.014
 2597SOL    HW2 8691   1.899   3.937   6.972
 2598SOL     OW 8692   6.075   1.073   4.341
 2598SOL    HW1 8693   6.140   1.084   4.417
 2598SOL    HW2 8694   5.985   1.051   4.378
 2599SOL     OW 8695   2.745   0.083   0.384
 2599SOL    HW1 8696   2.764   0.074   0.481
 2599SOL    HW2 8697   2.830   0.071   0.332
 2600SOL     OW 8698   4.909   3.493   4.520
 2600SOL    HW1 8699   4.889   3.531   4.429
 2600SOL    HW2 8700   4.927   3.567   4.584
 2601SOL     OW 8701   2.452   1.514   6.557
 2601SOL    HW1 8702   2.365   1.549   6.521
 2601SOL    HW2 8703   2.433   1.446   6.628
 2602SOL     OW 8704   6.968   4.635   3.816
 2602SOL    HW1 8705   6.982   4.643   3.914
 2602SOL    HW2 8706   0.014   4.694   3.768
 2603SOL     OW 8707   2.421   1.876   2.436
 2603SOL    HW1 8708   2.413   1.974   2.415
 2603SOL    HW2 8709   2.462   1.829   2.358
 2604SOL     OW 8710   5.035   1.091   3.000
 2604SOL    HW1 8711   4.986   1.007   2.977
 2604SOL    HW2 8712   5.130   1.068   3.024
 2605SOL     OW 8713   2.826   4.750   2.996
 2605SOL    HW1 8714   2.817   4.778   2.900
 2605SOL    HW2 8715   2.906   4.794   3.037
 2606SOL     OW 8716   0.174   4.826   0.768
 2606SOL    HW1 8717   0.131   4.889   0.833
 2606SOL    HW2 8718   0.116   4.746   0.755
 2607SOL     OW 8719   0.752   1.143   5.766
 2607SOL    HW1 8720   0.680   1.073   5.774
 2607SOL    HW2 8721   0.756   1.174   5.671
 2608SOL     OW 8722   4.301   5.416   2.226
 2608SOL    HW1 8723   4.238   5.484   2.264
 2608SOL    HW2 8724   4.251   5.331   2.207
 2609SOL     OW 8725   0.440   2.180   2.003
 2609SOL    HW1 8726   0.395   2.093   2.025
 2609SOL    HW2 8727   0.421   2.247   2.075
 2610SOL     OW 8728   0.051   4.577   4.387
 2610SOL    HW1 8729   0.035   4.562   4.289
 2610SOL    HW2 8730   0.101   4.499   4.425
 2611SOL     OW 8731   5.024   6.196   1.474
 2611SOL    HW1 8732   4.988   6.235   1.559
 2611SOL    HW2 8733   4.954   6.137   1.432
 2612SOL     OW 8734   6.607   6.534   6.092
 2612SOL    HW1 8735   6.692   6.579   6.065
 2612SOL    HW2 8736   6.532   6.599   6.085
 2613SOL     OW 8737   2.811   6.356   1.020
 2613SOL    HW1 8738   2.876   6.322   0.952
 2613SOL    HW2 8739   2.727   6.385   0.974
 2614SOL     OW 8740   6.278   0.577   6.142
 2614SOL    HW1 8741   6.308   0.670   6.119
 2614SOL    HW2 8742   6.248   0.530   6.060
 2615SOL     OW 8743   6.283   3.659   3.255
 2615SOL    HW1 8744   6.199   3.666   3.309
 2615SOL    HW2 8745   6.332   3.747   3.260
 2616SOL     OW 8746   4.123   3.414   4.054
 2616SOL    HW1 8747   4.171   3.338   4.012
 2616SOL    HW2 8748   4.112   3.397   4.152
 2617SOL     OW 8749   3.601   6.716   0.949
 2617SOL    HW1 8750   3.675   6.781   0.931
 2617SOL    HW2 8751   3.514   6.765   0.954
 2618SOL     OW 8752   0.097   6.994   4.342
 2618SOL    HW1 8753   0.182   6.950   4.370
 2618SOL    HW2 8754   0.056   6.942   4.267
 2619SOL     OW 8755   3.840   1.147   2.999
 2619SOL    HW1 8756   3.916   1.103   2.951
 2619SOL    HW2 8757   3.859   1.245   3.009
 2620SOL     OW 8758   0.399   6.106   3.008
 2620SOL    HW1 8759   0.425   6.041   3.080
 2620SOL    HW2 8760   0.478   6.123   2.949
 2621SOL     OW 8761   1.608   5.914   2.409
 2621SOL    HW1 8762   1.677   5.982   2.431
 2621SOL    HW2 8763   1.650   5.837   2.361
 2622SOL     OW 8764   1.954   2.189   6.117
 2622SOL    HW1 8765   2.018   2.171   6.192
 2622SOL    HW2 8766   2.000   2.243   6.047
 2623SOL     OW 8767   2.944   1.585   5.387
 2623SOL    HW1 8768   2.912   1.679   5.393
 2623SOL    HW2 8769   2.889   1.527   5.446
 2624SOL     OW 8770   5.990   2.452   5.223
 2624SOL    HW1 8771   6.077   2.407   5.241
 2624SOL    HW2 8772   5.921   2.384   5.198
 2625SOL     OW 8773   2.837   1.909   5.723
 2625SOL    HW1 8774   2.868   1.814   5.730
 2625SOL    HW2 8775   2.738   1.913   5.728
 2626SOL     OW 8776   0.096   0.579   5.268
 2626SOL    HW1 8777   0.042   0.655   5.232
 2626SOL    HW2 8778   0.041   0.496   5.270
 2627SOL     OW 8779   0.976   1.088   4.973
 2627SOL    HW1 8780   1.051   1.141   4.934
 2627SOL    HW2 8781   0.904   1.150   5.004
 2628SOL     OW 8782   1.886   4.675   6.173
 2628SOL    HW1 8783   1.803   4.712   6.132
 2628SOL    HW2 8784   1.925   4.606   6.113
 2629SOL     OW 8785   3.179   4.080   1.640
 2629SOL    HW1 8786   3.100   4.140   1.630
 2629SOL    HW2 8787   3.159   4.009   1.707
 2630SOL     OW 8788   3.143   1.588   3.582
 2630SOL    HW1 8789   3.166   1.500   3.540
 2630SOL    HW2 8790   3.065   1.628   3.533
 2631SOL     OW 8791   5.129   0.163   4.357
 2631SOL    HW1 8792   5.194   0.239   4.365
 2631SOL    HW2 8793   5.179   0.078   4.341
 2632SOL     OW 8794   2.764   1.923   6.432
 2632SOL    HW1 8795   2.716   2.009   6.444
 2632SOL    HW2 8796   2.710   1.849   6.473
 2633SOL     OW 8797   6.722   1.414   4.891
 2633SOL    HW1 8798   6.626   1.404   4.919
 2633SOL    HW2 8799   6.781   1.378   4.963
 2634SOL     OW 8800   1.405   4.030   3.155
 2634SOL    HW1 8801   1.305   4.021   3.164
 2634SOL    HW2 8802   1.446   4.035   3.246
 2635SOL     OW 8803   6.131   5.871   5.252
 2635SOL    HW1 8804   6.062   5.798   5.248
 2635SOL    HW2 8805   6.201   5.846   5.318
 2636SOL     OW 8806   4.946   0.277   5.342
 2636SOL    HW1 8807   4.926   0.181   5.319
 2636SOL    HW2 8808   4.904   0.299   5.430
 2637SOL     OW 8809   5.397   1.529   3.972
 2637SOL    HW1 8810   5.371   1.552   3.879
 2637SOL    HW2 8811   5.387   1.430   3.987
 2638SOL     OW 8812   6.857   0.148   2.872
 2638SOL    HW1 8813   6.845   0.052   2.898
 2638SOL    HW2 8814   6.829   0.160   2.777
 2639SOL     OW 8815   0.653   0.386   1.690
 2639SOL    HW1 8816   0.579   0.325   1.661
 2639SOL    HW2 8817   0.658   0.464   1.629
 2640SOL     OW 8818   7.014   6.051   4.447
 2640SOL    HW1 8819   0.090   6.049   4.415
 2640SOL    HW2 8820   6.982   6.146   4.448
 2641SOL     OW 8821   4.977   2.949   2.083
 2641SOL    HW1 8822   4.888   2.982   2.051
 2641SOL    HW2 8823   5.042   2.952   2.007
 2642SOL     OW 8824   4.222   6.851   4.568
 2642SOL    HW1 8825   4.220   6.946   4.540
 2642SOL    HW2 8826   4.144   6.803   4.529
 2643SOL     OW 8827   0.550   3.896   2.544
 2643SOL    HW1 8828   0.531   3.807   2.586
 2643SOL    HW2 8829   0.647   3.916   2.550
 2644SOL     OW 8830   6.344   5.908   6.071
 2644SOL    HW1 8831   6.354   5.914   6.170
 2644SOL    HW2 8832   6.431   5.877   6.031
 2645SOL     OW 8833   4.530   5.514   4.556
 2645SOL    HW1 8834   4.535   5.607   4.520
 2645SOL    HW2 8835   4.447   5.505   4.611
 2646SOL     OW 8836   5.583   0.380   6.966
 2646SOL    HW1 8837   5.664   0.389   6.908
 2646SOL    HW2 8838   5.586   0.293   7.014
 2647SOL     OW 8839   6.333   0.977   2.226
 2647SOL    HW1 8840   6.422   0.935   2.211
 2647SOL    HW2 8841   6.304   1.026   2.143
 2648SOL     OW 8842   0.304   6.845   4.120
 2648SOL    HW1 8843   0.257   6.913   4.064
 2648SOL    HW2 8844   0.290   6.754   4.082
 2649SOL     OW 8845   6.073   3.047   6.578
 2649SOL    HW1 8846   6.159   3.023   6.623
 2649SOL    HW2 8847   6.002   3.064   6.647
 2650SOL     OW 8848   0.513   4.071   4.078
 2650SOL    HW1 8849   0.474   4.056   3.987
 2650SOL    HW2 8850   0.554   4.162   4.082
 2651SOL     OW 8851   0.536   1.846   0.264
 2651SOL    HW1 8852   0.537   1.891   0.174
 2651SOL    HW2 8853   0.447   1.803   0.279
 2652SOL     OW 8854   3.347   3.800   3.808
 2652SOL    HW1 8855   3.344   3.737   3.886
 2652SOL    HW2 8856   3.325   3.750   3.724
 2653SOL     OW 8857   5.446   0.270   5.282
 2653SOL    HW1 8858   5.387   0.218   5.344
 2653SOL    HW2 8859   5.389   0.329   5.225
 2654SOL     OW 8860   5.292   4.974   1.109
 2654SOL    HW1 8861   5.358   5.048   1.093
 2654SOL    HW2 8862   5.222   5.006   1.174
 2655SOL     OW 8863   4.758   5.096   4.376
 2655SOL    HW1 8864   4.704   5.181   4.380
 2655SOL    HW2 8865   4.697   5.019   4.358
 2656SOL     OW 8866   3.402   4.997   4.023
 2656SOL    HW1 8867   3.496   4.972   3.998
 2656SOL    HW2 8868   3.384   4.966   4.117
 2657SOL     OW 8869   1.601   3.920   6.681
 2657SOL    HW1 8870   1.701   3.925   6.682
 2657SOL    HW2 8871   1.566   3.964   6.598
 2658SOL     OW 8872   4.815   4.395   0.354
 2658SOL    HW1 8873   4.736   4.338   0.331
 2658SOL    HW2 8874   4.892   4.336   0.380
 2659SOL     OW 8875   6.122   3.130   4.962
 2659SOL    HW1 8876   6.178   3.067   4.909
 2659SOL    HW2 8877   6.111   3.216   4.912
 2660SOL     OW 8878   0.836   1.225   0.845
 2660SOL    HW1 8879   0.783   1.279   0.780
 2660SOL    HW2 8880   0.776   1.162   0.893
 2661SOL     OW 8881   2.331   6.453   0.655
 2661SOL    HW1 8882   2.297   6.489   0.742
 2661SOL    HW2 8883   2.409   6.394   0.671
 2662SOL     OW 8884   4.541   6.853   5.609
 2662SOL    HW1 8885   4.517   6.907   5.689
 2662SOL    HW2 8886   4.615   6.897   5.559
 2663SOL     OW 8887   2.629   4.174   0.946
 2663SOL    HW1 8888   2.727   4.159   0.957
 2663SOL    HW2 8889   2.600   4.248   1.007
 2664SOL     OW 8890   4.061   3.683   5.115
 2664SOL    HW1 8891   4.034   3.772   5.150
 2664SOL    HW2 8892   4.071   3.687   5.016
 2665SOL     OW 8893   2.452   2.769   5.246
 2665SOL    HW1 8894   2.470   2.865   5.224
 2665SOL    HW2 8895   2.382   2.762   5.317
 2666SOL     OW 8896   5.683   4.116   1.157
 2666SOL    HW1 8897   5.628   4.033   1.158
 2666SOL    HW2 8898   5.732   4.122   1.070
 2667SOL     OW 8899   1.624   6.024   4.054
 2667SOL    HW1 8900   1.614   6.086   3.977
 2667SOL    HW2 8901   1.542   6.030   4.112
 2668SOL     OW 8902   5.805   3.379   4.407
 2668SOL    HW1 8903   5.820   3.280   4.407
 2668SOL    HW2 8904   5.732   3.401   4.472
 2669SOL     OW 8905   2.906   4.621   5.439
 2669SOL    HW1 8906   2.944   4.712   5.450
 2669SOL    HW2 8907   2.905   4.596   5.342
 2670SOL     OW 8908   5.845   2.808   6.452
 2670SOL    HW1 8909   5.919   2.868   6.423
 2670SOL    HW2 8910   5.883   2.718   6.477
 2671SOL     OW 8911   4.006   5.047   6.405
 2671SOL    HW1 8912   3.934   5.005   6.460
 2671SOL    HW2 8913   4.009   5.003   6.315
 2672SOL     OW 8914   0.341   5.363   0.624
 2672SOL    HW1 8915   0.370   5.339   0.532
 2672SOL    HW2 8916   0.267   5.430   0.620
 2673SOL     OW 8917   6.244   1.440   4.478
 2673SOL    HW1 8918   6.337   1.450   4.443
 2673SOL    HW2 8919   6.238   1.481   4.569
 2674SOL     OW 8920   1.270   4.458   3.602
 2674SOL    HW1 8921   1.210   4.386   3.566
 2674SOL    HW2 8922   1.360   4.451   3.558
 2675SOL     OW 8923   6.349   5.381   4.060
 2675SOL    HW1 8924   6.304   5.453   4.008
 2675SOL    HW2 8925   6.409   5.421   4.129
 2676SOL     OW 8926   4.260   1.448   0.669
 2676SOL    HW1 8927   4.164   1.422   0.656
 2676SOL    HW2 8928   4.269   1.497   0.756
 2677SOL     OW 8929   3.096   3.756   0.579
 2677SOL    HW1 8930   3.108   3.847   0.620
 2677SOL    HW2 8931   3.016   3.712   0.621
 2678SOL     OW 8932   6.942   3.138   1.544
 2678SOL    HW1 8933   6.965   3.122   1.448
 2678SOL    HW2 8934   6.954   3.234   1.566
 2679SOL     OW 8935   3.640   5.124   1.051
 2679SOL    HW1 8936   3.579   5.119   1.130
 2679SOL    HW2 8937   3.630   5.041   0.996
 2680SOL     OW 8938   0.706   1.411   0.631
 2680SOL    HW1 8939   0.691   1.473   0.707
 2680SOL    HW2 8940   0.798   1.425   0.593
 2681SOL     OW 8941   1.340   2.477   4.688
 2681SOL    HW1 8942   1.413   2.494   4.754
 2681SOL    HW2 8943   1.266   2.427   4.732
 2682SOL     OW 8944   5.600   4.392   2.344
 2682SOL    HW1 8945   5.601   4.475   2.401
 2682SOL    HW2 8946   5.694   4.367   2.320
 2683SOL     OW 8947   2.482   4.226   0.693
 2683SOL    HW1 8948   2.534   4.305   0.662
 2683SOL    HW2 8949   2.525   4.187   0.774
 2684SOL     OW 8950   4.780   5.615   1.133
 2684SOL    HW1 8951   4.739   5.523   1.131
 2684SOL    HW2 8952   4.708   5.683   1.140
 2685SOL     OW 8953   6.137   6.117   6.798
 2685SOL    HW1 8954   6.077   6.174   6.855
 2685SOL    HW2 8955   6.166   6.169   6.718
 2686SOL     OW 8956   1.547   1.580   6.078
 2686SOL    HW1 8957   1.595   1.579   5.991
 2686SOL    HW2 8958   1.564   1.667   6.124
 2687SOL     OW 8959   4.753   4.101   1.991
 2687SOL    HW1 8960   4.793   4.123   2.080
 2687SOL    HW2 8961   4.674   4.159   1.975
 2688SOL     OW 8962   4.691   4.138   0.082
 2688SOL    HW1 8963   4.692   4.235   0.059
 2688SOL    HW2 8964   4.780   4.110   0.117
 2689SOL     OW 8965   1.559   3.447   4.000
 2689SOL    HW1 8966   1.522   3.355   4.009
 2689SOL    HW2 8967   1.619   3.452   3.920
 2690SOL     OW 8968   3.537   3.643   3.982
 2690SOL    HW1 8969   3.614   3.618   3.924
 2690SOL    HW2 8970   3.528   3.577   4.056
 2691SOL     OW 8971   1.493   5.492   2.202
 2691SOL    HW1 8972   1.543   5.578   2.190
 2691SOL    HW2 8973   1.469   5.482   2.299
 2692SOL     OW 8974   3.379   5.128   2.773
 2692SOL    HW1 8975   3.415   5.080   2.693
 2692SOL    HW2 8976   3.328   5.063   2.830
 2693SOL     OW 8977   1.158   4.206   2.943
 2693SOL    HW1 8978   1.173   4.163   3.031
 2693SOL    HW2 8979   1.100   4.287   2.955
 2694SOL     OW 8980   4.698   6.700   2.901
 2694SOL    HW1 8981   4.732   6.632   2.965
 2694SOL    HW2 8982   4.599   6.711   2.914
 2695SOL     OW 8983   4.811   0.357   2.572
 2695SOL    HW1 8984   4.895   0.314   2.539
 2695SOL    HW2 8985   4.834   0.436   2.629
 2696SOL     OW 8986   3.960   3.294   5.701
 2696SOL    HW1 8987   4.038   3.340   5.742
 2696SOL    HW2 8988   3.875   3.333   5.735
 2697SOL     OW 8989   3.454   1.890   2.889
 2697SOL    HW1 8990   3.360   1.915   2.867
 2697SOL    HW2 8991   3.508   1.972   2.904
 2698SOL     OW 8992   2.234   6.027   0.530
 2698SOL    HW1 8993   2.181   5.943   0.513
 2698SOL    HW2 8994   2.178   6.090   0.584
 2699SOL     OW 8995   3.129   6.698   0.467
 2699SOL    HW1 8996   3.050   6.637   0.476
 2699SOL    HW2 8997   3.211   6.643   0.452
 2700SOL     OW 8998   1.934   4.037   0.770
 2700SOL    HW1 8999   1.917   4.006   0.677
 2700SOL    HW2 9000   1.853   4.085   0.804
 2701SOL     OW 9001   4.214   0.885   6.849
 2701SOL    HW1 9002   4.230   0.789   6.826
 2701SOL    HW2 9003   4.196   0.894   6.947
 2702SOL     OW 9004   0.422   3.011   4.134
 2702SOL    HW1 9005   0.514   3.025   4.097
 2702SOL    HW2 9006   0.354   3.043   4.068
 2703SOL     OW 9007   1.752   0.356   2.011
 2703SOL    HW1 9008   1.728   0.261   2.029
 2703SOL    HW2 9009   1.827   0.384   2.071
 2704SOL     OW 9010   6.638   6.710   0.969
 2704SOL    HW1 9011   6.597   6.646   1.034
 2704SOL    HW2 9012   6.604   6.802   0.986
 2705SOL     OW 9013   0.669   5.294   4.718
 2705SOL    HW1 9014   0.668   5.393   4.736
 2705SOL    HW2 9015   0.751   5.271   4.665
 2706SOL     OW 9016   0.609   0.219   1.382
 2706SOL    HW1 9017   0.605   0.229   1.481
 2706SOL    HW2 9018   0.684   0.275   1.346
 2707SOL     OW 9019   3.191   0.523   4.764
 2707SOL    HW1 9020   3.105   0.554   4.722
 2707SOL    HW2 9021   3.181   0.523   4.863
 2708SOL     OW 9022   0.702   2.603   6.885
 2708SOL    HW1 9023   0.616   2.571   6.844
 2708SOL    HW2 9024   0.690   2.696   6.920
 2709SOL     OW 9025   6.163   6.567   0.333
 2709SOL    HW1 9026   6.206   6.652   0.363
 2709SOL    HW2 9027   6.113   6.526   0.410
 2710SOL     OW 9028   1.106   3.005   3.891
 2710SOL    HW1 9029   1.162   2.933   3.932
 2710SOL    HW2 9030   1.066   2.973   3.805
 2711SOL     OW 9031   2.803   1.460   4.241
 2711SOL    HW1 9032   2.731   1.427   4.179
 2711SOL    HW2 9033   2.839   1.546   4.207
 2712SOL     OW 9034   2.826   4.465   0.542
 2712SOL    HW1 9035   2.811   4.377   0.498
 2712SOL    HW2 9036   2.924   4.485   0.545
 2713SOL     OW 9037   2.286   2.362   5.094
 2713SOL    HW1 9038   2.344   2.441   5.075
 2713SOL    HW2 9039   2.328   2.280   5.057
 2714SOL     OW 9040   4.673   2.179   0.440
 2714SOL    HW1 9041   4.706   2.213   0.352
 2714SOL    HW2 9042   4.574   2.167   0.436
 2715SOL     OW 9043   4.888   1.714   0.575
 2715SOL    HW1 9044   4.858   1.670   0.659
 2715SOL    HW2 9045   4.855   1.809   0.574
 2716SOL     OW 9046   5.216   4.508   2.611
 2716SOL    HW1 9047   5.306   4.522   2.570
 2716SOL    HW2 9048   5.160   4.590   2.598
 2717SOL     OW 9049   1.838   4.817   2.219
 2717SOL    HW1 9050   1.838   4.723   2.253
 2717SOL    HW2 9051   1.761   4.867   2.258
 2718SOL     OW 9052   1.876   2.599   5.719
 2718SOL    HW1 9053   1.975   2.604   5.728
 2718SOL    HW2 9054   1.843   2.677   5.665
 2719SOL     OW 9055   6.937   5.728   1.217
 2719SOL    HW1 9056   6.898   5.820   1.211
 2719SOL    HW2 9057   6.925   5.682   1.129
 2720SOL     OW 9058   1.811   6.064   2.487
 2720SOL    HW1 9059   1.828   6.160   2.510
 2720SOL    HW2 9060   1.886   6.008   2.521
 2721SOL     OW 9061   2.946   0.423   3.890
 2721SOL    HW1 9062   2.896   0.420   3.804
 2721SOL    HW2 9063   2.987   0.513   3.901
 2722SOL     OW 9064   6.623   5.693   1.623
 2722SOL    HW1 9065   6.653   5.651   1.537
 2722SOL    HW2 9066   6.531   5.662   1.644
 2723SOL     OW 9067   0.926   6.969   5.731
 2723SOL    HW1 9068   0.975   6.891   5.691
 2723SOL    HW2 9069   0.934   6.965   5.831
 2724SOL     OW 9070   2.307   6.842   6.511
 2724SOL    HW1 9071   2.377   6.865   6.578
 2724SOL    HW2 9072   2.297   6.742   6.506
 2725SOL     OW 9073   5.713   4.714   4.278
 2725SOL    HW1 9074   5.764   4.643   4.326
 2725SOL    HW2 9075   5.703   4.794   4.338
 2726SOL     OW 9076   6.944   3.201   0.826
 2726SOL    HW1 9077   6.974   3.112   0.862
 2726SOL    HW2 9078   6.850   3.193   0.794
 2727SOL     OW 9079   0.465   5.142   3.841
 2727SOL    HW1 9080   0.539   5.096   3.889
 2727SOL    HW2 9081   0.457   5.104   3.748
 2728SOL     OW 9082   3.852   6.497   5.689
 2728SOL    HW1 9083   3.823   6.565   5.756
 2728SOL    HW2 9084   3.904   6.541   5.616
 2729SOL     OW 9085   6.755   5.629   1.372
 2729SOL    HW1 9086   6.691   5.607   1.298
 2729SOL    HW2 9087   6.837   5.671   1.334
 2730SOL     OW 9088   2.365   5.462   1.476
 2730SOL    HW1 9089   2.409   5.395   1.417
 2730SOL    HW2 9090   2.434   5.524   1.514
 2731SOL     OW 9091   4.029   3.507   1.990
 2731SOL    HW1 9092   4.109   3.484   1.935
 2731SOL    HW2 9093   4.053   3.578   2.056
 2732SOL     OW 9094   5.407   2.619   1.546
 2732SOL    HW1 9095   5.411   2.539   1.606
 2732SOL    HW2 9096   5.397   2.589   1.451
 2733SOL     OW 9097   0.480   0.238   4.647
 2733SOL    HW1 9098   0.410   0.310   4.647
 2733SOL    HW2 9099   0.544   0.254   4.572
 2734SOL     OW 9100   2.000   5.841   1.694
 2734SOL    HW1 9101   1.972   5.767   1.633
 2734SOL    HW2 9102   1.973   5.929   1.655
 2735SOL     OW 9103   1.026   3.812   3.063
 2735SOL    HW1 9104   1.044   3.742   2.995
 2735SOL    HW2 9105   0.931   3.843   3.055
 2736SOL     OW 9106   4.283   6.558   5.028
 2736SOL    HW1 9107   4.211   6.490   5.015
 2736SOL    HW2 9108   4.306   6.600   4.940
 2737SOL     OW 9109   3.724   3.392   5.780
 2737SOL    HW1 9110   3.713   3.484   5.815
 2737SOL    HW2 9111   3.638   3.362   5.737
 2738SOL     OW 9112   5.440   4.981   3.792
 2738SOL    HW1 9113   5.437   4.888   3.757
 2738SOL    HW2 9114   5.496   5.038   3.732
 2739SOL     OW 9115   0.334   4.431   1.060
 2739SOL    HW1 9116   0.284   4.384   1.133
 2739SOL    HW2 9117   0.347   4.527   1.086
 2740SOL     OW 9118   6.291   3.606   2.866
 2740SOL    HW1 9119   6.196   3.577   2.856
 2740SOL    HW2 9120   6.338   3.543   2.928
 2741SOL     OW 9121   6.115   0.443   5.764
 2741SOL    HW1 9122   6.024   0.444   5.724
 2741SOL    HW2 9123   6.174   0.506   5.713
 2742SOL     OW 9124   2.400   5.304   6.731
 2742SOL    HW1 9125   2.320   5.318   6.674
 2742SOL    HW2 9126   2.472   5.259   6.678
 2743SOL     OW 9127   6.957   5.119   2.138
 2743SOL    HW1 9128   6.955   5.208   2.183
 2743SOL    HW2 9129   6.871   5.105   2.088
 2744SOL     OW 9130   5.146   1.583   6.740
 2744SOL    HW1 9131   5.175   1.503   6.794
 2744SOL    HW2 9132   5.067   1.626   6.784
 2745SOL     OW 9133   0.665   6.825   5.899
 2745SOL    HW1 9134   0.596   6.896   5.899
 2745SOL    HW2 9135   0.748   6.858   5.944
 2746SOL     OW 9136   2.062   2.416   3.926
 2746SOL    HW1 9137   1.994   2.472   3.973
 2746SOL    HW2 9138   2.151   2.429   3.970
 2747SOL     OW 9139   5.808   4.013   5.462
 2747SOL    HW1 9140   5.719   3.967   5.462
 2747SOL    HW2 9141   5.876   3.952   5.422
 2748SOL     OW 9142   5.055   1.943   1.314
 2748SOL    HW1 9143   4.960   1.973   1.322
 2748SOL    HW2 9144   5.096   1.983   1.232
 2749SOL     OW 9145   6.528   4.435   3.493
 2749SOL    HW1 9146   6.508   4.341   3.466
 2749SOL    HW2 9147   6.549   4.489   3.411
 2750SOL     OW 9148   0.853   4.803   1.129
 2750SOL    HW1 9149   0.885   4.793   1.034
 2750SOL    HW2 9150   0.849   4.713   1.172
 2751SOL     OW 9151   0.163   6.270   1.281
 2751SOL    HW1 9152   0.156   6.317   1.193
 2751SOL    HW2 9153   0.136   6.333   1.354
 2752SOL     OW 9154   4.684   4.657   5.498
 2752SOL    HW1 9155   4.719   4.563   5.496
 2752SOL    HW2 9156   4.663   4.682   5.592
 2753SOL     OW 9157   0.629   0.189   5.464
 2753SOL    HW1 9158   0.671   0.098   5.464
 2753SOL    HW2 9159   0.614   0.219   5.370
 2754SOL     OW 9160   0.298   0.402   3.642
 2754SOL    HW1 9161   0.305   0.456   3.558
 2754SOL    HW2 9162   0.218   0.343   3.638
 2755SOL     OW 9163   1.879   0.238   3.760
 2755SOL    HW1 9164   1.904   0.309   3.694
 2755SOL    HW2 9165   1.925   0.256   3.847
 2756SOL     OW 9166   5.743   4.409   5.960
 2756SOL    HW1 9167   5.702   4.440   5.874
 2756SOL    HW2 9168   5.810   4.477   5.992
 2757SOL     OW 9169   2.268   1.259   6.017
 2757SOL    HW1 9170   2.224   1.189   5.961
 2757SOL    HW2 9171   2.211   1.280   6.096
 2758SOL     OW 9172   4.736   6.338   2.742
 2758SOL    HW1 9173   4.826   6.382   2.744
 2758SOL    HW2 9174   4.748   6.239   2.733
 2759SOL     OW 9175   4.907   5.189   5.464
 2759SOL    HW1 9176   4.885   5.094   5.444
 2759SOL    HW2 9177   5.005   5.198   5.479
 2760SOL     OW 9178   0.605   5.943   2.662
 2760SOL    HW1 9179   0.639   5.857   2.699
 2760SOL    HW2 9180   0.619   5.945   2.563
 2761SOL     OW 9181   2.024   4.672   5.067
 2761SOL    HW1 9182   2.095   4.611   5.032
 2761SOL    HW2 9183   1.940   4.659   5.016
 2762SOL     OW 9184   2.054   1.333   6.193
 2762SOL    HW1 9185   1.988   1.362   6.263
 2762SOL    HW2 9186   2.055   1.401   6.119
 2763SOL     OW 9187   4.782   2.167   4.919
 2763SOL    HW1 9188   4.807   2.233   4.989
 2763SOL    HW2 9189   4.694   2.192   4.879
 2764SOL     OW 9190   0.083   0.563   2.119
 2764SOL    HW1 9191   0.024   0.523   2.050
 2764SOL    HW2 9192   0.054   0.657   2.137
 2765SOL     OW 9193   6.253   6.922   1.028
 2765SOL    HW1 9194   6.296   6.921   0.938
 2765SOL    HW2 9195   6.158   6.950   1.020
 2766SOL     OW 9196   4.578   2.824   0.114
 2766SOL    HW1 9197   4.572   2.734   0.157
 2766SOL    HW2 9198   4.527   2.890   0.168
 2767SOL     OW 9199   0.212   5.640   0.322
 2767SOL    HW1 9200   0.266   5.569   0.276
 2767SOL    HW2 9201   0.264   5.675   0.400
 2768SOL     OW 9202   4.651   0.763   1.430
 2768SOL    HW1 9203   4.571   0.709   1.406
 2768SOL    HW2 9204   4.625   0.859   1.443
 2769SOL     OW 9205   2.279   4.365   6.580
 2769SOL    HW1 9206   2.360   4.412   6.614
 2769SOL    HW2 9207   2.284   4.358   6.480
 2770SOL     OW 9208   4.443   5.598   5.675
 2770SOL    HW1 9209   4.397   5.627   5.759
 2770SOL    HW2 9210   4.384   5.534   5.626
 2771SOL     OW 9211   5.680   1.375   4.918
 2771SOL    HW1 9212   5.595   1.337   4.881
 2771SOL    HW2 9213   5.722   1.435   4.850
 2772SOL     OW 9214   3.204   1.240   0.711
 2772SOL    HW1 9215   3.198   1.146   0.744
 2772SOL    HW2 9216   3.173   1.244   0.616
 2773SOL     OW 9217   6.542   2.450   4.487
 2773SOL    HW1 9218   6.497   2.409   4.566
 2773SOL    HW2 9219   6.490   2.530   4.457
 2774SOL     OW 9220   5.636   2.907   3.217
 2774SOL    HW1 9221   5.539   2.920   3.197
 2774SOL    HW2 9222   5.688   2.905   3.131
 2775SOL     OW 9223   6.853   3.807   5.378
 2775SOL    HW1 9224   6.937   3.858   5.396
 2775SOL    HW2 9225   6.859   3.762   5.289
 2776SOL     OW 9226   5.000   3.920   5.823
 2776SOL    HW1 9227   5.051   3.933   5.907
 2776SOL    HW2 9228   4.909   3.962   5.832
 2777SOL     OW 9229   2.669   2.007   1.471
 2777SOL    HW1 9230   2.654   2.088   1.415
 2777SOL    HW2 9231   2.582   1.964   1.492
 2778SOL     OW 9232   1.256   6.572   6.151
 2778SOL    HW1 9233   1.276   6.478   6.120
 2778SOL    HW2 9234   1.218   6.569   6.244
 2779SOL     OW 9235   5.529   6.683   1.973
 2779SOL    HW1 9236   5.573   6.773   1.981
 2779SOL    HW2 9237   5.447   6.681   2.030
 2780SOL     OW 9238   0.679   6.545   5.741
 2780SOL    HW1 9239   0.608   6.546   5.671
 2780SOL    HW2 9240   0.655   6.608   5.814
 2781SOL     OW 9241   6.009   0.658   2.170
 2781SOL    HW1 9242   6.094   0.637   2.122
 2781SOL    HW2 9243   6.030   0.692   2.262
 2782SOL     OW 9244   4.676   1.017   5.044
 2782SOL    HW1 9245   4.635   0.933   5.009
 2782SOL    HW2 9246   4.757   1.040   4.990
 2783SOL     OW 9247   6.310   4.172   2.771
 2783SOL    HW1 9248   6.211   4.154   2.777
 2783SOL    HW2 9249   6.360   4.095   2.811
 2784SOL     OW 9250   3.507   1.395   2.215
 2784SOL    HW1 9251   3.587   1.453   2.200
 2784SOL    HW2 9252   3.497   1.331   2.139
 2785SOL     OW 9253   5.380   2.282   0.766
 2785SOL    HW1 9254   5.437   2.329   0.699
 2785SOL    HW2 9255   5.285   2.285   0.737
 2786SOL     OW 9256   5.855   6.925   2.228
 2786SOL    HW1 9257   5.859   6.918   2.327
 2786SOL    HW2 9258   5.862   0.001   2.200
 2787SOL     OW 9259   5.808   6.742   5.849
 2787SOL    HW1 9260   5.716   6.779   5.832
 2787SOL    HW2 9261   5.808   6.692   5.935
 2788SOL     OW 9262   2.781   6.612   5.709
 2788SOL    HW1 9263   2.711   6.662   5.760
 2788SOL    HW2 9264   2.870   6.626   5.752
 2789SOL     OW 9265   2.283   2.007   3.935
 2789SOL    HW1 9266   2.289   2.006   3.835
 2789SOL    HW2 9267   2.337   2.083   3.971
 2790SOL     OW 9268   3.576   5.397   1.586
 2790SOL    HW1 9269   3.641   5.473   1.586
 2790SOL    HW2 9270   3.516   5.404   1.507
 2791SOL     OW 9271   0.492   3.028   2.596
 2791SOL    HW1 9272   0.530   2.936   2.587
 2791SOL    HW2 9273   0.476   3.048   2.693
 2792SOL     OW 9274   2.204   0.701   4.030
 2792SOL    HW1 9275   2.285   0.643   4.018
 2792SOL    HW2 9276   2.122   0.644   4.035
 2793SOL     OW 9277   5.022   3.555   1.197
 2793SOL    HW1 9278   4.949   3.535   1.132
 2793SOL    HW2 9279   5.048   3.651   1.188
 2794SOL     OW 9280   6.639   1.709   6.244
 2794SOL    HW1 9281   6.593   1.666   6.321
 2794SOL    HW2 9282   6.633   1.650   6.164
 2795SOL     OW 9283   1.201   3.316   1.245
 2795SOL    HW1 9284   1.199   3.217   1.251
 2795SOL    HW2 9285   1.291   3.350   1.273
 2796SOL     OW 9286   0.083   6.108   3.365
 2796SOL    HW1 9287   0.003   6.116   3.306
 2796SOL    HW2 9288   0.165   6.132   3.313
 2797SOL     OW 9289   5.274   5.597   5.215
 2797SOL    HW1 9290   5.288   5.690   5.251
 2797SOL    HW2 9291   5.190   5.559   5.253
 2798SOL     OW 9292   6.399   5.560   2.726
 2798SOL    HW1 9293   6.445   5.602   2.647
 2798SOL    HW2 9294   6.305   5.537   2.702
 2799SOL     OW 9295   5.978   5.845   5.658
 2799SOL    HW1 9296   5.890   5.892   5.667
 2799SOL    HW2 9297   6.051   5.904   5.690
 2800SOL     OW 9298   4.867   6.364   5.491
 2800SOL    HW1 9299   4.931   6.350   5.567
 2800SOL    HW2 9300   4.874   6.287   5.427
 2801SOL     OW 9301   0.568   5.377   5.518
 2801SOL    HW1 9302   0.592   5.451   5.456
 2801SOL    HW2 9303   0.473   5.388   5.548
 2802SOL     OW 9304   5.415   6.612   5.533
 2802SOL    HW1 9305   5.326   6.593   5.575
 2802SOL    HW2 9306   5.487   6.593   5.600
 2803SOL     OW 9307   4.148   5.007   5.743
 2803SOL    HW1 9308   4.054   5.029   5.766
 2803SOL    HW2 9309   4.209   5.077   5.781
 2804SOL     OW 9310   1.102   4.053   5.466
 2804SOL    HW1 9311   1.024   4.115   5.459
 2804SOL    HW2 9312   1.118   4.031   5.562
 2805SOL     OW 9313   5.989   3.190   3.054
 2805SOL    HW1 9314   5.913   3.248   3.084
 2805SOL    HW2 9315   5.983   3.176   2.955
 2806SOL     OW 9316   1.984   3.652   6.323
 2806SOL    HW1 9317   1.915   3.627   6.255
 2806SOL    HW2 9318   1.962   3.609   6.410
 2807SOL     OW 9319   4.329   6.608   3.871
 2807SOL    HW1 9320   4.416   6.605   3.821
 2807SOL    HW2 9321   4.295   6.515   3.883
 2808SOL     OW 9322   6.299   5.079   2.090
 2808SOL    HW1 9323   6.303   4.997   2.147
 2808SOL    HW2 9324   6.308   5.160   2.148
 2809SOL     OW 9325   4.976   2.866   1.448
 2809SOL    HW1 9326   5.037   2.924   1.501
 2809SOL    HW2 9327   5.018   2.846   1.359
 2810SOL     OW 9328   2.222   5.696   2.550
 2810SOL    HW1 9329   2.182   5.745   2.627
 2810SOL    HW2 9330   2.316   5.729   2.535
 2811SOL     OW 9331   1.679   1.778   3.892
 2811SOL    HW1 9332   1.602   1.819   3.843
 2811SOL    HW2 9333   1.761   1.833   3.877
 2812SOL     OW 9334   5.889   3.214   0.262
 2812SOL    HW1 9335   5.936   3.298   0.289
 2812SOL    HW2 9336   5.795   3.216   0.296
 2813SOL     OW 9337   0.628   1.489   0.144
 2813SOL    HW1 9338   0.697   1.429   0.185
 2813SOL    HW2 9339   0.600   1.453   0.056
 2814SOL     OW 9340   3.407   4.042   5.377
 2814SOL    HW1 9341   3.404   4.033   5.277
 2814SOL    HW2 9342   3.477   4.108   5.402
 2815SOL     OW 9343   6.942   5.022   6.497
 2815SOL    HW1 9344   6.931   5.072   6.412
 2815SOL    HW2 9345   6.874   4.949   6.502
 2816SOL     OW 9346   6.520   5.932   4.407
 2816SOL    HW1 9347   6.618   5.929   4.425
 2816SOL    HW2 9348   6.474   5.863   4.464
 2817SOL     OW 9349   3.255   0.140   2.138
 2817SOL    HW1 9350   3.221   0.090   2.217
 2817SOL    HW2 9351   3.297   0.226   2.169
 2818SOL     OW 9352   6.896   0.988   2.304
 2818SOL    HW1 9353   6.830   0.974   2.377
 2818SOL    HW2 9354   6.983   1.018   2.343
 2819SOL     OW 9355   2.066   6.926   1.862
 2819SOL    HW1 9356   1.986   6.875   1.832
 2819SOL    HW2 9357   2.053   0.004   1.843
 2820SOL     OW 9358   1.999   1.868   3.278
 2820SOL    HW1 9359   2.061   1.946   3.277
 2820SOL    HW2 9360   1.912   1.895   3.319
 2821SOL     OW 9361   3.489   4.924   5.695
 2821SOL    HW1 9362   3.454   4.942   5.603
 2821SOL    HW2 9363   3.587   4.906   5.691
 2822SOL     OW 9364   4.402   2.163   0.466
 2822SOL    HW1 9365   4.333   2.222   0.426
 2822SOL    HW2 9366   4.361   2.075   0.491
 2823SOL     OW 9367   5.097   1.048   0.149
 2823SOL    HW1 9368   5.079   0.975   0.083
 2823SOL    HW2 9369   5.049   1.131   0.121
 2824SOL     OW 9370   1.695   2.119   5.425
 2824SOL    HW1 9371   1.643   2.173   5.359
 2824SOL    HW2 9372   1.768   2.070   5.378
 2825SOL     OW 9373   5.200   0.233   5.868
 2825SOL    HW1 9374   5.279   0.268   5.817
 2825SOL    HW2 9375   5.161   0.154   5.820
 2826SOL     OW 9376   4.263   2.791   6.979
 2826SOL    HW1 9377   4.326   2.854   6.933
 2826SOL    HW2 9378   4.305   2.701   6.988
 2827SOL     OW 9379   0.331   0.763   6.552
 2827SOL    HW1 9380   0.398   0.837   6.556
 2827SOL    HW2 9381   0.375   0.680   6.521
 2828SOL     OW 9382   2.094   2.630   0.471
 2828SOL    HW1 9383   2.032   2.592   0.539
 2828SOL    HW2 9384   2.098   2.730   0.482
 2829SOL     OW 9385   3.646   3.325   3.554
 2829SOL    HW1 9386   3.576   3.291   3.617
 2829SOL    HW2 9387   3.636   3.279   3.466
 2830SOL     OW 9388   3.156   4.051   5.097
 2830SOL    HW1 9389   3.124   4.050   5.002
 2830SOL    HW2 9390   3.238   3.995   5.105
 2831SOL     OW 9391   1.144   3.594   3.252
 2831SOL    HW1 9392   1.118   3.497   3.247
 2831SOL    HW2 9393   1.126   3.638   3.164
 2832SOL     OW 9394   1.015   2.978   1.847
 2832SOL    HW1 9395   1.082   2.977   1.921
 2832SOL    HW2 9396   0.955   2.898   1.855
 2833SOL     OW 9397   3.289   1.298   2.419
 2833SOL    HW1 9398   3.357   1.320   2.350
 2833SOL    HW2 9399   3.295   1.364   2.494
 2834SOL     OW 9400   3.677   6.114   5.677
 2834SOL    HW1 9401   3.596   6.139   5.730
 2834SOL    HW2 9402   3.759   6.146   5.724
 2835SOL     OW 9403   0.598   6.691   1.537
 2835SOL    HW1 9404   0.571   6.780   1.574
 2835SOL    HW2 9405   0.653   6.704   1.455
 2836SOL     OW 9406   1.084   6.725   1.599
 2836SOL    HW1 9407   1.122   6.765   1.516
 2836SOL    HW2 9408   1.014   6.658   1.574
 2837SOL     OW 9409   5.472   4.593   2.492
 2837SOL    HW1 9410   5.497   4.662   2.424
 2837SOL    HW2 9411   5.494   4.627   2.583
 2838SOL     OW 9412   4.374   3.758   1.055
 2838SOL    HW1 9413   4.411   3.687   0.995
 2838SOL    HW2 9414   4.274   3.762   1.043
 2839SOL     OW 9415   0.019   2.485   2.842
 2839SOL    HW1 9416   0.101   2.494   2.899
 2839SOL    HW2 9417   7.000   2.575   2.823
 2840SOL     OW 9418   1.624   5.958   2.017
 2840SOL    HW1 9419   1.704   5.905   1.986
 2840SOL    HW2 9420   1.570   5.985   1.937
 2841SOL     OW 9421   5.935   2.245   6.522
 2841SOL    HW1 9422   5.959   2.339   6.501
 2841SOL    HW2 9423   5.918   2.235   6.620
 2842SOL     OW 9424   0.283   4.858   4.298
 2842SOL    HW1 9425   0.284   4.839   4.396
 2842SOL    HW2 9426   0.288   4.772   4.247
 2843SOL     OW 9427   2.921   1.944   2.717
 2843SOL    HW1 9428   2.923   1.976   2.812
 2843SOL    HW2 9429   2.832   1.963   2.677
 2844SOL     OW 9430   6.428   5.376   0.756
 2844SOL    HW1 9431   6.455   5.344   0.665
 2844SOL    HW2 9432   6.488   5.337   0.825
 2845SOL     OW 9433   5.243   2.991   2.271
 2845SOL    HW1 9434   5.277   3.084   2.260
 2845SOL    HW2 9435   5.202   2.960   2.185
 2846SOL     OW 9436   3.744   0.211   0.536
 2846SOL    HW1 9437   3.820   0.174   0.482
 2846SOL    HW2 9438   3.760   0.309   0.550
 2847SOL     OW 9439   5.198   3.963   3.525
 2847SOL    HW1 9440   5.217   3.875   3.481
 2847SOL    HW2 9441   5.271   3.985   3.590
 2848SOL     OW 9442   2.316   2.783   5.572
 2848SOL    HW1 9443   2.309   2.791   5.671
 2848SOL    HW2 9444   2.394   2.837   5.539
 2849SOL     OW 9445   3.015   0.500   0.823
 2849SOL    HW1 9446   2.930   0.507   0.770
 2849SOL    HW2 9447   3.065   0.419   0.795
 2850SOL     OW 9448   2.162   0.273   2.791
 2850SOL    HW1 9449   2.174   0.254   2.694
 2850SOL    HW2 9450   2.221   0.350   2.818
 2851SOL     OW 9451   5.322   2.545   6.535
 2851SOL    HW1 9452   5.406   2.500   6.503
 2851SOL    HW2 9453   5.341   2.642   6.551
 2852SOL     OW 9454   6.182   4.251   0.073
 2852SOL    HW1 9455   6.115   4.321   0.096
 2852SOL    HW2 9456   6.145   4.193   0.000
 2853SOL     OW 9457   1.606   2.361   6.735
 2853SOL    HW1 9458   1.565   2.447   6.705
 2853SOL    HW2 9459   1.656   2.376   6.820
 2854SOL     OW 9460   4.134   0.959   5.746
 2854SOL    HW1 9461   4.136   0.912   5.657
 2854SOL    HW2 9462   4.040   0.981   5.770
 2855SOL     OW 9463   1.339   2.013   5.397
 2855SOL    HW1 9464   1.290   1.947   5.339
 2855SOL    HW2 9465   1.389   2.077   5.340
 2856SOL     OW 9466   0.779   3.080   4.315
 2856SOL    HW1 9467   0.872   3.087   4.278
 2856SOL    HW2 9468   0.717   3.135   4.259
 2857SOL     OW 9469   0.591   2.524   1.686
 2857SOL    HW1 9470   0.538   2.609   1.676
 2857SOL    HW2 9471   0.575   2.465   1.607
 2858SOL     OW 9472   4.070   5.176   2.683
 2858SOL    HW1 9473   4.120   5.263   2.689
 2858SOL    HW2 9474   4.132   5.100   2.702
 2859SOL     OW 9475   6.411   0.159   6.780
 2859SOL    HW1 9476   6.509   0.145   6.793
 2859SOL    HW2 9477   6.389   0.255   6.798
 2860SOL     OW 9478   2.389   0.523   2.496
 2860SOL    HW1 9479   2.336   0.565   2.570
 2860SOL    HW2 9480   2.446   0.593   2.453
 2861SOL     OW 9481   3.103   5.581   5.154
 2861SOL    HW1 9482   3.087   5.666   5.105
 2861SOL    HW2 9483   3.016   5.535   5.173
 2862SOL     OW 9484   4.163   2.334   1.586
 2862SOL    HW1 9485   4.215   2.355   1.503
 2862SOL    HW2 9486   4.178   2.239   1.611
 2863SOL     OW 9487   4.956   1.224   6.310
 2863SOL    HW1 9488   4.885   1.289   6.284
 2863SOL    HW2 9489   4.918   1.159   6.376
 2864SOL     OW 9490   4.563   2.454   0.712
 2864SOL    HW1 9491   4.656   2.484   0.687
 2864SOL    HW2 9492   4.560   2.355   0.718
 2865SOL     OW 9493   4.329   6.076   4.248
 2865SOL    HW1 9494   4.399   6.009   4.221
 2865SOL    HW2 9495   4.371   6.167   4.256
 2866SOL     OW 9496   5.656   4.436   6.926
 2866SOL    HW1 9497   5.648   4.456   6.829
 2866SOL    HW2 9498   5.566   4.415   6.964
 2867SOL     OW 9499   5.762   6.024   2.972
 2867SOL    HW1 9500   5.665   6.041   2.989
 2867SOL    HW2 9501   5.773   5.936   2.926
 2868SOL     OW 9502   1.310   1.092   5.746
 2868SOL    HW1 9503   1.395   1.040   5.752
 2868SOL    HW2 9504   1.308   1.163   5.817
 2869SOL     OW 9505   6.486   0.676   3.126
 2869SOL    HW1 9506   6.501   0.714   3.035
 2869SOL    HW2 9507   6.391   0.648   3.136
 2870SOL     OW 9508   0.606   2.268   5.729
 2870SOL    HW1 9509   0.528   2.206   5.719
 2870SOL    HW2 9510   0.686   2.217   5.759
 2871SOL     OW 9511   5.725   0.801   0.952
 2871SOL    HW1 9512   5.801   0.865   0.946
 2871SOL    HW2 9513   5.684   0.807   1.043
 2872SOL     OW 9514   2.344   2.158   1.201
 2872SOL    HW1 9515   2.417   2.202   1.253
 2872SOL    HW2 9516   2.258   2.207   1.217
 2873SOL     OW 9517   6.666   6.407   2.258
 2873SOL    HW1 9518   6.740   6.474   2.261
 2873SOL    HW2 9519   6.635   6.387   2.351
 2874SOL     OW 9520   4.366   6.626   2.881
 2874SOL    HW1 9521   4.423   6.577   2.815
 2874SOL    HW2 9522   4.342   6.565   2.957
 2875SOL     OW 9523   4.933   0.033   1.406
 2875SOL    HW1 9524   4.943   0.124   1.364
 2875SOL    HW2 9525   4.973   0.034   1.497
 2876SOL     OW 9526   1.926   0.646   2.786
 2876SOL    HW1 9527   1.951   0.717   2.719
 2876SOL    HW2 9528   1.828   0.648   2.801
 2877SOL     OW 9529   2.544   1.004   6.144
 2877SOL    HW1 9530   2.506   0.931   6.086
 2877SOL    HW2 9531   2.621   0.967   6.196
 2878SOL     OW 9532   2.921   3.927   5.167
 2878SOL    HW1 9533   3.005   3.973   5.137
 2878SOL    HW2 9534   2.942   3.832   5.191
 2879SOL     OW 9535   5.571   5.542   5.715
 2879SOL    HW1 9536   5.589   5.616   5.779
 2879SOL    HW2 9537   5.577   5.454   5.762
 2880SOL     OW 9538   0.606   1.582   2.944
 2880SOL    HW1 9539   0.600   1.568   3.043
 2880SOL    HW2 9540   0.610   1.680   2.924
 2881SOL     OW 9541   4.209   5.809   0.491
 2881SOL    HW1 9542   4.137   5.826   0.424
 2881SOL    HW2 9543   4.267   5.733   0.460
 2882SOL     OW 9544   0.266   5.931   1.475
 2882SOL    HW1 9545   0.239   5.921   1.379
 2882SOL    HW2 9546   0.184   5.927   1.533
 2883SOL     OW 9547   5.551   6.970   3.990
 2883SOL    HW1 9548   5.474   6.996   4.048
 2883SOL    HW2 9549   5.625   6.936   4.048
 2884SOL     OW 9550   1.031   6.574   2.752
 2884SOL    HW1 9551   0.974   6.537   2.678
 2884SOL    HW2 9552   1.127   6.573   2.723
 2885SOL     OW 9553   1.665   2.710   4.194
 2885SOL    HW1 9554   1.730   2.781   4.218
 2885SOL    HW2 9555   1.675   2.632   4.257
 2886SOL     OW 9556   1.714   3.378   6.487
 2886SOL    HW1 9557   1.764   3.351   6.570
 2886SOL    HW2 9558   1.764   3.450   6.440
 2887SOL     OW 9559   1.074   0.135   5.259
 2887SOL    HW1 9560   1.128   0.142   5.176
 2887SOL    HW2 9561   0.993   0.192   5.251
 2888SOL     OW 9562   0.343   4.425   6.881
 2888SOL    HW1 9563   0.249   4.419   6.912
 2888SOL    HW2 9564   0.385   4.509   6.916
 2889SOL     OW 9565   2.901   6.090   2.636
 2889SOL    HW1 9566   2.942   6.112   2.547
 2889SOL    HW2 9567   2.857   6.170   2.674
 2890SOL     OW 9568   1.485   6.321   0.642
 2890SOL    HW1 9569   1.544   6.305   0.721
 2890SOL    HW2 9570   1.499   6.414   0.608
 2891SOL     OW 9571   0.774   3.939   3.314
 2891SOL    HW1 9572   0.871   3.921   3.327
 2891SOL    HW2 9573   0.747   4.020   3.367
 2892SOL     OW 9574   6.231   3.039   1.057
 2892SOL    HW1 9575   6.265   3.111   1.117
 2892SOL    HW2 9576   6.291   2.959   1.064
 2893SOL     OW 9577   0.922   5.261   4.615
 2893SOL    HW1 9578   0.987   5.311   4.557
 2893SOL    HW2 9579   0.960   5.251   4.707
 2894SOL     OW 9580   1.175   2.958   2.075
 2894SOL    HW1 9581   1.130   2.947   2.164
 2894SOL    HW2 9582   1.238   3.036   2.079
 2895SOL     OW 9583   5.357   1.059   5.469
 2895SOL    HW1 9584   5.257   1.054   5.461
 2895SOL    HW2 9585   5.395   1.107   5.390
 2896SOL     OW 9586   4.220   0.001   5.486
 2896SOL    HW1 9587   4.289   6.960   5.527
 2896SOL    HW2 9588   4.130   6.976   5.493
 2897SOL     OW 9589   3.801   5.259   2.634
 2897SOL    HW1 9590   3.735   5.234   2.705
 2897SOL    HW2 9591   3.892   5.227   2.660
 2898SOL     OW 9592   4.072   4.920   4.423
 2898SOL    HW1 9593   4.037   4.854   4.357
 2898SOL    HW2 9594   4.168   4.900   4.443
 2899SOL     OW 9595   0.159   1.675   0.825
 2899SOL    HW1 9596   0.205   1.586   0.819
 2899SOL    HW2 9597   0.134   1.694   0.920
 2900SOL     OW 9598   3.636   4.559   6.816
 2900SOL    HW1 9599   3.612   4.570   6.719
 2900SOL    HW2 9600   3.681   4.642   6.849
 2901SOL     OW 9601   2.581   4.679   3.086
 2901SOL    HW1 9602   2.520   4.756   3.102
 2901SOL    HW2 9603   2.668   4.712   3.050
 2902SOL     OW 9604   6.539   4.954   2.967
 2902SOL    HW1 9605   6.544   4.870   3.022
 2902SOL    HW2 9606   6.500   4.933   2.877
 2903SOL     OW 9607   4.028   6.697   0.352
 2903SOL    HW1 9608   3.948   6.712   0.409
 2903SOL    HW2 9609   4.110   6.697   0.409
 2904SOL     OW 9610   2.888   5.187   4.557
 2904SOL    HW1 9611   2.893   5.097   4.514
 2904SOL    HW2 9612   2.882   5.257   4.486
 2905SOL     OW 9613   1.339   4.029   4.067
 2905SOL    HW1 9614   1.395   4.049   4.148
 2905SOL    HW2 9615   1.394   3.981   3.999
 2906SOL     OW 9616   4.789   5.393   2.676
 2906SOL    HW1 9617   4.727   5.467   2.702
 2906SOL    HW2 9618   4.853   5.375   2.751
 2907SOL     OW 9619   0.709   1.744   3.356
 2907SOL    HW1 9620   0.748   1.812   3.418
 2907SOL    HW2 9621   0.756   1.748   3.268
 2908SOL     OW 9622   5.221   0.139   3.391
 2908SOL    HW1 9623   5.252   0.046   3.373
 2908SOL    HW2 9624   5.124   0.139   3.414
 2909SOL     OW 9625   1.981   6.182   4.046
 2909SOL    HW1 9626   1.948   6.113   4.110
 2909SOL    HW2 9627   1.925   6.265   4.053
 2910SOL     OW 9628   5.540   0.293   4.271
 2910SOL    HW1 9629   5.640   0.293   4.271
 2910SOL    HW2 9630   5.506   0.301   4.365
 2911SOL     OW 9631   2.151   5.869   3.812
 2911SOL    HW1 9632   2.162   5.790   3.871
 2911SOL    HW2 9633   2.063   5.912   3.830
 2912SOL     OW 9634   5.968   6.990   0.527
 2912SOL    HW1 9635   5.990   0.068   0.517
 2912SOL    HW2 9636   6.047   6.942   0.567
 2913SOL     OW 9637   3.859   4.817   1.872
 2913SOL    HW1 9638   3.839   4.820   1.774
 2913SOL    HW2 9639   3.773   4.821   1.924
 2914SOL     OW 9640   6.063   5.852   6.753
 2914SOL    HW1 9641   6.156   5.815   6.745
 2914SOL    HW2 9642   6.067   5.952   6.746
 2915SOL     OW 9643   3.421   2.031   3.444
 2915SOL    HW1 9644   3.486   2.035   3.520
 2915SOL    HW2 9645   3.328   2.022   3.479
 2916SOL     OW 9646   1.112   5.899   0.567
 2916SOL    HW1 9647   1.209   5.885   0.548
 2916SOL    HW2 9648   1.099   5.926   0.662
 2917SOL     OW 9649   2.614   0.079   3.663
 2917SOL    HW1 9650   2.561   0.155   3.627
 2917SOL    HW2 9651   2.695   0.064   3.605
 2918SOL     OW 9652   6.165   4.257   5.236
 2918SOL    HW1 9653   6.083   4.278   5.290
 2918SOL    HW2 9654   6.145   4.272   5.139
 2919SOL     OW 9655   5.866   0.389   1.963
 2919SOL    HW1 9656   5.820   0.336   2.034
 2919SOL    HW2 9657   5.893   0.478   1.999
 2920SOL     OW 9658   2.576   1.243   1.050
 2920SOL    HW1 9659   2.649   1.202   0.996
 2920SOL    HW2 9660   2.491   1.244   0.996
 2921SOL     OW 9661   0.910   0.097   4.807
 2921SOL    HW1 9662   0.877   0.130   4.895
 2921SOL    HW2 9663   0.866   0.010   4.785
 2922SOL     OW 9664   4.893   6.734   1.808
 2922SOL    HW1 9665   4.912   6.743   1.710
 2922SOL    HW2 9666   4.969   6.687   1.852
 2923SOL     OW 9667   6.215   5.918   3.513
 2923SOL    HW1 9668   6.195   5.986   3.442
 2923SOL    HW2 9669   6.138   5.911   3.576
 2924SOL     OW 9670   6.533   2.456   5.495
 2924SOL    HW1 9671   6.588   2.392   5.442
 2924SOL    HW2 9672   6.450   2.479   5.445
 2925SOL     OW 9673   6.039   2.223   0.269
 2925SOL    HW1 9674   5.970   2.186   0.332
 2925SOL    HW2 9675   6.013   2.316   0.243
 2926SOL     OW 9676   5.461   2.185   6.708
 2926SOL    HW1 9677   5.543   2.232   6.674
 2926SOL    HW2 9678   5.429   2.120   6.639
 2927SOL     OW 9679   1.332   3.723   1.166
 2927SOL    HW1 9680   1.355   3.677   1.081
 2927SOL    HW2 9681   1.337   3.822   1.153
 2928SOL     OW 9682   6.676   0.718   6.622
 2928SOL    HW1 9683   6.650   0.622   6.627
 2928SOL    HW2 9684   6.596   0.776   6.635
 2929SOL     OW 9685   1.350   2.636   6.261
 2929SOL    HW1 9686   1.371   2.707   6.194
 2929SOL    HW2 9687   1.357   2.546   6.218
 2930SOL     OW 9688   5.315   0.155   5.512
 2930SOL    HW1 9689   5.225   0.118   5.533
 2930SOL    HW2 9690   5.333   0.233   5.572
 2931SOL     OW 9691   4.934   5.120   0.058
 2931SOL    HW1 9692   4.918   5.110   0.156
 2931SOL    HW2 9693   5.016   5.069   0.032
 2932SOL     OW 9694   0.842   5.872   1.866
 2932SOL    HW1 9695   0.871   5.933   1.939
 2932SOL    HW2 9696   0.812   5.784   1.904
 2933SOL     OW 9697   2.066   6.366   2.211
 2933SOL    HW1 9698   2.131   6.406   2.147
 2933SOL    HW2 9699   2.072   6.267   2.207
 2934SOL     OW 9700   5.291   2.139   0.016
 2934SOL    HW1 9701   5.354   2.193   6.981
 2934SOL    HW2 9702   5.223   2.199   0.059
 2935SOL     OW 9703   6.739   3.162   6.304
 2935SOL    HW1 9704   6.699   3.182   6.214
 2935SOL    HW2 9705   6.675   3.191   6.375
 2936SOL     OW 9706   4.494   6.138   0.328
 2936SOL    HW1 9707   4.566   6.199   0.296
 2936SOL    HW2 9708   4.524   6.043   0.315
 2937SOL     OW 9709   5.454   4.950   1.576
 2937SOL    HW1 9710   5.456   4.935   1.477
 2937SOL    HW2 9711   5.383   5.017   1.598
 2938SOL     OW 9712   5.102   4.680   0.127
 2938SOL    HW1 9713   5.095   4.749   0.055
 2938SOL    HW2 9714   5.089   4.589   0.088
 2939SOL     OW 9715   2.315   0.714   1.854
 2939SOL    HW1 9716   2.356   0.719   1.946
 2939SOL    HW2 9717   2.234   0.657   1.857
 2940SOL     OW 9718   5.462   5.356   5.294
 2940SOL    HW1 9719   5.389   5.424   5.283
 2940SOL    HW2 9720   5.482   5.314   5.205
 2941SOL     OW 9721   1.873   2.048   4.198
 2941SOL    HW1 9722   1.940   2.091   4.137
 2941SOL    HW2 9723   1.805   2.116   4.226
 2942SOL     OW 9724   3.873   1.936   0.734
 2942SOL    HW1 9725   3.840   1.901   0.822
 2942SOL    HW2 9726   3.825   2.021   0.712
 2943SOL     OW 9727   5.837   3.908   4.027
 2943SOL    HW1 9728   5.923   3.926   3.981
 2943SOL    HW2 9729   5.817   3.810   4.023
 2944SOL     OW 9730   2.727   5.742   3.983
 2944SOL    HW1 9731   2.677   5.718   3.900
 2944SOL    HW2 9732   2.669   5.724   4.063
 2945SOL     OW 9733   3.974   3.240   1.614
 2945SOL    HW1 9734   3.969   3.215   1.711
 2945SOL    HW2 9735   4.006   3.334   1.606
 2946SOL     OW 9736   1.751   4.963   6.189
 2946SOL    HW1 9737   1.691   5.017   6.130
 2946SOL    HW2 9738   1.800   5.024   6.251
 2947SOL     OW 9739   0.618   5.663   1.570
 2947SOL    HW1 9740   0.584   5.574   1.538
 2947SOL    HW2 9741   0.707   5.650   1.615
 2948SOL     OW 9742   0.214   4.292   4.328
 2948SOL    HW1 9743   0.288   4.234   4.363
 2948SOL    HW2 9744   0.217   4.292   4.228
 2949SOL     OW 9745   1.179   5.394   1.332
 2949SOL    HW1 9746   1.181   5.296   1.350
 2949SOL    HW2 9747   1.085   5.427   1.334
 2950SOL     OW 9748   5.628   5.857   4.399
 2950SOL    HW1 9749   5.590   5.830   4.311
 2950SOL    HW2 9750   5.554   5.884   4.461
 2951SOL     OW 9751   5.551   1.744   2.183
 2951SOL    HW1 9752   5.572   1.686   2.262
 2951SOL    HW2 9753   5.550   1.688   2.100
 2952SOL     OW 9754   0.073   6.000   5.597
 2952SOL    HW1 9755   0.036   5.991   5.505
 2952SOL    HW2 9756   0.162   6.045   5.593
 2953SOL     OW 9757   6.066   3.856   2.756
 2953SOL    HW1 9758   6.161   3.864   2.725
 2953SOL    HW2 9759   6.008   3.824   2.681
 2954SOL     OW 9760   1.357   5.463   1.739
 2954SOL    HW1 9761   1.359   5.531   1.812
 2954SOL    HW2 9762   1.262   5.449   1.708
 2955SOL     OW 9763   0.758   4.387   1.601
 2955SOL    HW1 9764   0.748   4.303   1.548
 2955SOL    HW2 9765   0.668   4.415   1.637
 2956SOL     OW 9766   5.591   6.429   2.903
 2956SOL    HW1 9767   5.547   6.474   2.825
 2956SOL    HW2 9768   5.688   6.453   2.904
 2957SOL     OW 9769   5.397   4.175   1.716
 2957SOL    HW1 9770   5.446   4.258   1.687
 2957SOL    HW2 9771   5.444   4.135   1.795
 2958SOL     OW 9772   2.154   4.531   3.927
 2958SOL    HW1 9773   2.180   4.449   3.978
 2958SOL    HW2 9774   2.178   4.520   3.831
 2959SOL     OW 9775   4.912   3.548   1.584
 2959SOL    HW1 9776   4.972   3.621   1.554
 2959SOL    HW2 9777   4.962   3.462   1.586
 2960SOL     OW 9778   2.944   0.358   0.324
 2960SOL    HW1 9779   2.860   0.356   0.271
 2960SOL    HW2 9780   2.999   0.277   0.304
 2961SOL     OW 9781   5.923   4.514   3.469
 2961SOL    HW1 9782   5.865   4.547   3.543
 2961SOL    HW2 9783   5.883   4.432   3.428
 2962SOL     OW 9784   4.532   5.967   3.393
 2962SOL    HW1 9785   4.518   6.061   3.363
 2962SOL    HW2 9786   4.626   5.956   3.426
 2963SOL     OW 9787   1.321   1.124   6.891
 2963SOL    HW1 9788   1.236   1.095   6.849
 2963SOL    HW2 9789   1.383   1.046   6.900
 2964SOL     OW 9790   6.940   1.343   5.047
 2964SOL    HW1 9791   6.990   1.312   4.967
 2964SOL    HW2 9792   6.915   1.264   5.103
 2965SOL     OW 9793   0.515   0.539   4.587
 2965SOL    HW1 9794   0.614   0.543   4.599
 2965SOL    HW2 9795   0.490   0.583   4.501
 2966SOL     OW 9796   4.474   4.983   3.213
 2966SOL    HW1 9797   4.445   5.063   3.161
 2966SOL    HW2 9798   4.464   5.002   3.311
 2967SOL     OW 9799   5.781   0.944   5.605
 2967SOL    HW1 9800   5.761   1.011   5.677
 2967SOL    HW2 9801   5.710   0.949   5.535
 2968SOL     OW 9802   0.852   2.799   0.727
 2968SOL    HW1 9803   0.788   2.725   0.749
 2968SOL    HW2 9804   0.895   2.832   0.811
 2969SOL     OW 9805   4.704   2.071   4.426
 2969SOL    HW1 9806   4.700   1.973   4.404
 2969SOL    HW2 9807   4.622   2.097   4.475
 2970SOL     OW 9808   2.662   2.667   5.429
 2970SOL    HW1 9809   2.589   2.684   5.363
 2970SOL    HW2 9810   2.631   2.600   5.497
 2971SOL     OW 9811   4.898   4.048   0.704
 2971SOL    HW1 9812   4.884   3.962   0.753
 2971SOL    HW2 9813   4.888   4.033   0.605
 2972SOL     OW 9814   6.763   4.823   6.495
 2972SOL    HW1 9815   6.828   4.760   6.453
 2972SOL    HW2 9816   6.696   4.771   6.549
 2973SOL     OW 9817   5.627   5.925   1.729
 2973SOL    HW1 9818   5.589   5.855   1.669
 2973SOL    HW2 9819   5.702   5.972   1.683
 2974SOL     OW 9820   0.193   4.861   3.874
 2974SOL    HW1 9821   0.174   4.844   3.777
 2974SOL    HW2 9822   0.287   4.833   3.894
 2975SOL     OW 9823   4.916   4.055   4.198
 2975SOL    HW1 9824   4.891   3.958   4.191
 2975SOL    HW2 9825   4.838   4.112   4.173
 2976SOL     OW 9826   4.477   2.494   2.649
 2976SOL    HW1 9827   4.549   2.534   2.591
 2976SOL    HW2 9828   4.470   2.396   2.631
 2977SOL     OW 9829   1.332   0.626   2.349
 2977SOL    HW1 9830   1.357   0.543   2.399
 2977SOL    HW2 9831   1.247   0.663   2.385
 2978SOL     OW 9832   3.710   4.820   6.909
 2978SOL    HW1 9833   3.640   4.873   6.955
 2978SOL    HW2 9834   3.798   4.832   6.956
 2979SOL     OW 9835   3.672   1.118   3.912
 2979SOL    HW1 9836   3.628   1.168   3.987
 2979SOL    HW2 9837   3.617   1.039   3.887
 2980SOL     OW 9838   1.783   5.461   5.476
 2980SOL    HW1 9839   1.818   5.516   5.401
 2980SOL    HW2 9840   1.760   5.369   5.442
 2981SOL     OW 9841   3.033   1.142   6.399
 2981SOL    HW1 9842   2.936   1.151   6.423
 2981SOL    HW2 9843   3.089   1.176   6.475
 2982SOL     OW 9844   3.059   5.436   1.460
 2982SOL    HW1 9845   3.091   5.499   1.530
 2982SOL    HW2 9846   2.979   5.387   1.493
 2983SOL     OW 9847   6.333   2.457   2.438
 2983SOL    HW1 9848   6.274   2.432   2.515
 2983SOL    HW2 9849   6.304   2.406   2.357
 2984SOL     OW 9850   5.951   4.788   0.239
 2984SOL    HW1 9851   5.890   4.728   0.186
 2984SOL    HW2 9852   5.994   4.734   0.312
 2985SOL     OW 9853   2.151   2.654   4.346
 2985SOL    HW1 9854   2.088   2.577   4.346
 2985SOL    HW2 9855   2.127   2.718   4.419
 2986SOL     OW 9856   3.543   4.137   2.843
 2986SOL    HW1 9857   3.633   4.130   2.885
 2986SOL    HW2 9858   3.474   4.155   2.914
 2987SOL     OW 9859   1.283   1.745   4.000
 2987SOL    HW1 9860   1.334   1.796   4.069
 2987SOL    HW2 9861   1.311   1.649   4.004
 2988SOL     OW 9862   1.827   0.025   2.616
 2988SOL    HW1 9863   1.779   6.958   2.597
 2988SOL    HW2 9864   1.902   0.009   2.680
 2989SOL     OW 9865   5.166   5.111   5.748
 2989SOL    HW1 9866   5.195   5.154   5.834
 2989SOL    HW2 9867   5.068   5.089   5.754
 2990SOL     OW 9868   3.632   1.346   4.352
 2990SOL    HW1 9869   3.642   1.318   4.447
 2990SOL    HW2 9870   3.544   1.392   4.340
 2991SOL     OW 9871   6.098   3.654   5.531
 2991SOL    HW1 9872   6.052   3.736   5.498
 2991SOL    HW2 9873   6.044   3.573   5.505
 2992SOL     OW 9874   1.212   5.380   4.790
 2992SOL    HW1 9875   1.169   5.438   4.721
 2992SOL    HW2 9876   1.295   5.340   4.753
 2993SOL     OW 9877   0.441   4.847   1.347
 2993SOL    HW1 9878   0.369   4.797   1.397
 2993SOL    HW2 9879   0.491   4.905   1.411
 2994SOL     OW 9880   4.077   6.365   6.866
 2994SOL    HW1 9881   4.066   6.427   6.944
 2994SOL    HW2 9882   4.087   6.271   6.900
 2995SOL     OW 9883   3.623   1.358   6.568
 2995SOL    HW1 9884   3.646   1.263   6.547
 2995SOL    HW2 9885   3.547   1.360   6.633
 2996SOL     OW 9886   0.462   1.378   4.889
 2996SOL    HW1 9887   0.397   1.306   4.911
 2996SOL    HW2 9888   0.538   1.340   4.836
 2997SOL     OW 9889   4.762   0.402   2.944
 2997SOL    HW1 9890   4.804   0.493   2.934
 2997SOL    HW2 9891   4.663   0.412   2.941
 2998SOL     OW 9892   5.246   6.875   3.691
 2998SOL    HW1 9893   5.185   6.919   3.625
 2998SOL    HW2 9894   5.195   6.805   3.742
 2999SOL     OW 9895   2.364   5.158   5.566
 2999SOL    HW1 9896   2.417   5.203   5.638
 2999SOL    HW2 9897   2.364   5.214   5.484
 3000SOL     OW 9898   3.382   4.161   6.088
 3000SOL    HW1 9899   3.337   4.179   6.176
 3000SOL    HW2 9900   3.439   4.239   6.063
 3001SOL     OW 9901   7.001   1.104   6.796
 3001SOL    HW1 9902   6.918   1.072   6.842
 3001SOL    HW2 9903   6.990   1.095   6.697
 3002SOL     OW 9904   3.288   1.972   6.747
 3002SOL    HW1 9905   3.358   2.038   6.774
 3002SOL    HW2 9906   3.198   2.011   6.765
 3003SOL     OW 9907   0.828   6.731   1.012
 3003SOL    HW1 9908   0.840   6.641   0.968
 3003SOL    HW2 9909   0.863   6.727   1.105
 3004SOL     OW 9910   0.859   4.296   2.732
 3004SOL    HW1 9911   0.942   4.252   2.698
 3004SOL    HW2 9912   0.796   4.313   2.656
 3005SOL     OW 9913   1.445   2.517   0.117
 3005SOL    HW1 9914   1.542   2.513   0.142
 3005SOL    HW2 9915   1.429   2.461   0.036
 3006SOL     OW 9916   5.369   2.072   4.302
 3006SOL    HW1 9917   5.365   2.015   4.384
 3006SOL    HW2 9918   5.458   2.063   4.258
 3007SOL     OW 9919   5.788   4.110   0.919
 3007SOL    HW1 9920   5.792   4.010   0.916
 3007SOL    HW2 9921   5.850   4.148   0.850
 3008SOL     OW 9922   3.357   2.802   6.381
 3008SOL    HW1 9923   3.285   2.805   6.312
 3008SOL    HW2 9924   3.445   2.785   6.337
 3009SOL     OW 9925   6.653   2.271   2.835
 3009SOL    HW1 9926   6.600   2.189   2.860
 3009SOL    HW2 9927   6.747   2.260   2.867
 3010SOL     OW 9928   2.861   5.593   3.201
 3010SOL    HW1 9929   2.768   5.627   3.185
 3010SOL    HW2 9930   2.898   5.556   3.116
 3011SOL     OW 9931   5.574   1.348   2.971
 3011SOL    HW1 9932   5.544   1.287   3.045
 3011SOL    HW2 9933   5.547   1.442   2.992
 3012SOL     OW 9934   2.401   3.490   6.662
 3012SOL    HW1 9935   2.394   3.585   6.693
 3012SOL    HW2 9936   2.311   3.457   6.635
 3013SOL     OW 9937   5.398   5.522   3.951
 3013SOL    HW1 9938   5.441   5.479   4.031
 3013SOL    HW2 9939   5.320   5.576   3.980
 3014SOL     OW 9940   4.564   2.428   5.524
 3014SOL    HW1 9941   4.494   2.398   5.459
 3014SOL    HW2 9942   4.610   2.347   5.563
 3015SOL     OW 9943   1.738   1.902   0.373
 3015SOL    HW1 9944   1.672   1.839   0.414
 3015SOL    HW2 9945   1.810   1.851   0.326
 3016SOL     OW 9946   3.015   6.157   4.313
 3016SOL    HW1 9947   3.046   6.096   4.386
 3016SOL    HW2 9948   2.935   6.209   4.345
 3017SOL     OW 9949   6.265   5.753   2.079
 3017SOL    HW1 9950   6.212   5.693   2.139
 3017SOL    HW2 9951   6.216   5.839   2.066
 3018SOL     OW 9952   2.729   0.057   6.461
 3018SOL    HW1 9953   2.782   6.995   6.488
 3018SOL    HW2 9954   2.769   0.138   6.503
 3019SOL     OW 9955   0.489   6.954   6.414
 3019SOL    HW1 9956   0.427   0.002   6.453
 3019SOL    HW2 9957   0.466   6.863   6.448
 3020SOL     OW 9958   3.913   2.908   0.955
 3020SOL    HW1 9959   3.877   2.925   0.863
 3020SOL    HW2 9960   3.998   2.960   0.967
 3021SOL     OW 9961   3.643   0.244   5.258
 3021SOL    HW1 9962   3.729   0.294   5.245
 3021SOL    HW2 9963   3.605   0.219   5.169
 3022SOL     OW 9964   4.200   5.483   5.050
 3022SOL    HW1 9965   4.132   5.535   4.998
 3022SOL    HW2 9966   4.186   5.500   5.148
 3023SOL     OW 9967   4.378   6.430   3.080
 3023SOL    HW1 9968   4.346   6.455   3.171
 3023SOL    HW2 9969   4.475   6.403   3.085
 3024SOL     OW 9970   5.549   6.663   4.574
 3024SOL    HW1 9971   5.465   6.677   4.522
 3024SOL    HW2 9972   5.557   6.733   4.644
 3025SOL     OW 9973   4.058   6.442   1.173
 3025SOL    HW1 9974   3.962   6.421   1.195
 3025SOL    HW2 9975   4.098   6.366   1.122
 3026SOL     OW 9976   0.509   1.499   5.786
 3026SOL    HW1 9977   0.423   1.458   5.816
 3026SOL    HW2 9978   0.528   1.470   5.692
 3027SOL     OW 9979   4.329   1.567   2.862
 3027SOL    HW1 9980   4.258   1.564   2.933
 3027SOL    HW2 9981   4.416   1.537   2.900
 3028SOL     OW 9982   1.412   3.497   5.848
 3028SOL    HW1 9983   1.448   3.404   5.841
 3028SOL    HW2 9984   1.469   3.560   5.795
 3029SOL     OW 9985   0.733   3.182   5.090
 3029SOL    HW1 9986   0.719   3.260   5.150
 3029SOL    HW2 9987   0.830   3.160   5.086
 3030SOL     OW 9988   1.015   3.163   0.823
 3030SOL    HW1 9989   1.088   3.197   0.881
 3030SOL    HW2 9990   1.051   3.146   0.731
 3031SOL     OW 9991   0.143   4.810   1.119
 3031SOL    HW1 9992   0.228   4.767   1.088
 3031SOL    HW2 9993   0.142   4.905   1.089
 3032SOL     OW 9994   2.158   6.797   1.377
 3032SOL    HW1 9995   2.149   6.885   1.424
 3032SOL    HW2 9996   2.254   6.774   1.368
 3033SOL     OW 9997   5.127   0.971   1.864
 3033SOL    HW1 9998   5.057   0.987   1.794
 3033SOL    HW2 9999   5.097   1.013   1.950
 3034SOL     OW10000   0.904   0.260   2.944
 3034SOL    HW110001   0.900   0.260   2.844
 3034SOL    HW210002   0.884   0.168   2.978
 3035SOL     OW10003   0.633   2.902   5.920
 3035SOL    HW110004   0.638   2.897   6.020
 3035SOL    HW210005   0.593   2.989   5.893
 3036SOL     OW10006   1.596   1.917   5.604
 3036SOL    HW110007   1.512   1.958   5.637
 3036SOL    HW210008   1.648   1.983   5.550
 3037SOL     OW10009   6.114   5.496   6.339
 3037SOL    HW110010   6.164   5.513   6.254
 3037SOL    HW210011   6.162   5.539   6.415
 3038SOL     OW10012   5.142   5.440   5.805
 3038SOL    HW110013   5.173   5.496   5.882
 3038SOL    HW210014   5.055   5.396   5.830
 3039SOL     OW10015   0.779   3.143   1.426
 3039SOL    HW110016   0.702   3.122   1.485
 3039SOL    HW210017   0.862   3.150   1.481
 3040SOL     OW10018   3.306   4.017   5.799
 3040SOL    HW110019   3.206   4.011   5.795
 3040SOL    HW210020   3.333   4.076   5.874
 3041SOL     OW10021   1.896   3.994   5.790
 3041SOL    HW110022   1.950   4.058   5.736
 3041SOL    HW210023   1.818   3.963   5.736
 3042SOL     OW10024   6.219   6.121   3.022
 3042SOL    HW110025   6.213   6.202   2.964
 3042SOL    HW210026   6.213   6.039   2.966
 3043SOL     OW10027   2.815   3.943   1.698
 3043SOL    HW110028   2.883   3.883   1.740
 3043SOL    HW210029   2.859   4.028   1.667
 3044SOL     OW10030   3.552   5.493   5.691
 3044SOL    HW110031   3.645   5.520   5.716
 3044SOL    HW210032   3.553   5.455   5.599
 3045SOL     OW10033   4.967   0.035   3.428
 3045SOL    HW110034   4.973   6.961   3.463
 3045SOL    HW210035   4.940   0.033   3.331
 3046SOL     OW10036   3.437   1.184   5.826
 3046SOL    HW110037   3.462   1.273   5.864
 3046SOL    HW210038   3.364   1.194   5.759
 3047SOL     OW10039   5.935   0.386   1.708
 3047SOL    HW110040   6.031   0.360   1.707
 3047SOL    HW210041   5.907   0.408   1.801
 3048SOL     OW10042   3.945   2.246   1.314
 3048SOL    HW110043   3.985   2.337   1.313
 3048SOL    HW210044   3.851   2.252   1.347
 3049SOL     OW10045   1.601   0.106   3.143
 3049SOL    HW110046   1.692   0.073   3.118
 3049SOL    HW210047   1.605   0.152   3.231
 3050SOL     OW10048   3.160   1.805   1.870
 3050SOL    HW110049   3.231   1.832   1.934
 3050SOL    HW210050   3.105   1.885   1.845
 3051SOL     OW10051   1.973   6.377   6.503
 3051SOL    HW110052   1.945   6.322   6.425
 3051SOL    HW210053   2.073   6.378   6.510
 3052SOL     OW10054   4.914   5.334   1.797
 3052SOL    HW110055   4.950   5.293   1.713
 3052SOL    HW210056   4.843   5.400   1.774
 3053SOL     OW10057   6.966   2.825   1.111
 3053SOL    HW110058   0.008   2.746   1.124
 3053SOL    HW210059   6.972   2.856   1.016
 3054SOL     OW10060   6.033   2.373   1.460
 3054SOL    HW110061   6.073   2.455   1.419
 3054SOL    HW210062   6.106   2.317   1.499
 3055SOL     OW10063   5.025   0.114   5.073
 3055SOL    HW110064   5.015   0.207   5.038
 3055SOL    HW210065   5.123   0.091   5.078
 3056SOL     OW10066   6.083   1.050   5.819
 3056SOL    HW110067   6.011   1.014   5.877
 3056SOL    HW210068   6.110   0.981   5.752
 3057SOL     OW10069   4.157   5.360   3.474
 3057SOL    HW110070   4.146   5.264   3.446
 3057SOL    HW210071   4.252   5.377   3.499
 3058SOL     OW10072   0.334   4.594   0.805
 3058SOL    HW110073   0.296   4.686   0.806
 3058SOL    HW210074   0.370   4.571   0.895
 3059SOL     OW10075   2.894   1.863   4.316
 3059SOL    HW110076   2.826   1.911   4.260
 3059SOL    HW210077   2.854   1.840   4.405
 3060SOL     OW10078   1.582   5.488   0.217
 3060SOL    HW110079   1.547   5.534   0.298
 3060SOL    HW210080   1.508   5.437   0.173
 3061SOL     OW10081   6.604   6.076   5.805
 3061SOL    HW110082   6.616   6.019   5.887
 3061SOL    HW210083   6.589   6.171   5.832
 3062SOL     OW10084   2.149   0.297   1.039
 3062SOL    HW110085   2.211   0.221   1.022
 3062SOL    HW210086   2.105   0.286   1.128
 3063SOL     OW10087   1.751   4.641   1.517
 3063SOL    HW110088   1.808   4.719   1.492
 3063SOL    HW210089   1.754   4.628   1.616
 3064SOL     OW10090   5.189   3.422   0.917
 3064SOL    HW110091   5.129   3.377   0.982
 3064SOL    HW210092   5.133   3.463   0.844
 3065SOL     OW10093   1.877   2.272   6.605
 3065SOL    HW110094   1.865   2.176   6.628
 3065SOL    HW210095   1.805   2.326   6.649
 3066SOL     OW10096   5.130   4.189   0.359
 3066SOL    HW110097   5.185   4.123   0.409
 3066SOL    HW210098   5.147   4.281   0.394
 3067SOL     OW10099   3.680   1.614   6.351
 3067SOL    HW110100   3.587   1.577   6.358
 3067SOL    HW210101   3.745   1.546   6.384
 3068SOL     OW10102   0.008   6.615   1.139
 3068SOL    HW110103   0.090   6.599   1.084
 3068SOL    HW210104   6.962   6.540   1.125
 3069SOL     OW10105   6.821   6.251   2.125
 3069SOL    HW110106   6.746   6.293   2.177
 3069SOL    HW210107   6.791   6.232   2.032
 3070SOL     OW10108   2.927   1.477   6.854
 3070SOL    HW110109   2.859   1.427   6.801
 3070SOL    HW210110   2.926   1.574   6.828
 3071SOL     OW10111   6.414   6.489   4.025
 3071SOL    HW110112   6.456   6.411   3.977
 3071SOL    HW210113   6.485   6.554   4.051
 3072SOL     OW10114   2.744   5.480   6.324
 3072SOL    HW110115   2.675   5.496   6.394
 3072SOL    HW210116   2.753   5.561   6.267
 3073SOL     OW10117   0.070   3.619   3.855
 3073SOL    HW110118   0.008   3.697   3.847
 3073SOL    HW210119   0.030   3.540   3.809
 3074SOL     OW10120   6.713   4.183   1.119
 3074SOL    HW110121   6.768   4.140   1.047
 3074SOL    HW210122   6.736   4.280   1.125
 3075SOL     OW10123   2.465   5.633   2.284
 3075SOL    HW110124   2.492   5.696   2.356
 3075SOL    HW210125   2.533   5.560   2.276
 3076SOL     OW10126   6.155   1.233   3.665
 3076SOL    HW110127   6.194   1.261   3.753
 3076SOL    HW210128   6.203   1.282   3.591
 3077SOL     OW10129   5.598   4.363   1.894
 3077SOL    HW110130   5.596   4.338   1.798
 3077SOL    HW210131   5.528   4.312   1.943
 3078SOL     OW10132   0.350   3.327   2.772
 3078SOL    HW110133   0.364   3.398   2.840
 3078SOL    HW210134   0.430   3.323   2.711
 3079SOL     OW10135   3.026   2.230   3.129
 3079SOL    HW110136   3.040   2.240   3.227
 3079SOL    HW210137   2.939   2.183   3.113
 3080SOL     OW10138   6.030   5.258   2.367
 3080SOL    HW110139   5.986   5.340   2.331
 3080SOL    HW210140   5.975   5.220   2.442
 3081SOL     OW10141   1.004   3.839   6.039
 3081SOL    HW110142   1.057   3.757   6.019
 3081SOL    HW210143   1.067   3.916   6.053
 3082SOL     OW10144   2.011   5.700   4.236
 3082SOL    HW110145   1.934   5.641   4.262
 3082SOL    HW210146   1.977   5.775   4.180
 3083SOL     OW10147   3.041   5.723   3.548
 3083SOL    HW110148   3.011   5.813   3.517
 3083SOL    HW210149   3.134   5.729   3.584
 3084SOL     OW10150   6.611   3.753   3.854
 3084SOL    HW110151   6.573   3.807   3.930
 3084SOL    HW210152   6.710   3.746   3.865
 3085SOL     OW10153   6.485   4.058   0.558
 3085SOL    HW110154   6.447   3.973   0.523
 3085SOL    HW210155   6.584   4.060   0.541
 3086SOL     OW10156   5.150   1.676   0.667
 3086SOL    HW110157   5.061   1.691   0.624
 3086SOL    HW210158   5.180   1.582   0.650
 3087SOL     OW10159   2.163   6.704   3.733
 3087SOL    HW110160   2.232   6.716   3.803
 3087SOL    HW210161   2.198   6.645   3.661
 3088SOL     OW10162   2.380   4.740   4.809
 3088SOL    HW110163   2.373   4.653   4.760
 3088SOL    HW210164   2.438   4.729   4.889
 3089SOL     OW10165   3.327   1.702   4.574
 3089SOL    HW110166   3.343   1.608   4.605
 3089SOL    HW210167   3.401   1.761   4.608
 3090SOL     OW10168   2.301   1.718   1.897
 3090SOL    HW110169   2.209   1.730   1.860
 3090SOL    HW210170   2.295   1.679   1.989
 3091SOL     OW10171   1.384   1.032   0.947
 3091SOL    HW110172   1.303   1.008   1.000
 3091SOL    HW210173   1.414   1.124   0.971
 3092SOL     OW10174   5.614   0.542   0.972
 3092SOL    HW110175   5.645   0.637   0.965
 3092SOL    HW210176   5.551   0.522   0.897
 3093SOL     OW10177   5.292   5.992   6.782
 3093SOL    HW110178   5.219   5.941   6.828
 3093SOL    HW210179   5.380   5.948   6.802
 3094SOL     OW10180   2.033   0.501   4.031
 3094SOL    HW110181   2.067   0.408   4.044
 3094SOL    HW210182   1.973   0.504   3.951
 3095SOL     OW10183   2.541   3.815   5.796
 3095SOL    HW110184   2.451   3.789   5.762
 3095SOL    HW210185   2.577   3.889   5.741
 3096SOL     OW10186   0.833   5.325   5.113
 3096SOL    HW110187   0.852   5.227   5.118
 3096SOL    HW210188   0.734   5.339   5.106
 3097SOL     OW10189   5.746   3.500   6.577
 3097SOL    HW110190   5.812   3.426   6.583
 3097SOL    HW210191   5.744   3.552   6.662
 3098SOL     OW10192   1.735   3.107   1.365
 3098SOL    HW110193   1.816   3.062   1.403
 3098SOL    HW210194   1.656   3.046   1.374
 3099SOL     OW10195   1.203   6.495   3.940
 3099SOL    HW110196   1.243   6.434   4.008
 3099SOL    HW210197   1.105   6.506   3.957
 3100SOL     OW10198   6.853   6.056   3.753
 3100SOL    HW110199   6.941   6.019   3.783
 3100SOL    HW210200   6.799   6.085   3.832
 3101SOL     OW10201   6.368   5.764   6.986
 3101SOL    HW110202   6.412   5.763   6.896
 3101SOL    HW210203   6.429   5.806   0.034
 3102SOL     OW10204   6.451   6.717   1.831
 3102SOL    HW110205   6.509   6.732   1.750
 3102SOL    HW210206   6.355   6.714   1.802
 3103SOL     OW10207   4.485   1.554   1.791
 3103SOL    HW110208   4.416   1.622   1.817
 3103SOL    HW210209   4.442   1.465   1.780
 3104SOL     OW10210   4.246   0.495   6.519
 3104SOL    HW110211   4.336   0.466   6.485
 3104SOL    HW210212   4.192   0.533   6.443
 3105SOL     OW10213   5.875   3.900   1.292
 3105SOL    HW110214   5.870   3.957   1.374
 3105SOL    HW210215   5.787   3.900   1.245
 3106SOL     OW10216   4.484   0.475   4.416
 3106SOL    HW110217   4.534   0.506   4.336
 3106SOL    HW210218   4.393   0.445   4.389
 3107SOL     OW10219   3.673   0.684   4.958
 3107SOL    HW110220   3.670   0.753   4.885
 3107SOL    HW210221   3.753   0.626   4.946
 3108SOL     OW10222   2.515   5.860   4.542
 3108SOL    HW110223   2.551   5.951   4.523
 3108SOL    HW210224   2.576   5.791   4.503
 3109SOL     OW10225   5.755   6.324   3.451
 3109SOL    HW110226   5.762   6.306   3.549
 3109SOL    HW210227   5.784   6.243   3.400
 3110SOL     OW10228   1.362   3.748   3.388
 3110SOL    HW110229   1.410   3.698   3.459
 3110SOL    HW210230   1.275   3.702   3.368
 3111SOL     OW10231   6.731   5.146   3.028
 3111SOL    HW110232   6.759   5.187   2.942
 3111SOL    HW210233   6.640   5.105   3.017
 3112SOL     OW10234   3.477   2.756   0.036
 3112SOL    HW110235   3.472   2.856   0.030
 3112SOL    HW210236   3.397   2.721   0.085
 3113SOL     OW10237   3.388   4.911   3.422
 3113SOL    HW110238   3.393   5.005   3.388
 3113SOL    HW210239   3.436   4.850   3.359
 3114SOL     OW10240   3.422   1.804   0.211
 3114SOL    HW110241   3.361   1.846   0.144
 3114SOL    HW210242   3.368   1.764   0.285
 3115SOL     OW10243   4.328   4.662   5.971
 3115SOL    HW110244   4.388   4.742   5.976
 3115SOL    HW210245   4.234   4.689   5.995
 3116SOL     OW10246   0.129   2.306   6.760
 3116SOL    HW110247   0.106   2.393   6.715
 3116SOL    HW210248   0.198   2.258   6.705
 3117SOL     OW10249   4.635   4.157   5.252
 3117SOL    HW110250   4.574   4.207   5.314
 3117SOL    HW210251   4.610   4.060   5.252
 3118SOL     OW10252   0.891   5.252   2.053
 3118SOL    HW110253   0.928   5.189   1.985
 3118SOL    HW210254   0.937   5.236   2.141
 3119SOL     OW10255   1.884   2.989   0.173
 3119SOL    HW110256   1.903   3.087   0.172
 3119SOL    HW210257   1.870   2.959   0.268
 3120SOL     OW10258   2.890   0.308   6.016
 3120SOL    HW110259   2.928   0.321   5.924
 3120SOL    HW210260   2.791   0.301   6.011
 3121SOL     OW10261   6.993   1.455   4.331
 3121SOL    HW110262   0.041   1.489   4.265
 3121SOL    HW210263   6.903   1.494   4.311
 3122SOL     OW10264   4.334   5.346   6.418
 3122SOL    HW110265   4.360   5.377   6.510
 3122SOL    HW210266   4.417   5.328   6.365
 3123SOL     OW10267   2.737   1.743   2.449
 3123SOL    HW110268   2.702   1.829   2.486
 3123SOL    HW210269   2.834   1.734   2.470
 3124SOL     OW10270   5.023   6.927   4.808
 3124SOL    HW110271   5.044   6.886   4.897
 3124SOL    HW210272   5.108   6.934   4.755
 3125SOL     OW10273   1.060   3.370   5.058
 3125SOL    HW110274   1.019   3.370   4.967
 3125SOL    HW210275   1.145   3.318   5.056
 3126SOL     OW10276   5.900   4.420   5.388
 3126SOL    HW110277   5.810   4.378   5.391
 3126SOL    HW210278   5.948   4.403   5.474
 3127SOL     OW10279   1.921   2.717   6.873
 3127SOL    HW110280   1.942   2.649   6.803
 3127SOL    HW210281   1.824   2.712   6.897
 3128SOL     OW10282   3.038   0.722   6.544
 3128SOL    HW110283   2.943   0.735   6.572
 3128SOL    HW210284   3.049   0.631   6.505
 3129SOL     OW10285   6.057   3.557   6.688
 3129SOL    HW110286   5.998   3.480   6.662
 3129SOL    HW210287   6.152   3.525   6.695
 3130SOL     OW10288   2.118   4.452   2.148
 3130SOL    HW110289   2.096   4.441   2.052
 3130SOL    HW210290   2.054   4.516   2.191
 3131SOL     OW10291   0.916   3.371   1.760
 3131SOL    HW110292   1.011   3.352   1.782
 3131SOL    HW210293   0.907   3.468   1.735
 3132SOL     OW10294   4.861   5.616   6.612
 3132SOL    HW110295   4.903   5.548   6.552
 3132SOL    HW210296   4.783   5.659   6.566
 3133SOL     OW10297   3.319   1.030   2.812
 3133SOL    HW110298   3.409   1.074   2.814
 3133SOL    HW210299   3.315   0.960   2.883
 3134SOL     OW10300   4.397   4.052   1.312
 3134SOL    HW110301   4.496   4.045   1.306
 3134SOL    HW210302   4.371   4.111   1.388
 3135SOL     OW10303   4.492   0.408   6.060
 3135SOL    HW110304   4.528   0.448   5.975
 3135SOL    HW210305   4.420   0.342   6.037
 3136SOL     OW10306   5.326   0.182   2.674
 3136SOL    HW110307   5.281   0.130   2.747
 3136SOL    HW210308   5.401   0.236   2.714
 3137SOL     OW10309   6.057   0.434   2.460
 3137SOL    HW110310   6.148   0.438   2.418
 3137SOL    HW210311   6.008   0.519   2.439
 3138SOL     OW10312   6.781   5.803   3.362
 3138SOL    HW110313   6.710   5.852   3.312
 3138SOL    HW210314   6.800   5.716   3.317
 3139SOL     OW10315   4.292   5.426   0.290
 3139SOL    HW110316   4.203   5.393   0.257
 3139SOL    HW210317   4.365   5.377   0.242
 3140SOL     OW10318   6.748   5.932   6.882
 3140SOL    HW110319   6.658   5.888   6.882
 3140SOL    HW210320   6.760   5.983   6.797
 3141SOL     OW10321   1.154   0.533   6.632
 3141SOL    HW110322   1.169   0.616   6.578
 3141SOL    HW210323   1.076   0.546   6.693
 3142SOL     OW10324   3.140   0.042   2.384
 3142SOL    HW110325   3.059   0.092   2.415
 3142SOL    HW210326   3.132   6.965   2.408
 3143SOL     OW10327   6.588   1.986   0.382
 3143SOL    HW110328   6.677   1.948   0.360
 3143SOL    HW210329   6.535   1.920   0.435
 3144SOL     OW10330   3.915   3.925   0.985
 3144SOL    HW110331   3.957   3.891   1.069
 3144SOL    HW210332   3.877   3.849   0.933
 3145SOL     OW10333   2.255   6.077   2.433
 3145SOL    HW110334   2.201   6.161   2.446
 3145SOL    HW210335   2.340   6.084   2.485
 3146SOL     OW10336   0.662   1.592   4.156
 3146SOL    HW110337   0.747   1.600   4.104
 3146SOL    HW210338   0.658   1.664   4.226
 3147SOL     OW10339   3.339   5.239   0.807
 3147SOL    HW110340   3.427   5.258   0.850
 3147SOL    HW210341   3.344   5.153   0.756
 3148SOL     OW10342   6.605   0.057   3.183
 3148SOL    HW110343   6.633   6.981   3.174
 3148SOL    HW210344   6.596   0.098   3.092
 3149SOL     OW10345   3.165   0.633   5.833
 3149SOL    HW110346   3.240   0.631   5.899
 3149SOL    HW210347   3.197   0.673   5.747
 3150SOL     OW10348   6.606   5.536   5.495
 3150SOL    HW110349   6.520   5.586   5.488
 3150SOL    HW210350   6.648   5.529   5.404
 3151SOL     OW10351   0.695   0.859   4.721
 3151SOL    HW110352   0.700   0.761   4.702
 3151SOL    HW210353   0.707   0.875   4.818
 3152SOL     OW10354   0.553   5.385   0.834
 3152SOL    HW110355   0.476   5.385   0.771
 3152SOL    HW210356   0.555   5.299   0.885
 3153SOL     OW10357   6.285   5.649   0.637
 3153SOL    HW110358   6.339   5.579   0.591
 3153SOL    HW210359   6.232   5.700   0.570
 3154SOL     OW10360   0.379   1.912   6.261
 3154SOL    HW110361   0.451   1.876   6.320
 3154SOL    HW210362   0.324   1.837   6.225
 3155SOL     OW10363   6.565   4.577   0.381
 3155SOL    HW110364   6.634   4.531   0.437
 3155SOL    HW210365   6.602   4.597   0.291
 3156SOL     OW10366   3.483   2.808   2.322
 3156SOL    HW110367   3.495   2.709   2.318
 3156SOL    HW210368   3.572   2.852   2.310
 3157SOL     OW10369   2.357   1.716   5.313
 3157SOL    HW110370   2.431   1.760   5.261
 3157SOL    HW210371   2.306   1.787   5.362
 3158SOL     OW10372   3.327   1.646   4.014
 3158SOL    HW110373   3.332   1.634   4.113
 3158SOL    HW210374   3.418   1.667   3.979
 3159SOL     OW10375   5.770   0.926   0.179
 3159SOL    HW110376   5.679   0.953   0.148
 3159SOL    HW210377   5.769   0.830   0.204
 3160SOL     OW10378   0.631   5.882   5.731
 3160SOL    HW110379   0.592   5.795   5.700
 3160SOL    HW210380   0.725   5.889   5.697
 3161SOL     OW10381   2.135   3.109   2.905
 3161SOL    HW110382   2.127   3.015   2.936
 3161SOL    HW210383   2.180   3.111   2.816
 3162SOL     OW10384   1.304   5.644   1.427
 3162SOL    HW110385   1.240   5.567   1.428
 3162SOL    HW210386   1.269   5.717   1.487
 3163SOL     OW10387   4.281   3.611   6.843
 3163SOL    HW110388   4.209   3.559   6.796
 3163SOL    HW210389   4.290   3.701   6.800
 3164SOL     OW10390   4.081   5.592   0.925
 3164SOL    HW110391   4.094   5.662   0.855
 3164SOL    HW210392   4.140   5.513   0.905
 3165SOL     OW10393   1.171   6.853   1.372
 3165SOL    HW110394   1.266   6.854   1.340
 3165SOL    HW210395   1.111   6.887   1.300
 3166SOL     OW10396   3.904   1.489   3.733
 3166SOL    HW110397   3.896   1.390   3.719
 3166SOL    HW210398   3.819   1.524   3.772
 3167SOL     OW10399   6.198   4.771   0.923
 3167SOL    HW110400   6.141   4.693   0.898
 3167SOL    HW210401   6.227   4.819   0.840
 3168SOL     OW10402   4.716   2.608   0.248
 3168SOL    HW110403   4.732   2.564   0.159
 3168SOL    HW210404   4.629   2.578   0.285
 3169SOL     OW10405   2.140   4.021   4.509
 3169SOL    HW110406   2.140   3.951   4.437
 3169SOL    HW210407   2.174   3.980   4.594
 3170SOL     OW10408   3.815   5.908   1.409
 3170SOL    HW110409   3.743   5.842   1.389
 3170SOL    HW210410   3.799   5.950   1.499
 3171SOL     OW10411   6.639   0.995   2.471
 3171SOL    HW110412   6.579   0.958   2.543
 3171SOL    HW210413   6.636   1.094   2.474
 3172SOL     OW10414   0.155   5.892   0.120
 3172SOL    HW110415   0.120   5.977   0.160
 3172SOL    HW210416   0.140   5.816   0.183
 3173SOL     OW10417   3.133   2.001   0.350
 3173SOL    HW110418   3.119   1.963   0.441
 3173SOL    HW210419   3.078   2.084   0.340
 3174SOL     OW10420   3.006   2.222   0.306
 3174SOL    HW110421   2.952   2.261   0.381
 3174SOL    HW210422   2.961   2.242   0.219
 3175SOL     OW10423   6.037   0.897   1.740
 3175SOL    HW110424   5.988   0.982   1.721
 3175SOL    HW210425   5.982   0.838   1.798
 3176SOL     OW10426   1.723   4.403   5.868
 3176SOL    HW110427   1.794   4.395   5.798
 3176SOL    HW210428   1.637   4.365   5.832
 3177SOL     OW10429   4.856   4.162   3.816
 3177SOL    HW110430   4.858   4.063   3.829
 3177SOL    HW210431   4.780   4.201   3.868
 3178SOL     OW10432   6.695   2.269   0.467
 3178SOL    HW110433   6.781   2.272   0.416
 3178SOL    HW210434   6.671   2.174   0.485
 3179SOL     OW10435   0.769   2.826   2.357
 3179SOL    HW110436   0.827   2.817   2.276
 3179SOL    HW210437   0.767   2.740   2.407
 3180SOL     OW10438   5.717   1.050   6.537
 3180SOL    HW110439   5.638   1.012   6.585
 3180SOL    HW210440   5.724   1.008   6.446
 3181SOL     OW10441   0.186   2.042   2.840
 3181SOL    HW110442   0.166   1.965   2.778
 3181SOL    HW210443   0.120   2.115   2.824
 3182SOL     OW10444   2.519   0.291   6.552
 3182SOL    HW110445   2.501   0.369   6.492
 3182SOL    HW210446   2.564   0.219   6.500
 3183SOL     OW10447   5.065   3.646   2.053
 3183SOL    HW110448   5.136   3.640   2.124
 3183SOL    HW210449   5.017   3.733   2.062
 3184SOL     OW10450   0.770   3.004   2.821
 3184SOL    HW110451   0.868   3.022   2.814
 3184SOL    HW210452   0.724   3.084   2.859
 3185SOL     OW10453   4.887   5.523   0.052
 3185SOL    HW110454   4.932   5.523   0.141
 3185SOL    HW210455   4.910   5.606   0.002
 3186SOL     OW10456   3.069   2.079   1.390
 3186SOL    HW110457   3.042   2.041   1.302
 3186SOL    HW210458   3.045   2.015   1.463
 3187SOL     OW10459   4.397   4.519   0.524
 3187SOL    HW110460   4.355   4.428   0.522
 3187SOL    HW210461   4.405   4.550   0.618
 3188SOL     OW10462   1.227   6.896   4.244
 3188SOL    HW110463   1.183   6.973   4.199
 3188SOL    HW210464   1.212   6.813   4.190
 3189SOL     OW10465   1.158   1.685   1.464
 3189SOL    HW110466   1.147   1.593   1.503
 3189SOL    HW210467   1.183   1.678   1.368
 3190SOL     OW10468   0.830   5.453   6.769
 3190SOL    HW110469   0.869   5.362   6.755
 3190SOL    HW210470   0.896   5.523   6.743
 3191SOL     OW10471   5.113   5.871   1.175
 3191SOL    HW110472   5.189   5.849   1.114
 3191SOL    HW210473   5.138   5.946   1.235
 3192SOL     OW10474   0.250   3.140   1.466
 3192SOL    HW110475   0.191   3.212   1.430
 3192SOL    HW210476   0.284   3.085   1.390
 3193SOL     OW10477   4.269   1.391   6.824
 3193SOL    HW110478   4.173   1.386   6.851
 3193SOL    HW210479   4.319   1.314   6.864
 3194SOL     OW10480   1.318   1.664   6.703
 3194SOL    HW110481   1.236   1.704   6.744
 3194SOL    HW210482   1.396   1.681   6.763
 3195SOL     OW10483   2.683   1.218   3.686
 3195SOL    HW110484   2.697   1.155   3.610
 3195SOL    HW210485   2.586   1.235   3.699
 3196SOL     OW10486   0.461   0.425   6.509
 3196SOL    HW110487   0.500   0.464   6.426
 3196SOL    HW210488   0.364   0.407   6.496
 3197SOL     OW10489   2.965   6.738   3.938
 3197SOL    HW110490   2.902   6.766   3.866
 3197SOL    HW210491   2.946   6.644   3.965
 3198SOL     OW10492   6.175   2.879   4.419
 3198SOL    HW110493   6.192   2.803   4.356
 3198SOL    HW210494   6.165   2.844   4.512
 3199SOL     OW10495   5.050   4.006   2.758
 3199SOL    HW110496   4.953   3.984   2.771
 3199SOL    HW210497   5.059   4.096   2.717
 3200SOL     OW10498   6.211   3.176   2.314
 3200SOL    HW110499   6.185   3.149   2.221
 3200SOL    HW210500   6.210   3.276   2.321
 3201SOL     OW10501   6.409   4.860   4.155
 3201SOL    HW110502   6.368   4.950   4.141
 3201SOL    HW210503   6.455   4.831   4.071
 3202SOL     OW10504   0.644   4.770   1.813
 3202SOL    HW110505   0.640   4.677   1.848
 3202SOL    HW210506   0.701   4.772   1.730
 3203SOL     OW10507   6.899   2.369   0.279
 3203SOL    HW110508   6.927   2.329   0.193
 3203SOL    HW210509   6.806   2.407   0.270
 3204SOL     OW10510   4.767   6.364   3.510
 3204SOL    HW110511   4.707   6.366   3.589
 3204SOL    HW210512   4.860   6.390   3.538
 3205SOL     OW10513   6.084   2.784   6.030
 3205SOL    HW110514   6.009   2.844   6.058
 3205SOL    HW210515   6.070   2.693   6.070
 3206SOL     OW10516   1.898   4.845   6.900
 3206SOL    HW110517   1.862   4.777   6.964
 3206SOL    HW210518   1.912   4.803   6.810
 3207SOL     OW10519   0.718   1.395   5.944
 3207SOL    HW110520   0.715   1.318   5.879
 3207SOL    HW210521   0.649   1.463   5.918
 3208SOL     OW10522   5.022   6.262   6.063
 3208SOL    HW110523   4.924   6.244   6.061
 3208SOL    HW210524   5.044   6.316   6.144
 3209SOL     OW10525   4.154   5.428   3.208
 3209SOL    HW110526   4.172   5.404   3.303
 3209SOL    HW210527   4.057   5.414   3.188
 3210SOL     OW10528   0.809   4.413   1.005
 3210SOL    HW110529   0.902   4.378   1.009
 3210SOL    HW210530   0.794   4.479   1.079
 3211SOL     OW10531   2.122   3.848   0.713
 3211SOL    HW110532   2.116   3.772   0.777
 3211SOL    HW210533   2.057   3.919   0.739
 3212SOL     OW10534   2.977   6.975   1.447
 3212SOL    HW110535   2.879   6.974   1.426
 3212SOL    HW210536   2.992   0.004   1.533
 3213SOL     OW10537   0.970   6.796   0.766
 3213SOL    HW110538   1.004   6.889   0.775
 3213SOL    HW210539   0.913   6.773   0.845
 3214SOL     OW10540   4.429   5.624   0.459
 3214SOL    HW110541   4.390   5.552   0.401
 3214SOL    HW210542   4.475   5.581   0.537
 3215SOL     OW10543   6.991   3.083   1.282
 3215SOL    HW110544   6.911   3.106   1.227
 3215SOL    HW210545   0.027   3.015   1.235
 3216SOL     OW10546   6.607   5.409   0.367
 3216SOL    HW110547   6.638   5.494   0.410
 3216SOL    HW210548   6.546   5.360   0.430
 3217SOL     OW10549   6.599   4.970   2.226
 3217SOL    HW110550   6.639   5.019   2.148
 3217SOL    HW210551   6.533   4.903   2.192
 3218SOL     OW10552   4.661   1.839   3.705
 3218SOL    HW110553   4.723   1.877   3.636
 3218SOL    HW210554   4.597   1.776   3.662
 3219SOL     OW10555   0.417   1.882   3.191
 3219SOL    HW110556   0.423   1.814   3.264
 3219SOL    HW210557   0.508   1.916   3.170
 3220SOL     OW10558   7.002   5.461   6.815
 3220SOL    HW110559   6.948   5.391   6.769
 3220SOL    HW210560   6.971   5.551   6.785
 3221SOL     OW10561   4.300   0.656   1.197
 3221SOL    HW110562   4.381   0.644   1.140
 3221SOL    HW210563   4.283   0.754   1.209
 3222SOL     OW10564   3.626   1.264   2.435
 3222SOL    HW110565   3.649   1.292   2.529
 3222SOL    HW210566   3.583   1.341   2.387
 3223SOL     OW10567   1.992   6.333   6.236
 3223SOL    HW110568   2.080   6.290   6.217
 3223SOL    HW210569   2.000   6.432   6.222
 3224SOL     OW10570   4.307   3.786   5.686
 3224SOL    HW110571   4.211   3.760   5.683
 3224SOL    HW210572   4.317   3.875   5.731
 3225SOL     OW10573   5.467   3.015   6.193
 3225SOL    HW110574   5.505   3.100   6.230
 3225SOL    HW210575   5.484   2.941   6.258
 3226SOL     OW10576   2.222   1.373   2.935
 3226SOL    HW110577   2.318   1.366   2.962
 3226SOL    HW210578   2.207   1.459   2.886
 3227SOL     OW10579   3.457   2.443   0.142
 3227SOL    HW110580   3.384   2.477   0.202
 3227SOL    HW210581   3.466   2.504   0.063
 3228SOL     OW10582   0.181   3.905   2.102
 3228SOL    HW110583   0.181   4.005   2.109
 3228SOL    HW210584   0.260   3.869   2.152
 3229SOL     OW10585   4.294   0.302   4.696
 3229SOL    HW110586   4.261   0.249   4.774
 3229SOL    HW210587   4.394   0.303   4.697
 3230SOL     OW10588   2.533   3.775   5.484
 3230SOL    HW110589   2.550   3.857   5.430
 3230SOL    HW210590   2.618   3.724   5.497
 3231SOL     OW10591   2.868   0.455   1.479
 3231SOL    HW110592   2.836   0.503   1.397
 3231SOL    HW210593   2.846   0.508   1.560
 3232SOL     OW10594   4.898   6.113   5.011
 3232SOL    HW110595   4.997   6.114   5.017
 3232SOL    HW210596   4.870   6.149   4.922
 3233SOL     OW10597   0.817   2.424   1.782
 3233SOL    HW110598   0.852   2.481   1.856
 3233SOL    HW210599   0.730   2.460   1.749
 3234SOL     OW10600   0.348   2.113   6.871
 3234SOL    HW110601   0.377   2.111   6.776
 3234SOL    HW210602   0.266   2.057   6.882
 3235SOL     OW10603   5.915   0.699   2.443
 3235SOL    HW110604   5.926   0.703   2.542
 3235SOL    HW210605   5.850   0.769   2.414
 3236SOL     OW10606   1.407   3.286   0.488
 3236SOL    HW110607   1.372   3.209   0.540
 3236SOL    HW210608   1.505   3.272   0.469
 3237SOL     OW10609   5.229   1.350   3.709
 3237SOL    HW110610   5.280   1.432   3.685
 3237SOL    HW210611   5.209   1.298   3.626
 3238SOL     OW10612   0.003   6.050   0.789
 3238SOL    HW110613   0.004   6.018   0.695
 3238SOL    HW210614   6.987   6.144   0.792
 3239SOL     OW10615   6.518   1.349   2.653
 3239SOL    HW110616   6.480   1.441   2.659
 3239SOL    HW210617   6.568   1.339   2.567
 3240SOL     OW10618   6.770   6.750   6.315
 3240SOL    HW110619   6.697   6.789   6.259
 3240SOL    HW210620   6.857   6.760   6.266
 3241SOL     OW10621   4.189   1.391   5.003
 3241SOL    HW110622   4.250   1.319   5.034
 3241SOL    HW210623   4.158   1.371   4.910
 3242SOL     OW10624   3.949   3.539   7.015
 3242SOL    HW110625   3.907   3.577   6.933
 3242SOL    HW210626   4.020   3.473   6.988
 3243SOL     OW10627   4.355   4.129   0.324
 3243SOL    HW110628   4.378   4.083   0.410
 3243SOL    HW210629   4.256   4.129   0.312
 3244SOL     OW10630   4.634   5.676   6.934
 3244SOL    HW110631   4.590   5.746   6.878
 3244SOL    HW210632   4.656   5.597   6.878
 3245SOL     OW10633   5.120   3.223   5.263
 3245SOL    HW110634   5.088   3.231   5.169
 3245SOL    HW210635   5.098   3.132   5.298
 3246SOL     OW10636   5.697   0.467   2.554
 3246SOL    HW110637   5.713   0.538   2.623
 3246SOL    HW210638   5.610   0.421   2.574
 3247SOL     OW10639   6.253   4.825   2.825
 3247SOL    HW110640   6.223   4.796   2.916
 3247SOL    HW210641   6.237   4.750   2.760
 3248SOL     OW10642   6.377   3.744   1.148
 3248SOL    HW110643   6.346   3.730   1.242
 3248SOL    HW210644   6.453   3.810   1.147
 3249SOL     OW10645   3.901   3.011   4.170
 3249SOL    HW110646   3.843   2.970   4.241
 3249SOL    HW210647   3.961   3.079   4.212
 3250SOL     OW10648   5.563   0.144   2.040
 3250SOL    HW110649   5.512   0.172   1.959
 3250SOL    HW210650   5.515   0.173   2.123
 3251SOL     OW10651   3.370   1.009   3.643
 3251SOL    HW110652   3.322   0.922   3.636
 3251SOL    HW210653   3.349   1.066   3.564
 3252SOL     OW10654   2.425   1.123   2.800
 3252SOL    HW110655   2.494   1.162   2.861
 3252SOL    HW210656   2.359   1.069   2.854
 3253SOL     OW10657   4.985   4.335   2.063
 3253SOL    HW110658   4.988   4.237   2.044
 3253SOL    HW210659   5.046   4.383   1.999
 3254SOL     OW10660   4.956   5.518   5.637
 3254SOL    HW110661   5.019   5.454   5.682
 3254SOL    HW210662   4.869   5.521   5.688
 3255SOL     OW10663   5.499   6.506   0.415
 3255SOL    HW110664   5.547   6.571   0.355
 3255SOL    HW210665   5.401   6.509   0.395
 3256SOL     OW10666   3.017   0.701   0.587
 3256SOL    HW110667   3.066   0.739   0.665
 3256SOL    HW210668   2.924   0.675   0.616
 3257SOL     OW10669   1.527   1.970   2.052
 3257SOL    HW110670   1.541   1.875   2.023
 3257SOL    HW210671   1.563   1.981   2.145
 3258SOL     OW10672   4.570   4.961   2.417
 3258SOL    HW110673   4.627   4.985   2.496
 3258SOL    HW210674   4.482   4.926   2.449
 3259SOL     OW10675   5.059   5.165   4.066
 3259SOL    HW110676   5.043   5.219   4.148
 3259SOL    HW210677   5.157   5.159   4.048
 3260SOL     OW10678   1.001   1.899   1.416
 3260SOL    HW110679   0.907   1.888   1.448
 3260SOL    HW210680   1.051   1.813   1.428
 3261SOL     OW10681   5.618   0.387   1.193
 3261SOL    HW110682   5.604   0.434   1.106
 3261SOL    HW210683   5.694   0.323   1.185
 3262SOL     OW10684   3.188   1.990   2.813
 3262SOL    HW110685   3.140   2.005   2.727
 3262SOL    HW210686   3.121   1.966   2.884
 3263SOL     OW10687   2.685   0.748   3.248
 3263SOL    HW110688   2.591   0.780   3.233
 3263SOL    HW210689   2.749   0.822   3.230
 3264SOL     OW10690   1.144   3.935   0.703
 3264SOL    HW110691   1.149   3.929   0.803
 3264SOL    HW210692   1.088   4.014   0.677
 3265SOL     OW10693   5.904   0.611   6.247
 3265SOL    HW110694   5.824   0.563   6.282
 3265SOL    HW210695   5.918   0.587   6.151
 3266SOL     OW10696   1.912   3.970   0.517
 3266SOL    HW110697   1.901   4.024   0.433
 3266SOL    HW210698   2.004   3.930   0.519
 3267SOL     OW10699   3.362   6.865   0.930
 3267SOL    HW110700   3.315   6.909   0.854
 3267SOL    HW210701   3.301   6.863   1.010
 3268SOL     OW10702   1.285   3.549   1.517
 3268SOL    HW110703   1.186   3.541   1.514
 3268SOL    HW210704   1.327   3.478   1.460
 3269SOL     OW10705   4.975   5.688   2.114
 3269SOL    HW110706   5.006   5.685   2.019
 3269SOL    HW210707   4.951   5.596   2.144
 3270SOL     OW10708   1.306   4.309   6.196
 3270SOL    HW110709   1.260   4.391   6.162
 3270SOL    HW210710   1.365   4.333   6.273
 3271SOL     OW10711   5.566   3.747   3.095
 3271SOL    HW110712   5.564   3.679   3.169
 3271SOL    HW210713   5.481   3.743   3.044
 3272SOL     OW10714   3.655   4.811   6.076
 3272SOL    HW110715   3.575   4.818   6.016
 3272SOL    HW210716   3.680   4.903   6.108
 3273SOL     OW10717   0.217   6.343   0.995
 3273SOL    HW110718   0.313   6.342   1.021
 3273SOL    HW210719   0.207   6.315   0.900
 3274SOL     OW10720   5.253   0.969   0.895
 3274SOL    HW110721   5.167   0.964   0.845
 3274SOL    HW210722   5.329   0.978   0.830
 3275SOL     OW10723   6.501   1.885   6.625
 3275SOL    HW110724   6.569   1.817   6.652
 3275SOL    HW210725   6.479   1.873   6.528
 3276SOL     OW10726   2.955   5.763   0.379
 3276SOL    HW110727   3.047   5.782   0.414
 3276SOL    HW210728   2.891   5.757   0.455
 3277SOL     OW10729   3.828   0.030   6.610
 3277SOL    HW110730   3.745   7.008   6.571
 3277SOL    HW210731   3.804   0.075   6.697
 3278SOL     OW10732   0.814   1.151   5.492
 3278SOL    HW110733   0.804   1.233   5.436
 3278SOL    HW210734   0.745   1.084   5.465
 3279SOL     OW10735   5.531   0.329   0.438
 3279SOL    HW110736   5.524   0.261   0.366
 3279SOL    HW210737   5.626   0.341   0.465
 3280SOL     OW10738   3.809   5.018   4.445
 3280SOL    HW110739   3.804   5.116   4.463
 3280SOL    HW210740   3.903   4.993   4.422
 3281SOL     OW10741   1.812   5.287   2.032
 3281SOL    HW110742   1.836   5.313   1.939
 3281SOL    HW210743   1.871   5.336   2.097
 3282SOL     OW10744   0.253   4.895   5.709
 3282SOL    HW110745   0.282   4.925   5.800
 3282SOL    HW210746   0.306   4.814   5.683
 3283SOL     OW10747   3.395   0.409   0.976
 3283SOL    HW110748   3.388   0.361   1.063
 3283SOL    HW210749   3.463   0.363   0.918
 3284SOL     OW10750   0.077   5.418   0.041
 3284SOL    HW110751   7.019   5.391   0.098
 3284SOL    HW210752   0.044   5.447   6.970
 3285SOL     OW10753   4.358   2.389   3.341
 3285SOL    HW110754   4.394   2.430   3.425
 3285SOL    HW210755   4.372   2.451   3.264
 3286SOL     OW10756   3.680   3.237   2.558
 3286SOL    HW110757   3.738   3.176   2.612
 3286SOL    HW210758   3.738   3.306   2.512
 3287SOL     OW10759   0.661   0.696   0.067
 3287SOL    HW110760   0.655   0.597   0.079
 3287SOL    HW210761   0.738   0.731   0.121
 3288SOL     OW10762   0.665   5.498   5.819
 3288SOL    HW110763   0.592   5.439   5.855
 3288SOL    HW210764   0.709   5.545   5.895
 3289SOL     OW10765   2.691   6.909   5.480
 3289SOL    HW110766   2.608   6.964   5.476
 3289SOL    HW210767   2.756   6.951   5.543
 3290SOL     OW10768   0.251   6.836   2.132
 3290SOL    HW110769   0.197   6.841   2.048
 3290SOL    HW210770   0.206   6.774   2.197
 3291SOL     OW10771   1.456   6.878   0.827
 3291SOL    HW110772   1.515   6.909   0.901
 3291SOL    HW210773   1.430   6.956   0.770
 3292SOL     OW10774   0.442   1.105   0.356
 3292SOL    HW110775   0.409   1.117   0.450
 3292SOL    HW210776   0.522   1.046   0.357
 3293SOL     OW10777   7.013   3.444   2.179
 3293SOL    HW110778   6.937   3.471   2.238
 3293SOL    HW210779   0.064   3.399   2.235
 3294SOL     OW10780   5.975   1.915   6.788
 3294SOL    HW110781   5.881   1.882   6.795
 3294SOL    HW210782   6.033   1.845   6.748
 3295SOL     OW10783   1.545   3.113   2.233
 3295SOL    HW110784   1.606   3.046   2.276
 3295SOL    HW210785   1.453   3.104   2.271
 3296SOL     OW10786   1.510   0.420   2.558
 3296SOL    HW110787   1.460   0.423   2.644
 3296SOL    HW210788   1.590   0.360   2.568
 3297SOL     OW10789   2.957   0.717   5.048
 3297SOL    HW110790   2.993   0.719   5.142
 3297SOL    HW210791   3.028   0.748   4.985
 3298SOL     OW10792   5.969   1.865   5.366
 3298SOL    HW110793   5.938   1.782   5.319
 3298SOL    HW210794   5.911   1.942   5.339
 3299SOL     OW10795   2.729   5.849   2.688
 3299SOL    HW110796   2.720   5.861   2.787
 3299SOL    HW210797   2.774   5.930   2.649
 3300SOL     OW10798   6.576   0.556   5.189
 3300SOL    HW110799   6.489   0.507   5.193
 3300SOL    HW210800   6.588   0.610   5.272
 3301SOL     OW10801   1.933   3.182   3.708
 3301SOL    HW110802   1.939   3.178   3.808
 3301SOL    HW210803   1.934   3.278   3.679
 3302SOL     OW10804   0.142   4.748   5.364
 3302SOL    HW110805   0.112   4.821   5.425
 3302SOL    HW210806   0.098   4.758   5.275
 3303SOL     OW10807   3.245   3.771   1.485
 3303SOL    HW110808   3.151   3.745   1.463
 3303SOL    HW210809   3.249   3.799   1.581
 3304SOL     OW10810   0.968   5.858   4.062
 3304SOL    HW110811   1.000   5.949   4.038
 3304SOL    HW210812   0.948   5.855   4.160
 3305SOL     OW10813   2.295   1.030   2.363
 3305SOL    HW110814   2.391   1.053   2.348
 3305SOL    HW210815   2.248   1.107   2.407
 3306SOL     OW10816   2.065   5.527   5.331
 3306SOL    HW110817   2.070   5.625   5.347
 3306SOL    HW210818   2.009   5.509   5.250
 3307SOL     OW10819   0.317   5.188   6.557
 3307SOL    HW110820   0.393   5.252   6.545
 3307SOL    HW210821   0.290   5.186   6.653
 3308SOL     OW10822   2.995   6.252   0.827
 3308SOL    HW110823   3.092   6.239   0.810
 3308SOL    HW210824   2.942   6.186   0.774
 3309SOL     OW10825   0.332   5.985   2.654
 3309SOL    HW110826   0.286   5.930   2.724
 3309SOL    HW210827   0.431   5.976   2.666
 3310SOL     OW10828   0.005   3.479   6.518
 3310SOL    HW110829   0.080   3.505   6.579
 3310SOL    HW210830   0.002   3.379   6.509
 3311SOL     OW10831   2.164   4.062   1.300
 3311SOL    HW110832   2.260   4.057   1.327
 3311SOL    HW210833   2.129   4.154   1.317
 3312SOL     OW10834   4.140   4.335   5.746
 3312SOL    HW110835   4.142   4.249   5.696
 3312SOL    HW210836   4.088   4.322   5.831
 3313SOL     OW10837   0.948   5.269   3.548
 3313SOL    HW110838   0.991   5.263   3.458
 3313SOL    HW210839   1.019   5.274   3.619
 3314SOL     OW10840   2.766   1.206   3.134
 3314SOL    HW110841   2.794   1.210   3.230
 3314SOL    HW210842   2.848   1.208   3.076
 3315SOL     OW10843   6.417   3.828   4.467
 3315SOL    HW110844   6.372   3.739   4.480
 3315SOL    HW210845   6.482   3.844   4.542
 3316SOL     OW10846   5.140   1.397   6.044
 3316SOL    HW110847   5.126   1.305   6.006
 3316SOL    HW210848   5.069   1.416   6.111
 3317SOL     OW10849   4.362   3.177   1.741
 3317SOL    HW110850   4.275   3.151   1.783
 3317SOL    HW210851   4.434   3.115   1.773
 3318SOL     OW10852   2.016   1.144   1.158
 3318SOL    HW110853   2.002   1.124   1.255
 3318SOL    HW210854   2.019   1.244   1.145
 3319SOL     OW10855   6.791   1.199   3.667
 3319SOL    HW110856   6.857   1.130   3.638
 3319SOL    HW210857   6.811   1.286   3.621
 3320SOL     OW10858   6.197   6.818   4.939
 3320SOL    HW110859   6.239   6.758   5.007
 3320SOL    HW210860   6.145   6.890   4.986
 3321SOL     OW10861   4.782   1.349   0.326
 3321SOL    HW110862   4.709   1.302   0.275
 3321SOL    HW210863   4.749   1.438   0.357
 3322SOL     OW10864   6.247   3.152   0.798
 3322SOL    HW110865   6.237   3.224   0.867
 3322SOL    HW210866   6.252   3.063   0.843
 3323SOL     OW10867   2.890   2.970   0.601
 3323SOL    HW110868   2.873   2.873   0.584
 3323SOL    HW210869   2.859   2.993   0.693
 3324SOL     OW10870   3.610   5.394   6.939
 3324SOL    HW110871   3.526   5.447   6.923
 3324SOL    HW210872   3.640   5.353   6.853
 3325SOL     OW10873   1.009   3.129   0.213
 3325SOL    HW110874   1.106   3.112   0.233
 3325SOL    HW210875   0.980   3.070   0.138
 3326SOL     OW10876   4.693   2.105   1.488
 3326SOL    HW110877   4.646   2.172   1.545
 3326SOL    HW210878   4.740   2.151   1.414
 3327SOL     OW10879   2.843   6.057   2.070
 3327SOL    HW110880   2.777   6.003   2.018
 3327SOL    HW210881   2.873   6.005   2.150
 3328SOL     OW10882   4.172   2.345   0.405
 3328SOL    HW110883   4.115   2.295   0.341
 3328SOL    HW210884   4.117   2.412   0.454
 3329SOL     OW10885   4.666   0.475   4.944
 3329SOL    HW110886   4.718   0.437   4.868
 3329SOL    HW210887   4.699   0.436   5.030
 3330SOL     OW10888   6.219   5.045   1.510
 3330SOL    HW110889   6.127   5.023   1.542
 3330SOL    HW210890   6.267   4.961   1.486
 3331SOL     OW10891   1.970   2.927   1.502
 3331SOL    HW110892   1.890   2.878   1.536
 3331SOL    HW210893   2.030   2.950   1.578
 3332SOL     OW10894   6.282   5.025   6.926
 3332SOL    HW110895   6.250   5.111   6.965
 3332SOL    HW210896   6.238   4.949   6.972
 3333SOL     OW10897   3.987   4.135   6.590
 3333SOL    HW110898   3.907   4.179   6.632
 3333SOL    HW210899   4.059   4.125   6.659
 3334SOL     OW10900   2.994   3.685   1.498
 3334SOL    HW110901   2.935   3.766   1.504
 3334SOL    HW210902   2.947   3.608   1.541
 3335SOL     OW10903   4.800   6.755   5.168
 3335SOL    HW110904   4.848   6.697   5.234
 3335SOL    HW210905   4.729   6.701   5.123
 3336SOL     OW10906   1.980   6.410   4.653
 3336SOL    HW110907   1.995   6.351   4.574
 3336SOL    HW210908   2.060   6.468   4.667
 3337SOL     OW10909   3.219   3.903   2.360
 3337SOL    HW110910   3.127   3.894   2.397
 3337SOL    HW210911   3.274   3.824   2.385
 3338SOL     OW10912   5.490   3.295   2.159
 3338SOL    HW110913   5.415   3.271   2.221
 3338SOL    HW210914   5.577   3.267   2.198
 3339SOL     OW10915   7.004   0.610   6.931
 3339SOL    HW110916   6.950   0.530   6.907
 3339SOL    HW210917   0.021   0.652   6.848
 3340SOL     OW10918   3.656   1.696   2.724
 3340SOL    HW110919   3.581   1.719   2.786
 3340SOL    HW210920   3.720   1.773   2.720
 3341SOL     OW10921   1.426   5.372   3.418
 3341SOL    HW110922   1.452   5.456   3.464
 3341SOL    HW210923   1.451   5.377   3.322
 3342SOL     OW10924   2.012   6.983   4.052
 3342SOL    HW110925   1.981   6.901   4.101
 3342SOL    HW210926   1.986   6.975   3.956
 3343SOL     OW10927   5.713   2.981   0.511
 3343SOL    HW110928   5.747   2.907   0.569
 3343SOL    HW210929   5.790   3.036   0.478
 3344SOL     OW10930   5.698   3.431   4.160
 3344SOL    HW110931   5.740   3.439   4.250
 3344SOL    HW210932   5.635   3.353   4.159
 3345SOL     OW10933   1.523   3.314   6.042
 3345SOL    HW110934   1.456   3.383   6.011
 3345SOL    HW210935   1.583   3.290   5.966
 3346SOL     OW10936   1.716   0.687   0.651
 3346SOL    HW110937   1.661   0.726   0.725
 3346SOL    HW210938   1.666   0.611   0.609
 3347SOL     OW10939   0.930   3.971   5.710
 3347SOL    HW110940   0.939   4.042   5.780
 3347SOL    HW210941   0.988   3.893   5.734
 3348SOL     OW10942   3.673   3.853   4.170
 3348SOL    HW110943   3.666   3.951   4.154
 3348SOL    HW210944   3.606   3.805   4.113
 3349SOL     OW10945   1.213   5.704   2.939
 3349SOL    HW110946   1.251   5.637   3.001
 3349SOL    HW210947   1.276   5.719   2.863
 3350SOL     OW10948   0.776   2.774   6.197
 3350SOL    HW110949   0.860   2.768   6.251
 3350SOL    HW210950   0.702   2.809   6.253
 3351SOL     OW10951   4.535   1.360   2.231
 3351SOL    HW110952   4.462   1.428   2.227
 3351SOL    HW210953   4.525   1.306   2.315
 3352SOL     OW10954   0.139   2.261   0.345
 3352SOL    HW110955   0.192   2.229   0.266
 3352SOL    HW210956   0.046   2.282   0.315
 3353SOL     OW10957   2.386   5.611   1.792
 3353SOL    HW110958   2.420   5.697   1.754
 3353SOL    HW210959   2.290   5.622   1.818
 3354SOL     OW10960   4.802   2.852   5.436
 3354SOL    HW110961   4.846   2.897   5.359
 3354SOL    HW210962   4.743   2.778   5.403
 3355SOL     OW10963   2.384   1.903   6.686
 3355SOL    HW110964   2.302   1.846   6.683
 3355SOL    HW210965   2.417   1.919   6.593
 3356SOL     OW10966   0.513   4.933   5.459
 3356SOL    HW110967   0.443   4.940   5.389
 3356SOL    HW210968   0.473   4.951   5.549
 3357SOL     OW10969   2.293   4.293   1.835
 3357SOL    HW110970   2.213   4.336   1.793
 3357SOL    HW210971   2.369   4.294   1.770
 3358SOL     OW10972   4.616   1.245   0.763
 3358SOL    HW110973   4.711   1.277   0.760
 3358SOL    HW210974   4.562   1.295   0.695
 3359SOL     OW10975   0.314   6.878   2.886
 3359SOL    HW110976   0.370   6.919   2.957
 3359SOL    HW210977   0.299   6.781   2.907
 3360SOL     OW10978   1.222   1.492   6.998
 3360SOL    HW110979   1.280   1.414   6.976
 3360SOL    HW210980   1.280   1.569   0.008
 3361SOL     OW10981   0.870   5.017   4.470
 3361SOL    HW110982   0.926   5.014   4.387
 3361SOL    HW210983   0.869   5.110   4.506
 3362SOL     OW10984   3.564   1.028   2.608
 3362SOL    HW110985   3.578   1.094   2.534
 3362SOL    HW210986   3.484   0.972   2.589
 3363SOL     OW10987   6.125   6.981   1.445
 3363SOL    HW110988   6.131   0.055   1.408
 3363SOL    HW210989   6.217   6.948   1.468
 3364SOL     OW10990   1.010   4.866   3.792
 3364SOL    HW110991   0.957   4.891   3.710
 3364SOL    HW210992   1.105   4.895   3.780
 3365SOL     OW10993   6.670   2.217   5.411
 3365SOL    HW110994   6.625   2.142   5.460
 3365SOL    HW210995   6.654   2.208   5.313
 3366SOL     OW10996   5.907   6.346   4.841
 3366SOL    HW110997   5.864   6.258   4.857
 3366SOL    HW210998   5.848   6.419   4.875
 3367SOL     OW10999   3.732   2.873   2.064
 3367SOL    HW111000   3.776   2.788   2.032
 3367SOL    HW211001   3.755   2.888   2.160
 3368SOL     OW11002   0.839   5.550   5.623
 3368SOL    HW111003   0.780   5.612   5.573
 3368SOL    HW211004   0.789   5.511   5.701
 3369SOL     OW11005   4.041   2.665   0.088
 3369SOL    HW111006   4.104   2.702   0.019
 3369SOL    HW211007   4.028   2.733   0.161
 3370SOL     OW11008   0.131   5.876   6.859
 3370SOL    HW111009   0.204   5.811   6.842
 3370SOL    HW211010   0.129   5.899   6.957
 3371SOL     OW11011   2.209   2.958   1.890
 3371SOL    HW111012   2.150   3.039   1.884
 3371SOL    HW211013   2.265   2.952   1.807
 3372SOL     OW11014   0.736   2.238   1.291
 3372SOL    HW111015   0.654   2.187   1.265
 3372SOL    HW211016   0.817   2.191   1.257
 3373SOL     OW11017   6.980   1.558   2.881
 3373SOL    HW111018   0.005   1.486   2.828
 3373SOL    HW211019   6.955   1.523   2.972
 3374SOL     OW11020   1.110   6.404   4.906
 3374SOL    HW111021   1.153   6.488   4.939
 3374SOL    HW211022   1.172   6.358   4.843
 3375SOL     OW11023   0.375   4.954   6.439
 3375SOL    HW111024   0.468   4.943   6.473
 3375SOL    HW211025   0.334   5.036   6.480
 3376SOL     OW11026   4.111   3.578   3.632
 3376SOL    HW111027   4.067   3.638   3.698
 3376SOL    HW211028   4.143   3.495   3.678
 3377SOL     OW11029   6.672   5.841   6.533
 3377SOL    HW111030   6.619   5.814   6.453
 3377SOL    HW211031   6.760   5.877   6.504
 3378SOL     OW11032   0.397   1.112   0.054
 3378SOL    HW111033   0.494   1.118   0.030
 3378SOL    HW211034   0.385   1.137   0.150
 3379SOL     OW11035   6.386   6.671   6.442
 3379SOL    HW111036   6.472   6.621   6.433
 3379SOL    HW211037   6.401   6.752   6.499
 3380SOL     OW11038   5.851   6.837   4.810
 3380SOL    HW111039   5.917   6.820   4.737
 3380SOL    HW211040   5.878   6.787   4.892
 3381SOL     OW11041   0.807   2.830   1.594
 3381SOL    HW111042   0.828   2.920   1.555
 3381SOL    HW211043   0.741   2.783   1.536
 3382SOL     OW11044   0.624   2.409   0.869
 3382SOL    HW111045   0.653   2.318   0.842
 3382SOL    HW211046   0.667   2.434   0.955
 3383SOL     OW11047   4.586   5.914   1.360
 3383SOL    HW111048   4.495   5.906   1.401
 3383SOL    HW211049   4.581   5.890   1.263
 3384SOL     OW11050   2.717   3.268   6.357
 3384SOL    HW111051   2.704   3.365   6.338
 3384SOL    HW211052   2.643   3.235   6.416
 3385SOL     OW11053   6.678   2.789   4.153
 3385SOL    HW111054   6.635   2.742   4.075
 3385SOL    HW211055   6.607   2.828   4.211
 3386SOL     OW11056   5.838   4.583   0.092
 3386SOL    HW111057   5.883   4.498   0.120
 3386SOL    HW211058   5.748   4.563   0.055
 3387SOL     OW11059   3.238   0.580   3.289
 3387SOL    HW111060   3.268   0.579   3.194
 3387SOL    HW211061   3.300   0.636   3.343
 3388SOL     OW11062   5.398   3.177   1.557
 3388SOL    HW111063   5.452   3.212   1.480
 3388SOL    HW211064   5.363   3.253   1.611
 3389SOL     OW11065   5.563   5.054   6.445
 3389SOL    HW111066   5.634   5.086   6.507
 3389SOL    HW211067   5.569   4.954   6.437
 3390SOL     OW11068   5.096   6.151   6.453
 3390SOL    HW111069   5.126   6.161   6.548
 3390SOL    HW211070   5.141   6.220   6.397
 3391SOL     OW11071   5.079   3.445   4.973
 3391SOL    HW111072   5.075   3.374   4.903
 3391SOL    HW211073   4.987   3.482   4.988
 3392SOL     OW11074   2.659   0.230   3.313
 3392SOL    HW111075   2.679   0.324   3.341
 3392SOL    HW211076   2.732   0.196   3.255
 3393SOL     OW11077   0.206   6.299   6.927
 3393SOL    HW111078   0.279   6.334   6.869
 3393SOL    HW211079   0.121   6.292   6.875
 3394SOL     OW11080   5.167   3.724   1.768
 3394SOL    HW111081   5.117   3.808   1.751
 3394SOL    HW211082   5.172   3.707   1.866
 3395SOL     OW11083   5.074   2.984   3.254
 3395SOL    HW111084   4.988   3.035   3.257
 3395SOL    HW211085   5.116   2.984   3.345
 3396SOL     OW11086   4.651   1.991   3.096
 3396SOL    HW111087   4.653   2.013   3.193
 3396SOL    HW211088   4.622   1.896   3.083
 3397SOL     OW11089   2.913   0.445   5.382
 3397SOL    HW111090   2.820   0.439   5.347
 3397SOL    HW211091   2.943   0.541   5.382
 3398SOL     OW11092   0.853   6.838   4.941
 3398SOL    HW111093   0.856   6.744   4.907
 3398SOL    HW211094   0.946   6.872   4.954
 3399SOL     OW11095   5.686   4.131   3.785
 3399SOL    HW111096   5.626   4.168   3.714
 3399SOL    HW211097   5.780   4.160   3.767
 3400SOL     OW11098   4.668   3.156   5.761
 3400SOL    HW111099   4.601   3.225   5.735
 3400SOL    HW211100   4.702   3.109   5.679
 3401SOL     OW11101   0.284   2.904   1.207
 3401SOL    HW111102   0.266   2.987   1.154
 3401SOL    HW211103   0.251   2.824   1.157
 3402SOL     OW11104   3.896   5.692   6.950
 3402SOL    HW111105   3.886   5.691   0.030
 3402SOL    HW211106   3.814   5.733   6.909
 3403SOL     OW11107   3.376   5.570   4.833
 3403SOL    HW111108   3.468   5.609   4.827
 3403SOL    HW211109   3.332   5.574   4.744
 3404SOL     OW11110   4.745   1.095   6.998
 3404SOL    HW111111   4.783   1.103   6.906
 3404SOL    HW211112   4.801   1.146   0.043
 3405SOL     OW11113   6.791   3.792   4.846
 3405SOL    HW111114   6.720   3.748   4.900
 3405SOL    HW211115   6.830   3.868   4.898
 3406SOL     OW11116   1.281   4.321   1.890
 3406SOL    HW111117   1.237   4.409   1.872
 3406SOL    HW211118   1.230   4.272   1.960
 3407SOL     OW11119   1.541   4.856   6.368
 3407SOL    HW111120   1.562   4.871   6.465
 3407SOL    HW211121   1.620   4.882   6.313
 3408SOL     OW11122   5.027   4.018   4.907
 3408SOL    HW111123   4.974   3.999   4.824
 3408SOL    HW211124   5.042   3.933   4.958
 3409SOL     OW11125   3.319   6.818   6.226
 3409SOL    HW111126   3.245   6.750   6.226
 3409SOL    HW211127   3.352   6.831   6.319
 3410SOL     OW11128   6.415   6.648   1.122
 3410SOL    HW111129   6.358   6.718   1.080
 3410SOL    HW211130   6.377   6.620   1.209
 3411SOL     OW11131   0.505   3.111   1.841
 3411SOL    HW111132   0.591   3.161   1.851
 3411SOL    HW211133   0.506   3.031   1.901
 3412SOL     OW11134   4.440   2.833   0.578
 3412SOL    HW111135   4.438   2.846   0.677
 3412SOL    HW211136   4.359   2.875   0.537
 3413SOL     OW11137   5.949   1.405   0.840
 3413SOL    HW111138   5.970   1.454   0.756
 3413SOL    HW211139   6.018   1.335   0.857
 3414SOL     OW11140   3.878   1.093   5.365
 3414SOL    HW111141   3.914   1.027   5.298
 3414SOL    HW211142   3.947   1.162   5.384
 3415SOL     OW11143   1.894   3.696   4.916
 3415SOL    HW111144   1.850   3.785   4.904
 3415SOL    HW211145   1.940   3.670   4.831
 3416SOL     OW11146   6.872   5.612   0.972
 3416SOL    HW111147   6.911   5.526   1.003
 3416SOL    HW211148   6.779   5.596   0.938
 3417SOL     OW11149   0.513   6.577   2.805
 3417SOL    HW111150   0.466   6.581   2.893
 3417SOL    HW211151   0.593   6.517   2.812
 3418SOL     OW11152   3.247   6.950   3.657
 3418SOL    HW111153   3.193   0.015   3.656
 3418SOL    HW211154   3.271   6.925   3.564
 3419SOL     OW11155   2.826   6.305   5.079
 3419SOL    HW111156   2.903   6.363   5.053
 3419SOL    HW211157   2.745   6.362   5.092
 3420SOL     OW11158   5.723   3.091   4.510
 3420SOL    HW111159   5.644   3.152   4.504
 3420SOL    HW211160   5.693   2.996   4.496
 3421SOL     OW11161   5.154   0.947   4.971
 3421SOL    HW111162   5.233   0.941   4.910
 3421SOL    HW211163   5.149   0.864   5.027
 3422SOL     OW11164   1.998   0.621   0.962
 3422SOL    HW111165   1.935   0.597   1.037
 3422SOL    HW211166   2.075   0.672   1.000
 3423SOL     OW11167   0.093   4.692   6.051
 3423SOL    HW111168   0.067   4.693   5.954
 3423SOL    HW211169   0.156   4.617   6.068
 3424SOL     OW11170   2.759   6.665   1.372
 3424SOL    HW111171   2.857   6.645   1.366
 3424SOL    HW211172   2.717   6.606   1.441
 3425SOL     OW11173   5.768   5.058   2.890
 3425SOL    HW111174   5.818   5.141   2.917
 3425SOL    HW211175   5.766   4.994   2.966
 3426SOL     OW11176   3.700   2.623   0.494
 3426SOL    HW111177   3.644   2.677   0.431
 3426SOL    HW211178   3.709   2.672   0.581
 3427SOL     OW11179   6.541   0.656   0.217
 3427SOL    HW111180   6.608   0.711   0.266
 3427SOL    HW211181   6.452   0.664   0.262
 3428SOL     OW11182   2.050   5.577   6.943
 3428SOL    HW111183   2.060   5.529   6.856
 3428SOL    HW211184   1.991   5.523   7.004
 3429SOL     OW11185   0.899   1.700   0.658
 3429SOL    HW111186   0.849   1.624   0.617
 3429SOL    HW211187   0.988   1.709   0.613
 3430SOL     OW11188   1.541   6.773   5.361
 3430SOL    HW111189   1.456   6.732   5.396
 3430SOL    HW211190   1.526   6.871   5.344
 3431SOL     OW11191   1.224   6.863   0.983
 3431SOL    HW111192   1.302   6.848   0.923
 3431SOL    HW211193   1.229   6.802   1.062
 3432SOL     OW11194   1.581   3.016   0.081
 3432SOL    HW111195   1.656   2.991   0.141
 3432SOL    HW211196   1.588   3.113   0.057
 3433SOL     OW11197   1.342   0.174   5.752
 3433SOL    HW111198   1.432   0.218   5.750
 3433SOL    HW211199   1.312   0.157   5.658
 3434SOL     OW11200   4.206   1.314   1.355
 3434SOL    HW111201   4.114   1.312   1.392
 3434SOL    HW211202   4.203   1.295   1.257
 3435SOL     OW11203   0.261   1.439   0.734
 3435SOL    HW111204   0.300   1.358   0.691
 3435SOL    HW211205   0.204   1.413   0.811
 3436SOL     OW11206   4.158   5.977   6.652
 3436SOL    HW111207   4.101   5.947   6.729
 3436SOL    HW211208   4.206   5.898   6.614
 3437SOL     OW11209   2.279   0.494   5.903
 3437SOL    HW111210   2.256   0.421   5.839
 3437SOL    HW211211   2.378   0.505   5.908
 3438SOL     OW11212   1.162   2.859   0.523
 3438SOL    HW111213   1.159   2.921   0.444
 3438SOL    HW211214   1.128   2.769   0.496
 3439SOL     OW11215   2.359   6.085   4.717
 3439SOL    HW111216   2.295   6.106   4.644
 3439SOL    HW211217   2.452   6.080   4.680
 3440SOL     OW11218   3.153   3.490   1.283
 3440SOL    HW111219   3.064   3.499   1.328
 3440SOL    HW211220   3.195   3.403   1.308
 3441SOL     OW11221   5.237   6.385   5.087
 3441SOL    HW111222   5.180   6.452   5.038
 3441SOL    HW211223   5.333   6.409   5.076
 3442SOL     OW11224   2.278   4.955   2.081
 3442SOL    HW111225   2.342   5.018   2.124
 3442SOL    HW211226   2.185   4.988   2.094
 3443SOL     OW11227   4.779   6.101   1.433
 3443SOL    HW111228   4.705   6.044   1.398
 3443SOL    HW211229   4.747   6.196   1.441
 3444SOL     OW11230   4.956   5.233   0.351
 3444SOL    HW111231   5.007   5.236   0.438
 3444SOL    HW211232   4.956   5.323   0.309
 3445SOL     OW11233   6.471   5.437   3.376
 3445SOL    HW111234   6.460   5.536   3.378
 3445SOL    HW211235   6.505   5.410   3.286
 3446SOL     OW11236   6.258   0.837   2.943
 3446SOL    HW111237   6.202   0.890   2.879
 3446SOL    HW211238   6.326   0.897   2.985
 3447SOL     OW11239   6.143   5.394   0.817
 3447SOL    HW111240   6.132   5.294   0.814
 3447SOL    HW211241   6.226   5.420   0.768
 3448SOL     OW11242   3.392   0.350   0.429
 3448SOL    HW111243   3.473   0.410   0.432
 3448SOL    HW211244   3.310   0.406   0.442
 3449SOL     OW11245   5.687   6.507   4.250
 3449SOL    HW111246   5.609   6.569   4.256
 3449SOL    HW211247   5.691   6.467   4.158
 3450SOL     OW11248   6.780   2.647   6.361
 3450SOL    HW111249   6.849   2.575   6.365
 3450SOL    HW211250   6.695   2.614   6.401
 3451SOL     OW11251   2.110   5.937   1.190
 3451SOL    HW111252   2.163   5.972   1.267
 3451SOL    HW211253   2.164   5.869   1.140
 3452SOL     OW11254   6.259   0.827   6.017
 3452SOL    HW111255   6.249   0.842   5.919
 3452SOL    HW211256   6.168   0.820   6.059
 3453SOL     OW11257   6.920   5.736   6.775
 3453SOL    HW111258   7.000   5.794   6.790
 3453SOL    HW211259   6.838   5.784   6.807
 3454SOL     OW11260   1.005   2.455   5.472
 3454SOL    HW111261   0.919   2.445   5.522
 3454SOL    HW211262   1.080   2.471   5.536
 3455SOL     OW11263   2.702   2.246   4.682
 3455SOL    HW111264   2.672   2.153   4.662
 3455SOL    HW211265   2.727   2.292   4.596
 3456SOL     OW11266   5.801   5.728   2.119
 3456SOL    HW111267   5.813   5.743   2.217
 3456SOL    HW211268   5.812   5.631   2.099
 3457SOL     OW11269   2.913   5.075   3.168
 3457SOL    HW111270   2.956   5.010   3.106
 3457SOL    HW211271   2.851   5.026   3.230
 3458SOL     OW11272   4.884   0.724   2.133
 3458SOL    HW111273   4.892   0.643   2.192
 3458SOL    HW211274   4.905   0.806   2.186
 3459SOL     OW11275   5.382   3.200   3.275
 3459SOL    HW111276   5.350   3.191   3.369
 3459SOL    HW211277   5.479   3.175   3.270
 3460SOL     OW11278   2.234   3.287   0.013
 3460SOL    HW111279   2.193   3.239   6.954
 3460SOL    HW211280   2.326   3.317   7.009
 3461SOL     OW11281   4.845   5.129   4.932
 3461SOL    HW111282   4.775   5.146   4.863
 3461SOL    HW211283   4.928   5.096   4.889
 3462SOL     OW11284   0.188   4.098   3.264
 3462SOL    HW111285   0.128   4.127   3.189
 3462SOL    HW211286   0.279   4.076   3.228
 3463SOL     OW11287   1.296   3.950   2.404
 3463SOL    HW111288   1.269   4.045   2.390
 3463SOL    HW211289   1.355   3.944   2.484
 3464SOL     OW11290   6.465   3.954   6.432
 3464SOL    HW111291   6.511   3.976   6.346
 3464SOL    HW211292   6.387   3.893   6.414
 3465SOL     OW11293   1.690   2.279   2.289
 3465SOL    HW111294   1.637   2.226   2.354
 3465SOL    HW211295   1.631   2.310   2.214
 3466SOL     OW11296   0.186   4.562   0.363
 3466SOL    HW111297   0.230   4.598   0.445
 3466SOL    HW211298   0.253   4.512   0.308
 3467SOL     OW11299   1.668   2.733   0.264
 3467SOL    HW111300   1.741   2.761   0.326
 3467SOL    HW211301   1.579   2.754   0.306
 3468SOL     OW11302   5.066   6.749   2.778
 3468SOL    HW111303   5.131   6.730   2.851
 3468SOL    HW211304   5.111   6.736   2.689
 3469SOL     OW11305   5.335   0.382   2.484
 3469SOL    HW111306   5.301   0.439   2.559
 3469SOL    HW211307   5.368   0.295   2.521
 3470SOL     OW11308   6.069   3.535   1.157
 3470SOL    HW111309   5.969   3.526   1.159
 3470SOL    HW211310   6.096   3.620   1.201
 3471SOL     OW11311   4.089   5.211   4.440
 3471SOL    HW111312   4.049   5.290   4.486
 3471SOL    HW211313   4.060   5.127   4.488
 3472SOL     OW11314   2.611   0.357   2.414
 3472SOL    HW111315   2.533   0.397   2.462
 3472SOL    HW211316   2.654   0.426   2.356
 3473SOL     OW11317   6.947   2.192   1.254
 3473SOL    HW111318   6.978   2.254   1.326
 3473SOL    HW211319   7.011   2.116   1.246
 3474SOL     OW11320   1.396   4.788   1.566
 3474SOL    HW111321   1.426   4.698   1.534
 3474SOL    HW211322   1.455   4.818   1.641
 3475SOL     OW11323   0.731   4.788   4.427
 3475SOL    HW111324   0.778   4.701   4.412
 3475SOL    HW211325   0.793   4.851   4.473
 3476SOL     OW11326   2.930   1.226   3.342
 3476SOL    HW111327   2.987   1.187   3.415
 3476SOL    HW211328   2.972   1.311   3.309
 3477SOL     OW11329   2.854   5.361   1.071
 3477SOL    HW111330   2.775   5.365   1.010
 3477SOL    HW211331   2.870   5.267   1.100
 3478SOL     OW11332   2.684   5.575   5.124
 3478SOL    HW111333   2.620   5.511   5.082
 3478SOL    HW211334   2.684   5.661   5.072
 3479SOL     OW11335   1.659   0.597   2.881
 3479SOL    HW111336   1.690   0.508   2.915
 3479SOL    HW211337   1.635   0.655   2.958
 3480SOL     OW11338   0.459   0.029   5.225
 3480SOL    HW111339   0.512   6.989   5.165
 3480SOL    HW211340   0.418   6.994   5.299
 3481SOL     OW11341   4.734   0.515   0.551
 3481SOL    HW111342   4.806   0.452   0.523
 3481SOL    HW211343   4.648   0.466   0.561
 3482SOL     OW11344   5.336   1.249   1.639
 3482SOL    HW111345   5.422   1.256   1.689
 3482SOL    HW211346   5.339   1.170   1.578
 3483SOL     OW11347   4.459   1.733   1.182
 3483SOL    HW111348   4.373   1.723   1.131
 3483SOL    HW211349   4.441   1.783   1.267
 3484SOL     OW11350   1.293   3.790   0.309
 3484SOL    HW111351   1.305   3.845   0.226
 3484SOL    HW211352   1.367   3.723   0.316
 3485SOL     OW11353   1.805   1.425   4.864
 3485SOL    HW111354   1.775   1.353   4.927
 3485SOL    HW211355   1.890   1.465   4.896
 3486SOL     OW11356   2.954   0.893   2.907
 3486SOL    HW111357   3.037   0.848   2.872
 3486SOL    HW211358   2.892   0.823   2.943
 3487SOL     OW11359   5.369   2.878   5.398
 3487SOL    HW111360   5.293   2.843   5.342
 3487SOL    HW211361   5.367   2.835   5.488
 3488SOL     OW11362   6.348   1.914   4.487
 3488SOL    HW111363   6.370   1.855   4.565
 3488SOL    HW211364   6.263   1.883   4.445
 3489SOL     OW11365   3.644   0.118   1.355
 3489SOL    HW111366   3.566   0.125   1.418
 3489SOL    HW211367   3.729   0.114   1.408
 3490SOL     OW11368   4.282   4.297   0.101
 3490SOL    HW111369   4.220   4.234   0.053
 3490SOL    HW211370   4.332   4.246   0.171
 3491SOL     OW11371   4.853   2.489   4.950
 3491SOL    HW111372   4.784   2.514   5.017
 3491SOL    HW211373   4.926   2.556   4.950
 3492SOL     OW11374   0.398   5.040   1.135
 3492SOL    HW111375   0.484   5.068   1.091
 3492SOL    HW211376   0.419   4.978   1.210
 3493SOL     OW11377   5.625   4.487   6.656
 3493SOL    HW111378   5.685   4.508   6.579
 3493SOL    HW211379   5.556   4.421   6.628
 3494SOL     OW11380   4.023   0.579   1.197
 3494SOL    HW111381   3.969   0.651   1.240
 3494SOL    HW211382   4.120   0.594   1.218
 3495SOL     OW11383   5.423   5.359   3.162
 3495SOL    HW111384   5.395   5.402   3.076
 3495SOL    HW211385   5.481   5.422   3.213
 3496SOL     OW11386   6.532   4.461   0.752
 3496SOL    HW111387   6.528   4.370   0.792
 3496SOL    HW211388   6.593   4.460   0.672
 3497SOL     OW11389   3.650   0.812   3.579
 3497SOL    HW111390   3.734   0.834   3.530
 3497SOL    HW211391   3.624   0.888   3.637
 3498SOL     OW11392   2.556   2.214   1.007
 3498SOL    HW111393   2.520   2.172   1.090
 3498SOL    HW211394   2.573   2.143   0.939
 3499SOL     OW11395   4.869   3.244   4.498
 3499SOL    HW111396   4.890   3.339   4.518
 3499SOL    HW211397   4.841   3.198   4.583
 3500SOL     OW11398   1.454   3.364   4.673
 3500SOL    HW111399   1.554   3.363   4.662
 3500SOL    HW211400   1.428   3.435   4.738
 3501SOL     OW11401   1.948   5.905   4.731
 3501SOL    HW111402   1.996   5.993   4.731
 3501SOL    HW211403   1.946   5.868   4.638
 3502SOL     OW11404   6.351   2.715   2.515
 3502SOL    HW111405   6.440   2.759   2.498
 3502SOL    HW211406   6.361   2.616   2.507
 3503SOL     OW11407   6.658   6.280   4.625
 3503SOL    HW111408   6.604   6.360   4.601
 3503SOL    HW211409   6.601   6.213   4.671
 3504SOL     OW11410   1.777   1.955   1.478
 3504SOL    HW111411   1.763   2.037   1.534
 3504SOL    HW211412   1.867   1.960   1.435
 3505SOL     OW11413   5.605   4.869   5.117
 3505SOL    HW111414   5.510   4.837   5.116
 3505SOL    HW211415   5.653   4.828   5.194
 3506SOL     OW11416   5.233   5.191   6.005
 3506SOL    HW111417   5.291   5.273   6.006
 3506SOL    HW211418   5.168   5.195   6.081
 3507SOL     OW11419   1.541   1.189   0.436
 3507SOL    HW111420   1.509   1.181   0.530
 3507SOL    HW211421   1.469   1.158   0.373
 3508SOL     OW11422   3.263   2.572   6.125
 3508SOL    HW111423   3.302   2.561   6.034
 3508SOL    HW211424   3.206   2.493   6.148
 3509SOL     OW11425   6.193   0.177   5.622
 3509SOL    HW111426   6.167   0.239   5.696
 3509SOL    HW211427   6.292   0.175   5.613
 3510SOL     OW11428   1.656   2.653   2.203
 3510SOL    HW111429   1.558   2.671   2.191
 3510SOL    HW211430   1.672   2.554   2.211
 3511SOL     OW11431   3.041   5.215   0.631
 3511SOL    HW111432   2.973   5.142   0.626
 3511SOL    HW211433   3.125   5.187   0.585
 3512SOL     OW11434   0.584   4.986   0.663
 3512SOL    HW111435   0.592   4.887   0.672
 3512SOL    HW211436   0.566   5.010   0.568
 3513SOL     OW11437   6.526   3.364   0.771
 3513SOL    HW111438   6.482   3.413   0.846
 3513SOL    HW211439   6.563   3.277   0.804
 3514SOL     OW11440   1.083   1.588   2.025
 3514SOL    HW111441   1.069   1.633   1.937
 3514SOL    HW211442   1.164   1.530   2.021
 3515SOL     OW11443   4.938   6.161   3.157
 3515SOL    HW111444   4.938   6.207   3.068
 3515SOL    HW211445   5.006   6.088   3.157
 3516SOL     OW11446   4.941   0.011   1.015
 3516SOL    HW111447   4.953   7.007   0.918
 3516SOL    HW211448   4.965   6.951   1.071
 3517SOL     OW11449   1.095   2.340   1.222
 3517SOL    HW111450   1.093   2.284   1.139
 3517SOL    HW211451   1.076   2.282   1.302
 3518SOL     OW11452   5.789   3.644   4.567
 3518SOL    HW111453   5.698   3.676   4.541
 3518SOL    HW211454   5.853   3.721   4.566
 3519SOL     OW11455   1.148   1.081   6.050
 3519SOL    HW111456   1.112   1.129   6.130
 3519SOL    HW211457   1.101   1.113   5.967
 3520SOL     OW11458   3.141   5.024   6.321
 3520SOL    HW111459   3.218   4.965   6.345
 3520SOL    HW211460   3.133   5.029   6.221
 3521SOL     OW11461   5.305   3.114   6.607
 3521SOL    HW111462   5.235   3.044   6.589
 3521SOL    HW211463   5.261   3.200   6.630
 3522SOL     OW11464   6.248   4.253   1.891
 3522SOL    HW111465   6.198   4.298   1.965
 3522SOL    HW211466   6.221   4.157   1.884
 3523SOL     OW11467   3.046   4.874   5.919
 3523SOL    HW111468   2.947   4.857   5.913
 3523SOL    HW211469   3.079   4.847   6.009
 3524SOL     OW11470   3.671   1.012   1.078
 3524SOL    HW111471   3.638   1.071   1.005
 3524SOL    HW211472   3.612   1.022   1.158
 3525SOL     OW11473   1.186   4.228   2.378
 3525SOL    HW111474   1.109   4.273   2.333
 3525SOL    HW211475   1.268   4.282   2.366
 3526SOL     OW11476   2.533   6.055   4.184
 3526SOL    HW111477   2.572   6.050   4.092
 3526SOL    HW211478   2.540   6.149   4.218
 3527SOL     OW11479   6.333   3.072   6.045
 3527SOL    HW111480   6.392   3.149   6.071
 3527SOL    HW211481   6.383   3.012   5.983
 3528SOL     OW11482   0.441   4.792   3.989
 3528SOL    HW111483   0.436   4.717   4.055
 3528SOL    HW211484   0.537   4.819   3.976
 3529SOL     OW11485   4.599   7.016   0.118
 3529SOL    HW111486   4.576   0.057   0.041
 3529SOL    HW211487   4.520   6.961   0.142
 3530SOL     OW11488   1.771   5.096   3.585
 3530SOL    HW111489   1.715   5.061   3.510
 3530SOL    HW211490   1.811   5.020   3.636
 3531SOL     OW11491   4.828   3.536   0.990
 3531SOL    HW111492   4.740   3.579   0.970
 3531SOL    HW211493   4.829   3.443   0.952
 3532SOL     OW11494   2.622   1.036   1.441
 3532SOL    HW111495   2.669   1.009   1.525
 3532SOL    HW211496   2.650   1.128   1.414
 3533SOL     OW11497   1.834   1.643   2.586
 3533SOL    HW111498   1.890   1.718   2.549
 3533SOL    HW211499   1.743   1.645   2.543
 3534SOL     OW11500   5.407   1.110   5.194
 3534SOL    HW111501   5.497   1.130   5.156
 3534SOL    HW211502   5.385   1.013   5.177
 3535SOL     OW11503   0.952   5.523   0.309
 3535SOL    HW111504   0.927   5.602   0.254
 3535SOL    HW211505   0.877   5.457   0.308
 3536SOL     OW11506   2.493   2.148   4.104
 3536SOL    HW111507   2.548   2.094   4.041
 3536SOL    HW211508   2.443   2.087   4.166
 3537SOL     OW11509   2.838   5.023   0.640
 3537SOL    HW111510   2.773   5.074   0.584
 3537SOL    HW211511   2.788   4.974   0.712
 3538SOL     OW11512   1.053   0.560   5.792
 3538SOL    HW111513   1.070   0.476   5.843
 3538SOL    HW211514   1.011   0.628   5.852
 3539SOL     OW11515   5.877   3.854   5.947
 3539SOL    HW111516   5.955   3.872   5.887
 3539SOL    HW211517   5.900   3.882   6.040
 3540SOL     OW11518   1.799   2.503   5.951
 3540SOL    HW111519   1.746   2.419   5.958
 3540SOL    HW211520   1.799   2.535   5.856
 3541SOL     OW11521   2.118   3.171   6.831
 3541SOL    HW111522   2.024   3.176   6.864
 3541SOL    HW211523   2.132   3.085   6.783
 3542SOL     OW11524   0.725   4.542   1.968
 3542SOL    HW111525   0.683   4.451   1.972
 3542SOL    HW211526   0.739   4.576   2.061
 3543SOL     OW11527   0.908   3.705   5.551
 3543SOL    HW111528   0.932   3.700   5.454
 3543SOL    HW211529   0.827   3.761   5.562
 3544SOL     OW11530   2.694   4.962   6.542
 3544SOL    HW111531   2.669   5.057   6.525
 3544SOL    HW211532   2.779   4.940   6.496
 3545SOL     OW11533   4.137   5.011   0.146
 3545SOL    HW111534   4.098   5.102   0.160
 3545SOL    HW211535   4.070   4.952   0.100
 3546SOL     OW11536   0.462   4.683   2.985
 3546SOL    HW111537   0.542   4.727   2.944
 3546SOL    HW211538   0.482   4.586   3.001
 3547SOL     OW11539   6.059   5.210   4.961
 3547SOL    HW111540   6.053   5.175   4.867
 3547SOL    HW211541   6.154   5.236   4.981
 3548SOL     OW11542   4.953   0.385   5.791
 3548SOL    HW111543   5.033   0.327   5.808
 3548SOL    HW211544   4.983   0.480   5.784
 3549SOL     OW11545   0.048   5.148   5.915
 3549SOL    HW111546   0.033   5.202   5.997
 3549SOL    HW211547   7.001   5.174   5.845
 3550SOL     OW11548   5.835   2.911   3.872
 3550SOL    HW111549   5.880   2.897   3.784
 3550SOL    HW211550   5.762   2.843   3.883
 3551SOL     OW11551   3.505   2.099   3.182
 3551SOL    HW111552   3.469   2.104   3.276
 3551SOL    HW211553   3.433   2.122   3.117
 3552SOL     OW11554   6.200   6.693   1.734
 3552SOL    HW111555   6.124   6.731   1.681
 3552SOL    HW211556   6.188   6.594   1.743
 3553SOL     OW11557   4.470   5.201   0.569
 3553SOL    HW111558   4.438   5.149   0.490
 3553SOL    HW211559   4.530   5.275   0.539
 3554SOL     OW11560   4.430   1.277   0.961
 3554SOL    HW111561   4.483   1.269   0.876
 3554SOL    HW211562   4.481   1.333   1.026
 3555SOL     OW11563   0.313   4.003   4.352
 3555SOL    HW111564   0.245   4.035   4.287
 3555SOL    HW211565   0.371   3.934   4.309
 3556SOL     OW11566   4.223   1.049   4.538
 3556SOL    HW111567   4.157   1.120   4.512
 3556SOL    HW211568   4.188   0.998   4.616
 3557SOL     OW11569   0.766   0.968   4.154
 3557SOL    HW111570   0.725   0.970   4.245
 3557SOL    HW211571   0.728   0.892   4.101
 3558SOL     OW11572   1.519   6.365   2.440
 3558SOL    HW111573   1.555   6.426   2.370
 3558SOL    HW211574   1.595   6.327   2.493
 3559SOL     OW11575   0.715   6.571   5.307
 3559SOL    HW111576   0.670   6.646   5.355
 3559SOL    HW211577   0.718   6.491   5.367
 3560SOL     OW11578   1.857   5.655   2.722
 3560SOL    HW111579   1.947   5.635   2.761
 3560SOL    HW211580   1.786   5.620   2.783
 3561SOL     OW11581   4.418   4.275   5.378
 3561SOL    HW111582   4.371   4.253   5.293
 3561SOL    HW211583   4.406   4.372   5.400
 3562SOL     OW11584   3.554   1.199   2.869
 3562SOL    HW111585   3.643   1.155   2.857
 3562SOL    HW211586   3.543   1.226   2.965
 3563SOL     OW11587   6.461   2.311   0.605
 3563SOL    HW111588   6.548   2.329   0.558
 3563SOL    HW211589   6.397   2.269   0.541
 3564SOL     OW11590   1.317   4.616   3.145
 3564SOL    HW111591   1.281   4.526   3.169
 3564SOL    HW211592   1.253   4.663   3.084
 3565SOL     OW11593   2.980   6.417   4.739
 3565SOL    HW111594   2.947   6.328   4.708
 3565SOL    HW211595   3.015   6.468   4.660
 3566SOL     OW11596   6.723   3.520   6.057
 3566SOL    HW111597   6.673   3.598   6.095
 3566SOL    HW211598   6.821   3.534   6.069
 3567SOL     OW11599   0.554   2.031   5.948
 3567SOL    HW111600   0.570   2.107   6.012
 3567SOL    HW211601   0.531   1.949   6.000
 3568SOL     OW11602   4.693   4.381   3.936
 3568SOL    HW111603   4.712   4.417   3.844
 3568SOL    HW211604   4.619   4.434   3.977
 3569SOL     OW11605   2.490   1.559   6.236
 3569SOL    HW111606   2.589   1.562   6.220
 3569SOL    HW211607   2.471   1.497   6.313
 3570SOL     OW11608   5.475   0.793   5.681
 3570SOL    HW111609   5.411   0.858   5.638
 3570SOL    HW211610   5.440   0.700   5.670
 3571SOL     OW11611   0.609   5.124   4.913
 3571SOL    HW111612   0.625   5.185   4.835
 3571SOL    HW211613   0.633   5.172   4.998
 3572SOL     OW11614   5.809   3.572   3.025
 3572SOL    HW111615   5.758   3.495   3.063
 3572SOL    HW211616   5.746   3.634   2.979
 3573SOL     OW11617   0.484   5.708   3.381
 3573SOL    HW111618   0.438   5.639   3.325
 3573SOL    HW211619   0.549   5.663   3.442
 3574SOL     OW11620   0.648   3.801   0.624
 3574SOL    HW111621   0.697   3.768   0.705
 3574SOL    HW211622   0.639   3.900   0.629
 3575SOL     OW11623   5.104   5.137   2.745
 3575SOL    HW111624   5.111   5.233   2.771
 3575SOL    HW211625   5.013   5.119   2.706
 3576SOL     OW11626   7.015   2.033   5.916
 3576SOL    HW111627   6.956   1.961   5.954
 3576SOL    HW211628   0.018   2.011   5.822
 3577SOL     OW11629   1.610   1.834   6.149
 3577SOL    HW111630   1.675   1.910   6.141
 3577SOL    HW211631   1.518   1.871   6.162
 3578SOL     OW11632   3.562   2.029   0.608
 3578SOL    HW111633   3.597   2.120   0.631
 3578SOL    HW211634   3.508   2.034   0.524
 3579SOL     OW11635   6.398   2.690   3.987
 3579SOL    HW111636   6.314   2.719   3.942
 3579SOL    HW211637   6.477   2.732   3.941
 3580SOL     OW11638   5.721   3.068   1.441
 3580SOL    HW111639   5.727   3.056   1.342
 3580SOL    HW211640   5.706   3.165   1.462
 3581SOL     OW11641   1.519   5.910   3.487
 3581SOL    HW111642   1.490   5.961   3.568
 3581SOL    HW211643   1.492   5.961   3.405
 3582SOL     OW11644   0.461   3.520   6.117
 3582SOL    HW111645   0.421   3.598   6.070
 3582SOL    HW211646   0.505   3.460   6.051
 3583SOL     OW11647   0.866   4.064   6.375
 3583SOL    HW111648   0.794   4.100   6.435
 3583SOL    HW211649   0.847   3.968   6.355
 3584SOL     OW11650   5.391   5.649   6.764
 3584SOL    HW111651   5.475   5.598   6.782
 3584SOL    HW211652   5.394   5.687   6.671
 3585SOL     OW11653   3.607   0.366   4.766
 3585SOL    HW111654   3.696   0.381   4.808
 3585SOL    HW211655   3.600   0.271   4.737
 3586SOL     OW11656   6.799   1.991   4.847
 3586SOL    HW111657   6.734   1.937   4.900
 3586SOL    HW211658   6.887   1.995   4.895
 3587SOL     OW11659   2.652   4.618   6.291
 3587SOL    HW111660   2.555   4.596   6.295
 3587SOL    HW211661   2.692   4.609   6.383
 3588SOL     OW11662   1.113   2.352   6.013
 3588SOL    HW111663   1.209   2.338   6.037
 3588SOL    HW211664   1.088   2.447   6.031
 3589SOL     OW11665   4.301   1.450   4.584
 3589SOL    HW111666   4.288   1.528   4.645
 3589SOL    HW211667   4.339   1.374   4.636
 3590SOL     OW11668   0.807   2.454   0.222
 3590SOL    HW111669   0.845   2.426   0.134
 3590SOL    HW211670   0.782   2.551   0.219
 3591SOL     OW11671   5.355   4.098   6.798
 3591SOL    HW111672   5.351   4.058   6.707
 3591SOL    HW211673   5.450   4.104   6.828
 3592SOL     OW11674   0.270   5.087   2.099
 3592SOL    HW111675   0.301   5.181   2.085
 3592SOL    HW211676   0.172   5.081   2.081
 3593SOL     OW11677   0.685   5.606   4.696
 3593SOL    HW111678   0.588   5.594   4.678
 3593SOL    HW211679   0.710   5.702   4.685
 3594SOL     OW11680   4.310   6.440   3.408
 3594SOL    HW111681   4.395   6.469   3.362
 3594SOL    HW211682   4.262   6.521   3.442
 3595SOL     OW11683   3.300   5.741   6.813
 3595SOL    HW111684   3.239   5.802   6.863
 3595SOL    HW211685   3.352   5.793   6.746
 3596SOL     OW11686   6.178   2.825   3.327
 3596SOL    HW111687   6.215   2.745   3.282
 3596SOL    HW211688   6.102   2.861   3.273
 3597SOL     OW11689   1.549   2.581   5.596
 3597SOL    HW111690   1.556   2.676   5.568
 3597SOL    HW211691   1.492   2.531   5.531
 3598SOL     OW11692   1.488   5.387   6.343
 3598SOL    HW111693   1.491   5.288   6.331
 3598SOL    HW211694   1.576   5.427   6.315
 3599SOL     OW11695   7.019   2.507   6.306
 3599SOL    HW111696   0.052   2.426   6.334
 3599SOL    HW211697   6.994   2.499   6.210
 3600SOL     OW11698   0.538   3.118   1.555
 3600SOL    HW111699   0.504   3.092   1.645
 3600SOL    HW211700   0.463   3.157   1.501
 3601SOL     OW11701   5.359   4.043   6.542
 3601SOL    HW111702   5.321   3.955   6.515
 3601SOL    HW211703   5.345   4.110   6.469
 3602SOL     OW11704   1.957   2.537   0.249
 3602SOL    HW111705   1.974   2.621   0.197
 3602SOL    HW211706   1.992   2.547   0.342
 3603SOL     OW11707   3.882   0.846   3.456
 3603SOL    HW111708   3.975   0.814   3.441
 3603SOL    HW211709   3.858   0.915   3.388
 3604SOL     OW11710   6.253   5.219   3.326
 3604SOL    HW111711   6.248   5.203   3.228
 3604SOL    HW211712   6.296   5.307   3.344
 3605SOL     OW11713   6.654   3.377   5.001
 3605SOL    HW111714   6.559   3.349   5.018
 3605SOL    HW211715   6.665   3.400   4.904
 3606SOL     OW11716   0.180   0.381   4.633
 3606SOL    HW111717   0.118   0.323   4.579
 3606SOL    HW211718   0.181   0.473   4.595
 3607SOL     OW11719   6.037   5.124   1.979
 3607SOL    HW111720   6.120   5.102   2.030
 3607SOL    HW211721   6.032   5.222   1.963
 3608SOL     OW11722   5.816   2.403   4.105
 3608SOL    HW111723   5.849   2.468   4.173
 3608SOL    HW211724   5.879   2.325   4.100
 3609SOL     OW11725   1.314   6.932   3.717
 3609SOL    HW111726   1.215   6.924   3.734
 3609SOL    HW211727   1.362   6.862   3.769
 3610SOL     OW11728   1.629   6.954   6.213
 3610SOL    HW111729   1.709   6.909   6.252
 3610SOL    HW211730   1.596   6.901   6.135
 3611SOL     OW11731   4.188   5.228   4.913
 3611SOL    HW111732   4.191   5.302   4.981
 3611SOL    HW211733   4.254   5.157   4.939
 3612SOL     OW11734   6.707   6.841   0.317
 3612SOL    HW111735   6.666   6.752   0.331
 3612SOL    HW211736   6.650   6.912   0.358
 3613SOL     OW11737   4.534   4.526   2.027
 3613SOL    HW111738   4.538   4.574   1.939
 3613SOL    HW211739   4.531   4.428   2.011
 3614SOL     OW11740   3.790   3.335   1.349
 3614SOL    HW111741   3.839   3.388   1.418
 3614SOL    HW211742   3.856   3.294   1.286
 3615SOL     OW11743   5.234   4.941   6.377
 3615SOL    HW111744   5.313   4.955   6.437
 3615SOL    HW211745   5.262   4.956   6.282
 3616SOL     OW11746   0.545   1.990   0.026
 3616SOL    HW111747   0.463   2.022   6.996
 3616SOL    HW211748   0.598   1.931   6.985
 3617SOL     OW11749   3.621   1.099   6.683
 3617SOL    HW111750   3.691   1.093   6.754
 3617SOL    HW211751   3.531   1.083   6.723
 3618SOL     OW11752   2.233   2.956   5.381
 3618SOL    HW111753   2.264   2.914   5.466
 3618SOL    HW211754   2.310   2.970   5.320
 3619SOL     OW11755   5.547   2.352   4.584
 3619SOL    HW111756   5.456   2.324   4.553
 3619SOL    HW211757   5.591   2.405   4.512
 3620SOL     OW11758   6.155   6.741   6.241
 3620SOL    HW111759   6.241   6.721   6.287
 3620SOL    HW211760   6.161   6.714   6.145
 3621SOL     OW11761   3.102   2.761   5.380
 3621SOL    HW111762   3.154   2.677   5.395
 3621SOL    HW211763   3.154   2.839   5.417
 3622SOL     OW11764   1.005   1.410   5.148
 3622SOL    HW111765   0.944   1.364   5.212
 3622SOL    HW211766   0.995   1.509   5.160
 3623SOL     OW11767   6.792   5.658   4.829
 3623SOL    HW111768   6.880   5.678   4.786
 3623SOL    HW211769   6.735   5.740   4.828
 3624SOL     OW11770   1.470   6.999   1.905
 3624SOL    HW111771   1.472   7.000   2.005
 3624SOL    HW211772   1.548   0.032   1.870
 3625SOL     OW11773   6.918   2.967   6.381
 3625SOL    HW111774   6.886   2.898   6.447
 3625SOL    HW211775   6.843   2.991   6.319
 3626SOL     OW11776   1.374   1.767   5.813
 3626SOL    HW111777   1.315   1.845   5.833
 3626SOL    HW211778   1.327   1.706   5.749
 3627SOL     OW11779   3.205   3.408   2.358
 3627SOL    HW111780   3.302   3.391   2.376
 3627SOL    HW211781   3.186   3.397   2.261
 3628SOL     OW11782   2.046   1.224   2.125
 3628SOL    HW111783   2.010   1.194   2.037
 3628SOL    HW211784   2.043   1.149   2.190
 3629SOL     OW11785   6.360   0.991   5.593
 3629SOL    HW111786   6.277   1.009   5.540
 3629SOL    HW211787   6.385   1.073   5.645
 3630SOL     OW11788   5.174   2.579   4.143
 3630SOL    HW111789   5.186   2.484   4.171
 3630SOL    HW211790   5.254   2.632   4.173
 3631SOL     OW11791   2.509   1.112   3.392
 3631SOL    HW111792   2.588   1.067   3.434
 3631SOL    HW211793   2.537   1.201   3.356
 3632SOL     OW11794   4.913   4.876   1.763
 3632SOL    HW111795   4.844   4.935   1.721
 3632SOL    HW211796   4.940   4.915   1.852
 3633SOL     OW11797   3.976   1.847   5.697
 3633SOL    HW111798   3.923   1.882   5.773
 3633SOL    HW211799   3.958   1.901   5.615
 3634SOL     OW11800   1.619   4.703   5.053
 3634SOL    HW111801   1.538   4.742   5.097
 3634SOL    HW211802   1.701   4.738   5.098
 3635SOL     OW11803   3.113   0.116   0.568
 3635SOL    HW111804   3.019   0.121   0.602
 3635SOL    HW211805   3.114   0.131   0.470
 3636SOL     OW11806   0.063   5.768   0.869
 3636SOL    HW111807   0.022   5.850   0.828
 3636SOL    HW211808   7.010   5.704   0.896
 3637SOL     OW11809   0.080   2.017   2.288
 3637SOL    HW111810   0.092   2.105   2.242
 3637SOL    HW211811   0.056   2.033   2.384
 3638SOL     OW11812   0.820   4.609   3.066
 3638SOL    HW111813   0.767   4.688   3.035
 3638SOL    HW211814   0.766   4.557   3.132
 3639SOL     OW11815   3.991   5.064   0.690
 3639SOL    HW111816   3.960   4.973   0.662
 3639SOL    HW211817   4.057   5.098   0.623
 3640SOL     OW11818   4.310   0.175   0.152
 3640SOL    HW111819   4.407   0.195   0.140
 3640SOL    HW211820   4.296   0.076   0.142
 3641SOL     OW11821   5.570   3.491   2.606
 3641SOL    HW111822   5.559   3.395   2.630
 3641SOL    HW211823   5.604   3.542   2.685
 3642SOL     OW11824   5.460   1.776   0.217
 3642SOL    HW111825   5.534   1.837   0.189
 3642SOL    HW211826   5.392   1.828   0.269
 3643SOL     OW11827   3.147   5.605   3.992
 3643SOL    HW111828   3.235   5.567   3.962
 3643SOL    HW211829   3.124   5.570   4.082
 3644SOL     OW11830   0.228   0.997   1.849
 3644SOL    HW111831   0.236   0.989   1.750
 3644SOL    HW211832   0.318   0.983   1.891
 3645SOL     OW11833   1.295   2.730   3.956
 3645SOL    HW111834   1.208   2.680   3.963
 3645SOL    HW211835   1.300   2.799   4.028
 3646SOL     OW11836   1.423   4.020   6.844
 3646SOL    HW111837   1.398   3.975   6.930
 3646SOL    HW211838   1.484   3.961   6.792
 3647SOL     OW11839   2.617   6.212   6.517
 3647SOL    HW111840   2.666   6.138   6.472
 3647SOL    HW211841   2.564   6.263   6.450
 3648SOL     OW11842   4.300   5.116   2.026
 3648SOL    HW111843   4.381   5.114   1.967
 3648SOL    HW211844   4.226   5.163   1.979
 3649SOL     OW11845   5.998   2.975   1.214
 3649SOL    HW111846   6.072   3.028   1.172
 3649SOL    HW211847   5.912   3.026   1.208
 3650SOL     OW11848   6.813   5.646   1.823
 3650SOL    HW111849   6.892   5.694   1.786
 3650SOL    HW211850   6.736   5.654   1.760
 3651SOL     OW11851   0.314   0.024   4.534
 3651SOL    HW111852   0.246   0.011   4.606
 3651SOL    HW211853   0.373   0.101   4.557
 3652SOL     OW11854   6.248   6.909   3.714
 3652SOL    HW111855   6.162   6.891   3.762
 3652SOL    HW211856   6.248   7.004   3.682
 3653SOL     OW11857   1.102   2.020   3.773
 3653SOL    HW111858   1.076   2.098   3.830
 3653SOL    HW211859   1.187   2.040   3.724
 3654SOL     OW11860   3.645   4.474   0.626
 3654SOL    HW111861   3.724   4.501   0.570
 3654SOL    HW211862   3.674   4.412   0.698
 3655SOL     OW11863   3.227   6.717   3.788
 3655SOL    HW111864   3.149   6.730   3.849
 3655SOL    HW211865   3.240   6.800   3.733
 3656SOL     OW11866   0.572   4.321   1.188
 3656SOL    HW111867   0.488   4.332   1.135
 3656SOL    HW211868   0.640   4.274   1.132
 3657SOL     OW11869   5.362   6.085   5.563
 3657SOL    HW111870   5.344   6.118   5.470
 3657SOL    HW211871   5.357   6.162   5.627
 3658SOL     OW11872   1.938   4.619   6.448
 3658SOL    HW111873   1.929   4.673   6.365
 3658SOL    HW211874   1.929   4.522   6.426
 3659SOL     OW11875   2.474   3.373   6.017
 3659SOL    HW111876   2.397   3.409   5.966
 3659SOL    HW211877   2.522   3.448   6.063
 3660SOL     OW11878   5.458   5.840   3.673
 3660SOL    HW111879   5.411   5.878   3.753
 3660SOL    HW211880   5.460   5.741   3.680
 3661SOL     OW11881   6.254   0.591   5.575
 3661SOL    HW111882   6.296   0.668   5.527
 3661SOL    HW211883   6.261   0.509   5.517
 3662SOL     OW11884   3.950   0.717   3.897
 3662SOL    HW111885   3.987   0.785   3.834
 3662SOL    HW211886   3.856   0.696   3.872
 3663SOL     OW11887   1.976   2.191   0.498
 3663SOL    HW111888   1.995   2.243   0.582
 3663SOL    HW211889   1.983   2.093   0.518
 3664SOL     OW11890   4.323   2.382   1.368
 3664SOL    HW111891   4.388   2.434   1.312
 3664SOL    HW211892   4.307   2.293   1.325
 3665SOL     OW11893   0.982   6.343   5.235
 3665SOL    HW111894   0.910   6.327   5.168
 3665SOL    HW211895   0.987   6.441   5.255
 3666SOL     OW11896   0.581   3.358   3.220
 3666SOL    HW111897   0.525   3.305   3.283
 3666SOL    HW211898   0.572   3.321   3.128
 3667SOL     OW11899   0.731   1.479   3.579
 3667SOL    HW111900   0.798   1.467   3.653
 3667SOL    HW211901   0.747   1.567   3.535
 3668SOL     OW11902   1.407   1.311   0.984
 3668SOL    HW111903   1.431   1.385   0.921
 3668SOL    HW211904   1.379   1.349   1.072
 3669SOL     OW11905   5.378   1.546   3.624
 3669SOL    HW111906   5.453   1.570   3.563
 3669SOL    HW211907   5.308   1.618   3.621
 3670SOL     OW11908   1.588   6.026   0.063
 3670SOL    HW111909   1.502   6.037   0.113
 3670SOL    HW211910   1.619   6.115   0.031
 3671SOL     OW11911   0.210   1.613   3.832
 3671SOL    HW111912   0.223   1.680   3.759
 3671SOL    HW211913   0.298   1.570   3.853
 3672SOL     OW11914   4.692   1.975   1.737
 3672SOL    HW111915   4.715   2.039   1.663
 3672SOL    HW211916   4.597   1.990   1.765
 3673SOL     OW11917   4.033   6.152   0.058
 3673SOL    HW111918   3.984   6.238   0.071
 3673SOL    HW211919   4.113   6.150   0.117
 3674SOL     OW11920   1.440   5.764   5.313
 3674SOL    HW111921   1.512   5.833   5.301
 3674SOL    HW211922   1.442   5.729   5.406
 3675SOL     OW11923   2.286   2.894   3.779
 3675SOL    HW111924   2.246   2.956   3.712
 3675SOL    HW211925   2.341   2.825   3.732
 3676SOL     OW11926   6.350   4.340   2.994
 3676SOL    HW111927   6.284   4.292   3.053
 3676SOL    HW211928   6.357   4.291   2.906
 3677SOL     OW11929   2.602   6.293   4.319
 3677SOL    HW111930   2.701   6.305   4.330
 3677SOL    HW211931   2.560   6.383   4.305
 3678SOL     OW11932   0.504   1.398   3.797
 3678SOL    HW111933   0.538   1.319   3.848
 3678SOL    HW211934   0.529   1.389   3.701
 3679SOL     OW11935   0.513   0.342   3.827
 3679SOL    HW111936   0.431   0.364   3.774
 3679SOL    HW211937   0.501   0.253   3.870
 3680SOL     OW11938   4.905   2.941   4.254
 3680SOL    HW111939   4.863   2.921   4.165
 3680SOL    HW211940   4.846   2.908   4.327
 3681SOL     OW11941   0.296   0.822   6.008
 3681SOL    HW111942   0.284   0.768   5.925
 3681SOL    HW211943   0.364   0.893   5.993
 3682SOL     OW11944   5.095   2.660   6.802
 3682SOL    HW111945   5.074   2.564   6.821
 3682SOL    HW211946   5.192   2.677   6.818
 3683SOL     OW11947   6.806   1.537   3.726
 3683SOL    HW111948   6.895   1.528   3.770
 3683SOL    HW211949   6.814   1.595   3.645
 3684SOL     OW11950   1.504   5.110   0.020
 3684SOL    HW111951   1.547   5.164   0.093
 3684SOL    HW211952   1.496   5.167   6.957
 3685SOL     OW11953   1.705   6.333   6.542
 3685SOL    HW111954   1.804   6.348   6.543
 3685SOL    HW211955   1.665   6.370   6.626
 3686SOL     OW11956   5.859   5.571   4.595
 3686SOL    HW111957   5.839   5.482   4.636
 3686SOL    HW211958   5.947   5.567   4.548
 3687SOL     OW11959   3.809   6.391   4.072
 3687SOL    HW111960   3.850   6.303   4.045
 3687SOL    HW211961   3.868   6.436   4.138
 3688SOL     OW11962   0.683   3.334   6.782
 3688SOL    HW111963   0.649   3.354   6.874
 3688SOL    HW211964   0.710   3.419   6.737
 3689SOL     OW11965   2.388   0.184   5.924
 3689SOL    HW111966   2.347   0.202   5.835
 3689SOL    HW211967   2.326   0.128   5.980
 3690SOL     OW11968   4.243   5.811   6.919
 3690SOL    HW111969   4.232   5.748   6.996
 3690SOL    HW211970   4.168   5.877   6.919
 3691SOL     OW11971   2.147   1.677   6.478
 3691SOL    HW111972   2.216   1.723   6.422
 3691SOL    HW211973   2.072   1.646   6.420
 3692SOL     OW11974   6.453   5.292   5.512
 3692SOL    HW111975   6.526   5.360   5.510
 3692SOL    HW211976   6.436   5.258   5.419
 3693SOL     OW11977   2.017   3.726   3.019
 3693SOL    HW111978   2.069   3.645   2.992
 3693SOL    HW211979   1.923   3.700   3.042
 3694SOL     OW11980   0.519   6.499   1.881
 3694SOL    HW111981   0.595   6.548   1.922
 3694SOL    HW211982   0.498   6.418   1.935
 3695SOL     OW11983   5.512   2.988   1.758
 3695SOL    HW111984   5.575   2.914   1.736
 3695SOL    HW211985   5.479   3.030   1.674
 3696SOL     OW11986   4.058   6.740   3.882
 3696SOL    HW111987   4.147   6.694   3.879
 3696SOL    HW211988   4.072   6.839   3.881
 3697SOL     OW11989   0.293   6.367   2.992
 3697SOL    HW111990   0.337   6.286   3.031
 3697SOL    HW211991   0.253   6.344   2.904
 3698SOL     OW11992   2.884   1.159   4.698
 3698SOL    HW111993   2.850   1.221   4.627
 3698SOL    HW211994   2.978   1.133   4.676
 3699SOL     OW11995   1.338   2.060   4.229
 3699SOL    HW111996   1.380   1.969   4.231
 3699SOL    HW211997   1.370   2.113   4.308
 3700SOL     OW11998   1.085   5.553   4.630
 3700SOL    HW111999   1.107   5.651   4.624
 3700SOL    HW212000   1.013   5.538   4.697
 3701SOL     OW12001   1.564   1.122   4.205
 3701SOL    HW112002   1.600   1.034   4.237
 3701SOL    HW212003   1.637   1.190   4.203
 3702SOL     OW12004   5.487   6.895   3.084
 3702SOL    HW112005   5.569   6.946   3.107
 3702SOL    HW212006   5.502   6.797   3.099
 3703SOL     OW12007   6.138   0.424   6.391
 3703SOL    HW112008   6.176   0.515   6.408
 3703SOL    HW212009   6.090   0.424   6.303
 3704SOL     OW12010   3.361   1.447   0.979
 3704SOL    HW112011   3.331   1.353   0.960
 3704SOL    HW212012   3.362   1.499   0.894
 3705SOL     OW12013   5.414   4.299   4.689
 3705SOL    HW112014   5.356   4.364   4.640
 3705SOL    HW212015   5.361   4.252   4.759
 3706SOL     OW12016   1.376   4.279   0.052
 3706SOL    HW112017   1.458   4.221   0.048
 3706SOL    HW212018   1.383   4.352   7.004
 3707SOL     OW12019   5.281   4.697   4.241
 3707SOL    HW112020   5.374   4.675   4.210
 3707SOL    HW212021   5.265   4.795   4.230
 3708SOL     OW12022   6.132   0.883   0.267
 3708SOL    HW112023   6.222   0.845   0.244
 3708SOL    HW212024   6.121   0.885   0.366
 3709SOL     OW12025   3.466   1.169   0.945
 3709SOL    HW112026   3.436   1.103   0.876
 3709SOL    HW212027   3.397   1.177   1.016
 3710SOL     OW12028   6.373   5.677   5.542
 3710SOL    HW112029   6.286   5.694   5.496
 3710SOL    HW212030   6.417   5.764   5.564
 3711SOL     OW12031   0.960   6.164   4.701
 3711SOL    HW112032   0.942   6.190   4.796
 3711SOL    HW212033   0.997   6.071   4.699
 3712SOL     OW12034   1.025   5.295   6.030
 3712SOL    HW112035   1.112   5.289   5.982
 3712SOL    HW212036   0.965   5.221   6.000
 3713SOL     OW12037   0.571   6.751   5.446
 3713SOL    HW112038   0.634   6.827   5.462
 3713SOL    HW212039   0.478   6.787   5.434
 3714SOL     OW12040   5.757   6.087   6.426
 3714SOL    HW112041   5.705   6.087   6.341
 3714SOL    HW212042   5.782   5.993   6.450
 3715SOL     OW12043   0.812   4.026   2.514
 3715SOL    HW112044   0.896   4.074   2.538
 3715SOL    HW212045   0.793   4.038   2.416
 3716SOL     OW12046   5.932   6.564   3.873
 3716SOL    HW112047   5.999   6.492   3.850
 3716SOL    HW212048   5.942   6.587   3.970
 3717SOL     OW12049   6.187   6.549   6.571
 3717SOL    HW112050   6.148   6.619   6.631
 3717SOL    HW212051   6.245   6.592   6.503
 3718SOL     OW12052   0.744   0.930   6.809
 3718SOL    HW112053   0.800   0.873   6.870
 3718SOL    HW212054   0.649   0.899   6.814
 3719SOL     OW12055   5.373   3.961   1.549
 3719SOL    HW112056   5.410   3.883   1.599
 3719SOL    HW212057   5.389   4.045   1.602
 3720SOL     OW12058   5.527   3.035   6.782
 3720SOL    HW112059   5.582   2.951   6.779
 3720SOL    HW212060   5.458   3.032   6.710
 3721SOL     OW12061   6.577   4.858   1.829
 3721SOL    HW112062   6.610   4.805   1.907
 3721SOL    HW212063   6.481   4.883   1.844
 3722SOL     OW12064   5.906   5.888   1.165
 3722SOL    HW112065   5.835   5.923   1.226
 3722SOL    HW212066   5.971   5.960   1.144
 3723SOL     OW12067   5.724   4.965   1.376
 3723SOL    HW112068   5.635   4.929   1.349
 3723SOL    HW212069   5.775   4.991   1.295
 3724SOL     OW12070   1.823   4.700   4.883
 3724SOL    HW112071   1.732   4.687   4.922
 3724SOL    HW212072   1.815   4.736   4.790
 3725SOL     OW12073   6.891   5.064   0.110
 3725SOL    HW112074   6.868   5.157   0.137
 3725SOL    HW212075   6.876   5.002   0.187
 3726SOL     OW12076   6.463   3.145   6.949
 3726SOL    HW112077   6.504   3.122   0.018
 3726SOL    HW212078   6.389   3.082   6.929
 3727SOL     OW12079   6.491   1.495   5.578
 3727SOL    HW112080   6.428   1.419   5.560
 3727SOL    HW212081   6.483   1.522   5.674
 3728SOL     OW12082   1.179   3.481   6.248
 3728SOL    HW112083   1.128   3.405   6.288
 3728SOL    HW212084   1.232   3.527   6.319
 3729SOL     OW12085   1.936   1.712   4.677
 3729SOL    HW112086   1.992   1.742   4.600
 3729SOL    HW212087   1.977   1.746   4.762
 3730SOL     OW12088   3.217   5.649   5.397
 3730SOL    HW112089   3.177   5.622   5.309
 3730SOL    HW212090   3.144   5.665   5.463
 3731SOL     OW12091   6.893   1.577   0.957
 3731SOL    HW112092   6.814   1.546   1.010
 3731SOL    HW212093   6.874   1.667   0.917
 3732SOL     OW12094   2.677   1.997   6.779
 3732SOL    HW112095   2.643   1.903   6.794
 3732SOL    HW212096   2.635   2.034   6.697
 3733SOL     OW12097   1.791   3.459   3.168
 3733SOL    HW112098   1.771   3.473   3.071
 3733SOL    HW212099   1.741   3.526   3.223
 3734SOL     OW12100   4.892   0.310   1.367
 3734SOL    HW112101   4.856   0.278   1.279
 3734SOL    HW212102   4.826   0.370   1.410
 3735SOL     OW12103   2.985   1.175   2.972
 3735SOL    HW112104   3.066   1.191   2.916
 3735SOL    HW212105   2.950   1.083   2.955
 3736SOL     OW12106   6.653   2.197   1.249
 3736SOL    HW112107   6.751   2.213   1.255
 3736SOL    HW212108   6.614   2.252   1.175
 3737SOL     OW12109   5.492   0.867   4.387
 3737SOL    HW112110   5.541   0.876   4.301
 3737SOL    HW212111   5.478   0.771   4.408
 3738SOL     OW12112   6.606   0.500   1.841
 3738SOL    HW112113   6.644   0.413   1.808
 3738SOL    HW212114   6.507   0.490   1.852
 3739SOL     OW12115   2.679   5.295   0.843
 3739SOL    HW112116   2.717   5.206   0.870
 3739SOL    HW212117   2.737   5.336   0.773
 3740SOL     OW12118   6.826   0.314   0.987
 3740SOL    HW112119   6.783   0.275   1.068
 3740SOL    HW212120   6.765   0.306   0.909
 3741SOL     OW12121   5.717   3.144   5.878
 3741SOL    HW112122   5.747   3.239   5.882
 3741SOL    HW212123   5.617   3.141   5.874
 3742SOL     OW12124   2.637   1.740   6.583
 3742SOL    HW112125   2.583   1.663   6.550
 3742SOL    HW212126   2.722   1.708   6.623
 3743SOL     OW12127   6.025   3.024   0.408
 3743SOL    HW112128   6.013   3.074   0.322
 3743SOL    HW212129   6.055   2.931   0.389
 3744SOL     OW12130   1.692   5.859   1.477
 3744SOL    HW112131   1.606   5.863   1.427
 3744SOL    HW212132   1.758   5.805   1.425
 3745SOL     OW12133   4.662   4.755   2.830
 3745SOL    HW112134   4.681   4.704   2.746
 3745SOL    HW212135   4.639   4.849   2.807
 3746SOL     OW12136   6.094   0.906   3.895
 3746SOL    HW112137   6.082   0.820   3.945
 3746SOL    HW212138   6.035   0.905   3.814
 3747SOL     OW12139   3.041   6.483   4.997
 3747SOL    HW112140   3.032   6.450   4.903
 3747SOL    HW212141   3.101   6.563   4.999
 3748SOL     OW12142   5.860   0.754   1.962
 3748SOL    HW112143   5.916   0.732   2.042
 3748SOL    HW212144   5.766   0.724   1.978
 3749SOL     OW12145   1.475   5.393   3.139
 3749SOL    HW112146   1.392   5.357   3.096
 3749SOL    HW212147   1.488   5.488   3.111
 3750SOL     OW12148   6.866   4.931   1.447
 3750SOL    HW112149   6.891   5.013   1.500
 3750SOL    HW212150   6.941   4.866   1.448
 3751SOL     OW12151   6.746   3.705   1.489
 3751SOL    HW112152   6.668   3.667   1.538
 3751SOL    HW212153   6.731   3.695   1.390
 3752SOL     OW12154   6.360   6.486   0.893
 3752SOL    HW112155   6.414   6.544   0.832
 3752SOL    HW212156   6.375   6.514   0.988
 3753SOL     OW12157   6.954   0.907   3.979
 3753SOL    HW112158   6.921   0.881   3.888
 3753SOL    HW212159   6.950   1.006   3.988
 3754SOL     OW12160   4.229   6.575   0.935
 3754SOL    HW112161   4.185   6.613   0.853
 3754SOL    HW212162   4.161   6.526   0.989
 3755SOL     OW12163   5.231   5.850   4.284
 3755SOL    HW112164   5.139   5.869   4.318
 3755SOL    HW212165   5.283   5.800   4.353
 3756SOL     OW12166   2.044   5.666   6.605
 3756SOL    HW112167   1.970   5.730   6.623
 3756SOL    HW212168   2.112   5.709   6.546
 3757SOL     OW12169   4.466   6.321   6.311
 3757SOL    HW112170   4.508   6.238   6.347
 3757SOL    HW212171   4.436   6.305   6.217
 3758SOL     OW12172   2.286   1.617   5.850
 3758SOL    HW112173   2.376   1.615   5.806
 3758SOL    HW212174   2.242   1.705   5.832
 3759SOL     OW12175   4.383   5.458   6.695
 3759SOL    HW112176   4.384   5.558   6.700
 3759SOL    HW212177   4.321   5.423   6.765
 3760SOL     OW12178   1.803   1.335   5.636
 3760SOL    HW112179   1.746   1.253   5.631
 3760SOL    HW212180   1.882   1.318   5.694
 3761SOL     OW12181   1.081   1.001   4.586
 3761SOL    HW112182   1.115   1.034   4.498
 3761SOL    HW212183   1.117   0.910   4.604
 3762SOL     OW12184   1.179   3.484   0.410
 3762SOL    HW112185   1.182   3.385   0.392
 3762SOL    HW212186   1.212   3.533   0.329
 3763SOL     OW12187   6.472   3.756   1.695
 3763SOL    HW112188   6.542   3.700   1.740
 3763SOL    HW212189   6.419   3.805   1.764
 3764SOL     OW12190   1.793   6.797   3.455
 3764SOL    HW112191   1.711   6.783   3.401
 3764SOL    HW212192   1.826   6.891   3.441
 3765SOL     OW12193   4.512   0.982   0.684
 3765SOL    HW112194   4.542   1.071   0.719
 3765SOL    HW212195   4.592   0.926   0.664
 3766SOL     OW12196   1.361   0.683   3.463
 3766SOL    HW112197   1.352   0.751   3.391
 3766SOL    HW212198   1.273   0.669   3.508
 3767SOL     OW12199   2.207   4.738   0.418
 3767SOL    HW112200   2.133   4.709   0.357
 3767SOL    HW212201   2.245   4.825   0.386
 3768SOL     OW12202   1.565   6.443   4.909
 3768SOL    HW112203   1.613   6.430   4.823
 3768SOL    HW212204   1.475   6.399   4.905
 3769SOL     OW12205   6.400   6.393   5.466
 3769SOL    HW112206   6.423   6.332   5.541
 3769SOL    HW212207   6.442   6.483   5.481
 3770SOL     OW12208   1.943   0.776   6.803
 3770SOL    HW112209   1.869   0.793   6.868
 3770SOL    HW212210   1.993   0.694   6.829
 3771SOL     OW12211   5.934   3.306   6.615
 3771SOL    HW112212   5.878   3.224   6.605
 3771SOL    HW212213   6.024   3.291   6.573
 3772SOL     OW12214   6.912   0.867   6.562
 3772SOL    HW112215   6.831   0.813   6.585
 3772SOL    HW212216   6.991   0.832   6.611
 3773SOL     OW12217   6.395   2.687   6.311
 3773SOL    HW112218   6.382   2.703   6.213
 3773SOL    HW212219   6.410   2.775   6.357
 3774SOL     OW12220   0.303   6.042   0.505
 3774SOL    HW112221   0.311   6.089   0.417
 3774SOL    HW212222   0.211   6.055   0.542
 3775SOL     OW12223   4.746   5.126   2.183
 3775SOL    HW112224   4.824   5.081   2.226
 3775SOL    HW212225   4.745   5.107   2.085
 3776SOL     OW12226   4.126   1.088   0.506
 3776SOL    HW112227   4.219   1.119   0.486
 3776SOL    HW212228   4.067   1.168   0.518
 3777SOL     OW12229   3.333   5.493   3.827
 3777SOL    HW112230   3.327   5.393   3.830
 3777SOL    HW212231   3.429   5.520   3.818
 3778SOL     OW12232   3.664   4.863   2.422
 3778SOL    HW112233   3.737   4.913   2.376
 3778SOL    HW212234   3.597   4.832   2.355
 3779SOL     OW12235   1.794   4.931   0.505
 3779SOL    HW112236   1.719   4.996   0.515
 3779SOL    HW212237   1.799   4.873   0.586
 3780SOL     OW12238   5.872   6.029   5.243
 3780SOL    HW112239   5.819   5.947   5.263
 3780SOL    HW212240   5.959   6.025   5.291
 3781SOL     OW12241   0.673   6.747   4.528
 3781SOL    HW112242   0.708   6.841   4.527
 3781SOL    HW212243   0.640   6.723   4.437
 3782SOL     OW12244   2.842   0.964   4.135
 3782SOL    HW112245   2.764   0.965   4.073
 3782SOL    HW212246   2.872   1.058   4.153
 3783SOL     OW12247   5.705   5.643   3.955
 3783SOL    HW112248   5.756   5.700   3.890
 3783SOL    HW212249   5.651   5.576   3.904
 3784SOL     OW12250   4.877   2.890   2.323
 3784SOL    HW112251   4.916   2.914   2.235
 3784SOL    HW212252   4.794   2.836   2.309
 3785SOL     OW12253   2.366   2.231   6.246
 3785SOL    HW112254   2.304   2.227   6.324
 3785SOL    HW212255   2.364   2.323   6.207
 3786SOL     OW12256   2.187   5.906   2.732
 3786SOL    HW112257   2.130   5.915   2.814
 3786SOL    HW212258   2.133   5.928   2.651
 3787SOL     OW12259   6.020   1.179   2.121
 3787SOL    HW112260   6.042   1.275   2.103
 3787SOL    HW212261   6.018   1.164   2.220
 3788SOL     OW12262   0.691   4.137   4.680
 3788SOL    HW112263   0.673   4.052   4.730
 3788SOL    HW212264   0.740   4.115   4.595
 3789SOL     OW12265   0.425   2.676   5.121
 3789SOL    HW112266   0.385   2.638   5.037
 3789SOL    HW212267   0.508   2.727   5.098
 3790SOL     OW12268   1.179   4.619   5.412
 3790SOL    HW112269   1.082   4.642   5.403
 3790SOL    HW212270   1.223   4.684   5.474
 3791SOL     OW12271   5.346   0.517   0.011
 3791SOL    HW112272   5.442   0.489   7.018
 3791SOL    HW212273   5.342   0.602   0.064
 3792SOL     OW12274   1.079   1.994   5.210
 3792SOL    HW112275   1.007   1.979   5.142
 3792SOL    HW212276   1.093   2.092   5.223
 3793SOL     OW12277   5.188   6.846   2.419
 3793SOL    HW112278   5.096   6.836   2.456
 3793SOL    HW212279   5.183   6.870   2.322
 3794SOL     OW12280   2.395   3.817   0.792
 3794SOL    HW112281   2.437   3.765   0.718
 3794SOL    HW212282   2.299   3.790   0.802
 3795SOL     OW12283   4.339   6.373   6.677
 3795SOL    HW112284   4.270   6.302   6.660
 3795SOL    HW212285   4.343   6.435   6.598
 3796SOL     OW12286   2.753   1.957   2.119
 3796SOL    HW112287   2.821   2.003   2.176
 3796SOL    HW212288   2.754   1.997   2.028
 3797SOL     OW12289   6.655   3.971   1.502
 3797SOL    HW112290   6.643   3.872   1.501
 3797SOL    HW212291   6.572   4.015   1.466
 3798SOL     OW12292   2.412   5.481   2.910
 3798SOL    HW112293   2.482   5.502   2.842
 3798SOL    HW212294   2.450   5.493   3.002
 3799SOL     OW12295   0.690   2.419   4.064
 3799SOL    HW112296   0.608   2.391   4.113
 3799SOL    HW212297   0.704   2.360   3.985
 3800SOL     OW12298   5.747   3.341   3.869
 3800SOL    HW112299   5.827   3.389   3.833
 3800SOL    HW212300   5.761   3.319   3.965
 3801SOL     OW12301   6.168   6.626   3.221
 3801SOL    HW112302   6.237   6.697   3.203
 3801SOL    HW212303   6.212   6.536   3.218
 3802SOL     OW12304   1.470   2.285   3.098
 3802SOL    HW112305   1.400   2.223   3.133
 3802SOL    HW212306   1.446   2.379   3.122
 3803SOL     OW12307   3.075   2.248   1.693
 3803SOL    HW112308   3.044   2.326   1.747
 3803SOL    HW212309   3.001   2.218   1.633
 3804SOL     OW12310   4.659   1.621   3.881
 3804SOL    HW112311   4.586   1.668   3.931
 3804SOL    HW212312   4.700   1.684   3.815
 3805SOL     OW12313   2.673   2.877   1.694
 3805SOL    HW112314   2.688   2.963   1.742
 3805SOL    HW212315   2.592   2.831   1.731
 3806SOL     OW12316   3.617   3.790   6.607
 3806SOL    HW112317   3.608   3.708   6.551
 3806SOL    HW212318   3.712   3.821   6.606
 3807SOL     OW12319   1.619   5.841   2.667
 3807SOL    HW112320   1.606   5.885   2.578
 3807SOL    HW212321   1.709   5.797   2.669
 3808SOL     OW12322   3.756   0.505   0.637
 3808SOL    HW112323   3.841   0.456   0.655
 3808SOL    HW212324   3.734   0.564   0.715
 3809SOL     OW12325   5.198   3.055   1.048
 3809SOL    HW112326   5.145   3.139   1.037
 3809SOL    HW212327   5.266   3.049   0.974
 3810SOL     OW12328   4.074   2.159   4.451
 3810SOL    HW112329   4.084   2.060   4.455
 3810SOL    HW212330   4.144   2.203   4.508
 3811SOL     OW12331   1.141   4.182   4.417
 3811SOL    HW112332   1.125   4.190   4.318
 3811SOL    HW212333   1.118   4.089   4.447
 3812SOL     OW12334   5.285   6.642   4.484
 3812SOL    HW112335   5.285   6.542   4.488
 3812SOL    HW212336   5.215   6.673   4.420
 3813SOL     OW12337   4.347   4.522   0.270
 3813SOL    HW112338   4.361   4.530   0.369
 3813SOL    HW212339   4.333   4.426   0.246
 3814SOL     OW12340   6.947   6.761   6.790
 3814SOL    HW112341   6.935   6.860   6.795
 3814SOL    HW212342   6.935   6.730   6.696
 3815SOL     OW12343   4.505   2.591   0.441
 3815SOL    HW112344   4.526   2.520   0.508
 3815SOL    HW212345   4.474   2.674   0.488
 3816SOL     OW12346   1.040   6.022   6.538
 3816SOL    HW112347   1.005   6.088   6.472
 3816SOL    HW212348   0.990   5.936   6.529
 3817SOL     OW12349   4.718   4.219   2.731
 3817SOL    HW112350   4.805   4.244   2.688
 3817SOL    HW212351   4.724   4.126   2.766
 3818SOL     OW12352   5.868   0.921   0.635
 3818SOL    HW112353   5.948   0.898   0.580
 3818SOL    HW212354   5.846   1.018   0.624
 3819SOL     OW12355   5.333   5.646   2.094
 3819SOL    HW112356   5.423   5.682   2.070
 3819SOL    HW212357   5.305   5.580   2.024
 3820SOL     OW12358   5.681   6.821   3.541
 3820SOL    HW112359   5.772   6.863   3.542
 3820SOL    HW212360   5.617   6.880   3.589
 3821SOL     OW12361   2.221   1.801   1.084
 3821SOL    HW112362   2.287   1.839   1.149
 3821SOL    HW212363   2.266   1.733   1.026
 3822SOL     OW12364   1.886   6.787   2.170
 3822SOL    HW112365   1.808   6.790   2.233
 3822SOL    HW212366   1.937   6.873   2.177
 3823SOL     OW12367   3.193   2.858   5.787
 3823SOL    HW112368   3.122   2.844   5.856
 3823SOL    HW212369   3.168   2.935   5.729
 3824SOL     OW12370   6.135   2.428   0.632
 3824SOL    HW112371   6.111   2.418   0.729
 3824SOL    HW212372   6.234   2.439   0.623
 3825SOL     OW12373   0.610   6.298   0.803
 3825SOL    HW112374   0.632   6.209   0.763
 3825SOL    HW212375   0.513   6.319   0.787
 3826SOL     OW12376   0.935   3.035   6.974
 3826SOL    HW112377   1.016   2.977   6.970
 3826SOL    HW212378   0.948   3.114   6.914
 3827SOL     OW12379   2.285   2.761   1.185
 3827SOL    HW112380   2.354   2.819   1.141
 3827SOL    HW212381   2.319   2.731   1.274
 3828SOL     OW12382   3.585   2.567   1.744
 3828SOL    HW112383   3.614   2.475   1.771
 3828SOL    HW212384   3.496   2.587   1.786
 3829SOL     OW12385   1.268   4.887   4.346
 3829SOL    HW112386   1.246   4.790   4.357
 3829SOL    HW212387   1.367   4.899   4.341
 3830SOL     OW12388   0.939   1.111   3.972
 3830SOL    HW112389   0.890   1.068   4.048
 3830SOL    HW212390   0.941   1.048   3.894
 3831SOL     OW12391   4.606   2.522   2.234
 3831SOL    HW112392   4.604   2.617   2.204
 3831SOL    HW212393   4.568   2.463   2.163
 3832SOL     OW12394   5.997   0.998   3.062
 3832SOL    HW112395   6.026   0.903   3.074
 3832SOL    HW212396   5.915   1.000   3.004
 3833SOL     OW12397   0.453   6.375   5.347
 3833SOL    HW112398   0.521   6.309   5.379
 3833SOL    HW212399   0.439   6.363   5.249
 3834SOL     OW12400   4.709   3.555   1.735
 3834SOL    HW112401   4.648   3.477   1.718
 3834SOL    HW212402   4.786   3.551   1.671
 3835SOL     OW12403   3.213   5.582   4.600
 3835SOL    HW112404   3.273   5.528   4.541
 3835SOL    HW212405   3.130   5.530   4.620
 3836SOL     OW12406   1.701   3.945   5.612
 3836SOL    HW112407   1.617   3.906   5.650
 3836SOL    HW212408   1.745   3.877   5.553
 3837SOL     OW12409   4.801   4.127   6.774
 3837SOL    HW112410   4.717   4.109   6.825
 3837SOL    HW212411   4.806   4.224   6.750
 3838SOL     OW12412   6.691   3.877   4.583
 3838SOL    HW112413   6.759   3.900   4.653
 3838SOL    HW212414   6.710   3.785   4.547
 3839SOL     OW12415   4.347   0.531   3.721
 3839SOL    HW112416   4.399   0.613   3.743
 3839SOL    HW212417   4.390   0.484   3.644
 3840SOL     OW12418   2.001   1.278   5.779
 3840SOL    HW112419   2.090   1.313   5.753
 3840SOL    HW212420   2.010   1.219   5.860
 3841SOL     OW12421   0.254   3.180   5.164
 3841SOL    HW112422   0.280   3.269   5.128
 3841SOL    HW212423   0.249   3.113   5.089
 3842SOL     OW12424   1.407   3.702   6.631
 3842SOL    HW112425   1.366   3.655   6.710
 3842SOL    HW212426   1.488   3.751   6.662
 3843SOL     OW12427   6.785   4.157   2.705
 3843SOL    HW112428   6.734   4.110   2.777
 3843SOL    HW212429   6.754   4.125   2.616
 3844SOL     OW12430   0.338   3.177   6.112
 3844SOL    HW112431   0.436   3.164   6.093
 3844SOL    HW212432   0.327   3.213   6.205
 3845SOL     OW12433   3.827   2.921   3.403
 3845SOL    HW112434   3.764   2.920   3.481
 3845SOL    HW212435   3.919   2.895   3.434
 3846SOL     OW12436   0.662   5.058   4.043
 3846SOL    HW112437   0.735   4.996   4.014
 3846SOL    HW212438   0.609   5.016   4.116
 3847SOL     OW12439   6.272   0.860   4.497
 3847SOL    HW112440   6.338   0.913   4.551
 3847SOL    HW212441   6.190   0.843   4.553
 3848SOL     OW12442   3.213   5.709   3.072
 3848SOL    HW112443   3.187   5.615   3.052
 3848SOL    HW212444   3.186   5.769   2.996
 3849SOL     OW12445   0.623   1.543   5.170
 3849SOL    HW112446   0.689   1.578   5.104
 3849SOL    HW212447   0.531   1.542   5.129
 3850SOL     OW12448   2.634   3.350   1.306
 3850SOL    HW112449   2.648   3.304   1.394
 3850SOL    HW212450   2.572   3.428   1.318
 3851SOL     OW12451   2.002   4.403   2.556
 3851SOL    HW112452   1.990   4.411   2.655
 3851SOL    HW212453   1.914   4.412   2.511
 3852SOL     OW12454   4.635   6.708   4.197
 3852SOL    HW112455   4.616   6.632   4.135
 3852SOL    HW212456   4.564   6.778   4.186
 3853SOL     OW12457   1.068   3.139   3.016
 3853SOL    HW112458   1.074   3.087   2.930
 3853SOL    HW212459   1.087   3.078   3.093
 3854SOL     OW12460   0.912   3.714   2.346
 3854SOL    HW112461   0.826   3.748   2.309
 3854SOL    HW212462   0.893   3.647   2.418
 3855SOL     OW12463   4.954   6.175   6.852
 3855SOL    HW112464   4.927   6.264   6.890
 3855SOL    HW212465   5.045   6.183   6.811
 3856SOL     OW12466   6.693   6.644   5.762
 3856SOL    HW112467   6.729   6.635   5.669
 3856SOL    HW212468   6.769   6.646   5.827
 3857SOL     OW12469   0.544   6.073   6.163
 3857SOL    HW112470   0.486   6.005   6.209
 3857SOL    HW212471   0.638   6.063   6.194
 3858SOL     OW12472   1.496   6.499   5.501
 3858SOL    HW112473   1.413   6.513   5.448
 3858SOL    HW212474   1.474   6.444   5.582
 3859SOL     OW12475   6.615   1.865   3.012
 3859SOL    HW112476   6.679   1.925   3.059
 3859SOL    HW212477   6.601   1.782   3.066
 3860SOL     OW12478   1.749   0.494   5.589
 3860SOL    HW112479   1.807   0.568   5.625
 3860SOL    HW212480   1.696   0.454   5.663
 3861SOL     OW12481   4.939   4.824   2.517
 3861SOL    HW112482   4.866   4.781   2.569
 3861SOL    HW212483   5.024   4.821   2.570
 3862SOL     OW12484   0.994   0.459   4.813
 3862SOL    HW112485   1.039   0.372   4.793
 3862SOL    HW212486   1.012   0.484   4.909
 3863SOL     OW12487   5.108   2.935   6.656
 3863SOL    HW112488   5.036   2.968   6.718
 3863SOL    HW212489   5.074   2.858   6.603
 3864SOL     OW12490   2.718   1.085   5.708
 3864SOL    HW112491   2.785   1.041   5.648
 3864SOL    HW212492   2.755   1.090   5.801
 3865SOL     OW12493   3.300   6.977   0.673
 3865SOL    HW112494   3.261   0.016   0.602
 3865SOL    HW212495   3.400   6.986   0.672
 3866SOL     OW12496   4.112   0.983   0.980
 3866SOL    HW112497   4.144   1.051   0.913
 3866SOL    HW212498   4.023   1.010   1.015
 3867SOL     OW12499   1.470   3.908   3.850
 3867SOL    HW112500   1.470   3.809   3.859
 3867SOL    HW212501   1.405   3.935   3.779
 3868SOL     OW12502   2.556   6.965   0.973
 3868SOL    HW112503   2.550   6.986   0.875
 3868SOL    HW212504   2.568   6.867   0.986
 3869SOL     OW12505   6.940   3.148   4.694
 3869SOL    HW112506   6.885   3.154   4.777
 3869SOL    HW212507   7.011   3.218   4.695
 3870SOL     OW12508   4.604   4.906   0.887
 3870SOL    HW112509   4.542   4.985   0.892
 3870SOL    HW212510   4.693   4.931   0.925
 3871SOL     OW12511   4.430   0.239   2.082
 3871SOL    HW112512   4.419   0.311   2.015
 3871SOL    HW212513   4.514   0.253   2.134
 3872SOL     OW12514   4.066   3.102   2.103
 3872SOL    HW112515   4.104   3.096   2.195
 3872SOL    HW212516   4.005   3.181   2.098
 3873SOL     OW12517   6.897   4.542   1.377
 3873SOL    HW112518   6.965   4.472   1.399
 3873SOL    HW212519   6.935   4.632   1.394
 3874SOL     OW12520   3.537   5.994   6.765
 3874SOL    HW112521   3.491   6.024   6.849
 3874SOL    HW212522   3.468   5.965   6.698
 3875SOL     OW12523   1.037   2.571   2.388
 3875SOL    HW112524   1.043   2.669   2.409
 3875SOL    HW212525   0.941   2.543   2.385
 3876SOL     OW12526   5.804   5.134   0.002
 3876SOL    HW112527   5.708   5.150   7.003
 3876SOL    HW212528   5.835   5.195   0.075
 3877SOL     OW12529   0.029   2.535   6.642
 3877SOL    HW112530   6.975   2.539   6.574
 3877SOL    HW212531   0.005   2.590   6.722
 3878SOL     OW12532   2.395   6.551   5.630
 3878SOL    HW112533   2.315   6.525   5.575
 3878SOL    HW212534   2.458   6.473   5.636
 3879SOL     OW12535   5.057   6.557   1.396
 3879SOL    HW112536   5.155   6.548   1.414
 3879SOL    HW212537   5.009   6.580   1.480
 3880SOL     OW12538   6.194   4.401   3.504
 3880SOL    HW112539   6.144   4.488   3.503
 3880SOL    HW212540   6.261   4.401   3.578
 3881SOL     OW12541   1.370   5.127   0.465
 3881SOL    HW112542   1.321   5.203   0.422
 3881SOL    HW212543   1.380   5.144   0.563
 3882SOL     OW12544   6.281   1.514   4.753
 3882SOL    HW112545   6.297   1.611   4.770
 3882SOL    HW212546   6.347   1.460   4.805
 3883SOL     OW12547   4.787   0.921   3.223
 3883SOL    HW112548   4.886   0.914   3.210
 3883SOL    HW212549   4.764   0.897   3.317
 3884SOL     OW12550   1.681   5.893   4.298
 3884SOL    HW112551   1.639   5.914   4.210
 3884SOL    HW212552   1.771   5.937   4.304
 3885SOL     OW12553   6.381   1.088   4.011
 3885SOL    HW112554   6.281   1.090   4.017
 3885SOL    HW212555   6.414   1.174   3.971
 3886SOL     OW12556   6.705   6.791   4.966
 3886SOL    HW112557   6.699   6.697   4.930
 3886SOL    HW212558   6.676   6.792   5.062
 3887SOL     OW12559   5.493   1.514   5.463
 3887SOL    HW112560   5.459   1.558   5.546
 3887SOL    HW212561   5.430   1.441   5.436
 3888SOL     OW12562   0.638   0.204   6.443
 3888SOL    HW112563   0.575   0.265   6.492
 3888SOL    HW212564   0.586   0.127   6.404
 3889SOL     OW12565   0.001   2.718   5.939
 3889SOL    HW112566   0.093   2.758   5.941
 3889SOL    HW212567   6.994   2.701   5.843
 3890SOL     OW12568   5.720   5.877   2.627
 3890SOL    HW112569   5.765   5.819   2.694
 3890SOL    HW212570   5.773   5.877   2.542
 3891SOL     OW12571   5.406   5.089   4.507
 3891SOL    HW112572   5.359   5.112   4.593
 3891SOL    HW212573   5.443   4.996   4.514
 3892SOL     OW12574   0.127   1.007   2.458
 3892SOL    HW112575   0.137   0.910   2.479
 3892SOL    HW212576   0.054   1.046   2.513
 3893SOL     OW12577   2.807   5.255   2.210
 3893SOL    HW112578   2.817   5.353   2.198
 3893SOL    HW212579   2.891   5.218   2.252
 3894SOL     OW12580   2.866   1.764   0.367
 3894SOL    HW112581   2.891   1.754   0.463
 3894SOL    HW212582   2.826   1.855   0.352
 3895SOL     OW12583   0.999   0.935   5.478
 3895SOL    HW112584   0.944   1.019   5.474
 3895SOL    HW212585   1.039   0.926   5.569
 3896SOL     OW12586   0.278   2.358   5.998
 3896SOL    HW112587   0.191   2.403   6.016
 3896SOL    HW212588   0.270   2.260   6.019
 3897SOL     OW12589   3.511   6.302   1.999
 3897SOL    HW112590   3.494   6.334   1.906
 3897SOL    HW212591   3.503   6.202   2.001
 3898SOL     OW12592   3.354   3.308   3.269
 3898SOL    HW112593   3.270   3.296   3.322
 3898SOL    HW212594   3.413   3.228   3.281
 3899SOL     OW12595   4.766   1.199   4.170
 3899SOL    HW112596   4.776   1.298   4.170
 3899SOL    HW212597   4.850   1.158   4.133
 3900SOL     OW12598   5.050   3.412   3.347
 3900SOL    HW112599   5.111   3.482   3.310
 3900SOL    HW212600   5.103   3.345   3.399
 3901SOL     OW12601   2.878   6.277   5.593
 3901SOL    HW112602   2.860   6.359   5.539
 3901SOL    HW212603   2.973   6.249   5.580
 3902SOL     OW12604   4.920   3.869   2.047
 3902SOL    HW112605   4.926   3.897   2.143
 3902SOL    HW212606   4.827   3.885   2.014
 3903SOL     OW12607   4.400   3.209   7.002
 3903SOL    HW112608   4.374   3.158   0.065
 3903SOL    HW212609   4.400   3.148   6.923
 3904SOL     OW12610   1.672   0.927   6.310
 3904SOL    HW112611   1.638   1.019   6.330
 3904SOL    HW212612   1.748   0.905   6.372
 3905SOL     OW12613   5.855   6.219   5.877
 3905SOL    HW112614   5.898   6.224   5.786
 3905SOL    HW212615   5.871   6.129   5.916
 3906SOL     OW12616   1.562   5.006   5.729
 3906SOL    HW112617   1.584   5.035   5.636
 3906SOL    HW212618   1.578   4.908   5.738
 3907SOL     OW12619   0.213   1.016   4.124
 3907SOL    HW112620   0.150   1.084   4.162
 3907SOL    HW212621   0.283   0.994   4.192
 3908SOL     OW12622   1.098   1.205   6.291
 3908SOL    HW112623   1.185   1.248   6.316
 3908SOL    HW212624   1.027   1.275   6.287
 3909SOL     OW12625   6.409   4.224   6.496
 3909SOL    HW112626   6.415   4.124   6.488
 3909SOL    HW212627   6.319   4.248   6.532
 3910SOL     OW12628   3.590   4.033   1.874
 3910SOL    HW112629   3.584   3.937   1.849
 3910SOL    HW212630   3.616   4.041   1.971
 3911SOL     OW12631   4.985   1.059   0.656
 3911SOL    HW112632   4.914   1.063   0.585
 3911SOL    HW212633   5.074   1.041   0.614
 3912SOL     OW12634   3.765   0.863   6.021
 3912SOL    HW112635   3.728   0.773   6.045
 3912SOL    HW212636   3.752   0.926   6.097
 3913SOL     OW12637   3.396   6.375   6.780
 3913SOL    HW112638   3.483   6.381   6.828
 3913SOL    HW212639   3.411   6.390   6.682
 3914SOL     OW12640   5.271   0.765   1.542
 3914SOL    HW112641   5.292   0.667   1.537
 3914SOL    HW212642   5.172   0.777   1.540
 3915SOL     OW12643   4.602   6.794   6.827
 3915SOL    HW112644   4.542   6.844   6.764
 3915SOL    HW212645   4.551   6.719   6.869
 3916SOL     OW12646   2.829   0.099   3.142
 3916SOL    HW112647   2.855   0.164   3.071
 3916SOL    HW212648   2.876   0.012   3.127
 3917SOL     OW12649   1.800   4.767   0.724
 3917SOL    HW112650   1.789   4.827   0.803
 3917SOL    HW212651   1.877   4.706   0.738
 3918SOL     OW12652   3.767   0.124   1.067
 3918SOL    HW112653   3.749   0.129   1.166
 3918SOL    HW212654   3.826   0.201   1.040
 3919SOL     OW12655   3.838   0.462   6.643
 3919SOL    HW112656   3.905   0.398   6.678
 3919SOL    HW212657   3.791   0.506   6.720
 3920SOL     OW12658   2.464   0.724   0.179
 3920SOL    HW112659   2.370   0.747   0.152
 3920SOL    HW212660   2.523   0.803   0.160
 3921SOL     OW12661   0.324   2.204   6.609
 3921SOL    HW112662   0.262   2.126   6.595
 3921SOL    HW212663   0.331   2.257   6.525
 3922SOL     OW12664   4.737   4.898   1.382
 3922SOL    HW112665   4.749   4.838   1.303
 3922SOL    HW212666   4.647   4.881   1.423
 3923SOL     OW12667   5.548   2.107   0.935
 3923SOL    HW112668   5.565   2.157   1.020
 3923SOL    HW212669   5.501   2.167   0.870
 3924SOL     OW12670   0.483   4.380   3.089
 3924SOL    HW112671   0.569   4.369   3.138
 3924SOL    HW212672   0.408   4.383   3.156
 3925SOL     OW12673   4.988   4.881   1.501
 3925SOL    HW112674   4.897   4.875   1.460
 3925SOL    HW212675   4.982   4.864   1.599
 3926SOL     OW12676   0.362   0.460   5.249
 3926SOL    HW112677   0.287   0.518   5.282
 3926SOL    HW212678   0.426   0.516   5.195
 3927SOL     OW12679   0.664   2.959   3.975
 3927SOL    HW112680   0.695   2.899   4.049
 3927SOL    HW212681   0.659   2.907   3.890
 3928SOL     OW12682   3.239   5.977   2.906
 3928SOL    HW112683   3.208   6.058   2.857
 3928SOL    HW212684   3.249   5.900   2.843
 3929SOL     OW12685   6.959   1.032   0.373
 3929SOL    HW112686   7.016   1.070   0.300
 3929SOL    HW212687   6.967   1.088   0.454
 3930SOL     OW12688   0.788   2.144   3.555
 3930SOL    HW112689   0.823   2.221   3.609
 3930SOL    HW212690   0.786   2.170   3.458
 3931SOL     OW12691   1.820   1.929   1.830
 3931SOL    HW112692   1.909   1.959   1.865
 3931SOL    HW212693   1.776   2.005   1.781
 3932SOL     OW12694   2.539   5.269   4.309
 3932SOL    HW112695   2.478   5.329   4.361
 3932SOL    HW212696   2.538   5.177   4.350
 3933SOL     OW12697   1.598   6.912   0.079
 3933SOL    HW112698   1.540   6.993   0.084
 3933SOL    HW212699   1.683   6.929   0.130
 3934SOL     OW12700   6.986   0.802   3.159
 3934SOL    HW112701   0.044   0.744   3.133
 3934SOL    HW212702   6.944   0.839   3.076
 3935SOL     OW12703   0.645   1.721   5.793
 3935SOL    HW112704   0.595   1.635   5.804
 3935SOL    HW212705   0.619   1.784   5.865
 3936SOL     OW12706   6.901   6.285   5.599
 3936SOL    HW112707   6.957   6.234   5.534
 3936SOL    HW212708   6.808   6.294   5.562
 3937SOL     OW12709   0.524   6.124   3.384
 3937SOL    HW112710   0.494   6.212   3.348
 3937SOL    HW212711   0.489   6.113   3.477
 3938SOL     OW12712   6.455   3.665   4.225
 3938SOL    HW112713   6.418   3.596   4.162
 3938SOL    HW212714   6.420   3.649   4.317
 3939SOL     OW12715   2.782   1.733   3.876
 3939SOL    HW112716   2.830   1.704   3.960
 3939SOL    HW212717   2.736   1.654   3.836
 3940SOL     OW12718   2.922   4.749   1.707
 3940SOL    HW112719   2.927   4.696   1.792
 3940SOL    HW212720   2.974   4.834   1.719
 3941SOL     OW12721   5.529   7.006   4.453
 3941SOL    HW112722   5.529   0.086   4.469
 3941SOL    HW212723   5.584   6.961   4.523
 3942SOL     OW12724   1.029   6.178   5.467
 3942SOL    HW112725   1.124   6.161   5.493
 3942SOL    HW212726   1.025   6.257   5.405
 3943SOL     OW12727   0.983   3.202   2.198
 3943SOL    HW112728   0.899   3.238   2.157
 3943SOL    HW212729   1.062   3.253   2.162
 3944SOL     OW12730   5.356   3.863   5.821
 3944SOL    HW112731   5.450   3.899   5.821
 3944SOL    HW212732   5.350   3.786   5.759
 3945SOL     OW12733   1.287   2.217   3.520
 3945SOL    HW112734   1.263   2.121   3.509
 3945SOL    HW212735   1.273   2.265   3.433
 3946SOL     OW12736   0.362   3.971   6.494
 3946SOL    HW112737   0.310   4.038   6.439
 3946SOL    HW212738   0.371   3.886   6.442
 3947SOL     OW12739   5.815   4.768   0.520
 3947SOL    HW112740   5.822   4.836   0.447
 3947SOL    HW212741   5.775   4.810   0.601
 3948SOL     OW12742   1.393   3.968   0.081
 3948SOL    HW112743   1.316   4.031   0.077
 3948SOL    HW212744   1.451   3.991   0.160
 3949SOL     OW12745   6.344   0.122   3.366
 3949SOL    HW112746   6.348   0.159   3.459
 3949SOL    HW212747   6.436   0.107   3.332
 3950SOL     OW12748   4.135   4.068   1.759
 3950SOL    HW112749   4.229   4.099   1.753
 3950SOL    HW212750   4.098   4.088   1.850
 3951SOL     OW12751   0.083   1.532   6.790
 3951SOL    HW112752   0.098   1.626   6.821
 3951SOL    HW212753   0.166   1.478   6.806
 3952SOL     OW12754   5.987   3.073   4.390
 3952SOL    HW112755   5.901   3.040   4.429
 3952SOL    HW212756   6.052   2.997   4.384
 3953SOL     OW12757   3.488   4.523   5.646
 3953SOL    HW112758   3.408   4.475   5.609
 3953SOL    HW212759   3.507   4.490   5.739
 3954SOL     OW12760   6.140   5.065   5.798
 3954SOL    HW112761   6.189   5.110   5.873
 3954SOL    HW212762   6.042   5.062   5.819
 3955SOL     OW12763   4.691   6.201   0.121
 3955SOL    HW112764   4.742   6.119   0.097
 3955SOL    HW212765   4.626   6.222   0.048
 3956SOL     OW12766   0.666   2.756   5.005
 3956SOL    HW112767   0.635   2.849   4.988
 3956SOL    HW212768   0.690   2.712   4.918
 3957SOL     OW12769   3.302   5.898   3.435
 3957SOL    HW112770   3.215   5.944   3.449
 3957SOL    HW212771   3.294   5.802   3.460
 3958SOL     OW12772   5.887   6.430   0.271
 3958SOL    HW112773   5.878   6.460   0.366
 3958SOL    HW212774   5.803   6.384   0.242
 3959SOL     OW12775   3.449   6.470   1.116
 3959SOL    HW112776   3.369   6.530   1.117
 3959SOL    HW212777   3.521   6.512   1.060
 3960SOL     OW12778   5.385   2.575   6.023
 3960SOL    HW112779   5.339   2.662   6.007
 3960SOL    HW212780   5.317   2.502   6.032
 3961SOL     OW12781   4.916   2.192   1.326
 3961SOL    HW112782   4.983   2.178   1.400
 3961SOL    HW212783   4.965   2.207   1.240
 3962SOL     OW12784   0.714   5.846   6.688
 3962SOL    HW112785   0.809   5.822   6.667
 3962SOL    HW212786   0.692   5.818   6.781
 3963SOL     OW12787   5.856   5.517   3.679
 3963SOL    HW112788   5.948   5.521   3.719
 3963SOL    HW212789   5.828   5.609   3.651
 3964SOL     OW12790   4.659   5.546   5.348
 3964SOL    HW112791   4.637   5.619   5.412
 3964SOL    HW212792   4.684   5.463   5.399
 3965SOL     OW12793   3.410   4.861   5.955
 3965SOL    HW112794   3.363   4.784   6.000
 3965SOL    HW212795   3.406   4.849   5.856
 3966SOL     OW12796   6.525   5.143   0.048
 3966SOL    HW112797   6.460   5.091   7.012
 3966SOL    HW212798   6.477   5.220   0.091
 3967SOL     OW12799   0.974   4.948   3.169
 3967SOL    HW112800   1.004   4.925   3.076
 3967SOL    HW212801   0.934   5.039   3.169
 3968SOL     OW12802   5.630   0.645   2.254
 3968SOL    HW112803   5.694   0.596   2.313
 3968SOL    HW212804   5.616   0.594   2.170
 3969SOL     OW12805   0.750   4.807   2.625
 3969SOL    HW112806   0.685   4.840   2.557
 3969SOL    HW212807   0.840   4.796   2.583
 3970SOL     OW12808   5.184   5.392   3.777
 3970SOL    HW112809   5.251   5.437   3.835
 3970SOL    HW212810   5.106   5.453   3.762
 3971SOL     OW12811   3.070   5.420   2.503
 3971SOL    HW112812   3.011   5.492   2.468
 3971SOL    HW212813   3.037   5.391   2.593
 3972SOL     OW12814   0.786   5.932   0.329
 3972SOL    HW112815   0.716   5.862   0.320
 3972SOL    HW212816   0.746   6.022   0.313
 3973SOL     OW12817   3.466   3.446   4.869
 3973SOL    HW112818   3.482   3.540   4.837
 3973SOL    HW212819   3.549   3.412   4.913
 3974SOL     OW12820   0.765   0.773   6.191
 3974SOL    HW112821   0.848   0.731   6.226
 3974SOL    HW212822   0.781   0.870   6.172
 3975SOL     OW12823   6.595   0.556   5.950
 3975SOL    HW112824   6.677   0.519   5.994
 3975SOL    HW212825   6.514   0.522   5.997
 3976SOL     OW12826   1.269   4.853   1.027
 3976SOL    HW112827   1.297   4.947   1.006
 3976SOL    HW212828   1.189   4.829   0.972
 3977SOL     OW12829   2.962   5.398   5.905
 3977SOL    HW112830   2.906   5.395   5.822
 3977SOL    HW212831   3.009   5.310   5.917
 3978SOL     OW12832   5.283   0.684   4.808
 3978SOL    HW112833   5.287   0.777   4.770
 3978SOL    HW212834   5.328   0.620   4.746
 3979SOL     OW12835   2.224   6.324   2.001
 3979SOL    HW112836   2.264   6.276   1.924
 3979SOL    HW212837   2.216   6.262   2.079
 3980SOL     OW12838   0.052   4.014   5.551
 3980SOL    HW112839   0.039   4.058   5.640
 3980SOL    HW212840   0.103   3.928   5.563
 3981SOL     OW12841   1.084   1.789   5.942
 3981SOL    HW112842   1.096   1.881   5.905
 3981SOL    HW212843   1.005   1.745   5.899
 3982SOL     OW12844   2.747   0.506   4.518
 3982SOL    HW112845   2.702   0.444   4.582
 3982SOL    HW212846   2.788   0.453   4.443
 3983SOL     OW12847   3.151   5.937   4.179
 3983SOL    HW112848   3.120   6.026   4.211
 3983SOL    HW212849   3.094   5.908   4.102
 3984SOL     OW12850   2.444   0.146   1.374
 3984SOL    HW112851   2.348   0.162   1.395
 3984SOL    HW212852   2.502   0.183   1.447
 3985SOL     OW12853   2.360   4.094   6.767
 3985SOL    HW112854   2.290   4.124   6.831
 3985SOL    HW212855   2.367   4.160   6.691
 3986SOL     OW12856   0.301   1.435   3.069
 3986SOL    HW112857   0.348   1.401   3.151
 3986SOL    HW212858   0.308   1.535   3.065
 3987SOL     OW12859   1.595   5.165   5.133
 3987SOL    HW112860   1.608   5.249   5.081
 3987SOL    HW212861   1.591   5.087   5.070
 3988SOL     OW12862   3.647   1.730   5.574
 3988SOL    HW112863   3.547   1.725   5.578
 3988SOL    HW212864   3.681   1.677   5.497
 3989SOL     OW12865   5.948   0.554   5.990
 3989SOL    HW112866   5.875   0.579   5.927
 3989SOL    HW212867   6.021   0.508   5.938
 3990SOL     OW12868   5.615   2.012   4.210
 3990SOL    HW112869   5.639   1.934   4.267
 3990SOL    HW212870   5.613   1.984   4.114
 3991SOL     OW12871   6.701   2.346   3.553
 3991SOL    HW112872   6.767   2.334   3.627
 3991SOL    HW212873   6.608   2.345   3.591
 3992SOL     OW12874   4.648   3.220   6.677
 3992SOL    HW112875   4.563   3.273   6.685
 3992SOL    HW212876   4.718   3.277   6.632
 3993SOL     OW12877   2.595   1.975   3.566
 3993SOL    HW112878   2.539   2.051   3.599
 3993SOL    HW212879   2.586   1.968   3.467
 3994SOL     OW12880   1.956   2.721   4.870
 3994SOL    HW112881   1.949   2.621   4.874
 3994SOL    HW212882   2.037   2.751   4.919
 3995SOL     OW12883   2.360   4.866   3.950
 3995SOL    HW112884   2.428   4.810   3.901
 3995SOL    HW212885   2.375   4.859   4.048
 3996SOL     OW12886   1.700   1.235   5.082
 3996SOL    HW112887   1.609   1.277   5.082
 3996SOL    HW212888   1.743   1.250   5.171
 3997SOL     OW12889   4.918   3.963   3.561
 3997SOL    HW112890   5.012   3.992   3.545
 3997SOL    HW212891   4.885   3.912   3.482
 3998SOL     OW12892   5.413   2.332   2.198
 3998SOL    HW112893   5.382   2.271   2.125
 3998SOL    HW212894   5.498   2.296   2.237
 3999SOL     OW12895   5.673   3.299   3.506
 3999SOL    HW112896   5.669   3.376   3.442
 3999SOL    HW212897   5.644   3.329   3.596
 4000SOL     OW12898   3.290   5.237   2.438
 4000SOL    HW112899   3.227   5.310   2.465
 4000SOL    HW212900   3.383   5.261   2.468
 4001SOL     OW12901   2.070   3.610   5.346
 4001SOL    HW112902   2.106   3.703   5.340
 4001SOL    HW212903   1.976   3.609   5.311
 4002SOL     OW12904   3.718   3.942   5.089
 4002SOL    HW112905   3.751   3.853   5.121
 4002SOL    HW212906   3.790   4.010   5.101
 4003SOL     OW12907   2.043   1.075   5.960
 4003SOL    HW112908   1.984   1.011   6.009
 4003SOL    HW212909   2.126   1.027   5.929
 4004SOL     OW12910   5.952   2.917   4.653
 4004SOL    HW112911   6.008   2.987   4.697
 4004SOL    HW212912   5.903   2.865   4.722
 4005SOL     OW12913   5.136   4.499   1.031
 4005SOL    HW112914   5.216   4.440   1.045
 4005SOL    HW212915   5.066   4.475   1.098
 4006SOL     OW12916   5.231   4.658   2.193
 4006SOL    HW112917   5.170   4.726   2.233
 4006SOL    HW212918   5.213   4.569   2.235
 4007SOL     OW12919   0.606   2.323   2.746
 4007SOL    HW112920   0.617   2.270   2.830
 4007SOL    HW212921   0.572   2.415   2.768
 4008SOL     OW12922   3.332   1.468   5.922
 4008SOL    HW112923   3.311   1.500   5.830
 4008SOL    HW212924   3.331   1.546   5.985
 4009SOL     OW12925   4.097   1.991   0.870
 4009SOL    HW112926   4.018   1.966   0.813
 4009SOL    HW212927   4.097   2.090   0.886
 4010SOL     OW12928   2.654   3.251   1.560
 4010SOL    HW112929   2.562   3.233   1.595
 4010SOL    HW212930   2.720   3.194   1.610
 4011SOL     OW12931   0.249   6.546   1.984
 4011SOL    HW112932   0.303   6.623   2.019
 4011SOL    HW212933   0.298   6.503   1.908
 4012SOL     OW12934   4.289   6.190   1.936
 4012SOL    HW112935   4.224   6.140   1.993
 4012SOL    HW212936   4.341   6.254   1.992
 4013SOL     OW12937   2.596   0.282   1.184
 4013SOL    HW112938   2.525   0.241   1.241
 4013SOL    HW212939   2.686   0.251   1.214
 4014SOL     OW12940   3.503   5.675   4.022
 4014SOL    HW112941   3.541   5.661   4.113
 4014SOL    HW212942   3.474   5.770   4.012
 4015SOL     OW12943   4.383   4.462   6.932
 4015SOL    HW112944   4.368   4.384   6.993
 4015SOL    HW212945   4.307   4.526   6.940
 4016SOL     OW12946   2.210   5.763   0.087
 4016SOL    HW112947   2.198   5.677   0.038
 4016SOL    HW212948   2.188   5.839   0.025
 4017SOL     OW12949   0.859   6.257   5.994
 4017SOL    HW112950   0.862   6.159   6.013
 4017SOL    HW212951   0.794   6.301   6.055
 4018SOL     OW12952   4.718   6.559   1.001
 4018SOL    HW112953   4.652   6.488   1.025
 4018SOL    HW212954   4.771   6.530   0.922
 4019SOL     OW12955   5.854   4.021   2.877
 4019SOL    HW112956   5.828   3.986   2.967
 4019SOL    HW212957   5.937   3.976   2.846
 4020SOL     OW12958   6.971   3.230   5.936
 4020SOL    HW112959   6.915   3.148   5.928
 4020SOL    HW212960   6.960   3.270   6.027
 4021SOL     OW12961   3.420   4.024   5.075
 4021SOL    HW112962   3.402   4.078   4.993
 4021SOL    HW212963   3.453   3.934   5.050
 4022SOL     OW12964   4.827   6.895   6.964
 4022SOL    HW112965   4.742   6.868   6.919
 4022SOL    HW212966   4.806   6.953   0.024
 4023SOL     OW12967   0.433   0.577   4.116
 4023SOL    HW112968   0.360   0.591   4.049
 4023SOL    HW212969   0.403   0.612   4.206
 4024SOL     OW12970   2.300   5.602   4.266
 4024SOL    HW112971   2.210   5.643   4.251
 4024SOL    HW212972   2.294   5.535   4.340
 4025SOL     OW12973   0.940   6.432   4.041
 4025SOL    HW112974   0.893   6.358   3.992
 4025SOL    HW212975   0.915   6.429   4.138
 4026SOL     OW12976   5.902   6.620   3.166
 4026SOL    HW112977   5.897   6.677   3.085
 4026SOL    HW212978   5.988   6.638   3.215
 4027SOL     OW12979   2.817   2.331   0.496
 4027SOL    HW112980   2.725   2.299   0.470
 4027SOL    HW212981   2.812   2.377   0.585
 4028SOL     OW12982   3.565   1.412   3.619
 4028SOL    HW112983   3.479   1.363   3.633
 4028SOL    HW212984   3.569   1.490   3.681
 4029SOL     OW12985   3.326   4.559   5.920
 4029SOL    HW112986   3.292   4.572   5.827
 4029SOL    HW212987   3.399   4.490   5.919
 4030SOL     OW12988   0.610   1.486   1.725
 4030SOL    HW112989   0.579   1.395   1.752
 4030SOL    HW212990   0.662   1.480   1.640
 4031SOL     OW12991   5.279   5.957   3.472
 4031SOL    HW112992   5.333   5.929   3.552
 4031SOL    HW212993   5.212   6.026   3.500
 4032SOL     OW12994   6.236   0.583   2.017
 4032SOL    HW112995   6.254   0.523   2.095
 4032SOL    HW212996   6.239   0.529   1.933
 4033SOL     OW12997   2.198   3.635   1.433
 4033SOL    HW112998   2.101   3.632   1.410
 4033SOL    HW212999   2.209   3.654   1.530
 4034SOL     OW13000   6.727   1.764   4.303
 4034SOL    HW113001   6.654   1.797   4.244
 4034SOL    HW213002   6.688   1.734   4.390
 4035SOL     OW13003   6.352   2.294   1.105
 4035SOL    HW113004   6.390   2.386   1.116
 4035SOL    HW213005   6.350   2.270   1.008
 4036SOL     OW13006   4.173   5.622   2.378
 4036SOL    HW113007   4.127   5.670   2.453
 4036SOL    HW213008   4.253   5.674   2.350
 4037SOL     OW13009   2.323   1.499   0.084
 4037SOL    HW113010   2.227   1.482   0.105
 4037SOL    HW213011   2.369   1.537   0.164
 4038SOL     OW13012   4.688   3.022   1.600
 4038SOL    HW113013   4.672   2.997   1.695
 4038SOL    HW213014   4.748   2.954   1.557
 4039SOL     OW13015   5.619   4.980   1.805
 4039SOL    HW113016   5.575   4.988   1.715
 4039SOL    HW213017   5.715   5.003   1.797
 4040SOL     OW13018   3.870   6.943   6.228
 4040SOL    HW113019   3.851   7.013   6.160
 4040SOL    HW213020   3.818   6.962   6.312
 4041SOL     OW13021   0.998   4.919   1.340
 4041SOL    HW113022   0.954   4.894   1.254
 4041SOL    HW213023   1.061   4.846   1.368
 4042SOL     OW13024   5.852   5.694   3.184
 4042SOL    HW113025   5.919   5.706   3.258
 4042SOL    HW213026   5.896   5.714   3.097
 4043SOL     OW13027   5.886   1.702   4.941
 4043SOL    HW113028   5.970   1.751   4.917
 4043SOL    HW213029   5.878   1.693   5.040
 4044SOL     OW13030   4.456   0.168   3.180
 4044SOL    HW113031   4.411   0.258   3.185
 4044SOL    HW213032   4.555   0.181   3.185
 4045SOL     OW13033   3.561   5.906   5.087
 4045SOL    HW113034   3.556   5.997   5.046
 4045SOL    HW213035   3.649   5.894   5.132
 4046SOL     OW13036   1.422   1.787   4.230
 4046SOL    HW113037   1.522   1.786   4.224
 4046SOL    HW213038   1.391   1.705   4.278
 4047SOL     OW13039   2.100   2.312   0.292
 4047SOL    HW113040   2.034   2.376   0.254
 4047SOL    HW213041   2.057   2.258   0.364
 4048SOL     OW13042   5.038   2.068   1.848
 4048SOL    HW113043   5.064   1.978   1.881
 4048SOL    HW213044   4.993   2.060   1.759
 4049SOL     OW13045   6.208   5.046   6.477
 4049SOL    HW113046   6.277   5.072   6.409
 4049SOL    HW213047   6.199   4.947   6.480
 4050SOL     OW13048   1.653   0.356   1.582
 4050SOL    HW113049   1.587   0.431   1.574
 4050SOL    HW213050   1.726   0.382   1.645
 4051SOL     OW13051   4.130   1.861   0.019
 4051SOL    HW113052   4.052   1.816   6.995
 4051SOL    HW213053   4.214   1.811   7.016
 4052SOL     OW13054   6.720   1.156   3.004
 4052SOL    HW113055   6.701   1.238   2.951
 4052SOL    HW213056   6.726   1.180   3.101
 4053SOL     OW13057   2.994   5.537   3.746
 4053SOL    HW113058   3.005   5.605   3.674
 4053SOL    HW213059   3.048   5.564   3.826
 4054SOL     OW13060   6.099   3.629   1.856
 4054SOL    HW113061   6.046   3.692   1.913
 4054SOL    HW213062   6.077   3.645   1.760
 4055SOL     OW13063   3.147   3.008   0.157
 4055SOL    HW113064   3.064   3.013   0.101
 4055SOL    HW213065   3.125   3.027   0.252
 4056SOL     OW13066   3.904   3.890   0.647
 4056SOL    HW113067   4.003   3.877   0.649
 4056SOL    HW213068   3.882   3.981   0.683
 4057SOL     OW13069   6.068   2.836   1.440
 4057SOL    HW113070   6.032   2.893   1.365
 4057SOL    HW213071   6.027   2.865   1.526
 4058SOL     OW13072   1.859   0.159   4.640
 4058SOL    HW113073   1.801   0.078   4.635
 4058SOL    HW213074   1.805   0.237   4.672
 4059SOL     OW13075   1.747   1.923   3.358
 4059SOL    HW113076   1.735   1.954   3.452
 4059SOL    HW213077   1.703   1.988   3.296
 4060SOL     OW13078   5.582   5.545   4.511
 4060SOL    HW113079   5.679   5.560   4.491
 4060SOL    HW213080   5.560   5.449   4.495
 4061SOL     OW13081   2.828   4.871   1.972
 4061SOL    HW113082   2.912   4.895   2.021
 4061SOL    HW213083   2.811   4.773   1.982
 4062SOL     OW13084   1.839   2.282   2.049
 4062SOL    HW113085   1.802   2.278   2.142
 4062SOL    HW213086   1.895   2.201   2.032
 4063SOL     OW13087   6.147   6.280   6.569
 4063SOL    HW113088   6.165   6.379   6.567
 4063SOL    HW213089   6.048   6.264   6.568
 4064SOL     OW13090   2.321   0.112   3.806
 4064SOL    HW113091   2.416   0.121   3.776
 4064SOL    HW213092   2.308   0.024   3.851
 4065SOL     OW13093   0.497   0.018   1.196
 4065SOL    HW113094   0.425   0.057   1.139
 4065SOL    HW213095   0.540   0.091   1.250
 4066SOL     OW13096   5.621   5.327   3.875
 4066SOL    HW113097   5.600   5.298   3.782
 4066SOL    HW213098   5.604   5.252   3.939
 4067SOL     OW13099   6.281   3.266   3.057
 4067SOL    HW113100   6.188   3.231   3.065
 4067SOL    HW213101   6.343   3.192   3.033
 4068SOL     OW13102   2.460   1.199   4.754
 4068SOL    HW113103   2.519   1.261   4.704
 4068SOL    HW213104   2.374   1.187   4.704
 4069SOL     OW13105   2.620   5.130   6.113
 4069SOL    HW113106   2.586   5.181   6.034
 4069SOL    HW213107   2.709   5.166   6.141
 4070SOL     OW13108   0.175   3.368   2.362
 4070SOL    HW113109   0.102   3.304   2.387
 4070SOL    HW213110   0.264   3.330   2.389
 4071SOL     OW13111   1.408   0.610   5.400
 4071SOL    HW113112   1.379   0.665   5.322
 4071SOL    HW213113   1.342   0.622   5.475
 4072SOL     OW13114   0.174   5.563   4.335
 4072SOL    HW113115   0.264   5.534   4.368
 4072SOL    HW213116   0.104   5.531   4.399
 4073SOL     OW13117   2.889   6.156   6.650
 4073SOL    HW113118   2.813   6.196   6.598
 4073SOL    HW213119   2.948   6.229   6.685
 4074SOL     OW13120   7.002   3.255   1.911
 4074SOL    HW113121   0.077   3.263   1.881
 4074SOL    HW213122   6.963   3.346   1.924
 4075SOL     OW13123   3.859   1.906   1.994
 4075SOL    HW113124   3.840   1.898   2.092
 4075SOL    HW213125   3.785   1.956   1.950
 4076SOL     OW13126   2.781   2.602   5.745
 4076SOL    HW113127   2.715   2.546   5.695
 4076SOL    HW213128   2.801   2.684   5.693
 4077SOL     OW13129   3.114   0.921   0.783
 4077SOL    HW113130   3.213   0.934   0.784
 4077SOL    HW213131   3.089   0.852   0.851
 4078SOL     OW13132   0.083   6.015   2.027
 4078SOL    HW113133   7.013   6.016   2.072
 4078SOL    HW213134   0.155   6.030   2.094
 4079SOL     OW13135   1.756   2.157   3.896
 4079SOL    HW113136   1.679   2.099   3.869
 4079SOL    HW213137   1.729   2.214   3.974
 4080SOL     OW13138   3.476   4.191   6.672
 4080SOL    HW113139   3.487   4.140   6.757
 4080SOL    HW213140   3.554   4.172   6.612
 4081SOL     OW13141   2.008   2.739   4.574
 4081SOL    HW113142   1.983   2.830   4.539
 4081SOL    HW213143   2.014   2.743   4.674
 4082SOL     OW13144   1.548   3.352   0.951
 4082SOL    HW113145   1.606   3.303   1.016
 4082SOL    HW213146   1.602   3.379   0.872
 4083SOL     OW13147   6.969   4.546   1.844
 4083SOL    HW113148   7.005   4.455   1.820
 4083SOL    HW213149   6.880   4.559   1.801
 4084SOL     OW13150   4.808   2.026   3.566
 4084SOL    HW113151   4.897   2.031   3.519
 4084SOL    HW213152   4.767   2.117   3.570
 4085SOL     OW13153   2.386   6.216   0.955
 4085SOL    HW113154   2.375   6.315   0.940
 4085SOL    HW213155   2.310   6.168   0.911
 4086SOL     OW13156   1.097   5.421   1.677
 4086SOL    HW113157   1.076   5.399   1.772
 4086SOL    HW213158   1.089   5.338   1.622
 4087SOL     OW13159   1.950   1.302   3.425
 4087SOL    HW113160   2.027   1.244   3.452
 4087SOL    HW213161   1.951   1.387   3.478
 4088SOL     OW13162   5.971   1.148   6.619
 4088SOL    HW113163   5.959   1.117   6.713
 4088SOL    HW213164   5.890   1.123   6.565
 4089SOL     OW13165   5.912   5.298   3.924
 4089SOL    HW113166   5.960   5.369   3.873
 4089SOL    HW213167   5.813   5.308   3.911
 4090SOL     OW13168   1.470   5.625   5.089
 4090SOL    HW113169   1.385   5.576   5.073
 4090SOL    HW213170   1.461   5.684   5.169
 4091SOL     OW13171   6.585   6.466   6.373
 4091SOL    HW113172   6.633   6.532   6.315
 4091SOL    HW213173   6.506   6.429   6.324
 4092SOL     OW13174   5.769   2.158   4.397
 4092SOL    HW113175   5.685   2.204   4.368
 4092SOL    HW213176   5.831   2.151   4.319
 4093SOL     OW13177   4.415   5.745   2.336
 4093SOL    HW113178   4.459   5.758   2.247
 4093SOL    HW213179   4.474   5.689   2.394
 4094SOL     OW13180   1.945   5.562   5.692
 4094SOL    HW113181   2.042   5.550   5.673
 4094SOL    HW213182   1.890   5.515   5.623
 4095SOL     OW13183   0.789   3.638   0.413
 4095SOL    HW113184   0.735   3.704   0.464
 4095SOL    HW213185   0.867   3.608   0.468
 4096SOL     OW13186   4.848   0.065   6.332
 4096SOL    HW113187   4.822   6.999   6.379
 4096SOL    HW213188   4.786   0.081   6.255
 4097SOL     OW13189   3.998   4.953   5.004
 4097SOL    HW113190   4.036   4.872   4.960
 4097SOL    HW213191   3.959   5.014   4.935
 4098SOL     OW13192   6.860   2.605   1.844
 4098SOL    HW113193   6.794   2.529   1.846
 4098SOL    HW213194   6.944   2.575   1.798
 4099SOL     OW13195   3.483   5.083   1.293
 4099SOL    HW113196   3.394   5.119   1.322
 4099SOL    HW213197   3.488   4.986   1.314
 4100SOL     OW13198   0.018   0.185   4.546
 4100SOL    HW113199   0.054   0.106   4.497
 4100SOL    HW213200   6.956   0.219   4.499
 4101SOL     OW13201   6.485   0.917   6.310
 4101SOL    HW113202   6.530   0.885   6.226
 4101SOL    HW213203   6.390   0.942   6.290
 4102SOL     OW13204   0.065   0.864   0.700
 4102SOL    HW113205   0.083   0.946   0.644
 4102SOL    HW213206   0.125   0.790   0.671
 4103SOL     OW13207   7.003   0.033   0.041
 4103SOL    HW113208   6.953   0.106   0.087
 4103SOL    HW213209   0.009   6.982   0.107
 4104SOL     OW13210   6.871   4.923   2.930
 4104SOL    HW113211   6.813   4.989   2.978
 4104SOL    HW213212   6.825   4.893   2.847
 4105SOL     OW13213   5.369   0.238   1.858
 4105SOL    HW113214   5.319   0.321   1.831
 4105SOL    HW213215   5.390   0.185   1.776
 4106SOL     OW13216   6.411   3.139   2.788
 4106SOL    HW113217   6.348   3.145   2.710
 4106SOL    HW213218   6.465   3.223   2.793
 4107SOL     OW13219   1.067   5.244   0.793
 4107SOL    HW113220   1.154   5.198   0.773
 4107SOL    HW213221   1.084   5.320   0.855
 4108SOL     OW13222   6.086   4.995   5.496
 4108SOL    HW113223   6.131   5.012   5.583
 4108SOL    HW213224   6.035   5.076   5.468
 4109SOL     OW13225   6.583   6.708   4.412
 4109SOL    HW113226   6.503   6.682   4.357
 4109SOL    HW213227   6.553   6.734   4.504
 4110SOL     OW13228   4.383   3.489   6.022
 4110SOL    HW113229   4.476   3.454   6.037
 4110SOL    HW213230   4.364   3.491   5.924
 4111SOL     OW13231   5.218   3.549   0.064
 4111SOL    HW113232   5.210   3.647   0.046
 4111SOL    HW213233   5.145   3.521   0.127
 4112SOL     OW13234   5.184   6.158   4.746
 4112SOL    HW113235   5.138   6.242   4.718
 4112SOL    HW213236   5.135   6.079   4.709
 4113SOL     OW13237   5.175   6.130   5.005
 4113SOL    HW113238   5.186   6.217   5.054
 4113SOL    HW213239   5.207   6.140   4.911
 4114SOL     OW13240   3.687   2.126   4.422
 4114SOL    HW113241   3.750   2.149   4.348
 4114SOL    HW213242   3.593   2.145   4.393
 4115SOL     OW13243   3.390   5.497   1.876
 4115SOL    HW113244   3.446   5.429   1.924
 4115SOL    HW213245   3.412   5.495   1.779
 4116SOL     OW13246   3.551   1.064   2.251
 4116SOL    HW113247   3.574   1.137   2.316
 4116SOL    HW213248   3.613   1.069   2.173
 4117SOL     OW13249   1.610   3.709   2.550
 4117SOL    HW113250   1.613   3.687   2.453
 4117SOL    HW213251   1.544   3.650   2.597
 4118SOL     OW13252   4.397   5.880   0.169
 4118SOL    HW113253   4.324   5.812   0.172
 4118SOL    HW213254   4.463   5.862   0.241
 4119SOL     OW13255   3.183   1.885   3.911
 4119SOL    HW113256   3.237   1.820   3.964
 4119SOL    HW213257   3.212   1.978   3.933
 4120SOL     OW13258   3.471   0.628   6.617
 4120SOL    HW113259   3.522   0.558   6.566
 4120SOL    HW213260   3.433   0.695   6.553
 4121SOL     OW13261   5.921   0.840   4.220
 4121SOL    HW113262   6.019   0.819   4.222
 4121SOL    HW213263   5.900   0.905   4.292
 4122SOL     OW13264   1.082   6.089   3.989
 4122SOL    HW113265   1.159   6.150   4.009
 4122SOL    HW213266   1.020   6.133   3.924
 4123SOL     OW13267   4.182   4.679   5.343
 4123SOL    HW113268   4.083   4.692   5.331
 4123SOL    HW213269   4.205   4.687   5.440
 4124SOL     OW13270   0.320   6.230   0.264
 4124SOL    HW113271   0.329   6.302   0.195
 4124SOL    HW213272   0.230   6.186   0.255
 4125SOL     OW13273   4.752   1.545   2.244
 4125SOL    HW113274   4.674   1.497   2.203
 4125SOL    HW213275   4.832   1.535   2.183
 4126SOL     OW13276   1.772   3.449   4.201
 4126SOL    HW113277   1.695   3.398   4.239
 4126SOL    HW213278   1.754   3.547   4.209
 4127SOL     OW13279   5.334   4.818   5.182
 4127SOL    HW113280   5.277   4.886   5.227
 4127SOL    HW213281   5.352   4.743   5.245
 4128SOL     OW13282   0.926   2.782   2.107
 4128SOL    HW113283   0.998   2.715   2.092
 4128SOL    HW213284   0.880   2.803   2.020
 4129SOL     OW13285   3.903   1.242   6.233
 4129SOL    HW113286   3.972   1.302   6.192
 4129SOL    HW213287   3.812   1.273   6.207
 4130SOL     OW13288   0.056   3.179   7.012
 4130SOL    HW113289   0.132   3.223   6.966
 4130SOL    HW213290   0.084   3.153   0.086
 4131SOL     OW13291   0.547   1.248   3.564
 4131SOL    HW113292   0.619   1.317   3.560
 4131SOL    HW213293   0.508   1.234   3.473
 4132SOL     OW13294   5.019   4.308   3.484
 4132SOL    HW113295   4.995   4.304   3.387
 4132SOL    HW213296   5.117   4.323   3.494
 4133SOL     OW13297   3.250   5.527   0.834
 4133SOL    HW113298   3.274   5.432   0.815
 4133SOL    HW213299   3.297   5.587   0.770
 4134SOL     OW13300   2.509   3.801   1.112
 4134SOL    HW113301   2.455   3.771   1.034
 4134SOL    HW213302   2.507   3.731   1.183
 4135SOL     OW13303   1.174   1.583   2.665
 4135SOL    HW113304   1.240   1.511   2.685
 4135SOL    HW213305   1.100   1.579   2.732
 4136SOL     OW13306   1.248   2.803   3.678
 4136SOL    HW113307   1.309   2.768   3.607
 4136SOL    HW213308   1.288   2.788   3.768
 4137SOL     OW13309   1.088   4.304   1.016
 4137SOL    HW113310   1.133   4.279   0.930
 4137SOL    HW213311   1.121   4.244   1.089
 4138SOL     OW13312   4.890   5.981   2.589
 4138SOL    HW113313   4.819   6.014   2.526
 4138SOL    HW213314   4.979   5.981   2.542
 4139SOL     OW13315   1.962   1.757   5.738
 4139SOL    HW113316   2.059   1.782   5.736
 4139SOL    HW213317   1.946   1.682   5.674
 4140SOL     OW13318   3.585   0.382   5.491
 4140SOL    HW113319   3.595   0.320   5.413
 4140SOL    HW213320   3.498   0.431   5.483
 4141SOL     OW13321   5.641   6.371   0.839
 4141SOL    HW113322   5.568   6.329   0.895
 4141SOL    HW213323   5.599   6.429   0.769
 4142SOL     OW13324   6.852   4.755   1.032
 4142SOL    HW113325   6.819   4.674   0.984
 4142SOL    HW213326   6.951   4.748   1.044
 4143SOL     OW13327   5.621   1.894   0.584
 4143SOL    HW113328   5.686   1.907   0.509
 4143SOL    HW213329   5.538   1.947   0.566
 4144SOL     OW13330   4.776   2.956   6.985
 4144SOL    HW113331   4.815   2.888   6.922
 4144SOL    HW213332   4.697   2.916   0.013
 4145SOL     OW13333   0.018   6.397   1.475
 4145SOL    HW113334   6.972   6.364   1.544
 4145SOL    HW213335   0.074   6.470   1.514
 4146SOL     OW13336   6.521   0.208   2.962
 4146SOL    HW113337   6.574   0.293   2.960
 4146SOL    HW213338   6.429   0.227   2.997
 4147SOL     OW13339   4.962   4.479   6.238
 4147SOL    HW113340   4.912   4.406   6.285
 4147SOL    HW213341   4.908   4.564   6.241
 4148SOL     OW13342   1.210   0.432   5.212
 4148SOL    HW113343   1.154   0.462   5.135
 4148SOL    HW213344   1.174   0.473   5.296
 4149SOL     OW13345   6.978   3.608   0.913
 4149SOL    HW113346   0.048   3.574   0.883
 4149SOL    HW213347   6.924   3.633   0.833
 4150SOL     OW13348   1.437   0.330   5.465
 4150SOL    HW113349   1.349   0.284   5.466
 4150SOL    HW213350   1.423   0.429   5.468
 4151SOL     OW13351   2.493   6.047   5.619
 4151SOL    HW113352   2.502   6.062   5.520
 4151SOL    HW213353   2.404   6.005   5.639
 4152SOL     OW13354   4.540   5.615   0.865
 4152SOL    HW113355   4.571   5.684   0.799
 4152SOL    HW213356   4.536   5.655   0.956
 4153SOL     OW13357   4.925   5.527   0.348
 4153SOL    HW113358   4.967   5.559   0.433
 4153SOL    HW213359   4.848   5.586   0.324
 4154SOL     OW13360   0.174   5.360   3.004
 4154SOL    HW113361   0.101   5.428   3.000
 4154SOL    HW213362   0.142   5.279   3.053
 4155SOL     OW13363   1.130   1.244   3.013
 4155SOL    HW113364   1.219   1.285   3.030
 4155SOL    HW213365   1.058   1.309   3.035
 4156SOL     OW13366   5.809   6.129   4.956
 4156SOL    HW113367   5.761   6.052   4.914
 4156SOL    HW213368   5.894   6.096   4.999
 4157SOL     OW13369   4.448   5.138   3.686
 4157SOL    HW113370   4.510   5.099   3.754
 4157SOL    HW213371   4.355   5.140   3.723
 4158SOL     OW13372   0.383   4.034   1.778
 4158SOL    HW113373   0.327   3.953   1.796
 4158SOL    HW213374   0.479   4.013   1.793
 4159SOL     OW13375   1.904   3.642   3.917
 4159SOL    HW113376   1.947   3.593   3.841
 4159SOL    HW213377   1.856   3.577   3.976
 4160SOL     OW13378   6.329   1.023   0.873
 4160SOL    HW113379   6.374   1.023   0.962
 4160SOL    HW213380   6.297   0.931   0.851
 4161SOL     OW13381   0.910   1.381   1.067
 4161SOL    HW113382   0.906   1.309   0.999
 4161SOL    HW213383   0.829   1.377   1.126
 4162SOL     OW13384   0.129   5.953   6.579
 4162SOL    HW113385   0.190   6.031   6.564
 4162SOL    HW213386   0.142   5.918   6.672
 4163SOL     OW13387   4.751   6.744   3.278
 4163SOL    HW113388   4.729   6.755   3.375
 4163SOL    HW213389   4.688   6.799   3.223
 4164SOL     OW13390   1.584   6.697   5.735
 4164SOL    HW113391   1.544   6.640   5.663
 4164SOL    HW213392   1.677   6.723   5.708
 4165SOL     OW13393   4.251   0.119   6.300
 4165SOL    HW113394   4.236   0.116   6.399
 4165SOL    HW213395   4.254   0.026   6.264
 4166SOL     OW13396   6.273   2.777   0.566
 4166SOL    HW113397   6.221   2.752   0.485
 4166SOL    HW213398   6.210   2.805   0.639
 4167SOL     OW13399   1.655   3.779   0.920
 4167SOL    HW113400   1.670   3.849   0.990
 4167SOL    HW213401   1.557   3.761   0.912
 4168SOL     OW13402   6.628   4.607   1.512
 4168SOL    HW113403   6.681   4.609   1.597
 4168SOL    HW213404   6.690   4.601   1.434
 4169SOL     OW13405   6.154   4.281   4.565
 4169SOL    HW113406   6.105   4.358   4.606
 4169SOL    HW213407   6.169   4.210   4.634
 4170SOL     OW13408   4.431   4.213   5.989
 4170SOL    HW113409   4.517   4.215   6.040
 4170SOL    HW213410   4.355   4.197   6.053
 4171SOL     OW13411   6.636   6.042   0.684
 4171SOL    HW113412   6.537   6.057   0.676
 4171SOL    HW213413   6.663   5.966   0.625
 4172SOL     OW13414   0.966   2.078   5.937
 4172SOL    HW113415   0.902   2.060   5.862
 4172SOL    HW213416   0.926   2.144   6.000
 4173SOL     OW13417   5.225   4.045   5.655
 4173SOL    HW113418   5.263   3.969   5.708
 4173SOL    HW213419   5.126   4.031   5.643
 4174SOL     OW13420   5.657   0.354   3.448
 4174SOL    HW113421   5.618   0.411   3.521
 4174SOL    HW213422   5.671   0.261   3.483
 4175SOL     OW13423   2.270   6.382   4.269
 4175SOL    HW113424   2.357   6.427   4.289
 4175SOL    HW213425   2.284   6.312   4.199
 4176SOL     OW13426   3.203   5.918   2.191
 4176SOL    HW113427   3.268   5.894   2.263
 4176SOL    HW213428   3.198   5.843   2.124
 4177SOL     OW13429   6.601   4.127   5.512
 4177SOL    HW113430   6.622   4.216   5.551
 4177SOL    HW213431   6.529   4.137   5.443
 4178SOL     OW13432   4.888   0.858   3.711
 4178SOL    HW113433   4.875   0.949   3.750
 4178SOL    HW213434   4.924   0.796   3.780
 4179SOL     OW13435   4.528   2.598   3.843
 4179SOL    HW113436   4.479   2.555   3.918
 4179SOL    HW213437   4.524   2.697   3.853
 4180SOL     OW13438   5.689   4.871   0.749
 4180SOL    HW113439   5.717   4.803   0.818
 4180SOL    HW213440   5.625   4.828   0.685
 4181SOL     OW13441   2.318   1.595   0.926
 4181SOL    HW113442   2.307   1.623   0.831
 4181SOL    HW213443   2.403   1.542   0.936
 4182SOL     OW13444   0.679   6.768   3.211
 4182SOL    HW113445   0.721   6.677   3.213
 4182SOL    HW213446   0.751   6.837   3.200
 4183SOL     OW13447   3.735   1.264   0.060
 4183SOL    HW113448   3.751   1.218   0.147
 4183SOL    HW213449   3.764   1.204   7.004
 4184SOL     OW13450   4.790   5.069   1.606
 4184SOL    HW113451   4.751   5.016   1.531
 4184SOL    HW213452   4.866   5.125   1.572
 4185SOL     OW13453   0.305   5.489   2.328
 4185SOL    HW113454   0.330   5.467   2.234
 4185SOL    HW213455   0.366   5.561   2.363
 4186SOL     OW13456   2.149   5.274   0.002
 4186SOL    HW113457   2.236   5.300   0.044
 4186SOL    HW213458   2.166   5.211   6.945
 4187SOL     OW13459   3.452   3.388   5.727
 4187SOL    HW113460   3.423   3.484   5.726
 4187SOL    HW213461   3.386   3.334   5.781
 4188SOL     OW13462   4.770   6.894   4.679
 4188SOL    HW113463   4.857   6.877   4.725
 4188SOL    HW213464   4.755   6.823   4.610
 4189SOL     OW13465   3.702   6.150   5.347
 4189SOL    HW113466   3.782   6.197   5.310
 4189SOL    HW213467   3.707   6.152   5.447
 4190SOL     OW13468   0.884   0.794   0.179
 4190SOL    HW113469   0.949   0.737   0.229
 4190SOL    HW213470   0.930   0.838   0.102
 4191SOL     OW13471   4.976   4.048   3.144
 4191SOL    HW113472   4.901   4.091   3.194
 4191SOL    HW213473   5.004   4.106   3.068
 4192SOL     OW13474   0.887   1.581   4.028
 4192SOL    HW113475   0.943   1.654   3.989
 4192SOL    HW213476   0.940   1.529   4.094
 4193SOL     OW13477   1.405   0.758   1.888
 4193SOL    HW113478   1.314   0.744   1.848
 4193SOL    HW213479   1.440   0.671   1.923
 4194SOL     OW13480   5.740   0.783   4.982
 4194SOL    HW113481   5.808   0.775   5.055
 4194SOL    HW213482   5.744   0.874   4.942
 4195SOL     OW13483   3.813   6.275   1.664
 4195SOL    HW113484   3.884   6.267   1.734
 4195SOL    HW213485   3.804   6.189   1.615
 4196SOL     OW13486   5.536   2.105   3.197
 4196SOL    HW113487   5.528   2.201   3.170
 4196SOL    HW213488   5.534   2.099   3.297
 4197SOL     OW13489   5.468   5.713   5.916
 4197SOL    HW113490   5.400   5.711   5.990
 4197SOL    HW213491   5.433   5.769   5.841
 4198SOL     OW13492   5.598   3.096   0.129
 4198SOL    HW113493   5.557   3.145   0.206
 4198SOL    HW213494   5.593   3.152   0.047
 4199SOL     OW13495   2.315   2.785   5.827
 4199SOL    HW113496   2.297   2.848   5.902
 4199SOL    HW213497   2.385   2.719   5.855
 4200SOL     OW13498   3.444   6.517   6.075
 4200SOL    HW113499   3.501   6.599   6.066
 4200SOL    HW213500   3.352   6.536   6.040
 4201SOL     OW13501   6.081   6.354   3.766
 4201SOL    HW113502   6.155   6.293   3.794
 4201SOL    HW213503   5.996   6.302   3.761
 4202SOL     OW13504   4.191   4.766   5.596
 4202SOL    HW113505   4.172   4.829   5.671
 4202SOL    HW213506   4.251   4.692   5.628
 4203SOL     OW13507   5.004   4.973   0.425
 4203SOL    HW113508   5.093   4.953   0.384
 4203SOL    HW213509   4.932   4.933   0.369
 4204SOL     OW13510   4.059   3.280   2.375
 4204SOL    HW113511   4.116   3.358   2.402
 4204SOL    HW213512   3.970   3.314   2.344
 4205SOL     OW13513   3.789   5.641   3.659
 4205SOL    HW113514   3.710   5.691   3.623
 4205SOL    HW213515   3.839   5.699   3.724
 4206SOL     OW13516   6.809   0.377   6.093
 4206SOL    HW113517   6.807   0.393   6.192
 4206SOL    HW213518   6.901   0.397   6.058
 4207SOL     OW13519   1.403   1.275   1.634
 4207SOL    HW113520   1.490   1.309   1.599
 4207SOL    HW213521   1.330   1.338   1.606
 4208SOL     OW13522   0.752   3.821   6.344
 4208SOL    HW113523   0.740   3.837   6.246
 4208SOL    HW213524   0.689   3.749   6.374
 4209SOL     OW13525   0.399   0.939   5.675
 4209SOL    HW113526   0.375   0.845   5.696
 4209SOL    HW213527   0.415   0.989   5.760
 4210SOL     OW13528   3.008   3.260   2.494
 4210SOL    HW113529   2.981   3.352   2.465
 4210SOL    HW213530   3.107   3.257   2.508
 4211SOL     OW13531   3.869   5.309   5.664
 4211SOL    HW113532   3.861   5.317   5.763
 4211SOL    HW213533   3.791   5.258   5.628
 4212SOL     OW13534   5.883   2.411   2.764
 4212SOL    HW113535   5.803   2.369   2.723
 4212SOL    HW213536   5.906   2.494   2.713
 4213SOL     OW13537   2.251   1.183   1.508
 4213SOL    HW113538   2.284   1.234   1.428
 4213SOL    HW213539   2.237   1.246   1.584
 4214SOL     OW13540   1.855   4.822   5.228
 4214SOL    HW113541   1.928   4.760   5.197
 4214SOL    HW213542   1.793   4.773   5.289
 4215SOL     OW13543   6.913   6.398   5.030
 4215SOL    HW113544   6.890   6.315   5.080
 4215SOL    HW213545   7.013   6.402   5.018
 4216SOL     OW13546   1.433   1.842   3.267
 4216SOL    HW113547   1.444   1.747   3.239
 4216SOL    HW213548   1.514   1.871   3.319
 4217SOL     OW13549   0.245   0.403   2.711
 4217SOL    HW113550   0.195   0.370   2.791
 4217SOL    HW213551   0.306   0.331   2.678
 4218SOL     OW13552   4.409   1.096   1.415
 4218SOL    HW113553   4.382   1.025   1.481
 4218SOL    HW213554   4.328   1.144   1.384
 4219SOL     OW13555   2.582   5.274   3.249
 4219SOL    HW113556   2.568   5.266   3.348
 4219SOL    HW213557   2.511   5.224   3.201
 4220SOL     OW13558   5.502   2.355   3.476
 4220SOL    HW113559   5.415   2.401   3.455
 4220SOL    HW213560   5.540   2.316   3.392
 4221SOL     OW13561   6.136   5.139   6.727
 4221SOL    HW113562   6.126   5.069   6.798
 4221SOL    HW213563   6.179   5.099   6.646
 4222SOL     OW13564   5.925   2.092   3.454
 4222SOL    HW113565   5.860   2.024   3.490
 4222SOL    HW213566   5.886   2.183   3.464
 4223SOL     OW13567   3.529   3.845   5.798
 4223SOL    HW113568   3.461   3.914   5.824
 4223SOL    HW213569   3.485   3.756   5.788
 4224SOL     OW13570   4.885   3.446   3.584
 4224SOL    HW113571   4.786   3.456   3.588
 4224SOL    HW213572   4.913   3.434   3.489
 4225SOL     OW13573   3.886   1.025   5.822
 4225SOL    HW113574   3.856   0.969   5.900
 4225SOL    HW213575   3.806   1.055   5.771
 4226SOL     OW13576   1.085   1.032   2.163
 4226SOL    HW113577   1.139   1.105   2.123
 4226SOL    HW213578   1.038   0.981   2.090
 4227SOL     OW13579   3.920   4.759   6.725
 4227SOL    HW113580   3.906   4.711   6.812
 4227SOL    HW213581   4.007   4.808   6.728
 4228SOL     OW13582   0.756   3.509   4.220
 4228SOL    HW113583   0.757   3.513   4.320
 4228SOL    HW213584   0.721   3.421   4.189
 4229SOL     OW13585   4.848   4.886   5.466
 4229SOL    HW113586   4.928   4.830   5.449
 4229SOL    HW213587   4.765   4.832   5.450
 4230SOL     OW13588   1.681   0.390   4.053
 4230SOL    HW113589   1.741   0.468   4.039
 4230SOL    HW213590   1.592   0.408   4.011
 4231SOL     OW13591   5.415   6.559   4.833
 4231SOL    HW113592   5.438   6.622   4.758
 4231SOL    HW213593   5.372   6.477   4.795
 4232SOL     OW13594   0.495   4.570   2.690
 4232SOL    HW113595   0.470   4.666   2.700
 4232SOL    HW213596   0.591   4.563   2.662
 4233SOL     OW13597   0.023   0.314   0.166
 4233SOL    HW113598   6.982   0.272   0.234
 4233SOL    HW213599   0.043   0.408   0.193
 4234SOL     OW13600   2.050   0.399   6.036
 4234SOL    HW113601   2.128   0.433   5.984
 4234SOL    HW213602   2.076   0.313   6.081
 4235SOL     OW13603   5.237   3.911   6.054
 4235SOL    HW113604   5.292   3.884   5.975
 4235SOL    HW213605   5.282   3.879   6.137
 4236SOL     OW13606   0.573   3.700   3.011
 4236SOL    HW113607   0.603   3.795   3.016
 4236SOL    HW213608   0.593   3.655   3.098
 4237SOL     OW13609   6.491   5.319   3.109
 4237SOL    HW113610   6.408   5.265   3.097
 4237SOL    HW213611   6.571   5.262   3.092
 4238SOL     OW13612   3.265   5.004   2.567
 4238SOL    HW113613   3.290   5.097   2.538
 4238SOL    HW213614   3.174   4.982   2.531
 4239SOL     OW13615   5.336   1.837   3.501
 4239SOL    HW113616   5.266   1.793   3.556
 4239SOL    HW213617   5.333   1.936   3.516
 4240SOL     OW13618   2.305   0.299   0.332
 4240SOL    HW113619   2.341   0.206   0.343
 4240SOL    HW213620   2.381   0.361   0.313
 4241SOL     OW13621   5.850   0.174   1.128
 4241SOL    HW113622   5.927   0.208   1.182
 4241SOL    HW213623   5.837   0.232   1.048
 4242SOL     OW13624   2.089   0.577   3.347
 4242SOL    HW113625   2.073   0.495   3.293
 4242SOL    HW213626   2.033   0.652   3.311
 4243SOL     OW13627   6.059   4.139   3.504
 4243SOL    HW113628   6.150   4.098   3.503
 4243SOL    HW213629   6.068   4.239   3.502
 4244SOL     OW13630   5.426   4.687   1.712
 4244SOL    HW113631   5.493   4.699   1.785
 4244SOL    HW213632   5.419   4.771   1.658
 4245SOL     OW13633   6.179   1.012   6.261
 4245SOL    HW113634   6.175   1.106   6.227
 4245SOL    HW213635   6.115   0.955   6.209
 4246SOL     OW13636   5.668   3.154   3.268
 4246SOL    HW113637   5.653   3.056   3.266
 4246SOL    HW213638   5.696   3.181   3.360
 4247SOL     OW13639   2.115   4.774   3.183
 4247SOL    HW113640   2.104   4.714   3.263
 4247SOL    HW213641   2.208   4.811   3.182
 4248SOL     OW13642   1.928   1.189   3.842
 4248SOL    HW113643   1.952   1.286   3.853
 4248SOL    HW213644   1.830   1.181   3.821
 4249SOL     OW13645   5.113   1.378   4.076
 4249SOL    HW113646   5.122   1.392   4.174
 4249SOL    HW213647   5.080   1.462   4.033
 4250SOL     OW13648   6.367   6.180   4.479
 4250SOL    HW113649   6.411   6.114   4.417
 4250SOL    HW213650   6.356   6.267   4.432
 4251SOL     OW13651   5.821   3.308   1.017
 4251SOL    HW113652   5.792   3.374   1.086
 4251SOL    HW213653   5.855   3.356   0.936
 4252SOL     OW13654   6.026   6.366   6.338
 4252SOL    HW113655   6.050   6.277   6.299
 4252SOL    HW213656   6.079   6.381   6.421
 4253SOL     OW13657   3.174   6.948   1.179
 4253SOL    HW113658   3.092   6.961   1.236
 4253SOL    HW213659   3.195   0.013   1.131
 4254SOL     OW13660   1.740   3.389   1.869
 4254SOL    HW113661   1.656   3.390   1.923
 4254SOL    HW213662   1.744   3.305   1.816
 4255SOL     OW13663   6.841   4.049   4.028
 4255SOL    HW113664   6.772   4.076   3.960
 4255SOL    HW213665   6.870   4.129   4.080
 4256SOL     OW13666   1.134   6.152   1.049
 4256SOL    HW113667   1.198   6.114   0.982
 4256SOL    HW213668   1.073   6.217   1.004
 4257SOL     OW13669   3.743   1.204   4.656
 4257SOL    HW113670   3.650   1.232   4.636
 4257SOL    HW213671   3.773   1.137   4.588
 4258SOL     OW13672   3.379   5.711   0.697
 4258SOL    HW113673   3.471   5.725   0.734
 4258SOL    HW213674   3.350   5.795   0.651
 4259SOL     OW13675   1.514   7.012   1.081
 4259SOL    HW113676   1.501   0.076   1.027
 4259SOL    HW213677   1.598   6.966   1.052
 4260SOL     OW13678   5.596   0.376   3.155
 4260SOL    HW113679   5.629   0.404   3.245
 4260SOL    HW213680   5.625   0.441   3.086
 4261SOL     OW13681   2.177   0.806   2.496
 4261SOL    HW113682   2.240   0.831   2.422
 4261SOL    HW213683   2.143   0.714   2.480
 4262SOL     OW13684   0.507   3.919   6.203
 4262SOL    HW113685   0.599   3.895   6.169
 4262SOL    HW213686   0.482   4.009   6.168
 4263SOL     OW13687   2.762   0.504   3.357
 4263SOL    HW113688   2.723   0.590   3.325
 4263SOL    HW213689   2.840   0.479   3.298
 4264SOL     OW13690   6.730   2.419   4.730
 4264SOL    HW113691   6.682   2.332   4.744
 4264SOL    HW213692   6.698   2.461   4.645
 4265SOL     OW13693   3.988   1.307   0.597
 4265SOL    HW113694   3.901   1.267   0.623
 4265SOL    HW213695   3.976   1.405   0.580
 4266SOL     OW13696   2.033   6.638   6.228
 4266SOL    HW113697   2.002   6.701   6.299
 4266SOL    HW213698   2.133   6.634   6.228
 4267SOL     OW13699   2.045   3.689   4.661
 4267SOL    HW113700   2.116   3.757   4.677
 4267SOL    HW213701   2.087   3.605   4.627
 4268SOL     OW13702   1.287   5.896   6.679
 4268SOL    HW113703   1.382   5.917   6.700
 4268SOL    HW213704   1.283   5.822   6.611
 4269SOL     OW13705   3.006   6.937   2.726
 4269SOL    HW113706   2.970   6.882   2.651
 4269SOL    HW213707   2.976   0.012   2.716
 4270SOL     OW13708   4.141   3.447   2.629
 4270SOL    HW113709   4.073   3.390   2.675
 4270SOL    HW213710   4.228   3.441   2.678
 4271SOL     OW13711   6.634   0.490   0.578
 4271SOL    HW113712   6.662   0.585   0.560
 4271SOL    HW213713   6.555   0.467   0.521
 4272SOL     OW13714   6.916   2.038   4.615
 4272SOL    HW113715   6.877   2.009   4.703
 4272SOL    HW213716   6.842   2.059   4.551
 4273SOL     OW13717   4.325   6.677   4.750
 4273SOL    HW113718   4.279   6.726   4.675
 4273SOL    HW213719   4.319   6.579   4.734
 4274SOL     OW13720   1.668   0.080   1.595
 4274SOL    HW113721   1.638   0.175   1.601
 4274SOL    HW213722   1.644   0.043   1.505
 4275SOL     OW13723   6.839   2.150   3.887
 4275SOL    HW113724   6.873   2.231   3.935
 4275SOL    HW213725   6.783   2.095   3.949
 4276SOL     OW13726   2.545   5.250   3.830
 4276SOL    HW113727   2.607   5.317   3.872
 4276SOL    HW213728   2.590   5.161   3.826
 4277SOL     OW13729   6.446   4.967   3.282
 4277SOL    HW113730   6.408   5.034   3.218
 4277SOL    HW213731   6.425   4.875   3.250
 4278SOL     OW13732   0.455   0.142   4.917
 4278SOL    HW113733   0.459   0.043   4.927
 4278SOL    HW213734   0.480   0.167   4.823
 4279SOL     OW13735   2.757   1.027   3.483
 4279SOL    HW113736   2.802   1.096   3.426
 4279SOL    HW213737   2.827   0.967   3.522
 4280SOL     OW13738   5.607   6.878   5.766
 4280SOL    HW113739   5.571   6.943   5.700
 4280SOL    HW213740   5.629   6.926   5.852
 4281SOL     OW13741   6.106   4.981   3.361
 4281SOL    HW113742   6.104   4.971   3.262
 4281SOL    HW213743   6.167   5.056   3.386
 4282SOL     OW13744   3.128   4.191   0.447
 4282SOL    HW113745   3.217   4.175   0.489
 4282SOL    HW213746   3.057   4.142   0.498
 4283SOL     OW13747   2.319   0.664   3.398
 4283SOL    HW113748   2.301   0.757   3.428
 4283SOL    HW213749   2.232   0.614   3.389
 4284SOL     OW13750   3.552   3.820   1.138
 4284SOL    HW113751   3.579   3.724   1.139
 4284SOL    HW213752   3.457   3.829   1.168
 4285SOL     OW13753   2.440   0.797   5.563
 4285SOL    HW113754   2.436   0.864   5.637
 4285SOL    HW213755   2.424   0.844   5.476
 4286SOL     OW13756   5.511   6.720   6.120
 4286SOL    HW113757   5.583   6.651   6.132
 4286SOL    HW213758   5.526   6.795   6.185
 4287SOL     OW13759   4.939   0.591   6.061
 4287SOL    HW113760   5.031   0.556   6.079
 4287SOL    HW213761   4.884   0.586   6.144
 4288SOL     OW13762   0.680   5.352   3.590
 4288SOL    HW113763   0.655   5.377   3.683
 4288SOL    HW213764   0.775   5.322   3.587
 4289SOL     OW13765   0.059   2.693   5.439
 4289SOL    HW113766   0.140   2.652   5.398
 4289SOL    HW213767   0.025   2.766   5.380
 4290SOL     OW13768   1.313   6.271   4.077
 4290SOL    HW113769   1.344   6.191   4.128
 4290SOL    HW213770   1.387   6.337   4.069
 4291SOL     OW13771   4.508   3.437   6.735
 4291SOL    HW113772   4.427   3.476   6.777
 4291SOL    HW213773   4.490   3.415   6.640
 4292SOL     OW13774   6.698   2.850   0.298
 4292SOL    HW113775   6.763   2.831   0.372
 4292SOL    HW213776   6.733   2.810   0.213
 4293SOL     OW13777   3.132   3.617   0.100
 4293SOL    HW113778   3.219   3.589   0.060
 4293SOL    HW213779   3.123   3.717   0.095
 4294SOL     OW13780   1.863   1.552   6.773
 4294SOL    HW113781   1.885   1.456   6.753
 4294SOL    HW213782   1.940   1.595   6.820
 4295SOL     OW13783   4.489   5.912   5.002
 4295SOL    HW113784   4.400   5.883   4.967
 4295SOL    HW213785   4.561   5.879   4.940
 4296SOL     OW13786   3.223   6.869   6.873
 4296SOL    HW113787   3.136   6.860   6.921
 4296SOL    HW213788   3.293   6.899   6.938
 4297SOL     OW13789   5.777   0.084   1.722
 4297SOL    HW113790   5.730   0.171   1.715
 4297SOL    HW213791   5.844   0.076   1.648
 4298SOL     OW13792   3.988   5.494   0.613
 4298SOL    HW113793   3.976   5.573   0.673
 4298SOL    HW213794   3.949   5.413   0.658
 4299SOL     OW13795   1.782   3.052   6.861
 4299SOL    HW113796   1.702   3.007   6.820
 4299SOL    HW213797   1.798   3.013   6.952
 4300SOL     OW13798   2.563   6.898   0.392
 4300SOL    HW113799   2.471   6.924   0.362
 4300SOL    HW213800   2.628   6.970   0.366
 4301SOL     OW13801   5.022   0.263   1.739
 4301SOL    HW113802   5.096   0.309   1.788
 4301SOL    HW213803   4.943   0.324   1.733
 4302SOL     OW13804   0.099   6.984   6.299
 4302SOL    HW113805   0.000   7.000   6.295
 4302SOL    HW213806   0.117   6.886   6.305
 4303SOL     OW13807   6.780   4.626   4.141
 4303SOL    HW113808   6.848   4.687   4.100
 4303SOL    HW213809   6.797   4.619   4.239
 4304SOL     OW13810   3.260   2.908   2.450
 4304SOL    HW113811   3.346   2.872   2.413
 4304SOL    HW213812   3.242   2.865   2.538
 4305SOL     OW13813   1.152   6.865   5.574
 4305SOL    HW113814   1.193   6.797   5.635
 4305SOL    HW213815   1.209   6.947   5.573
 4306SOL     OW13816   4.344   5.153   4.427
 4306SOL    HW113817   4.353   5.058   4.454
 4306SOL    HW213818   4.251   5.185   4.445
 4307SOL     OW13819   6.161   3.985   5.234
 4307SOL    HW113820   6.243   3.943   5.272
 4307SOL    HW213821   6.167   4.085   5.242
 4308SOL     OW13822   6.295   5.438   1.713
 4308SOL    HW113823   6.295   5.341   1.689
 4308SOL    HW213824   6.328   5.492   1.636
 4309SOL     OW13825   1.030   1.326   1.326
 4309SOL    HW113826   0.996   1.345   1.234
 4309SOL    HW213827   1.116   1.275   1.321
 4310SOL     OW13828   1.209   2.545   1.849
 4310SOL    HW113829   1.176   2.532   1.942
 4310SOL    HW213830   1.226   2.642   1.833
 4311SOL     OW13831   0.773   6.057   2.184
 4311SOL    HW113832   0.696   5.998   2.163
 4311SOL    HW213833   0.773   6.078   2.282
 4312SOL     OW13834   1.233   6.040   2.028
 4312SOL    HW113835   1.284   6.014   2.110
 4312SOL    HW213836   1.280   6.005   1.947
 4313SOL     OW13837   5.295   1.963   0.968
 4313SOL    HW113838   5.357   1.956   0.889
 4313SOL    HW213839   5.241   1.878   0.975
 4314SOL     OW13840   5.329   1.793   5.097
 4314SOL    HW113841   5.274   1.809   5.015
 4314SOL    HW213842   5.351   1.696   5.103
 4315SOL     OW13843   2.527   0.566   3.785
 4315SOL    HW113844   2.496   0.533   3.874
 4315SOL    HW213845   2.452   0.562   3.719
 4316SOL     OW13846   4.769   1.094   1.513
 4316SOL    HW113847   4.722   1.147   1.442
 4316SOL    HW213848   4.857   1.137   1.533
 4317SOL     OW13849   5.483   2.229   5.356
 4317SOL    HW113850   5.531   2.315   5.343
 4317SOL    HW213851   5.467   2.186   5.267
 4318SOL     OW13852   0.848   1.927   5.034
 4318SOL    HW113853   0.874   1.983   4.956
 4318SOL    HW213854   0.748   1.916   5.036
 4319SOL     OW13855   1.830   1.865   1.039
 4319SOL    HW113856   1.745   1.907   1.070
 4319SOL    HW213857   1.866   1.916   0.961
 4320SOL     OW13858   3.896   4.905   0.939
 4320SOL    HW113859   3.930   4.980   0.882
 4320SOL    HW213860   3.831   4.850   0.887
 4321SOL     OW13861   0.174   4.838   4.943
 4321SOL    HW113862   0.226   4.757   4.974
 4321SOL    HW213863   0.231   4.892   4.882
 4322SOL     OW13864   6.450   2.798   6.839
 4322SOL    HW113865   6.458   2.823   6.936
 4322SOL    HW213866   6.529   2.833   6.789
 4323SOL     OW13867   4.616   4.201   0.349
 4323SOL    HW113868   4.674   4.161   0.278
 4323SOL    HW213869   4.521   4.173   0.334
 4324SOL     OW13870   5.659   4.571   5.740
 4324SOL    HW113871   5.609   4.632   5.801
 4324SOL    HW213872   5.741   4.618   5.706
 4325SOL     OW13873   2.906   1.508   1.734
 4325SOL    HW113874   2.930   1.494   1.830
 4325SOL    HW213875   2.936   1.429   1.680
 4326SOL     OW13876   4.753   4.457   2.204
 4326SOL    HW113877   4.682   4.481   2.138
 4326SOL    HW213878   4.825   4.403   2.159
 4327SOL     OW13879   5.750   5.539   1.716
 4327SOL    HW113880   5.797   5.614   1.763
 4327SOL    HW213881   5.681   5.501   1.777
 4328SOL     OW13882   4.747   4.391   5.628
 4328SOL    HW113883   4.679   4.349   5.688
 4328SOL    HW213884   4.824   4.423   5.683
 4329SOL     OW13885   4.747   2.605   5.820
 4329SOL    HW113886   4.663   2.574   5.864
 4329SOL    HW213887   4.826   2.575   5.874
 4330SOL     OW13888   2.008   6.280   4.924
 4330SOL    HW113889   2.017   6.313   4.831
 4330SOL    HW213890   2.033   6.352   4.988
 4331SOL     OW13891   5.857   1.441   2.218
 4331SOL    HW113892   5.859   1.342   2.234
 4331SOL    HW213893   5.905   1.462   2.133
 4332SOL     OW13894   5.059   3.082   2.791
 4332SOL    HW113895   5.124   3.059   2.863
 4332SOL    HW213896   4.981   3.019   2.795
 4333SOL     OW13897   4.603   1.544   5.587
 4333SOL    HW113898   4.565   1.627   5.629
 4333SOL    HW213899   4.683   1.569   5.532
 4334SOL     OW13900   2.239   2.795   2.663
 4334SOL    HW113901   2.300   2.873   2.653
 4334SOL    HW213902   2.148   2.827   2.690
 4335SOL     OW13903   3.527   3.310   2.050
 4335SOL    HW113904   3.554   3.401   2.018
 4335SOL    HW213905   3.440   3.285   2.007
 4336SOL     OW13906   3.031   6.699   5.831
 4336SOL    HW113907   3.105   6.633   5.841
 4336SOL    HW213908   3.008   6.738   5.920
 4337SOL     OW13909   1.309   4.383   0.804
 4337SOL    HW113910   1.338   4.435   0.724
 4337SOL    HW213911   1.279   4.446   0.875
 4338SOL     OW13912   6.194   6.663   5.970
 4338SOL    HW113913   6.131   6.695   5.898
 4338SOL    HW213914   6.286   6.657   5.933
 4339SOL     OW13915   4.068   2.946   6.071
 4339SOL    HW113916   4.114   3.035   6.075
 4339SOL    HW213917   4.052   2.921   5.975
 4340SOL     OW13918   6.635   3.381   1.248
 4340SOL    HW113919   6.545   3.344   1.271
 4340SOL    HW213920   6.673   3.430   1.327
 4341SOL     OW13921   1.203   5.055   1.752
 4341SOL    HW113922   1.227   5.076   1.657
 4341SOL    HW213923   1.285   5.059   1.808
 4342SOL     OW13924   5.300   4.001   2.904
 4342SOL    HW113925   5.217   4.040   2.864
 4342SOL    HW213926   5.333   4.061   2.977
 4343SOL     OW13927   3.039   5.955   4.520
 4343SOL    HW113928   3.034   5.876   4.460
 4343SOL    HW213929   3.035   5.925   4.615
 4344SOL     OW13930   1.040   4.117   2.620
 4344SOL    HW113931   1.111   4.070   2.672
 4344SOL    HW213932   1.081   4.164   2.541
 4345SOL     OW13933   4.009   3.913   4.678
 4345SOL    HW113934   4.000   3.974   4.756
 4345SOL    HW213935   3.978   3.961   4.595
 4346SOL     OW13936   2.166   3.466   3.229
 4346SOL    HW113937   2.145   3.448   3.133
 4346SOL    HW213938   2.182   3.379   3.277
 4347SOL     OW13939   5.530   6.950   2.792
 4347SOL    HW113940   5.537   0.030   2.801
 4347SOL    HW213941   5.474   6.914   2.867
 4348SOL     OW13942   0.098   5.427   4.080
 4348SOL    HW113943   0.144   5.510   4.112
 4348SOL    HW213944   0.167   5.358   4.059
 4349SOL     OW13945   6.105   1.965   3.234
 4349SOL    HW113946   6.031   1.990   3.297
 4349SOL    HW213947   6.096   2.019   3.150
 4350SOL     OW13948   3.601   1.777   4.032
 4350SOL    HW113949   3.639   1.868   4.019
 4350SOL    HW213950   3.636   1.738   4.117
 4351SOL     OW13951   1.354   6.088   1.279
 4351SOL    HW113952   1.298   6.107   1.360
 4351SOL    HW213953   1.300   6.106   1.196
 4352SOL     OW13954   6.290   3.832   2.575
 4352SOL    HW113955   6.327   3.795   2.490
 4352SOL    HW213956   6.362   3.836   2.644
 4353SOL     OW13957   3.798   2.906   6.554
 4353SOL    HW113958   3.736   2.946   6.487
 4353SOL    HW213959   3.753   2.904   6.644
 4354SOL     OW13960   1.845   1.076   6.572
 4354SOL    HW113961   1.815   0.980   6.573
 4354SOL    HW213962   1.837   1.112   6.479
 4355SOL     OW13963   2.462   6.947   2.450
 4355SOL    HW113964   2.381   6.889   2.453
 4355SOL    HW213965   2.469   6.998   2.536
 4356SOL     OW13966   5.054   3.244   6.641
 4356SOL    HW113967   4.986   3.203   6.580
 4356SOL    HW213968   5.008   3.303   6.707
 4357SOL     OW13969   6.699   1.216   1.389
 4357SOL    HW113970   6.608   1.239   1.354
 4357SOL    HW213971   6.720   1.274   1.468
 4358SOL     OW13972   6.685   0.830   1.143
 4358SOL    HW113973   6.614   0.899   1.124
 4358SOL    HW213974   6.690   0.766   1.066
 4359SOL     OW13975   1.216   1.395   6.622
 4359SOL    HW113976   1.280   1.438   6.686
 4359SOL    HW213977   1.267   1.357   6.545
 4360SOL     OW13978   1.053   3.723   4.028
 4360SOL    HW113979   1.088   3.645   3.977
 4360SOL    HW213980   1.047   3.700   4.125
 4361SOL     OW13981   2.166   3.874   1.929
 4361SOL    HW113982   2.115   3.788   1.926
 4361SOL    HW213983   2.192   3.901   1.836
 4362SOL     OW13984   6.643   5.489   3.743
 4362SOL    HW113985   6.575   5.550   3.784
 4362SOL    HW213986   6.732   5.505   3.785
 4363SOL     OW13987   4.524   2.154   0.795
 4363SOL    HW113988   4.598   2.165   0.861
 4363SOL    HW213989   4.542   2.073   0.738
 4364SOL     OW13990   3.009   3.927   3.483
 4364SOL    HW113991   3.080   3.972   3.428
 4364SOL    HW213992   3.005   3.972   3.573
 4365SOL     OW13993   2.873   0.626   1.916
 4365SOL    HW113994   2.908   0.533   1.917
 4365SOL    HW213995   2.780   0.627   1.954
 4366SOL     OW13996   6.209   6.994   6.312
 4366SOL    HW113997   6.163   7.017   6.398
 4366SOL    HW213998   6.196   6.896   6.293
 4367SOL     OW13999   2.648   4.946   4.106
 4367SOL    HW114000   2.660   4.848   4.120
 4367SOL    HW214001   2.636   4.965   4.009
 4368SOL     OW14002   3.763   5.634   1.596
 4368SOL    HW114003   3.698   5.709   1.586
 4368SOL    HW214004   3.856   5.671   1.603
 4369SOL     OW14005   4.680   5.017   2.710
 4369SOL    HW114006   4.709   5.050   2.800
 4369SOL    HW214007   4.744   5.050   2.640
 4370SOL     OW14008   3.650   4.523   1.675
 4370SOL    HW114009   3.739   4.568   1.661
 4370SOL    HW214010   3.588   4.586   1.722
 4371SOL     OW14011   1.675   1.914   2.300
 4371SOL    HW114012   1.700   2.008   2.323
 4371SOL    HW214013   1.756   1.864   2.272
 4372SOL     OW14014   2.427   2.420   4.356
 4372SOL    HW114015   2.462   2.440   4.448
 4372SOL    HW214016   2.454   2.328   4.329
 4373SOL     OW14017   4.535   0.925   6.961
 4373SOL    HW114018   4.477   0.903   0.020
 4373SOL    HW214019   4.606   0.990   6.989
 4374SOL     OW14020   0.485   1.700   1.484
 4374SOL    HW114021   0.425   1.742   1.551
 4374SOL    HW214022   0.568   1.755   1.475
 4375SOL     OW14023   4.181   6.038   3.184
 4375SOL    HW114024   4.268   6.061   3.141
 4375SOL    HW214025   4.157   6.109   3.250
 4376SOL     OW14026   6.113   0.067   2.835
 4376SOL    HW114027   6.077   6.995   2.854
 4376SOL    HW214028   6.207   0.059   2.802
 4377SOL     OW14029   5.659   5.573   6.885
 4377SOL    HW114030   5.729   5.640   6.862
 4377SOL    HW214031   5.667   5.548   6.982
 4378SOL     OW14032   1.579   3.308   2.769
 4378SOL    HW114033   1.595   3.248   2.691
 4378SOL    HW214034   1.537   3.393   2.737
 4379SOL     OW14035   2.447   2.155   2.255
 4379SOL    HW114036   2.524   2.209   2.221
 4379SOL    HW214037   2.433   2.175   2.352
 4380SOL     OW14038   1.304   6.721   3.479
 4380SOL    HW114039   1.320   6.643   3.418
 4380SOL    HW214040   1.335   6.697   3.571
 4381SOL     OW14041   2.340   4.202   5.301
 4381SOL    HW114042   2.322   4.120   5.246
 4381SOL    HW214043   2.434   4.199   5.336
 4382SOL     OW14044   6.256   3.419   6.213
 4382SOL    HW114045   6.159   3.442   6.219
 4382SOL    HW214046   6.287   3.426   6.118
 4383SOL     OW14047   0.858   2.740   5.788
 4383SOL    HW114048   0.866   2.774   5.694
 4383SOL    HW214049   0.773   2.774   5.828
 4384SOL     OW14050   5.301   1.668   6.401
 4384SOL    HW114051   5.205   1.662   6.429
 4384SOL    HW214052   5.315   1.613   6.318
 4385SOL     OW14053   6.458   2.804   5.283
 4385SOL    HW114054   6.411   2.871   5.340
 4385SOL    HW214055   6.557   2.817   5.290
 4386SOL     OW14056   2.419   3.755   6.778
 4386SOL    HW114057   2.410   3.841   6.728
 4386SOL    HW214058   2.510   3.749   6.818
 4387SOL     OW14059   7.008   1.016   1.970
 4387SOL    HW114060   0.021   0.981   2.057
 4387SOL    HW214061   0.065   1.019   1.905
 4388SOL     OW14062   5.196   1.001   6.537
 4388SOL    HW114063   5.230   1.030   6.626
 4388SOL    HW214064   5.221   1.068   6.468
 4389SOL     OW14065   6.650   3.082   0.865
 4389SOL    HW114066   6.636   2.995   0.818
 4389SOL    HW214067   6.637   3.069   0.963
 4390SOL     OW14068   3.855   1.449   1.826
 4390SOL    HW114069   3.807   1.529   1.862
 4390SOL    HW214070   3.930   1.478   1.767
 4391SOL     OW14071   1.520   5.736   6.213
 4391SOL    HW114072   1.545   5.780   6.299
 4391SOL    HW214073   1.576   5.654   6.202
 4392SOL     OW14074   6.593   3.166   5.739
 4392SOL    HW114075   6.658   3.242   5.741
 4392SOL    HW214076   6.510   3.195   5.692
 4393SOL     OW14077   5.850   6.835   2.493
 4393SOL    HW114078   5.811   6.840   2.585
 4393SOL    HW214079   5.950   6.838   2.500
 4394SOL     OW14080   5.835   6.120   2.706
 4394SOL    HW114081   5.779   6.042   2.677
 4394SOL    HW214082   5.831   6.131   2.805
 4395SOL     OW14083   4.097   0.669   1.613
 4395SOL    HW114084   4.117   0.572   1.630
 4395SOL    HW214085   4.002   0.677   1.582
 4396SOL     OW14086   2.671   2.362   4.149
 4396SOL    HW114087   2.609   2.287   4.127
 4396SOL    HW214088   2.652   2.439   4.089
 4397SOL     OW14089   6.988   1.045   4.543
 4397SOL    HW114090   6.911   1.084   4.594
 4397SOL    HW214091   0.015   0.977   4.599
 4398SOL     OW14092   0.777   4.852   5.114
 4398SOL    HW114093   0.779   4.898   5.203
 4398SOL    HW214094   0.840   4.898   5.051
 4399SOL     OW14095   1.629   1.391   1.620
 4399SOL    HW114096   1.698   1.367   1.552
 4399SOL    HW214097   1.673   1.407   1.708
 4400SOL     OW14098   2.776   6.696   5.055
 4400SOL    HW114099   2.800   6.752   4.975
 4400SOL    HW214100   2.858   6.676   5.107
 4401SOL     OW14101   4.977   0.207   6.576
 4401SOL    HW114102   4.974   0.181   6.479
 4401SOL    HW214103   4.919   0.144   6.629
 4402SOL     OW14104   2.600   6.497   1.224
 4402SOL    HW114105   2.604   6.408   1.270
 4402SOL    HW214106   2.645   6.565   1.280
 4403SOL     OW14107   0.619   6.952   3.587
 4403SOL    HW114108   0.621   7.006   3.503
 4403SOL    HW214109   0.696   6.889   3.588
 4404SOL     OW14110   0.389   4.133   5.501
 4404SOL    HW114111   0.430   4.090   5.581
 4404SOL    HW214112   0.453   4.198   5.461
 4405SOL     OW14113   2.143   4.586   1.260
 4405SOL    HW114114   2.161   4.556   1.167
 4405SOL    HW214115   2.228   4.615   1.304
 4406SOL     OW14116   6.972   3.978   0.618
 4406SOL    HW114117   0.045   3.951   0.590
 4406SOL    HW214118   6.977   4.060   0.675
 4407SOL     OW14119   0.244   4.259   0.553
 4407SOL    HW114120   0.255   4.201   0.472
 4407SOL    HW214121   0.320   4.324   0.559
 4408SOL     OW14122   3.376   0.888   1.414
 4408SOL    HW114123   3.462   0.928   1.382
 4408SOL    HW214124   3.375   0.790   1.392
 4409SOL     OW14125   4.614   6.907   1.334
 4409SOL    HW114126   4.622   6.813   1.299
 4409SOL    HW214127   4.705   6.946   1.345
 4410SOL     OW14128   1.456   5.785   0.010
 4410SOL    HW114129   1.449   5.733   6.944
 4410SOL    HW214130   1.525   5.856   7.019
 4411SOL     OW14131   3.139   3.622   3.508
 4411SOL    HW114132   3.088   3.539   3.531
 4411SOL    HW214133   3.075   3.695   3.484
 4412SOL     OW14134   3.861   0.179   4.533
 4412SOL    HW114135   3.775   0.198   4.487
 4412SOL    HW214136   3.916   0.116   4.478
 4413SOL     OW14137   5.289   5.739   4.740
 4413SOL    HW114138   5.196   5.712   4.767
 4413SOL    HW214139   5.353   5.666   4.762
 4414SOL     OW14140   3.841   4.586   1.313
 4414SOL    HW114141   3.930   4.599   1.357
 4414SOL    HW214142   3.810   4.672   1.274
 4415SOL     OW14143   3.804   3.666   6.810
 4415SOL    HW114144   3.843   3.720   6.735
 4415SOL    HW214145   3.755   3.588   6.771
 4416SOL     OW14146   2.264   0.353   4.198
 4416SOL    HW114147   2.230   0.259   4.192
 4416SOL    HW214148   2.302   0.368   4.290
 4417SOL     OW14149   6.043   4.423   3.152
 4417SOL    HW114150   5.961   4.399   3.203
 4417SOL    HW214151   6.020   4.491   3.083
 4418SOL     OW14152   5.575   1.337   2.682
 4418SOL    HW114153   5.579   1.245   2.642
 4418SOL    HW214154   5.568   1.330   2.781
 4419SOL     OW14155   5.530   5.560   0.810
 4419SOL    HW114156   5.538   5.543   0.711
 4419SOL    HW214157   5.494   5.652   0.825
 4420SOL     OW14158   5.125   1.365   1.728
 4420SOL    HW114159   5.078   1.382   1.642
 4420SOL    HW214160   5.215   1.325   1.710
 4421SOL     OW14161   1.775   1.239   4.689
 4421SOL    HW114162   1.689   1.200   4.720
 4421SOL    HW214163   1.792   1.326   4.736
 4422SOL     OW14164   3.000   4.317   5.735
 4422SOL    HW114165   3.040   4.243   5.682
 4422SOL    HW214166   2.920   4.352   5.687
 4423SOL     OW14167   1.285   2.761   5.712
 4423SOL    HW114168   1.270   2.827   5.639
 4423SOL    HW214169   1.361   2.702   5.688
 4424SOL     OW14170   5.480   0.266   4.561
 4424SOL    HW114171   5.475   0.193   4.629
 4424SOL    HW214172   5.498   0.353   4.606
 4425SOL     OW14173   3.189   5.293   6.778
 4425SOL    HW114174   3.217   5.349   6.856
 4425SOL    HW214175   3.260   5.227   6.756
 4426SOL     OW14176   0.030   1.213   4.827
 4426SOL    HW114177   0.047   1.200   4.729
 4426SOL    HW214178   0.095   1.158   4.879
 4427SOL     OW14179   0.333   6.060   2.212
 4427SOL    HW114180   0.414   6.013   2.177
 4427SOL    HW214181   0.315   6.030   2.306
 4428SOL     OW14182   2.895   6.089   1.738
 4428SOL    HW114183   2.861   5.998   1.716
 4428SOL    HW214184   2.958   6.083   1.816
 4429SOL     OW14185   3.112   0.392   2.937
 4429SOL    HW114186   3.199   0.441   2.944
 4429SOL    HW214187   3.123   0.312   2.878
 4430SOL     OW14188   4.888   3.712   4.726
 4430SOL    HW114189   4.971   3.677   4.768
 4430SOL    HW214190   4.815   3.713   4.795
 4431SOL     OW14191   2.365   0.715   2.149
 4431SOL    HW114192   2.275   0.752   2.128
 4431SOL    HW214193   2.432   0.789   2.152
 4432SOL     OW14194   4.157   3.536   4.376
 4432SOL    HW114195   4.252   3.534   4.407
 4432SOL    HW214196   4.122   3.629   4.380
 4433SOL     OW14197   5.597   0.553   5.100
 4433SOL    HW114198   5.627   0.625   5.038
 4433SOL    HW214199   5.621   0.578   5.194
 4434SOL     OW14200   4.281   1.937   3.767
 4434SOL    HW114201   4.282   1.948   3.668
 4434SOL    HW214202   4.204   1.986   3.806
 4435SOL     OW14203   4.400   3.740   1.403
 4435SOL    HW114204   4.498   3.752   1.420
 4435SOL    HW214205   4.361   3.825   1.368
 4436SOL     OW14206   3.566   1.636   1.083
 4436SOL    HW114207   3.559   1.622   1.182
 4436SOL    HW214208   3.526   1.558   1.035
 4437SOL     OW14209   5.730   1.565   3.733
 4437SOL    HW114210   5.783   1.494   3.780
 4437SOL    HW214211   5.784   1.604   3.659
 4438SOL     OW14212   5.015   0.736   0.761
 4438SOL    HW114213   4.928   0.774   0.730
 4438SOL    HW214214   5.086   0.756   0.693
 4439SOL     OW14215   0.537   5.824   1.378
 4439SOL    HW114216   0.483   5.756   1.328
 4439SOL    HW214217   0.576   5.782   1.460
 4440SOL     OW14218   2.408   5.192   0.987
 4440SOL    HW114219   2.387   5.146   0.901
 4440SOL    HW214220   2.426   5.289   0.970
 4441SOL     OW14221   6.633   1.727   2.795
 4441SOL    HW114222   6.614   1.781   2.877
 4441SOL    HW214223   6.560   1.659   2.783
 4442SOL     OW14224   2.706   5.784   4.960
 4442SOL    HW114225   2.625   5.831   4.926
 4442SOL    HW214226   2.760   5.749   4.884
 4443SOL     OW14227   7.015   2.557   0.583
 4443SOL    HW114228   7.005   2.458   0.594
 4443SOL    HW214229   0.093   2.581   0.578
 4444SOL     OW14230   3.868   5.187   6.130
 4444SOL    HW114231   3.938   5.251   6.162
 4444SOL    HW214232   3.816   5.229   6.056
 4445SOL     OW14233   6.704   0.537   1.188
 4445SOL    HW114234   6.748   0.580   1.109
 4445SOL    HW214235   6.771   0.520   1.260
 4446SOL     OW14236   5.685   1.228   1.836
 4446SOL    HW114237   5.647   1.306   1.786
 4446SOL    HW214238   5.691   1.250   1.933
 4447SOL     OW14239   5.605   4.170   6.556
 4447SOL    HW114240   5.540   4.102   6.520
 4447SOL    HW214241   5.642   4.223   6.480
 4448SOL     OW14242   2.884   3.929   1.344
 4448SOL    HW114243   2.787   3.918   1.368
 4448SOL    HW214244   2.894   4.002   1.277
 4449SOL     OW14245   5.216   0.610   5.815
 4449SOL    HW114246   5.162   0.674   5.869
 4449SOL    HW214247   5.177   0.604   5.723
 4450SOL     OW14248   3.523   3.224   4.068
 4450SOL    HW114249   3.500   3.308   4.117
 4450SOL    HW214250   3.548   3.245   3.974
 4451SOL     OW14251   5.825   4.139   4.189
 4451SOL    HW114252   5.869   4.098   4.269
 4451SOL    HW214253   5.828   4.075   4.112
 4452SOL     OW14254   5.292   6.328   4.031
 4452SOL    HW114255   5.257   6.375   4.112
 4452SOL    HW214256   5.276   6.229   4.040
 4453SOL     OW14257   0.207   2.868   1.604
 4453SOL    HW114258   0.232   2.880   1.701
 4453SOL    HW214259   0.247   2.942   1.550
 4454SOL     OW14260   0.331   1.812   6.605
 4454SOL    HW114261   0.311   1.721   6.567
 4454SOL    HW214262   0.430   1.827   6.603
 4455SOL     OW14263   3.605   6.161   6.235
 4455SOL    HW114264   3.612   6.062   6.244
 4455SOL    HW214265   3.665   6.192   6.161
 4456SOL     OW14266   3.350   5.096   1.888
 4456SOL    HW114267   3.306   5.162   1.827
 4456SOL    HW214268   3.421   5.141   1.940
 4457SOL     OW14269   4.587   1.882   0.767
 4457SOL    HW114270   4.620   1.841   0.852
 4457SOL    HW214271   4.495   1.848   0.747
 4458SOL     OW14272   1.290   3.496   6.767
 4458SOL    HW114273   1.320   3.406   6.736
 4458SOL    HW214274   1.192   3.492   6.790
 4459SOL     OW14275   4.704   0.735   4.179
 4459SOL    HW114276   4.669   0.784   4.259
 4459SOL    HW214277   4.662   0.771   4.096
 4460SOL     OW14278   3.126   3.130   5.689
 4460SOL    HW114279   3.096   3.188   5.614
 4460SOL    HW214280   3.157   3.187   5.765
 4461SOL     OW14281   1.696   1.182   2.397
 4461SOL    HW114282   1.617   1.200   2.338
 4461SOL    HW214283   1.726   1.087   2.383
 4462SOL     OW14284   6.228   4.219   2.201
 4462SOL    HW114285   6.251   4.197   2.296
 4462SOL    HW214286   6.265   4.148   2.140
 4463SOL     OW14287   4.712   2.585   6.439
 4463SOL    HW114288   4.662   2.499   6.430
 4463SOL    HW214289   4.684   2.648   6.367
 4464SOL     OW14290   0.039   4.998   0.934
 4464SOL    HW114291   0.103   5.071   0.908
 4464SOL    HW214292   7.001   5.029   1.010
 4465SOL     OW14293   2.607   5.653   2.015
 4465SOL    HW114294   2.524   5.616   1.974
 4465SOL    HW214295   2.588   5.744   2.053
 4466SOL     OW14296   2.311   1.412   3.450
 4466SOL    HW114297   2.385   1.434   3.386
 4466SOL    HW214298   2.228   1.461   3.422
 4467SOL     OW14299   2.046   6.972   2.753
 4467SOL    HW114300   2.077   0.044   2.780
 4467SOL    HW214301   2.072   6.906   2.823
 4468SOL     OW14302   2.075   2.946   1.245
 4468SOL    HW114303   2.026   2.929   1.331
 4468SOL    HW214304   2.130   2.866   1.222
 4469SOL     OW14305   4.311   0.170   1.219
 4469SOL    HW114306   4.336   0.258   1.259
 4469SOL    HW214307   4.353   0.162   1.128
 4470SOL     OW14308   5.992   2.496   2.228
 4470SOL    HW114309   6.090   2.477   2.229
 4470SOL    HW214310   5.966   2.536   2.141
 4471SOL     OW14311   0.253   1.605   6.426
 4471SOL    HW114312   0.260   1.508   6.449
 4471SOL    HW214313   0.165   1.641   6.457
 4472SOL     OW14314   1.639   2.974   4.040
 4472SOL    HW114315   1.627   2.885   4.083
 4472SOL    HW214316   1.715   2.970   3.975
 4473SOL     OW14317   6.896   2.448   4.196
 4473SOL    HW114318   6.805   2.407   4.207
 4473SOL    HW214319   6.965   2.376   4.189
 4474SOL     OW14320   3.123   0.948   1.405
 4474SOL    HW114321   3.223   0.943   1.398
 4474SOL    HW214322   3.095   1.044   1.412
 4475SOL     OW14323   1.758   4.227   2.816
 4475SOL    HW114324   1.676   4.234   2.874
 4475SOL    HW214325   1.787   4.132   2.811
 4476SOL     OW14326   4.320   6.682   4.145
 4476SOL    HW114327   4.325   6.658   4.048
 4476SOL    HW214328   4.333   6.600   4.200
 4477SOL     OW14329   1.647   0.185   5.566
 4477SOL    HW114330   1.593   0.255   5.518
 4477SOL    HW214331   1.639   0.198   5.664
 4478SOL     OW14332   3.822   6.557   2.691
 4478SOL    HW114333   3.919   6.547   2.668
 4478SOL    HW214334   3.768   6.561   2.607
 4479SOL     OW14335   1.446   0.976   1.329
 4479SOL    HW114336   1.540   0.992   1.300
 4479SOL    HW214337   1.444   0.962   1.428
 4480SOL     OW14338   2.450   3.136   6.165
 4480SOL    HW114339   2.465   3.213   6.103
 4480SOL    HW214340   2.521   3.067   6.150
 4481SOL     OW14341   2.548   6.335   5.637
 4481SOL    HW114342   2.523   6.243   5.667
 4481SOL    HW214343   2.637   6.332   5.590
 4482SOL     OW14344   1.194   4.624   4.387
 4482SOL    HW114345   1.122   4.567   4.427
 4482SOL    HW214346   1.256   4.567   4.334
 4483SOL     OW14347   4.910   3.447   1.912
 4483SOL    HW114348   4.830   3.492   1.872
 4483SOL    HW214349   4.992   3.501   1.891
 4484SOL     OW14350   3.675   2.956   5.878
 4484SOL    HW114351   3.685   2.898   5.798
 4484SOL    HW214352   3.708   2.908   5.959
 4485SOL     OW14353   4.979   1.926   5.173
 4485SOL    HW114354   4.914   1.852   5.157
 4485SOL    HW214355   5.032   1.942   5.090
 4486SOL     OW14356   5.410   4.841   4.686
 4486SOL    HW114357   5.424   4.759   4.742
 4486SOL    HW214358   5.360   4.816   4.603
 4487SOL     OW14359   2.703   2.612   6.205
 4487SOL    HW114360   2.695   2.701   6.251
 4487SOL    HW214361   2.760   2.551   6.260
 4488SOL     OW14362   6.638   3.255   6.067
 4488SOL    HW114363   6.675   3.348   6.074
 4488SOL    HW214364   6.660   3.217   5.978
 4489SOL     OW14365   6.122   5.570   4.517
 4489SOL    HW114366   6.174   5.582   4.601
 4489SOL    HW214367   6.140   5.646   4.454
 4490SOL     OW14368   6.198   2.550   3.224
 4490SOL    HW114369   6.273   2.487   3.243
 4490SOL    HW214370   6.185   2.557   3.125
 4491SOL     OW14371   0.134   2.098   4.529
 4491SOL    HW114372   0.063   2.036   4.560
 4491SOL    HW214373   0.094   2.189   4.514
 4492SOL     OW14374   5.801   4.293   2.066
 4492SOL    HW114375   5.783   4.209   2.117
 4492SOL    HW214376   5.715   4.330   2.030
 4493SOL     OW14377   4.736   6.033   5.414
 4493SOL    HW114378   4.800   5.959   5.435
 4493SOL    HW214379   4.786   6.110   5.373
 4494SOL     OW14380   6.591   1.216   5.345
 4494SOL    HW114381   6.612   1.172   5.433
 4494SOL    HW214382   6.494   1.202   5.323
 4495SOL     OW14383   3.708   6.074   4.717
 4495SOL    HW114384   3.760   6.126   4.650
 4495SOL    HW214385   3.661   6.137   4.779
 4496SOL     OW14386   5.527   5.404   1.025
 4496SOL    HW114387   5.443   5.418   1.078
 4496SOL    HW214388   5.521   5.454   0.939
 4497SOL     OW14389   4.879   0.728   6.898
 4497SOL    HW114390   4.805   0.666   6.923
 4497SOL    HW214391   4.843   0.802   6.840
 4498SOL     OW14392   6.799   3.616   6.545
 4498SOL    HW114393   6.730   3.597   6.475
 4498SOL    HW214394   6.885   3.570   6.521
 4499SOL     OW14395   6.689   3.160   4.160
 4499SOL    HW114396   6.770   3.103   4.172
 4499SOL    HW214397   6.636   3.162   4.245
 4500SOL     OW14398   3.113   4.028   3.977
 4500SOL    HW114399   3.097   3.944   4.028
 4500SOL    HW214400   3.062   4.103   4.020
 4501SOL     OW14401   0.536   3.359   4.504
 4501SOL    HW114402   0.623   3.408   4.494
 4501SOL    HW214403   0.463   3.414   4.462
 4502SOL     OW14404   1.178   2.715   6.578
 4502SOL    HW114405   1.088   2.694   6.616
 4502SOL    HW214406   1.180   2.809   6.545
 4503SOL     OW14407   3.659   6.848   2.066
 4503SOL    HW114408   3.596   6.925   2.057
 4503SOL    HW214409   3.748   6.873   2.029
 4504SOL     OW14410   6.221   1.414   5.181
 4504SOL    HW114411   6.123   1.400   5.164
 4504SOL    HW214412   6.234   1.493   5.241
 4505SOL     OW14413   6.150   5.583   2.222
 4505SOL    HW114414   6.159   5.606   2.320
 4505SOL    HW214415   6.065   5.533   2.207
 4506SOL     OW14416   4.328   1.987   3.471
 4506SOL    HW114417   4.258   2.059   3.468
 4506SOL    HW214418   4.315   1.925   3.394
 4507SOL     OW14419   5.466   5.269   2.365
 4507SOL    HW114420   5.372   5.283   2.335
 4507SOL    HW214421   5.492   5.174   2.351
 4508SOL     OW14422   0.497   4.493   6.048
 4508SOL    HW114423   0.470   4.566   5.986
 4508SOL    HW214424   0.559   4.529   6.118
 4509SOL     OW14425   5.081   2.645   2.255
 4509SOL    HW114426   5.024   2.721   2.286
 4509SOL    HW214427   5.028   2.586   2.194
 4510SOL     OW14428   4.412   0.960   4.351
 4510SOL    HW114429   4.348   0.972   4.426
 4510SOL    HW214430   4.391   0.874   4.303
 4511SOL     OW14431   0.258   3.252   6.841
 4511SOL    HW114432   0.291   3.163   6.808
 4511SOL    HW214433   0.217   3.303   6.766
 4512SOL     OW14434   2.623   0.281   4.935
 4512SOL    HW114435   2.574   0.351   4.986
 4512SOL    HW214436   2.717   0.311   4.920
 4513SOL     OW14437   5.989   5.514   0.584
 4513SOL    HW114438   5.970   5.611   0.573
 4513SOL    HW214439   6.034   5.499   0.672
 4514SOL     OW14440   4.644   1.275   6.323
 4514SOL    HW114441   4.613   1.312   6.235
 4514SOL    HW214442   4.609   1.182   6.334
 4515SOL     OW14443   0.226   2.541   5.744
 4515SOL    HW114444   0.146   2.528   5.685
 4515SOL    HW214445   0.230   2.467   5.811
 4516SOL     OW14446   1.187   0.537   0.019
 4516SOL    HW114447   1.191   0.616   6.977
 4516SOL    HW214448   1.092   0.515   0.039
 4517SOL     OW14449   3.134   0.976   6.776
 4517SOL    HW114450   3.092   1.020   6.856
 4517SOL    HW214451   3.088   0.889   6.759
 4518SOL     OW14452   0.016   0.416   3.304
 4518SOL    HW114453   7.001   0.440   3.395
 4518SOL    HW214454   0.026   0.499   3.249
 4519SOL     OW14455   5.625   0.437   1.629
 4519SOL    HW114456   5.724   0.421   1.629
 4519SOL    HW214457   5.598   0.473   1.719
 4520SOL     OW14458   4.645   5.871   4.706
 4520SOL    HW114459   4.611   5.963   4.726
 4520SOL    HW214460   4.610   5.842   4.617
 4521SOL     OW14461   6.225   2.201   4.172
 4521SOL    HW114462   6.138   2.163   4.204
 4521SOL    HW214463   6.301   2.152   4.214
 4522SOL     OW14464   6.159   6.925   3.426
 4522SOL    HW114465   6.201   6.898   3.513
 4522SOL    HW214466   6.212   6.998   3.385
 4523SOL     OW14467   1.643   4.753   0.370
 4523SOL    HW114468   1.595   4.705   0.443
 4523SOL    HW214469   1.708   4.818   0.410
 4524SOL     OW14470   5.639   2.402   3.739
 4524SOL    HW114471   5.564   2.387   3.675
 4524SOL    HW214472   5.602   2.436   3.826
 4525SOL     OW14473   4.950   1.362   3.785
 4525SOL    HW114474   4.910   1.424   3.852
 4525SOL    HW214475   5.045   1.389   3.768
 4526SOL     OW14476   5.967   0.363   1.291
 4526SOL    HW114477   5.959   0.462   1.300
 4526SOL    HW214478   5.958   0.320   1.381
 4527SOL     OW14479   4.335   1.411   3.518
 4527SOL    HW114480   4.369   1.496   3.558
 4527SOL    HW214481   4.411   1.346   3.507
 4528SOL     OW14482   4.755   0.212   0.211
 4528SOL    HW114483   4.848   0.223   0.176
 4528SOL    HW214484   4.714   0.130   0.172
 4529SOL     OW14485   3.402   1.271   5.195
 4529SOL    HW114486   3.390   1.366   5.223
 4529SOL    HW214487   3.500   1.251   5.188
 4530SOL     OW14488   1.500   3.553   6.395
 4530SOL    HW114489   1.459   3.587   6.479
 4530SOL    HW214490   1.569   3.483   6.417
 4531SOL     OW14491   0.364   3.581   4.373
 4531SOL    HW114492   0.273   3.582   4.415
 4531SOL    HW214493   0.364   3.644   4.295
 4532SOL     OW14494   5.794   2.331   3.489
 4532SOL    HW114495   5.698   2.333   3.519
 4532SOL    HW214496   5.798   2.348   3.390
 4533SOL     OW14497   1.737   0.770   1.971
 4533SOL    HW114498   1.797   0.700   2.009
 4533SOL    HW214499   1.647   0.764   2.015
 4534SOL     OW14500   4.602   4.468   4.627
 4534SOL    HW114501   4.667   4.399   4.656
 4534SOL    HW214502   4.584   4.532   4.701
 4535SOL     OW14503   4.857   1.339   2.419
 4535SOL    HW114504   4.952   1.351   2.447
 4535SOL    HW214505   4.833   1.410   2.353
 4536SOL     OW14506   3.905   1.212   3.779
 4536SOL    HW114507   3.936   1.141   3.715
 4536SOL    HW214508   3.822   1.180   3.825
 4537SOL     OW14509   3.784   2.893   6.142
 4537SOL    HW114510   3.874   2.937   6.150
 4537SOL    HW214511   3.715   2.949   6.187
 4538SOL     OW14512   2.084   0.242   3.977
 4538SOL    HW114513   2.067   0.179   4.053
 4538SOL    HW214514   2.165   0.212   3.926
 4539SOL     OW14515   2.031   0.797   4.795
 4539SOL    HW114516   2.112   0.814   4.740
 4539SOL    HW214517   1.975   0.880   4.800
 4540SOL     OW14518   2.832   2.914   5.381
 4540SOL    HW114519   2.761   2.847   5.357
 4540SOL    HW214520   2.901   2.916   5.309
 4541SOL     OW14521   6.234   1.369   1.117
 4541SOL    HW114522   6.221   1.298   1.047
 4541SOL    HW214523   6.153   1.371   1.176
 4542SOL     OW14524   6.456   1.028   3.033
 4542SOL    HW114525   6.551   1.046   3.009
 4542SOL    HW214526   6.439   1.058   3.127
 4543SOL     OW14527   4.600   1.873   1.389
 4543SOL    HW114528   4.644   1.791   1.426
 4543SOL    HW214529   4.639   1.954   1.432
 4544SOL     OW14530   3.009   6.201   5.990
 4544SOL    HW114531   2.959   6.161   6.067
 4544SOL    HW214532   3.020   6.299   6.004
 4545SOL     OW14533   5.173   3.707   4.807
 4545SOL    HW114534   5.123   3.684   4.890
 4545SOL    HW214535   5.271   3.694   4.823
 4546SOL     OW14536   1.958   1.078   6.310
 4546SOL    HW114537   1.922   1.161   6.267
 4546SOL    HW214538   2.027   1.104   6.378
 4547SOL     OW14539   5.951   2.633   3.352
 4547SOL    HW114540   6.050   2.632   3.338
 4547SOL    HW214541   5.905   2.595   3.272
 4548SOL     OW14542   1.270   4.131   4.747
 4548SOL    HW114543   1.294   4.226   4.770
 4548SOL    HW214544   1.263   4.121   4.648
 4549SOL     OW14545   6.053   4.396   2.087
 4549SOL    HW114546   6.111   4.333   2.138
 4549SOL    HW214547   5.961   4.358   2.079
 4550SOL     OW14548   1.424   6.062   3.267
 4550SOL    HW114549   1.501   6.104   3.220
 4550SOL    HW214550   1.342   6.070   3.211
 4551SOL     OW14551   6.601   1.879   5.959
 4551SOL    HW114552   6.591   1.788   5.917
 4551SOL    HW214553   6.696   1.891   5.989
 4552SOL     OW14554   6.383   2.678   0.778
 4552SOL    HW114555   6.477   2.711   0.783
 4552SOL    HW214556   6.336   2.722   0.701
 4553SOL     OW14557   3.793   4.277   6.719
 4553SOL    HW114558   3.707   4.306   6.761
 4553SOL    HW214559   3.854   4.356   6.713
 4554SOL     OW14560   5.103   0.458   1.467
 4554SOL    HW114561   5.170   0.454   1.393
 4554SOL    HW214562   5.020   0.410   1.439
 4555SOL     OW14563   3.372   1.580   5.650
 4555SOL    HW114564   3.426   1.503   5.616
 4555SOL    HW214565   3.301   1.603   5.584
 4556SOL     OW14566   4.293   2.342   4.222
 4556SOL    HW114567   4.270   2.374   4.314
 4556SOL    HW214568   4.327   2.248   4.227
 4557SOL     OW14569   5.061   6.550   4.947
 4557SOL    HW114570   4.985   6.517   5.003
 4557SOL    HW214571   5.074   6.648   4.963
 4558SOL     OW14572   0.609   3.943   4.843
 4558SOL    HW114573   0.517   3.924   4.878
 4558SOL    HW214574   0.660   3.858   4.835
 4559SOL     OW14575   0.585   3.662   2.114
 4559SOL    HW114576   0.525   3.607   2.173
 4559SOL    HW214577   0.593   3.618   2.025
 4560SOL     OW14578   5.515   5.089   2.727
 4560SOL    HW114579   5.515   5.187   2.709
 4560SOL    HW214580   5.594   5.064   2.783
 4561SOL     OW14581   2.422   1.012   1.772
 4561SOL    HW114582   2.351   0.968   1.717
 4561SOL    HW214583   2.465   1.085   1.720
 4562SOL     OW14584   3.206   6.239   4.715
 4562SOL    HW114585   3.143   6.317   4.712
 4562SOL    HW214586   3.203   6.198   4.806
 4563SOL     OW14587   0.393   3.745   0.988
 4563SOL    HW114588   0.346   3.808   0.926
 4563SOL    HW214589   0.487   3.732   0.958
 4564SOL     OW14590   6.820   6.943   0.615
 4564SOL    HW114591   6.887   7.016   0.630
 4564SOL    HW214592   6.861   6.871   0.559
 4565SOL     OW14593   0.247   1.338   5.630
 4565SOL    HW114594   0.225   1.289   5.714
 4565SOL    HW214595   0.165   1.384   5.596
 4566SOL     OW14596   6.566   1.975   0.731
 4566SOL    HW114597   6.616   1.980   0.645
 4566SOL    HW214598   6.607   2.037   0.797
 4567SOL     OW14599   0.077   0.647   0.157
 4567SOL    HW114600   0.038   0.621   0.068
 4567SOL    HW214601   0.166   0.690   0.143
 4568SOL     OW14602   1.815   4.048   6.065
 4568SOL    HW114603   1.718   4.060   6.045
 4568SOL    HW214604   1.868   4.061   5.981
 4569SOL     OW14605   2.176   1.173   3.473
 4569SOL    HW114606   2.240   1.250   3.477
 4569SOL    HW214607   2.201   1.106   3.543
 4570SOL     OW14608   0.790   6.203   3.300
 4570SOL    HW114609   0.707   6.147   3.303
 4570SOL    HW214610   0.860   6.163   3.358
 4571SOL     OW14611   4.173   3.190   6.057
 4571SOL    HW114612   4.218   3.239   5.981
 4571SOL    HW214613   4.166   3.251   6.136
 4572SOL     OW14614   1.177   6.579   0.016
 4572SOL    HW114615   1.168   6.485   7.003
 4572SOL    HW214616   1.245   6.627   6.979
 4573SOL     OW14617   6.291   6.775   0.489
 4573SOL    HW114618   6.264   6.868   0.463
 4573SOL    HW214619   6.326   6.775   0.582
 4574SOL     OW14620   6.548   3.948   1.104
 4574SOL    HW114621   6.627   4.009   1.114
 4574SOL    HW214622   6.510   3.959   1.012
 4575SOL     OW14623   5.591   1.958   6.553
 4575SOL    HW114624   5.501   1.979   6.516
 4575SOL    HW214625   5.650   1.922   6.481
 4576SOL     OW14626   2.518   6.242   6.261
 4576SOL    HW114627   2.545   6.172   6.195
 4576SOL    HW214628   2.419   6.251   6.263
 4577SOL     OW14629   1.053   1.729   4.603
 4577SOL    HW114630   1.111   1.729   4.684
 4577SOL    HW214631   1.079   1.805   4.543
 4578SOL     OW14632   0.887   3.331   4.826
 4578SOL    HW114633   0.791   3.336   4.854
 4578SOL    HW214634   0.909   3.237   4.799
 4579SOL     OW14635   4.714   2.278   3.570
 4579SOL    HW114636   4.749   2.351   3.629
 4579SOL    HW214637   4.689   2.316   3.481
 4580SOL     OW14638   4.642   4.398   0.020
 4580SOL    HW114639   4.668   4.453   0.099
 4580SOL    HW214640   4.575   4.447   6.984
 4581SOL     OW14641   2.606   4.728   2.743
 4581SOL    HW114642   2.602   4.630   2.765
 4581SOL    HW214643   2.544   4.747   2.667
 4582SOL     OW14644   5.950   6.390   4.570
 4582SOL    HW114645   5.898   6.474   4.554
 4582SOL    HW214646   5.940   6.361   4.665
 4583SOL     OW14647   2.210   1.854   5.698
 4583SOL    HW114648   2.276   1.889   5.631
 4583SOL    HW214649   2.165   1.931   5.743
 4584SOL     OW14650   6.948   5.390   6.052
 4584SOL    HW114651   6.920   5.452   5.979
 4584SOL    HW214652   0.017   5.420   6.089
 4585SOL     OW14653   2.557   6.983   3.096
 4585SOL    HW114654   2.531   0.046   3.147
 4585SOL    HW214655   2.656   6.984   3.079
 4586SOL     OW14656   3.078   4.528   0.592
 4586SOL    HW114657   3.148   4.543   0.662
 4586SOL    HW214658   3.120   4.533   0.501
 4587SOL     OW14659   3.818   3.821   1.983
 4587SOL    HW114660   3.875   3.759   2.037
 4587SOL    HW214661   3.791   3.899   2.039
 4588SOL     OW14662   4.051   3.671   4.834
 4588SOL    HW114663   4.074   3.745   4.771
 4588SOL    HW214664   3.952   3.663   4.841
 4589SOL     OW14665   6.034   1.046   2.496
 4589SOL    HW114666   5.936   1.053   2.512
 4589SOL    HW214667   6.070   1.135   2.468
 4590SOL     OW14668   4.784   5.873   0.192
 4590SOL    HW114669   4.763   5.894   0.097
 4590SOL    HW214670   4.701   5.883   0.248
 4591SOL     OW14671   0.930   6.664   4.560
 4591SOL    HW114672   0.920   6.632   4.466
 4591SOL    HW214673   0.858   6.729   4.581
 4592SOL     OW14674   3.433   1.472   1.602
 4592SOL    HW114675   3.426   1.564   1.641
 4592SOL    HW214676   3.509   1.423   1.645
 4593SOL     OW14677   4.398   5.395   3.576
 4593SOL    HW114678   4.424   5.484   3.615
 4593SOL    HW214679   4.469   5.328   3.595
 4594SOL     OW14680   3.001   1.021   1.708
 4594SOL    HW114681   3.074   1.045   1.645
 4594SOL    HW214682   3.038   1.010   1.800
 4595SOL     OW14683   4.118   2.191   6.713
 4595SOL    HW114684   4.137   2.287   6.693
 4595SOL    HW214685   4.127   2.175   6.811
 4596SOL     OW14686   6.167   6.806   2.878
 4596SOL    HW114687   6.075   6.796   2.915
 4596SOL    HW214688   6.179   6.744   2.801
 4597SOL     OW14689   4.476   4.438   6.460
 4597SOL    HW114690   4.381   4.469   6.466
 4597SOL    HW214691   4.522   4.458   6.547
 4598SOL     OW14692   1.968   5.647   0.274
 4598SOL    HW114693   1.911   5.579   0.228
 4598SOL    HW214694   1.997   5.717   0.209
 4599SOL     OW14695   0.768   5.518   0.553
 4599SOL    HW114696   0.785   5.615   0.565
 4599SOL    HW214697   0.706   5.504   0.476
 4600SOL     OW14698   0.911   4.652   5.343
 4600SOL    HW114699   0.885   4.739   5.384
 4600SOL    HW214700   0.833   4.590   5.344
 4601SOL     OW14701   1.761   0.386   6.075
 4601SOL    HW114702   1.707   0.328   6.137
 4601SOL    HW214703   1.858   0.370   6.091
 4602SOL     OW14704   0.936   5.533   1.332
 4602SOL    HW114705   0.874   5.602   1.296
 4602SOL    HW214706   0.887   5.477   1.400
 4603SOL     OW14707   3.303   6.146   0.790
 4603SOL    HW114708   3.347   6.180   0.873
 4603SOL    HW214709   3.258   6.058   0.809
 4604SOL     OW14710   4.673   0.415   1.514
 4604SOL    HW114711   4.640   0.500   1.471
 4604SOL    HW214712   4.620   0.338   1.480
 4605SOL     OW14713   3.460   0.644   3.470
 4605SOL    HW114714   3.497   0.569   3.415
 4605SOL    HW214715   3.525   0.720   3.471
 4606SOL     OW14716   0.771   0.063   1.720
 4606SOL    HW114717   0.801   0.076   1.814
 4606SOL    HW214718   0.768   0.152   1.674
 4607SOL     OW14719   2.058   2.532   1.164
 4607SOL    HW114720   2.057   2.465   1.090
 4607SOL    HW214721   2.137   2.592   1.152
 4608SOL     OW14722   0.846   6.232   3.850
 4608SOL    HW114723   0.809   6.324   3.837
 4608SOL    HW214724   0.777   6.165   3.824
 4609SOL     OW14725   4.542   4.865   6.614
 4609SOL    HW114726   4.485   4.788   6.586
 4609SOL    HW214727   4.541   4.935   6.542
 4610SOL     OW14728   4.715   2.890   0.905
 4610SOL    HW114729   4.744   2.888   1.001
 4610SOL    HW214730   4.795   2.899   0.846
 4611SOL     OW14731   6.910   6.382   5.882
 4611SOL    HW114732   6.877   6.363   5.789
 4611SOL    HW214733   7.007   6.359   5.889
 4612SOL     OW14734   0.956   6.008   0.017
 4612SOL    HW114735   1.030   6.053   0.067
 4612SOL    HW214736   0.907   6.076   6.981
 4613SOL     OW14737   2.168   6.114   2.175
 4613SOL    HW114738   2.238   6.090   2.107
 4613SOL    HW214739   2.184   6.062   2.259
 4614SOL     OW14740   6.784   3.599   4.516
 4614SOL    HW114741   6.817   3.506   4.532
 4614SOL    HW214742   6.771   3.613   4.418
 4615SOL     OW14743   1.334   0.723   0.360
 4615SOL    HW114744   1.413   0.781   0.381
 4615SOL    HW214745   1.350   0.631   0.396
 4616SOL     OW14746   6.245   0.798   5.746
 4616SOL    HW114747   6.278   0.871   5.685
 4616SOL    HW214748   6.229   0.715   5.693
 4617SOL     OW14749   0.464   2.528   2.455
 4617SOL    HW114750   0.399   2.589   2.500
 4617SOL    HW214751   0.416   2.470   2.390
 4618SOL     OW14752   2.011   3.126   4.891
 4618SOL    HW114753   2.063   3.149   4.974
 4618SOL    HW214754   2.069   3.073   4.829
 4619SOL     OW14755   3.334   6.252   3.150
 4619SOL    HW114756   3.387   6.271   3.233
 4619SOL    HW214757   3.378   6.179   3.099
 4620SOL     OW14758   2.501   4.839   0.509
 4620SOL    HW114759   2.587   4.791   0.490
 4620SOL    HW214760   2.431   4.773   0.536
 4621SOL     OW14761   5.298   1.013   2.473
 4621SOL    HW114762   5.336   0.921   2.461
 4621SOL    HW214763   5.254   1.043   2.388
 4622SOL     OW14764   2.349   4.438   0.396
 4622SOL    HW114765   2.261   4.434   0.444
 4622SOL    HW214766   2.386   4.345   0.386
 4623SOL     OW14767   5.908   6.703   0.633
 4623SOL    HW114768   5.839   6.768   0.601
 4623SOL    HW214769   5.914   6.707   0.733
 4624SOL     OW14770   5.405   0.212   3.053
 4624SOL    HW114771   5.379   0.135   3.111
 4624SOL    HW214772   5.471   0.269   3.102
 4625SOL     OW14773   1.413   3.953   0.666
 4625SOL    HW114774   1.435   4.027   0.729
 4625SOL    HW214775   1.313   3.941   0.662
 4626SOL     OW14776   5.200   5.296   2.331
 4626SOL    HW114777   5.212   5.392   2.304
 4626SOL    HW214778   5.102   5.273   2.328
 4627SOL     OW14779   2.782   4.687   4.140
 4627SOL    HW114780   2.868   4.722   4.177
 4627SOL    HW214781   2.720   4.667   4.216
 4628SOL     OW14782   6.346   4.583   4.138
 4628SOL    HW114783   6.352   4.680   4.162
 4628SOL    HW214784   6.426   4.556   4.085
 4629SOL     OW14785   1.956   5.087   5.808
 4629SOL    HW114786   1.954   5.034   5.892
 4629SOL    HW214787   1.965   5.026   5.730
 4630SOL     OW14788   3.839   5.443   2.428
 4630SOL    HW114789   3.830   5.517   2.494
 4630SOL    HW214790   3.834   5.355   2.476
 4631SOL     OW14791   2.098   6.388   2.986
 4631SOL    HW114792   2.156   6.312   2.956
 4631SOL    HW214793   2.154   6.469   3.002
 4632SOL     OW14794   3.559   5.262   2.472
 4632SOL    HW114795   3.589   5.346   2.425
 4632SOL    HW214796   3.627   5.236   2.540
 4633SOL     OW14797   5.606   1.370   4.339
 4633SOL    HW114798   5.562   1.288   4.303
 4633SOL    HW214799   5.637   1.353   4.432
 4634SOL     OW14800   2.688   5.205   5.771
 4634SOL    HW114801   2.716   5.110   5.760
 4634SOL    HW214802   2.597   5.208   5.812
 4635SOL     OW14803   5.380   3.751   1.147
 4635SOL    HW114804   5.341   3.760   1.239
 4635SOL    HW214805   5.333   3.813   1.084
 4636SOL     OW14806   2.394   5.247   0.396
 4636SOL    HW114807   2.350   5.326   0.355
 4636SOL    HW214808   2.333   5.167   0.388
 4637SOL     OW14809   0.728   6.791   0.038
 4637SOL    HW114810   0.752   6.789   0.135
 4637SOL    HW214811   0.683   6.705   0.014
 4638SOL     OW14812   4.966   3.085   0.101
 4638SOL    HW114813   4.891   3.047   0.046
 4638SOL    HW214814   5.053   3.066   0.056
 4639SOL     OW14815   2.872   4.317   5.328
 4639SOL    HW114816   2.966   4.282   5.327
 4639SOL    HW214817   2.871   4.410   5.293
 4640SOL     OW14818   4.728   4.421   3.650
 4640SOL    HW114819   4.729   4.334   3.602
 4640SOL    HW214820   4.633   4.451   3.664
 4641SOL     OW14821   2.088   6.431   5.151
 4641SOL    HW114822   2.048   6.520   5.174
 4641SOL    HW214823   2.162   6.410   5.214
 4642SOL     OW14824   0.366   5.607   3.806
 4642SOL    HW114825   0.466   5.600   3.800
 4642SOL    HW214826   0.325   5.535   3.751
 4643SOL     OW14827   5.727   3.101   1.177
 4643SOL    HW114828   5.767   3.172   1.121
 4643SOL    HW214829   5.632   3.087   1.150
 4644SOL     OW14830   0.007   4.951   5.126
 4644SOL    HW114831   0.053   4.881   5.071
 4644SOL    HW214832   6.933   4.921   5.148
 4645SOL     OW14833   0.638   1.330   4.205
 4645SOL    HW114834   0.636   1.430   4.201
 4645SOL    HW214835   0.731   1.298   4.190
 4646SOL     OW14836   2.295   5.469   3.723
 4646SOL    HW114837   2.236   5.391   3.703
 4646SOL    HW214838   2.329   5.463   3.817
 4647SOL     OW14839   1.655   1.167   3.906
 4647SOL    HW114840   1.598   1.089   3.879
 4647SOL    HW214841   1.632   1.195   3.999
 4648SOL     OW14842   4.454   1.140   2.402
 4648SOL    HW114843   4.421   1.188   2.483
 4648SOL    HW214844   4.380   1.134   2.335
 4649SOL     OW14845   5.500   0.174   6.643
 4649SOL    HW114846   5.421   0.156   6.703
 4649SOL    HW214847   5.543   0.087   6.618
 4650SOL     OW14848   5.006   5.402   3.193
 4650SOL    HW114849   5.047   5.332   3.252
 4650SOL    HW214850   4.907   5.385   3.186
 4651SOL     OW14851   6.999   1.908   0.457
 4651SOL    HW114852   6.943   1.902   0.375
 4651SOL    HW214853   6.961   1.848   0.528
 4652SOL     OW14854   6.900   0.360   4.395
 4652SOL    HW114855   6.867   0.421   4.466
 4652SOL    HW214856   6.863   0.388   4.307
 4653SOL     OW14857   5.801   5.029   0.355
 4653SOL    HW114858   5.841   4.996   0.270
 4653SOL    HW214859   5.870   5.026   0.428
 4654SOL     OW14860   0.926   6.553   0.329
 4654SOL    HW114861   0.946   6.636   0.381
 4654SOL    HW214862   1.010   6.501   0.316
 4655SOL     OW14863   6.088   4.395   1.708
 4655SOL    HW114864   6.099   4.340   1.791
 4655SOL    HW214865   5.991   4.411   1.690
 4656SOL     OW14866   1.162   0.618   3.642
 4656SOL    HW114867   1.115   0.530   3.636
 4656SOL    HW214868   1.134   0.666   3.725
 4657SOL     OW14869   5.372   5.954   1.534
 4657SOL    HW114870   5.339   5.933   1.626
 4657SOL    HW214871   5.404   5.870   1.491
 4658SOL     OW14872   3.944   0.796   2.580
 4658SOL    HW114873   3.914   0.704   2.556
 4658SOL    HW214874   3.905   0.822   2.669
 4659SOL     OW14875   3.203   4.522   5.319
 4659SOL    HW114876   3.123   4.531   5.260
 4659SOL    HW214877   3.173   4.500   5.412
 4660SOL     OW14878   1.349   4.368   5.843
 4660SOL    HW114879   1.407   4.287   5.836
 4660SOL    HW214880   1.344   4.413   5.754
 4661SOL     OW14881   3.520   4.198   5.713
 4661SOL    HW114882   3.543   4.207   5.617
 4661SOL    HW214883   3.463   4.116   5.726
 4662SOL     OW14884   3.968   6.959   5.419
 4662SOL    HW114885   3.880   6.984   5.460
 4662SOL    HW214886   3.978   7.006   5.332
 4663SOL     OW14887   0.705   1.620   2.584
 4663SOL    HW114888   0.655   1.681   2.522
 4663SOL    HW214889   0.720   1.667   2.671
 4664SOL     OW14890   1.204   1.647   0.780
 4664SOL    HW114891   1.284   1.674   0.833
 4664SOL    HW214892   1.217   1.555   0.743
 4665SOL     OW14893   3.755   6.950   0.072
 4665SOL    HW114894   3.734   7.002   0.154
 4665SOL    HW214895   3.688   6.970   0.001
 4666SOL     OW14896   1.286   2.151   0.883
 4666SOL    HW114897   1.295   2.058   0.917
 4666SOL    HW214898   1.199   2.189   0.912
 4667SOL     OW14899   5.915   3.297   2.659
 4667SOL    HW114900   5.904   3.329   2.565
 4667SOL    HW214901   5.916   3.197   2.661
 4668SOL     OW14902   5.059   1.861   2.666
 4668SOL    HW114903   5.134   1.795   2.668
 4668SOL    HW214904   4.989   1.831   2.602
 4669SOL     OW14905   4.585   6.297   6.830
 4669SOL    HW114906   4.627   6.246   6.755
 4669SOL    HW214907   4.499   6.337   6.800
 4670SOL     OW14908   2.892   2.097   5.016
 4670SOL    HW114909   2.977   2.148   5.030
 4670SOL    HW214910   2.858   2.064   5.104
 4671SOL     OW14911   6.860   3.065   2.192
 4671SOL    HW114912   6.887   3.061   2.096
 4671SOL    HW214913   6.928   3.017   2.248
 4672SOL     OW14914   2.978   4.681   6.340
 4672SOL    HW114915   2.897   4.735   6.365
 4672SOL    HW214916   3.048   4.740   6.301
 4673SOL     OW14917   5.234   6.626   1.641
 4673SOL    HW114918   5.266   6.547   1.588
 4673SOL    HW214919   5.175   6.594   1.715
 4674SOL     OW14920   5.107   0.188   6.315
 4674SOL    HW114921   5.194   0.142   6.294
 4674SOL    HW214922   5.032   0.122   6.309
 4675SOL     OW14923   0.771   1.312   6.202
 4675SOL    HW114924   0.763   1.328   6.103
 4675SOL    HW214925   0.808   1.394   6.246
 4676SOL     OW14926   0.041   6.258   3.629
 4676SOL    HW114927   6.962   6.245   3.641
 4676SOL    HW214928   0.071   6.211   3.546
 4677SOL     OW14929   2.904   0.977   6.960
 4677SOL    HW114930   2.909   0.879   6.943
 4677SOL    HW214931   2.866   1.024   6.880
 4678SOL     OW14932   2.120   4.679   3.485
 4678SOL    HW114933   2.155   4.726   3.566
 4678SOL    HW214934   2.138   4.581   3.493
 4679SOL     OW14935   3.325   0.554   0.741
 4679SOL    HW114936   3.344   0.489   0.815
 4679SOL    HW214937   3.228   0.552   0.719
 4680SOL     OW14938   2.889   1.687   6.672
 4680SOL    HW114939   2.946   1.663   6.594
 4680SOL    HW214940   2.902   1.783   6.695
 4681SOL     OW14941   4.936   5.128   6.690
 4681SOL    HW114942   4.987   5.214   6.693
 4681SOL    HW214943   4.971   5.066   6.761
 4682SOL     OW14944   4.808   4.366   5.361
 4682SOL    HW114945   4.762   4.296   5.305
 4682SOL    HW214946   4.783   4.354   5.457
 4683SOL     OW14947   4.951   4.997   2.307
 4683SOL    HW114948   4.939   4.934   2.383
 4683SOL    HW214949   5.048   5.016   2.294
 4684SOL     OW14950   5.832   0.415   5.320
 4684SOL    HW114951   5.773   0.496   5.323
 4684SOL    HW214952   5.894   0.423   5.242
 4685SOL     OW14953   1.040   5.467   5.460
 4685SOL    HW114954   0.954   5.484   5.509
 4685SOL    HW214955   1.117   5.475   5.523
 4686SOL     OW14956   4.311   4.836   0.043
 4686SOL    HW114957   4.384   4.812   0.107
 4686SOL    HW214958   4.250   4.903   0.085
 4687SOL     OW14959   5.410   3.472   4.370
 4687SOL    HW114960   5.316   3.459   4.341
 4687SOL    HW214961   5.472   3.434   4.301
 4688SOL     OW14962   5.787   4.181   4.854
 4688SOL    HW114963   5.713   4.116   4.869
 4688SOL    HW214964   5.834   4.158   4.768
 4689SOL     OW14965   4.650   0.689   0.217
 4689SOL    HW114966   4.573   0.643   0.171
 4689SOL    HW214967   4.718   0.621   0.243
 4690SOL     OW14968   1.027   0.190   6.971
 4690SOL    HW114969   1.056   0.199   6.875
 4690SOL    HW214970   1.108   0.182   0.010
 4691SOL     OW14971   2.942   4.736   1.150
 4691SOL    HW114972   3.034   4.759   1.182
 4691SOL    HW214973   2.929   4.637   1.153
 4692SOL     OW14974   5.565   5.395   1.874
 4692SOL    HW114975   5.476   5.441   1.873
 4692SOL    HW214976   5.562   5.317   1.936
 4693SOL     OW14977   1.752   2.060   3.604
 4693SOL    HW114978   1.658   2.072   3.637
 4693SOL    HW214979   1.806   2.014   3.674
 4694SOL     OW14980   1.542   0.839   0.510
 4694SOL    HW114981   1.610   0.782   0.555
 4694SOL    HW214982   1.569   0.935   0.517
 4695SOL     OW14983   0.946   4.303   2.302
 4695SOL    HW114984   0.874   4.235   2.288
 4695SOL    HW214985   0.905   4.389   2.331
 4696SOL     OW14986   6.965   4.074   0.251
 4696SOL    HW114987   6.918   4.004   0.198
 4696SOL    HW214988   6.899   4.143   0.281
 4697SOL     OW14989   1.697   3.364   1.403
 4697SOL    HW114990   1.714   3.265   1.405
 4697SOL    HW214991   1.719   3.400   1.312
 4698SOL     OW14992   4.396   5.768   2.651
 4698SOL    HW114993   4.423   5.691   2.594
 4698SOL    HW214994   4.296   5.769   2.661
 4699SOL     OW14995   1.226   6.642   2.116
 4699SOL    HW114996   1.165   6.687   2.052
 4699SOL    HW214997   1.186   6.555   2.145
 4700SOL     OW14998   6.864   0.915   2.949
 4700SOL    HW114999   6.813   0.995   2.982
 4700SOL    HW215000   6.850   0.906   2.850
 4701SOL     OW15001   2.545   2.211   0.352
 4701SOL    HW115002   2.472   2.168   0.406
 4701SOL    HW215003   2.512   2.298   0.315
 4702SOL     OW15004   4.901   4.704   6.940
 4702SOL    HW115005   4.913   4.606   6.924
 4702SOL    HW215006   4.805   4.728   6.929
 4703SOL     OW15007   0.311   1.473   2.358
 4703SOL    HW115008   0.232   1.512   2.405
 4703SOL    HW215009   0.314   1.505   2.263
 4704SOL     OW15010   6.779   6.111   6.673
 4704SOL    HW115011   6.775   6.102   6.573
 4704SOL    HW215012   6.860   6.163   6.698
 4705SOL     OW15013   3.737   2.649   1.400
 4705SOL    HW115014   3.755   2.641   1.498
 4705SOL    HW215015   3.713   2.559   1.363
 4706SOL     OW15016   2.522   6.995   0.690
 4706SOL    HW115017   2.479   6.938   0.619
 4706SOL    HW215018   2.488   0.069   0.682
 4707SOL     OW15019   1.395   6.615   0.691
 4707SOL    HW115020   1.379   6.546   0.762
 4707SOL    HW215021   1.438   6.696   0.733
 4708SOL     OW15022   1.491   2.189   6.270
 4708SOL    HW115023   1.432   2.119   6.230
 4708SOL    HW215024   1.572   2.146   6.309
 4709SOL     OW15025   4.578   5.803   5.454
 4709SOL    HW115026   4.613   5.886   5.411
 4709SOL    HW215027   4.479   5.812   5.467
 4710SOL     OW15028   4.631   0.150   5.735
 4710SOL    HW115029   4.675   0.208   5.804
 4710SOL    HW215030   4.661   0.056   5.746
 4711SOL     OW15031   6.134   1.454   1.731
 4711SOL    HW115032   6.058   1.485   1.674
 4711SOL    HW215033   6.207   1.522   1.729
 4712SOL     OW15034   3.380   4.362   6.956
 4712SOL    HW115035   3.354   4.405   6.870
 4712SOL    HW215036   3.435   4.426   7.009
 4713SOL     OW15037   3.351   4.016   0.901
 4713SOL    HW115038   3.421   3.945   0.892
 4713SOL    HW215039   3.279   3.985   0.962
 4714SOL     OW15040   0.890   1.912   6.369
 4714SOL    HW115041   0.918   2.008   6.367
 4714SOL    HW215042   0.917   1.871   6.457
 4715SOL     OW15043   6.196   3.197   2.614
 4715SOL    HW115044   6.132   3.139   2.664
 4715SOL    HW215045   6.196   3.173   2.517
 4716SOL     OW15046   4.013   6.487   6.125
 4716SOL    HW115047   3.931   6.537   6.153
 4716SOL    HW215048   4.080   6.491   6.199
 4717SOL     OW15049   0.223   6.078   3.877
 4717SOL    HW115050   0.128   6.078   3.906
 4717SOL    HW215051   0.257   5.984   3.870
 4718SOL     OW15052   5.806   2.409   1.301
 4718SOL    HW115053   5.816   2.507   1.312
 4718SOL    HW215054   5.884   2.362   1.340
 4719SOL     OW15055   4.929   3.184   1.876
 4719SOL    HW115056   4.851   3.123   1.891
 4719SOL    HW215057   4.896   3.279   1.869
 4720SOL     OW15058   2.204   5.223   6.553
 4720SOL    HW115059   2.159   5.216   6.464
 4720SOL    HW215060   2.230   5.131   6.584
 4721SOL     OW15061   6.396   1.806   2.454
 4721SOL    HW115062   6.343   1.789   2.371
 4721SOL    HW215063   6.478   1.858   2.430
 4722SOL     OW15064   1.030   6.372   6.550
 4722SOL    HW115065   0.940   6.333   6.568
 4722SOL    HW215066   1.100   6.312   6.588
 4723SOL     OW15067   2.893   3.107   5.840
 4723SOL    HW115068   2.953   3.121   5.761
 4723SOL    HW215069   2.928   3.033   5.896
 4724SOL     OW15070   6.009   6.849   3.816
 4724SOL    HW115071   5.909   6.842   3.818
 4724SOL    HW215072   6.049   6.769   3.861
 4725SOL     OW15073   6.900   5.310   0.982
 4725SOL    HW115074   6.906   5.307   1.082
 4725SOL    HW215075   6.992   5.317   0.943
 4726SOL     OW15076   0.973   3.301   6.295
 4726SOL    HW115077   1.003   3.220   6.245
 4726SOL    HW215078   0.876   3.292   6.318
 4727SOL     OW15079   1.130   6.479   1.303
 4727SOL    HW115080   1.169   6.402   1.352
 4727SOL    HW215081   1.047   6.449   1.255
 4728SOL     OW15082   5.957   1.490   1.527
 4728SOL    HW115083   5.973   1.566   1.463
 4728SOL    HW215084   5.887   1.429   1.490
 4729SOL     OW15085   3.938   1.643   0.585
 4729SOL    HW115086   3.955   1.739   0.609
 4729SOL    HW215087   3.854   1.612   0.630
 4730SOL     OW15088   3.486   5.939   6.018
 4730SOL    HW115089   3.400   5.888   6.012
 4730SOL    HW215090   3.484   6.015   5.954
 4731SOL     OW15091   3.329   0.556   6.977
 4731SOL    HW115092   3.257   0.615   7.015
 4731SOL    HW215093   3.418   0.591   7.005
 4732SOL     OW15094   1.849   4.391   5.353
 4732SOL    HW115095   1.787   4.315   5.373
 4732SOL    HW215096   1.924   4.358   5.295
 4733SOL     OW15097   1.572   4.420   4.008
 4733SOL    HW115098   1.561   4.397   4.105
 4733SOL    HW215099   1.522   4.504   3.987
 4734SOL     OW15100   4.377   3.566   0.069
 4734SOL    HW115101   4.307   3.542   0.136
 4734SOL    HW215102   4.339   3.562   6.996
 4735SOL     OW15103   6.869   4.997   4.138
 4735SOL    HW115104   6.957   4.989   4.090
 4735SOL    HW215105   6.864   4.927   4.209
 4736SOL     OW15106   6.075   1.804   5.715
 4736SOL    HW115107   5.991   1.789   5.663
 4736SOL    HW215108   6.141   1.854   5.659
 4737SOL     OW15109   2.701   4.537   1.615
 4737SOL    HW115110   2.680   4.634   1.625
 4737SOL    HW215111   2.770   4.511   1.683
 4738SOL     OW15112   1.214   6.142   3.089
 4738SOL    HW115113   1.165   6.201   3.154
 4738SOL    HW215114   1.220   6.187   3.000
 4739SOL     OW15115   4.731   1.570   2.626
 4739SOL    HW115116   4.791   1.645   2.597
 4739SOL    HW215117   4.765   1.484   2.589
 4740SOL     OW15118   0.519   2.112   1.234
 4740SOL    HW115119   0.426   2.108   1.268
 4740SOL    HW215120   0.541   2.026   1.187
 4741SOL     OW15121   5.511   3.814   0.831
 4741SOL    HW115122   5.475   3.724   0.805
 4741SOL    HW215123   5.535   3.865   0.748
 4742SOL     OW15124   2.982   6.936   6.512
 4742SOL    HW115125   2.991   6.842   6.477
 4742SOL    HW215126   3.032   6.999   6.452
 4743SOL     OW15127   1.768   3.400   4.654
 4743SOL    HW115128   1.839   3.387   4.723
 4743SOL    HW215129   1.800   3.465   4.585
 4744SOL     OW15130   2.542   4.445   6.642
 4744SOL    HW115131   2.590   4.529   6.619
 4744SOL    HW215132   2.598   4.366   6.615
 4745SOL     OW15133   3.056   5.156   5.967
 4745SOL    HW115134   3.007   5.072   5.942
 4745SOL    HW215135   3.146   5.132   6.003
 4746SOL     OW15136   5.655   6.007   2.221
 4746SOL    HW115137   5.744   5.978   2.254
 4746SOL    HW215138   5.593   6.023   2.298
 4747SOL     OW15139   2.195   3.931   6.483
 4747SOL    HW115140   2.155   3.844   6.515
 4747SOL    HW215141   2.146   4.007   6.525
 4748SOL     OW15142   0.931   5.059   0.417
 4748SOL    HW115143   1.010   5.040   0.359
 4748SOL    HW215144   0.948   5.142   0.471
 4749SOL     OW15145   2.781   6.508   5.475
 4749SOL    HW115146   2.768   6.547   5.566
 4749SOL    HW215147   2.737   6.566   5.406
 4750SOL     OW15148   0.418   4.036   3.752
 4750SOL    HW115149   0.345   3.991   3.803
 4750SOL    HW215150   0.381   4.076   3.668
 4751SOL     OW15151   3.493   1.906   1.323
 4751SOL    HW115152   3.477   1.968   1.246
 4751SOL    HW215153   3.567   1.941   1.380
 4752SOL     OW15154   3.253   0.890   6.454
 4752SOL    HW115155   3.228   0.986   6.467
 4752SOL    HW215156   3.187   0.831   6.500
 4753SOL     OW15157   5.270   0.020   3.996
 4753SOL    HW115158   5.247   0.011   4.093
 4753SOL    HW215159   5.199   0.072   3.949
 4754SOL     OW15160   5.514   0.096   4.763
 4754SOL    HW115161   5.504   0.124   4.859
 4754SOL    HW215162   5.583   0.024   4.757
 4755SOL     OW15163   2.191   0.730   1.118
 4755SOL    HW115164   2.184   0.703   1.214
 4755SOL    HW215165   2.230   0.822   1.112
 4756SOL     OW15166   5.870   2.993   0.811
 4756SOL    HW115167   5.911   3.072   0.764
 4756SOL    HW215168   5.791   3.024   0.864
 4757SOL     OW15169   2.177   2.091   0.994
 4757SOL    HW115170   2.238   2.127   1.064
 4757SOL    HW215171   2.169   1.992   1.004
 4758SOL     OW15172   2.314   6.959   4.045
 4758SOL    HW115173   2.215   6.964   4.053
 4758SOL    HW215174   2.356   7.005   4.123
 4759SOL     OW15175   6.059   4.900   4.827
 4759SOL    HW115176   5.967   4.914   4.862
 4759SOL    HW215177   6.088   4.981   4.776
 4760SOL     OW15178   2.002   1.908   0.584
 4760SOL    HW115179   2.013   1.828   0.525
 4760SOL    HW215180   2.091   1.937   0.618
 4761SOL     OW15181   0.635   6.115   6.692
 4761SOL    HW115182   0.538   6.127   6.673
 4761SOL    HW215183   0.658   6.017   6.686
 4762SOL     OW15184   0.950   5.757   2.252
 4762SOL    HW115185   1.022   5.807   2.300
 4762SOL    HW215186   0.990   5.686   2.195
 4763SOL     OW15187   6.166   6.601   3.708
 4763SOL    HW115188   6.123   6.512   3.692
 4763SOL    HW215189   6.221   6.626   3.629
 4764SOL     OW15190   4.927   3.968   4.650
 4764SOL    HW115191   5.004   3.959   4.587
 4764SOL    HW215192   4.885   3.878   4.664
 4765SOL     OW15193   4.674   0.578   3.729
 4765SOL    HW115194   4.679   0.549   3.633
 4765SOL    HW215195   4.720   0.511   3.787
 4766SOL     OW15196   5.221   5.661   4.091
 4766SOL    HW115197   5.136   5.613   4.068
 4766SOL    HW215198   5.202   5.732   4.159
 4767SOL     OW15199   3.357   5.224   5.674
 4767SOL    HW115200   3.317   5.287   5.608
 4767SOL    HW215201   3.454   5.214   5.656
 4768SOL     OW15202   4.217   1.456   5.801
 4768SOL    HW115203   4.154   1.441   5.878
 4768SOL    HW215204   4.278   1.532   5.823
 4769SOL     OW15205   4.892   3.622   6.925
 4769SOL    HW115206   4.974   3.678   6.933
 4769SOL    HW215207   4.918   3.525   6.917
 4770SOL     OW15208   1.188   0.712   4.540
 4770SOL    HW115209   1.272   0.713   4.595
 4770SOL    HW215210   1.168   0.618   4.511
 4771SOL     OW15211   3.194   6.046   4.942
 4771SOL    HW115212   3.246   5.961   4.943
 4771SOL    HW215213   3.159   6.066   5.034
 4772SOL     OW15214   3.569   4.573   1.393
 4772SOL    HW115215   3.668   4.589   1.402
 4772SOL    HW215216   3.546   4.561   1.296
 4773SOL     OW15217   6.873   5.584   3.835
 4773SOL    HW115218   6.933   5.518   3.790
 4773SOL    HW215219   6.922   5.671   3.848
 4774SOL     OW15220   1.545   3.339   2.078
 4774SOL    HW115221   1.484   3.405   2.121
 4774SOL    HW215222   1.542   3.252   2.128
 4775SOL     OW15223   5.174   6.369   2.499
 4775SOL    HW115224   5.193   6.337   2.592
 4775SOL    HW215225   5.078   6.351   2.477
 4776SOL     OW15226   1.211   6.546   5.467
 4776SOL    HW115227   1.202   6.578   5.561
 4776SOL    HW215228   1.123   6.555   5.421
 4777SOL     OW15229   2.242   5.033   1.180
 4777SOL    HW115230   2.310   5.004   1.247
 4777SOL    HW215231   2.287   5.059   1.095
 4778SOL     OW15232   6.222   2.330   3.462
 4778SOL    HW115233   6.189   2.385   3.538
 4778SOL    HW215234   6.281   2.257   3.496
 4779SOL     OW15235   6.686   6.397   2.755
 4779SOL    HW115236   6.722   6.466   2.692
 4779SOL    HW215237   6.696   6.429   2.849
 4780SOL     OW15238   5.268   1.181   6.816
 4780SOL    HW115239   5.264   1.278   6.841
 4780SOL    HW215240   5.358   1.144   6.840
 4781SOL     OW15241   2.866   5.504   2.090
 4781SOL    HW115242   2.936   5.483   2.021
 4781SOL    HW215243   2.791   5.553   2.046
 4782SOL     OW15244   4.651   5.526   0.211
 4782SOL    HW115245   4.558   5.506   0.180
 4782SOL    HW215246   4.712   5.534   0.132
 4783SOL     OW15247   4.339   3.828   0.046
 4783SOL    HW115248   4.380   3.737   0.038
 4783SOL    HW215249   4.401   3.896   0.008
 4784SOL     OW15250   6.044   4.126   6.664
 4784SOL    HW115251   6.105   4.198   6.694
 4784SOL    HW215252   6.033   4.130   6.565
 4785SOL     OW15253   0.718   6.606   2.093
 4785SOL    HW115254   0.768   6.669   2.152
 4785SOL    HW215255   0.771   6.522   2.080
 4786SOL     OW15256   2.651   1.695   6.986
 4786SOL    HW115257   2.568   1.750   6.992
 4786SOL    HW215258   2.726   1.745   0.011
 4787SOL     OW15259   4.118   1.628   2.468
 4787SOL    HW115260   4.116   1.639   2.567
 4787SOL    HW215261   4.083   1.711   2.424
 4788SOL     OW15262   0.352   5.851   5.442
 4788SOL    HW115263   0.367   5.943   5.479
 4788SOL    HW215264   0.440   5.804   5.433
 4789SOL     OW15265   5.287   1.441   0.658
 4789SOL    HW115266   5.326   1.433   0.566
 4789SOL    HW215267   5.353   1.408   0.725
 4790SOL     OW15268   5.924   2.169   5.155
 4790SOL    HW115269   6.019   2.163   5.184
 4790SOL    HW215270   5.864   2.142   5.231
 4791SOL     OW15271   0.011   2.793   1.955
 4791SOL    HW115272   6.961   2.733   1.914
 4791SOL    HW215273   7.016   2.887   1.923
 4792SOL     OW15274   1.723   4.153   3.185
 4792SOL    HW115275   1.714   4.235   3.242
 4792SOL    HW215276   1.674   4.167   3.098
 4793SOL     OW15277   1.838   3.155   5.445
 4793SOL    HW115278   1.933   3.186   5.448
 4793SOL    HW215279   1.835   3.060   5.413
 4794SOL     OW15280   4.435   0.348   3.518
 4794SOL    HW115281   4.398   0.361   3.426
 4794SOL    HW215282   4.532   0.323   3.512
 4795SOL     OW15283   5.579   2.482   3.994
 4795SOL    HW115284   5.597   2.577   4.023
 4795SOL    HW215285   5.656   2.425   4.020
 4796SOL     OW15286   4.806   1.742   5.084
 4796SOL    HW115287   4.724   1.766   5.137
 4796SOL    HW215288   4.801   1.787   4.995
 4797SOL     OW15289   1.322   6.090   5.288
 4797SOL    HW115290   1.375   6.164   5.248
 4797SOL    HW215291   1.337   6.088   5.387
 4798SOL     OW15292   0.432   3.707   4.914
 4798SOL    HW115293   0.374   3.747   4.842
 4798SOL    HW215294   0.378   3.694   4.997
 4799SOL     OW15295   5.030   1.968   6.902
 4799SOL    HW115296   5.097   1.910   6.947
 4799SOL    HW215297   4.959   1.911   6.861
 4800SOL     OW15298   3.613   2.983   6.381
 4800SOL    HW115299   3.543   2.921   6.416
 4800SOL    HW215300   3.574   3.074   6.370
 4801SOL     OW15301   2.876   2.451   6.357
 4801SOL    HW115302   2.839   2.378   6.414
 4801SOL    HW215303   2.898   2.530   6.415
 4802SOL     OW15304   1.000   6.715   1.955
 4802SOL    HW115305   0.914   6.669   1.932
 4802SOL    HW215306   1.021   6.784   1.885
 4803SOL     OW15307   0.514   5.586   1.016
 4803SOL    HW115308   0.449   5.655   0.983
 4803SOL    HW215309   0.510   5.506   0.957
 4804SOL     OW15310   5.435   6.005   0.504
 4804SOL    HW115311   5.365   5.938   0.479
 4804SOL    HW215312   5.391   6.089   0.537
 4805SOL     OW15313   5.708   1.927   2.482
 4805SOL    HW115314   5.768   1.858   2.443
 4805SOL    HW215315   5.697   1.911   2.580
 4806SOL     OW15316   1.291   4.705   2.710
 4806SOL    HW115317   1.229   4.778   2.682
 4806SOL    HW215318   1.254   4.660   2.791
 4807SOL     OW15319   0.590   5.098   0.381
 4807SOL    HW115320   0.672   5.071   0.432
 4807SOL    HW215321   0.590   5.053   0.292
 4808SOL     OW15322   5.714   3.994   0.074
 4808SOL    HW115323   5.626   4.024   0.111
 4808SOL    HW215324   5.698   3.937   7.013
 4809SOL     OW15325   3.981   4.380   0.018
 4809SOL    HW115326   3.883   4.394   0.030
 4809SOL    HW215327   3.999   4.285   7.010
 4810SOL     OW15328   1.446   4.782   2.211
 4810SOL    HW115329   1.500   4.750   2.289
 4810SOL    HW215330   1.395   4.706   2.172
 4811SOL     OW15331   2.563   4.026   1.687
 4811SOL    HW115332   2.496   3.954   1.707
 4811SOL    HW215333   2.654   3.993   1.711
 4812SOL     OW15334   6.877   5.557   3.230
 4812SOL    HW115335   6.815   5.606   3.169
 4812SOL    HW215336   6.960   5.533   3.180
 4813SOL     OW15337   5.182   2.678   1.009
 4813SOL    HW115338   5.151   2.753   1.068
 4813SOL    HW215339   5.259   2.631   1.053
 4814SOL     OW15340   6.727   3.703   1.189
 4814SOL    HW115341   6.690   3.791   1.218
 4814SOL    HW215342   6.686   3.677   1.101
 4815SOL     OW15343   5.501   4.258   2.795
 4815SOL    HW115344   5.477   4.209   2.711
 4815SOL    HW215345   5.540   4.194   2.861
 4816SOL     OW15346   1.913   4.634   1.012
 4816SOL    HW115347   1.900   4.566   0.939
 4816SOL    HW215348   1.886   4.594   1.100
 4817SOL     OW15349   0.630   1.895   6.466
 4817SOL    HW115350   0.698   1.955   6.424
 4817SOL    HW215351   0.645   1.801   6.436
 4818SOL     OW15352   1.261   6.524   3.688
 4818SOL    HW115353   1.300   6.444   3.643
 4818SOL    HW215354   1.227   6.498   3.778
 4819SOL     OW15355   1.368   1.742   0.302
 4819SOL    HW115356   1.367   1.837   0.335
 4819SOL    HW215357   1.383   1.741   0.203
 4820SOL     OW15358   6.220   2.273   2.264
 4820SOL    HW115359   6.216   2.207   2.339
 4820SOL    HW215360   6.141   2.260   2.204
 4821SOL     OW15361   1.216   6.729   2.403
 4821SOL    HW115362   1.228   6.680   2.316
 4821SOL    HW215363   1.175   6.818   2.385
 4822SOL     OW15364   1.987   2.490   5.064
 4822SOL    HW115365   2.024   2.569   5.112
 4822SOL    HW215366   1.948   2.426   5.130
 4823SOL     OW15367   1.788   0.890   4.692
 4823SOL    HW115368   1.714   0.824   4.678
 4823SOL    HW215369   1.805   0.940   4.607
 4824SOL     OW15370   4.885   2.138   4.627
 4824SOL    HW115371   4.843   2.144   4.718
 4824SOL    HW215372   4.817   2.110   4.560
 4825SOL     OW15373   1.894   2.988   4.530
 4825SOL    HW115374   1.863   3.010   4.622
 4825SOL    HW215375   1.963   3.054   4.501
 4826SOL     OW15376   5.743   1.651   0.002
 4826SOL    HW115377   5.738   1.721   6.949
 4826SOL    HW215378   5.689   1.572   6.994
 4827SOL     OW15379   6.296   1.563   0.704
 4827SOL    HW115380   6.277   1.535   0.610
 4827SOL    HW215381   6.384   1.524   0.733
 4828SOL     OW15382   4.974   2.537   0.904
 4828SOL    HW115383   4.927   2.585   0.830
 4828SOL    HW215384   5.047   2.594   0.940
 4829SOL     OW15385   3.804   6.289   6.062
 4829SOL    HW115386   3.746   6.333   5.995
 4829SOL    HW215387   3.883   6.347   6.083
 4830SOL     OW15388   4.101   6.580   4.532
 4830SOL    HW115389   4.193   6.596   4.495
 4830SOL    HW215390   4.083   6.482   4.537
 4831SOL     OW15391   0.958   4.237   6.171
 4831SOL    HW115392   0.940   4.158   6.230
 4831SOL    HW215393   0.935   4.321   6.220
 4832SOL     OW15394   3.805   3.037   3.898
 4832SOL    HW115395   3.829   3.014   3.992
 4832SOL    HW215396   3.757   3.125   3.896
 4833SOL     OW15397   4.726   2.338   2.715
 4833SOL    HW115398   4.762   2.415   2.768
 4833SOL    HW215399   4.629   2.326   2.735
 4834SOL     OW15400   3.627   6.416   0.483
 4834SOL    HW115401   3.688   6.485   0.522
 4834SOL    HW215402   3.579   6.369   0.557
 4835SOL     OW15403   5.919   1.708   0.207
 4835SOL    HW115404   5.953   1.780   0.146
 4835SOL    HW215405   5.835   1.669   0.168
 4836SOL     OW15406   5.381   2.588   4.900
 4836SOL    HW115407   5.403   2.512   4.961
 4836SOL    HW215408   5.308   2.560   4.838
 4837SOL     OW15409   0.014   4.145   3.069
 4837SOL    HW115410   6.984   4.231   3.068
 4837SOL    HW215411   0.057   4.129   2.980
 4838SOL     OW15412   1.403   5.801   0.270
 4838SOL    HW115413   1.409   5.789   0.171
 4838SOL    HW215414   1.319   5.851   0.292
 4839SOL     OW15415   1.820   3.543   0.150
 4839SOL    HW115416   1.753   3.474   0.175
 4839SOL    HW215417   1.811   3.621   0.212
 4840SOL     OW15418   6.233   4.289   6.721
 4840SOL    HW115419   6.224   4.381   6.758
 4840SOL    HW215420   6.316   4.246   6.758
 4841SOL     OW15421   2.437   5.190   2.211
 4841SOL    HW115422   2.401   5.283   2.214
 4841SOL    HW215423   2.511   5.184   2.144
 4842SOL     OW15424   3.587   5.443   2.186
 4842SOL    HW115425   3.671   5.395   2.213
 4842SOL    HW215426   3.525   5.379   2.141
 4843SOL     OW15427   6.925   3.430   1.559
 4843SOL    HW115428   6.947   3.503   1.495
 4843SOL    HW215429   6.930   3.465   1.653
 4844SOL     OW15430   0.775   3.535   6.625
 4844SOL    HW115431   0.712   3.610   6.605
 4844SOL    HW215432   0.834   3.517   6.546
 4845SOL     OW15433   4.807   5.292   6.919
 4845SOL    HW115434   4.857   5.218   6.964
 4845SOL    HW215435   4.835   5.379   6.958
 4846SOL     OW15436   6.477   2.405   3.703
 4846SOL    HW115437   6.512   2.465   3.776
 4846SOL    HW215438   6.377   2.411   3.701
 4847SOL     OW15439   2.061   0.263   6.550
 4847SOL    HW115440   1.964   0.260   6.525
 4847SOL    HW215441   2.114   0.297   6.472
 4848SOL     OW15442   1.653   1.342   4.428
 4848SOL    HW115443   1.610   1.432   4.438
 4848SOL    HW215444   1.718   1.328   4.503
 4849SOL     OW15445   0.754   6.269   6.467
 4849SOL    HW115446   0.710   6.358   6.464
 4849SOL    HW215447   0.705   6.210   6.532
 4850SOL     OW15448   4.125   1.180   1.711
 4850SOL    HW115449   4.054   1.176   1.782
 4850SOL    HW215450   4.137   1.089   1.671
 4851SOL     OW15451   3.616   6.400   5.886
 4851SOL    HW115452   3.595   6.454   5.805
 4851SOL    HW215453   3.569   6.440   5.965
 4852SOL     OW15454   2.152   5.840   4.939
 4852SOL    HW115455   2.198   5.752   4.931
 4852SOL    HW215456   2.071   5.841   4.879
 4853SOL     OW15457   3.312   0.865   3.027
 4853SOL    HW115458   3.390   0.848   3.087
 4853SOL    HW215459   3.240   0.911   3.079
 4854SOL     OW15460   4.435   6.243   1.405
 4854SOL    HW115461   4.367   6.315   1.392
 4854SOL    HW215462   4.487   6.261   1.489
 4855SOL     OW15463   6.272   2.421   4.334
 4855SOL    HW115464   6.267   2.344   4.271
 4855SOL    HW215465   6.225   2.397   4.419
 4856SOL     OW15466   1.627   3.127   3.391
 4856SOL    HW115467   1.628   3.042   3.339
 4856SOL    HW215468   1.540   3.135   3.440
 4857SOL     OW15469   3.520   2.075   3.881
 4857SOL    HW115470   3.613   2.087   3.918
 4857SOL    HW215471   3.453   2.092   3.954
 4858SOL     OW15472   0.145   0.474   4.886
 4858SOL    HW115473   0.169   0.426   4.802
 4858SOL    HW215474   0.168   0.417   4.965
 4859SOL     OW15475   0.970   6.003   3.366
 4859SOL    HW115476   0.974   5.975   3.270
 4859SOL    HW215477   0.902   5.949   3.414
 4860SOL     OW15478   4.408   4.397   1.033
 4860SOL    HW115479   4.341   4.451   0.982
 4860SOL    HW215480   4.361   4.340   1.100
 4861SOL     OW15481   5.851   5.324   0.190
 4861SOL    HW115482   5.949   5.306   0.184
 4861SOL    HW215483   5.822   5.317   0.286
 4862SOL     OW15484   2.215   4.507   4.960
 4862SOL    HW115485   2.210   4.421   4.909
 4862SOL    HW215486   2.281   4.499   5.033
 4863SOL     OW15487   4.995   3.804   1.486
 4863SOL    HW115488   5.001   3.837   1.580
 4863SOL    HW215489   4.962   3.878   1.427
 4864SOL     OW15490   3.698   1.912   2.245
 4864SOL    HW115491   3.749   1.998   2.243
 4864SOL    HW215492   3.602   1.930   2.268
 4865SOL     OW15493   2.479   0.055   4.270
 4865SOL    HW115494   2.523   0.143   4.257
 4865SOL    HW215495   2.545   7.001   4.250
 4866SOL     OW15496   6.502   4.226   0.874
 4866SOL    HW115497   6.462   4.146   0.828
 4866SOL    HW215498   6.537   4.198   0.964
 4867SOL     OW15499   4.908   5.436   2.260
 4867SOL    HW115500   4.814   5.404   2.269
 4867SOL    HW215501   4.930   5.499   2.335
 4868SOL     OW15502   6.826   4.955   2.399
 4868SOL    HW115503   6.908   4.916   2.356
 4868SOL    HW215504   6.755   4.967   2.330
 4869SOL     OW15505   0.248   1.536   1.605
 4869SOL    HW115506   0.294   1.587   1.678
 4869SOL    HW215507   0.315   1.509   1.536
 4870SOL     OW15508   0.006   6.111   1.609
 4870SOL    HW115509   0.081   6.176   1.623
 4870SOL    HW215510   6.978   6.134   1.524
 4871SOL     OW15511   0.705   1.526   4.731
 4871SOL    HW115512   0.755   1.568   4.807
 4871SOL    HW215513   0.639   1.591   4.694
 4872SOL     OW15514   6.948   5.615   4.514
 4872SOL    HW115515   6.932   5.516   4.515
 4872SOL    HW215516   6.926   5.653   4.604
 4873SOL     OW15517   6.810   4.953   3.474
 4873SOL    HW115518   6.712   4.958   3.495
 4873SOL    HW215519   6.828   5.002   3.389
 4874SOL     OW15520   5.914   3.193   3.584
 4874SOL    HW115521   5.922   3.199   3.684
 4874SOL    HW215522   5.834   3.246   3.554
 4875SOL     OW15523   5.757   3.378   1.755
 4875SOL    HW115524   5.668   3.375   1.799
 4875SOL    HW215525   5.747   3.369   1.656
 4876SOL     OW15526   5.495   1.153   4.239
 4876SOL    HW115527   5.559   1.086   4.201
 4876SOL    HW215528   5.411   1.153   4.186
 4877SOL     OW15529   0.273   1.763   0.320
 4877SOL    HW115530   0.244   1.841   0.375
 4877SOL    HW215531   0.298   1.687   0.380
 4878SOL     OW15532   5.963   0.405   3.071
 4878SOL    HW115533   5.894   0.338   3.043
 4878SOL    HW215534   6.052   0.361   3.078
 4879SOL     OW15535   4.265   5.784   3.439
 4879SOL    HW115536   4.244   5.715   3.369
 4879SOL    HW215537   4.360   5.812   3.431
 4880SOL     OW15538   6.232   3.009   6.820
 4880SOL    HW115539   6.223   2.912   6.799
 4880SOL    HW215540   6.142   3.049   6.836
 4881SOL     OW15541   1.820   0.205   6.445
 4881SOL    HW115542   1.745   0.271   6.451
 4881SOL    HW215543   1.795   0.121   6.494
 4882SOL     OW15544   5.337   1.436   4.341
 4882SOL    HW115545   5.325   1.442   4.440
 4882SOL    HW215546   5.435   1.440   4.319
 4883SOL     OW15547   4.881   5.180   2.548
 4883SOL    HW115548   4.826   5.249   2.595
 4883SOL    HW215549   4.870   5.190   2.449
 4884SOL     OW15550   3.892   0.366   1.056
 4884SOL    HW115551   3.848   0.406   0.975
 4884SOL    HW215552   3.943   0.437   1.104
 4885SOL     OW15553   2.001   5.865   2.518
 4885SOL    HW115554   2.062   5.826   2.449
 4885SOL    HW215555   1.955   5.790   2.567
 4886SOL     OW15556   0.162   6.311   0.708
 4886SOL    HW115557   0.262   6.319   0.708
 4886SOL    HW215558   0.126   6.341   0.620
 4887SOL     OW15559   0.559   0.220   3.073
 4887SOL    HW115560   0.555   0.289   3.000
 4887SOL    HW215561   0.482   0.157   3.063
 4888SOL     OW15562   2.166   6.594   4.631
 4888SOL    HW115563   2.234   6.570   4.700
 4888SOL    HW215564   2.126   6.683   4.654
 4889SOL     OW15565   5.886   1.055   6.863
 4889SOL    HW115566   5.810   1.026   6.919
 4889SOL    HW215567   5.950   1.109   6.918
 4890SOL     OW15568   0.891   1.614   5.874
 4890SOL    HW115569   0.805   1.648   5.837
 4890SOL    HW215570   0.873   1.533   5.931
 4891SOL     OW15571   1.739   5.673   0.564
 4891SOL    HW115572   1.699   5.732   0.494
 4891SOL    HW215573   1.738   5.578   0.532
 4892SOL     OW15574   2.961   5.838   1.603
 4892SOL    HW115575   3.003   5.749   1.620
 4892SOL    HW215576   3.004   5.881   1.523
 4893SOL     OW15577   0.291   4.035   1.455
 4893SOL    HW115578   0.214   4.076   1.504
 4893SOL    HW215579   0.325   3.957   1.507
 4894SOL     OW15580   2.502   2.218   2.513
 4894SOL    HW115581   2.524   2.302   2.462
 4894SOL    HW215582   2.471   2.242   2.605
 4895SOL     OW15583   0.977   5.638   2.831
 4895SOL    HW115584   1.063   5.658   2.878
 4895SOL    HW215585   0.900   5.674   2.885
 4896SOL     OW15586   2.471   4.973   1.872
 4896SOL    HW115587   2.547   5.025   1.912
 4896SOL    HW215588   2.386   4.999   1.918
 4897SOL     OW15589   2.530   4.454   5.940
 4897SOL    HW115590   2.581   4.370   5.959
 4897SOL    HW215591   2.443   4.430   5.897
 4898SOL     OW15592   3.743   1.664   4.293
 4898SOL    HW115593   3.703   1.735   4.351
 4898SOL    HW215594   3.679   1.588   4.285
 4899SOL     OW15595   5.918   5.376   3.446
 4899SOL    HW115596   5.994   5.315   3.468
 4899SOL    HW215597   5.892   5.428   3.527
 4900SOL     OW15598   2.310   5.608   4.973
 4900SOL    HW115599   2.357   5.554   5.042
 4900SOL    HW215600   2.324   5.567   4.883
 4901SOL     OW15601   3.072   6.809   5.571
 4901SOL    HW115602   3.032   6.760   5.648
 4901SOL    HW215603   3.075   6.749   5.491
 4902SOL     OW15604   2.416   2.679   4.314
 4902SOL    HW115605   2.316   2.685   4.311
 4902SOL    HW215606   2.443   2.583   4.317
 4903SOL     OW15607   3.098   6.018   0.139
 4903SOL    HW115608   3.141   5.935   0.175
 4903SOL    HW215609   3.169   6.083   0.111
 4904SOL     OW15610   1.324   0.590   4.228
 4904SOL    HW115611   1.262   0.512   4.233
 4904SOL    HW215612   1.377   0.584   4.143
 4905SOL     OW15613   4.142   1.460   2.250
 4905SOL    HW115614   4.131   1.511   2.335
 4905SOL    HW215615   4.196   1.378   2.267
 4906SOL     OW15616   4.271   1.678   6.493
 4906SOL    HW115617   4.257   1.687   6.395
 4906SOL    HW215618   4.188   1.706   6.542
 4907SOL     OW15619   4.604   5.847   1.099
 4907SOL    HW115620   4.666   5.899   1.040
 4907SOL    HW215621   4.511   5.852   1.062
 4908SOL     OW15622   4.719   4.863   6.085
 4908SOL    HW115623   4.650   4.791   6.087
 4908SOL    HW215624   4.802   4.828   6.040
 4909SOL     OW15625   6.663   0.165   4.679
 4909SOL    HW115626   6.657   0.171   4.579
 4909SOL    HW215627   6.629   0.075   4.709
 4910SOL     OW15628   5.143   6.403   4.251
 4910SOL    HW115629   5.068   6.358   4.299
 4910SOL    HW215630   5.142   6.501   4.271
 4911SOL     OW15631   0.362   3.454   4.852
 4911SOL    HW115632   0.385   3.427   4.945
 4911SOL    HW215633   0.358   3.554   4.847
 4912SOL     OW15634   5.427   2.625   1.121
 4912SOL    HW115635   5.493   2.628   1.046
 4912SOL    HW215636   5.442   2.704   1.181
 4913SOL     OW15637   3.304   3.738   4.083
 4913SOL    HW115638   3.241   3.664   4.107
 4913SOL    HW215639   3.390   3.699   4.052
 4914SOL     OW15640   3.511   6.934   5.212
 4914SOL    HW115641   3.602   6.897   5.192
 4914SOL    HW215642   3.477   6.894   5.297
 4915SOL     OW15643   4.272   0.725   4.268
 4915SOL    HW115644   4.195   0.781   4.237
 4915SOL    HW215645   4.243   0.670   4.346
 4916SOL     OW15646   2.104   1.373   4.264
 4916SOL    HW115647   2.014   1.335   4.244
 4916SOL    HW215648   2.159   1.305   4.313
 4917SOL     OW15649   2.023   4.998   0.653
 4917SOL    HW115650   2.089   5.068   0.625
 4917SOL    HW215651   1.948   4.995   0.587
 4918SOL     OW15652   3.616   6.563   2.135
 4918SOL    HW115653   3.576   6.499   2.069
 4918SOL    HW215654   3.621   6.654   2.094
 4919SOL     OW15655   2.226   2.209   6.654
 4919SOL    HW115656   2.194   2.262   6.734
 4919SOL    HW215657   2.219   2.112   6.674
 4920SOL     OW15658   5.066   0.571   5.548
 4920SOL    HW115659   5.092   0.519   5.467
 4920SOL    HW215660   4.967   0.588   5.547
 4921SOL     OW15661   1.860   4.364   0.497
 4921SOL    HW115662   1.774   4.330   0.458
 4921SOL    HW215663   1.924   4.383   0.423
 4922SOL     OW15664   1.748   3.108   4.979
 4922SOL    HW115665   1.838   3.133   4.942
 4922SOL    HW215666   1.679   3.119   4.908
 4923SOL     OW15667   3.599   1.227   0.499
 4923SOL    HW115668   3.643   1.202   0.585
 4923SOL    HW215669   3.634   1.315   0.468
 4924SOL     OW15670   2.179   2.180   5.584
 4924SOL    HW115671   2.234   2.240   5.642
 4924SOL    HW215672   2.084   2.182   5.614
 4925SOL     OW15673   5.643   6.897   2.031
 4925SOL    HW115674   5.711   6.893   2.104
 4925SOL    HW215675   5.621   6.993   2.011
 4926SOL     OW15676   5.626   2.367   0.113
 4926SOL    HW115677   5.646   2.270   0.127
 4926SOL    HW215678   5.650   2.418   0.195
 4927SOL     OW15679   3.850   3.455   3.880
 4927SOL    HW115680   3.885   3.542   3.914
 4927SOL    HW215681   3.923   3.386   3.885
 4928SOL     OW15682   6.967   0.267   6.385
 4928SOL    HW115683   6.887   0.326   6.381
 4928SOL    HW215684   6.960   0.195   6.316
 4929SOL     OW15685   1.426   4.623   5.311
 4929SOL    HW115686   1.329   4.609   5.331
 4929SOL    HW215687   1.439   4.712   5.267
 4930SOL     OW15688   4.801   1.071   2.165
 4930SOL    HW115689   4.892   1.092   2.200
 4930SOL    HW215690   4.765   1.149   2.115
 4931SOL     OW15691   6.242   0.240   1.339
 4931SOL    HW115692   6.302   0.318   1.359
 4931SOL    HW215693   6.158   0.273   1.296
 4932SOL     OW15694   2.227   3.187   1.703
 4932SOL    HW115695   2.298   3.252   1.675
 4932SOL    HW215696   2.143   3.236   1.724
 4933SOL     OW15697   2.219   0.216   3.542
 4933SOL    HW115698   2.211   0.181   3.635
 4933SOL    HW215699   2.137   0.269   3.520
 4934SOL     OW15700   1.658   4.792   2.877
 4934SOL    HW115701   1.640   4.850   2.956
 4934SOL    HW215702   1.757   4.783   2.865
 4935SOL     OW15703   1.453   1.544   6.499
 4935SOL    HW115704   1.390   1.578   6.568
 4935SOL    HW215705   1.444   1.598   6.415
 4936SOL     OW15706   1.657   4.997   1.195
 4936SOL    HW115707   1.614   5.069   1.248
 4936SOL    HW215708   1.744   5.030   1.158
 4937SOL     OW15709   6.870   2.998   5.987
 4937SOL    HW115710   6.804   2.983   6.060
 4937SOL    HW215711   6.924   2.915   5.973
 4938SOL     OW15712   2.448   5.799   6.505
 4938SOL    HW115713   2.455   5.805   6.605
 4938SOL    HW215714   2.539   5.810   6.465
 4939SOL     OW15715   0.567   1.660   3.913
 4939SOL    HW115716   0.613   1.628   3.996
 4939SOL    HW215717   0.543   1.581   3.857
 4940SOL     OW15718   0.500   1.694   5.359
 4940SOL    HW115719   0.425   1.631   5.381
 4940SOL    HW215720   0.579   1.641   5.329
 4941SOL     OW15721   4.492   2.651   5.314
 4941SOL    HW115722   4.524   2.602   5.396
 4941SOL    HW215723   4.396   2.675   5.326
 4942SOL     OW15724   5.133   2.930   5.763
 4942SOL    HW115725   5.147   3.009   5.822
 4942SOL    HW215726   5.038   2.900   5.769
 4943SOL     OW15727   5.041   4.209   5.988
 4943SOL    HW115728   5.087   4.229   6.075
 4943SOL    HW215729   5.105   4.221   5.913
 4944SOL     OW15730   2.569   4.305   1.755
 4944SOL    HW115731   2.594   4.379   1.692
 4944SOL    HW215732   2.564   4.219   1.705
 4945SOL     OW15733   1.210   6.610   4.657
 4945SOL    HW115734   1.113   6.630   4.639
 4945SOL    HW215735   1.265   6.644   4.581
 4946SOL     OW15736   0.902   5.205   6.713
 4946SOL    HW115737   0.880   5.183   6.618
 4946SOL    HW215738   0.968   5.138   6.749
 4947SOL     OW15739   2.164   0.525   0.709
 4947SOL    HW115740   2.203   0.565   0.792
 4947SOL    HW215741   2.156   0.426   0.720
 4948SOL     OW15742   2.029   2.874   3.035
 4948SOL    HW115743   1.975   2.944   3.082
 4948SOL    HW215744   1.978   2.788   3.033
 4949SOL     OW15745   6.209   4.803   5.818
 4949SOL    HW115746   6.304   4.815   5.846
 4949SOL    HW215747   6.168   4.892   5.800
 4950SOL     OW15748   2.089   4.730   4.745
 4950SOL    HW115749   2.171   4.721   4.801
 4950SOL    HW215750   2.008   4.723   4.802
 4951SOL     OW15751   5.817   1.041   4.391
 4951SOL    HW115752   5.775   1.109   4.332
 4951SOL    HW215753   5.773   1.044   4.481
 4952SOL     OW15754   6.867   0.045   6.247
 4952SOL    HW115755   6.785   0.020   6.300
 4952SOL    HW215756   6.840   0.092   6.163
 4953SOL     OW15757   1.906   0.040   3.430
 4953SOL    HW115758   1.816   0.082   3.437
 4953SOL    HW215759   1.944   0.056   3.339
 4954SOL     OW15760   2.726   3.380   0.309
 4954SOL    HW115761   2.781   3.391   0.226
 4954SOL    HW215762   2.733   3.463   0.364
 4955SOL     OW15763   3.332   6.531   0.193
 4955SOL    HW115764   3.323   6.533   0.292
 4955SOL    HW215765   3.413   6.583   0.165
 4956SOL     OW15766   2.464   0.016   5.457
 4956SOL    HW115767   2.454   0.106   5.414
 4956SOL    HW215768   2.391   6.975   5.424
 4957SOL     OW15769   5.703   2.557   1.871
 4957SOL    HW115770   5.770   2.601   1.930
 4957SOL    HW215771   5.613   2.557   1.915
 4958SOL     OW15772   0.685   5.570   5.332
 4958SOL    HW115773   0.770   5.622   5.317
 4958SOL    HW215774   0.670   5.507   5.256
 4959SOL     OW15775   6.348   2.220   0.825
 4959SOL    HW115776   6.384   2.263   0.742
 4959SOL    HW215777   6.332   2.123   0.808
 4960SOL     OW15778   3.611   4.925   3.820
 4960SOL    HW115779   3.656   4.903   3.733
 4960SOL    HW215780   3.512   4.917   3.809
 4961SOL     OW15781   4.224   0.963   5.480
 4961SOL    HW115782   4.303   1.021   5.499
 4961SOL    HW215783   4.204   0.965   5.382
 4962SOL     OW15784   5.497   2.832   0.111
 4962SOL    HW115785   5.523   2.922   0.074
 4962SOL    HW215786   5.475   2.841   0.208
 4963SOL     OW15787   0.419   6.379   0.630
 4963SOL    HW115788   0.511   6.417   0.616
 4963SOL    HW215789   0.362   6.400   0.551
 4964SOL     OW15790   2.823   0.125   4.360
 4964SOL    HW115791   2.836   0.092   4.454
 4964SOL    HW215792   2.790   0.049   4.303
 4965SOL     OW15793   0.378   0.669   2.053
 4965SOL    HW115794   0.280   0.689   2.042
 4965SOL    HW215795   0.418   0.737   2.115
 4966SOL     OW15796   2.540   6.604   5.141
 4966SOL    HW115797   2.620   6.634   5.090
 4966SOL    HW215798   2.546   6.636   5.235
 4967SOL     OW15799   3.640   5.112   5.035
 4967SOL    HW115800   3.688   5.110   4.947
 4967SOL    HW215801   3.583   5.194   5.040
 4968SOL     OW15802   0.383   1.285   3.331
 4968SOL    HW115803   0.359   1.189   3.317
 4968SOL    HW215804   0.304   1.335   3.367
 4969SOL     OW15805   1.903   5.384   3.076
 4969SOL    HW115806   1.931   5.313   3.141
 4969SOL    HW215807   1.878   5.467   3.126
 4970SOL     OW15808   2.384   2.308   2.021
 4970SOL    HW115809   2.309   2.374   2.015
 4970SOL    HW215810   2.384   2.265   2.111
 4971SOL     OW15811   5.433   5.756   3.331
 4971SOL    HW115812   5.383   5.829   3.379
 4971SOL    HW215813   5.488   5.705   3.397
 4972SOL     OW15814   0.927   3.753   1.243
 4972SOL    HW115815   1.015   3.789   1.276
 4972SOL    HW215816   0.924   3.654   1.259
 4973SOL     OW15817   1.279   0.153   1.792
 4973SOL    HW115818   1.220   0.098   1.732
 4973SOL    HW215819   1.337   0.092   1.847
 4974SOL     OW15820   6.744   4.462   1.179
 4974SOL    HW115821   6.645   4.471   1.183
 4974SOL    HW215822   6.784   4.502   1.262
 4975SOL     OW15823   6.194   4.174   5.731
 4975SOL    HW115824   6.292   4.155   5.736
 4975SOL    HW215825   6.144   4.117   5.796
 4976SOL     OW15826   2.517   1.609   4.118
 4976SOL    HW115827   2.432   1.624   4.067
 4976SOL    HW215828   2.573   1.692   4.114
 4977SOL     OW15829   4.221   4.084   6.723
 4977SOL    HW115830   4.206   3.995   6.680
 4977SOL    HW215831   4.292   4.134   6.675
 4978SOL     OW15832   6.481   4.535   5.289
 4978SOL    HW115833   6.516   4.485   5.368
 4978SOL    HW215834   6.542   4.523   5.211
 4979SOL     OW15835   6.535   6.850   6.163
 4979SOL    HW115836   6.499   6.885   6.249
 4979SOL    HW215837   6.458   6.829   6.102
 4980SOL     OW15838   4.970   6.342   2.973
 4980SOL    HW115839   4.965   6.381   2.881
 4980SOL    HW215840   5.065   6.338   3.003
 4981SOL     OW15841   4.142   5.133   0.983
 4981SOL    HW115842   4.155   5.044   0.940
 4981SOL    HW215843   4.045   5.146   1.005
 4982SOL     OW15844   3.171   0.740   5.220
 4982SOL    HW115845   3.228   0.822   5.223
 4982SOL    HW215846   3.121   0.730   5.306
 4983SOL     OW15847   5.873   4.130   5.700
 4983SOL    HW115848   5.922   4.217   5.693
 4983SOL    HW215849   5.866   4.088   5.610
 4984SOL     OW15850   5.272   4.377   2.879
 4984SOL    HW115851   5.268   4.429   2.794
 4984SOL    HW215852   5.352   4.317   2.878
 4985SOL     OW15853   5.172   0.484   3.623
 4985SOL    HW115854   5.226   0.502   3.541
 4985SOL    HW215855   5.202   0.398   3.664
 4986SOL     OW15856   0.271   4.319   1.303
 4986SOL    HW115857   0.204   4.304   1.375
 4986SOL    HW215858   0.362   4.294   1.336
 4987SOL     OW15859   1.004   0.548   2.230
 4987SOL    HW115860   1.059   0.600   2.296
 4987SOL    HW215861   0.916   0.525   2.271
 4988SOL     OW15862   5.716   0.880   2.362
 4988SOL    HW115863   5.642   0.814   2.353
 4988SOL    HW215864   5.734   0.921   2.273
 4989SOL     OW15865   5.110   6.562   1.883
 4989SOL    HW115866   5.072   6.470   1.895
 4989SOL    HW215867   5.166   6.586   1.962
 4990SOL     OW15868   2.545   2.391   5.309
 4990SOL    HW115869   2.579   2.430   5.224
 4990SOL    HW215870   2.460   2.437   5.335
 4991SOL     OW15871   6.357   5.627   3.924
 4991SOL    HW115872   6.406   5.697   3.871
 4991SOL    HW215873   6.326   5.666   4.010
 4992SOL     OW15874   4.795   1.092   2.489
 4992SOL    HW115875   4.738   1.063   2.412
 4992SOL    HW215876   4.834   1.182   2.470
 4993SOL     OW15877   3.371   6.109   4.522
 4993SOL    HW115878   3.332   6.017   4.518
 4993SOL    HW215879   3.327   6.161   4.596
 4994SOL     OW15880   1.884   0.544   3.783
 4994SOL    HW115881   1.803   0.522   3.727
 4994SOL    HW215882   1.928   0.626   3.746
 4995SOL     OW15883   0.255   2.515   5.313
 4995SOL    HW115884   0.229   2.421   5.292
 4995SOL    HW215885   0.310   2.552   5.238
 4996SOL     OW15886   0.572   0.908   2.838
 4996SOL    HW115887   0.518   0.825   2.853
 4996SOL    HW215888   0.527   0.966   2.771
 4997SOL     OW15889   4.909   2.444   2.481
 4997SOL    HW115890   4.877   2.370   2.542
 4997SOL    HW215891   4.999   2.476   2.512
 4998SOL     OW15892   2.226   4.245   4.859
 4998SOL    HW115893   2.150   4.220   4.798
 4998SOL    HW215894   2.258   4.163   4.907
 4999SOL     OW15895   6.381   4.102   0.226
 4999SOL    HW115896   6.322   4.166   0.177
 4999SOL    HW215897   6.325   4.027   0.262
 5000SOL     OW15898   3.704   6.630   3.324
 5000SOL    HW115899   3.771   6.686   3.276
 5000SOL    HW215900   3.713   6.535   3.295
 5001SOL     OW15901   7.006   4.284   1.759
 5001SOL    HW115902   6.957   4.197   1.755
 5001SOL    HW215903   0.083   4.267   1.780
 5002SOL     OW15904   0.316   3.126   2.433
 5002SOL    HW115905   0.379   3.085   2.498
 5002SOL    HW215906   0.361   3.135   2.344
 5003SOL     OW15907   2.935   5.637   2.707
 5003SOL    HW115908   2.879   5.719   2.692
 5003SOL    HW215909   2.877   5.556   2.701
 5004SOL     OW15910   2.438   5.200   5.883
 5004SOL    HW115911   2.348   5.202   5.838
 5004SOL    HW215912   2.431   5.243   5.973
 5005SOL     OW15913   2.920   2.719   0.852
 5005SOL    HW115914   2.964   2.630   0.866
 5005SOL    HW215915   2.976   2.774   0.789
 5006SOL     OW15916   5.051   0.449   0.734
 5006SOL    HW115917   5.037   0.546   0.756
 5006SOL    HW215918   4.985   0.394   0.785
 5007SOL     OW15919   0.960   6.770   0.485
 5007SOL    HW115920   0.930   6.786   0.580
 5007SOL    HW215921   1.021   6.843   0.456
 5008SOL     OW15922   5.882   6.794   1.861
 5008SOL    HW115923   5.821   6.850   1.917
 5008SOL    HW215924   5.943   6.741   1.921
 5009SOL     OW15925   0.452   0.441   0.960
 5009SOL    HW115926   0.489   0.483   0.877
 5009SOL    HW215927   0.470   0.343   0.958
 5010SOL     OW15928   3.949   3.014   2.430
 5010SOL    HW115929   3.985   3.103   2.403
 5010SOL    HW215930   3.970   2.946   2.359
 5011SOL     OW15931   1.669   3.964   2.537
 5011SOL    HW115932   1.662   3.866   2.517
 5011SOL    HW215933   1.762   3.995   2.518
 5012SOL     OW15934   5.936   4.227   6.417
 5012SOL    HW115935   5.875   4.214   6.338
 5012SOL    HW215936   6.015   4.280   6.389
 5013SOL     OW15937   4.782   0.927   0.209
 5013SOL    HW115938   4.820   0.936   0.117
 5013SOL    HW215939   4.726   0.845   0.214
 5014SOL     OW15940   6.583   4.861   0.465
 5014SOL    HW115941   6.669   4.844   0.416
 5014SOL    HW215942   6.533   4.775   0.474
 5015SOL     OW15943   4.627   1.822   4.376
 5015SOL    HW115944   4.542   1.816   4.324
 5015SOL    HW215945   4.626   1.753   4.448
 5016SOL     OW15946   1.425   2.822   0.380
 5016SOL    HW115947   1.375   2.905   0.357
 5016SOL    HW215948   1.396   2.787   0.469
 5017SOL     OW15949   1.874   2.972   0.708
 5017SOL    HW115950   1.880   2.930   0.798
 5017SOL    HW215951   1.835   3.064   0.716
 5018SOL     OW15952   0.405   3.804   2.266
 5018SOL    HW115953   0.451   3.864   2.332
 5018SOL    HW215954   0.472   3.771   2.199
 5019SOL     OW15955   1.236   4.783   5.831
 5019SOL    HW115956   1.137   4.789   5.823
 5019SOL    HW215957   1.277   4.782   5.740
 5020SOL     OW15958   5.418   0.570   6.494
 5020SOL    HW115959   5.407   0.494   6.430
 5020SOL    HW215960   5.378   0.545   6.582
 5021SOL     OW15961   0.657   1.352   6.929
 5021SOL    HW115962   0.633   1.275   6.987
 5021SOL    HW215963   0.755   1.371   6.938
 5022SOL     OW15964   0.803   1.349   0.300
 5022SOL    HW115965   0.826   1.255   0.274
 5022SOL    HW215966   0.855   1.374   0.382
 5023SOL     OW15967   6.885   2.748   1.501
 5023SOL    HW115968   6.911   2.844   1.509
 5023SOL    HW215969   6.955   2.691   1.543
 5024SOL     OW15970   6.373   5.191   1.665
 5024SOL    HW115971   6.299   5.152   1.611
 5024SOL    HW215972   6.461   5.156   1.631
 5025SOL     OW15973   3.118   1.734   2.298
 5025SOL    HW115974   3.056   1.730   2.220
 5025SOL    HW215975   3.205   1.691   2.275
 5026SOL     OW15976   6.184   6.187   5.729
 5026SOL    HW115977   6.105   6.174   5.670
 5026SOL    HW215978   6.166   6.262   5.794
 5027SOL     OW15979   6.844   6.704   1.816
 5027SOL    HW115980   6.844   6.788   1.871
 5027SOL    HW215981   6.934   6.660   1.824
 5028SOL     OW15982   0.423   1.823   2.639
 5028SOL    HW115983   0.400   1.905   2.587
 5028SOL    HW215984   0.376   1.744   2.601
 5029SOL     OW15985   6.678   2.380   2.205
 5029SOL    HW115986   6.596   2.437   2.214
 5029SOL    HW215987   6.677   2.308   2.275
 5030SOL     OW15988   0.026   6.787   0.545
 5030SOL    HW115989   0.066   6.830   0.626
 5030SOL    HW215990   6.987   6.711   0.574
 5031SOL     OW15991   5.550   0.067   5.551
 5031SOL    HW115992   5.454   0.087   5.534
 5031SOL    HW215993   5.605   0.099   5.474
 5032SOL     OW15994   2.086   2.321   0.717
 5032SOL    HW115995   2.038   2.297   0.802
 5032SOL    HW215996   2.163   2.380   0.739
 5033SOL     OW15997   1.926   0.289   5.462
 5033SOL    HW115998   1.864   0.354   5.507
 5033SOL    HW215999   1.926   0.203   5.514
 5034SOL     OW16000   5.826   0.512   3.773
 5034SOL    HW116001   5.783   0.560   3.697
 5034SOL    HW216002   5.812   0.565   3.857
 5035SOL     OW16003   1.113   3.993   0.431
 5035SOL    HW116004   1.123   3.915   0.368
 5035SOL    HW216005   1.134   3.964   0.524
 5036SOL     OW16006   0.800   4.522   6.867
 5036SOL    HW116007   0.881   4.558   6.913
 5036SOL    HW216008   0.828   4.470   6.787
 5037SOL     OW16009   4.941   3.937   2.306
 5037SOL    HW116010   4.899   3.872   2.369
 5037SOL    HW216011   5.033   3.959   2.336
 5038SOL     OW16012   2.850   4.111   6.127
 5038SOL    HW116013   2.869   4.108   6.225
 5038SOL    HW216014   2.936   4.101   6.077
 5039SOL     OW16015   3.384   4.706   5.464
 5039SOL    HW116016   3.325   4.639   5.418
 5039SOL    HW216017   3.416   4.667   5.551
 5040SOL     OW16018   1.679   5.782   5.649
 5040SOL    HW116019   1.636   5.791   5.739
 5040SOL    HW216020   1.731   5.865   5.629
 5041SOL     OW16021   2.019   1.451   2.666
 5041SOL    HW116022   2.087   1.507   2.714
 5041SOL    HW216023   1.955   1.511   2.617
 5042SOL     OW16024   6.863   2.739   0.115
 5042SOL    HW116025   6.924   2.708   0.188
 5042SOL    HW216026   6.892   2.699   0.028
 5043SOL     OW16027   3.543   0.248   5.999
 5043SOL    HW116028   3.559   0.326   5.939
 5043SOL    HW216029   3.446   0.223   5.998
 5044SOL     OW16030   0.583   6.583   6.990
 5044SOL    HW116031   0.659   6.525   0.001
 5044SOL    HW216032   0.497   6.534   7.004
 5045SOL     OW16033   5.245   0.740   6.723
 5045SOL    HW116034   5.206   0.653   6.695
 5045SOL    HW216035   5.269   0.794   6.642
 5046SOL     OW16036   3.367   4.173   2.665
 5046SOL    HW116037   3.438   4.161   2.735
 5046SOL    HW216038   3.333   4.267   2.669
 5047SOL     OW16039   0.757   4.117   2.258
 5047SOL    HW116040   0.753   4.021   2.229
 5047SOL    HW216041   0.669   4.161   2.240
 5048SOL     OW16042   0.439   1.569   1.944
 5048SOL    HW116043   0.522   1.572   1.888
 5048SOL    HW216044   0.392   1.482   1.927
 5049SOL     OW16045   5.866   2.142   5.999
 5049SOL    HW116046   5.897   2.159   5.906
 5049SOL    HW216047   5.937   2.169   6.064
 5050SOL     OW16048   1.337   1.450   1.236
 5050SOL    HW116049   1.399   1.485   1.307
 5050SOL    HW216050   1.311   1.356   1.258
 5051SOL     OW16051   4.952   4.826   1.027
 5051SOL    HW116052   4.952   4.922   1.053
 5051SOL    HW216053   4.921   4.770   1.104
 5052SOL     OW16054   2.535   0.441   6.327
 5052SOL    HW116055   2.483   0.406   6.250
 5052SOL    HW216056   2.620   0.481   6.294
 5053SOL     OW16057   2.293   4.260   2.911
 5053SOL    HW116058   2.308   4.324   2.987
 5053SOL    HW216059   2.261   4.173   2.948
 5054SOL     OW16060   3.301   5.796   5.000
 5054SOL    HW116061   3.382   5.829   5.049
 5054SOL    HW216062   3.317   5.704   4.966
 5055SOL     OW16063   1.568   1.652   5.605
 5055SOL    HW116064   1.579   1.751   5.595
 5055SOL    HW216065   1.601   1.607   5.523
 5056SOL     OW16066   6.465   4.194   6.896
 5056SOL    HW116067   6.445   4.096   6.893
 5056SOL    HW216068   6.486   4.220   6.990
 5057SOL     OW16069   0.017   6.098   4.068
 5057SOL    HW116070   0.041   6.195   4.072
 5057SOL    HW216071   0.054   6.051   4.149
 5058SOL     OW16072   3.120   3.254   5.455
 5058SOL    HW116073   3.025   3.283   5.446
 5058SOL    HW216074   3.181   3.332   5.439
 5059SOL     OW16075   6.035   1.689   3.881
 5059SOL    HW116076   6.129   1.664   3.860
 5059SOL    HW216077   5.982   1.606   3.901
 5060SOL     OW16078   0.765   2.034   5.732
 5060SOL    HW116079   0.722   1.971   5.795
 5060SOL    HW216080   0.817   1.983   5.663
 5061SOL     OW16081   4.137   3.023   1.814
 5061SOL    HW116082   4.113   3.043   1.909
 5061SOL    HW216083   4.087   2.942   1.783
 5062SOL     OW16084   5.312   0.906   2.970
 5062SOL    HW116085   5.299   0.914   2.871
 5062SOL    HW216086   5.295   0.811   2.998
 5063SOL     OW16087   1.354   0.213   2.326
 5063SOL    HW116088   1.399   0.291   2.369
 5063SOL    HW216089   1.264   0.200   2.366
 5064SOL     OW16090   5.143   4.223   1.752
 5064SOL    HW116091   5.126   4.177   1.839
 5064SOL    HW216092   5.240   4.216   1.728
 5065SOL     OW16093   1.736   1.545   3.748
 5065SOL    HW116094   1.700   1.605   3.819
 5065SOL    HW216095   1.661   1.511   3.691
 5066SOL     OW16096   4.123   4.764   1.942
 5066SOL    HW116097   4.028   4.794   1.942
 5066SOL    HW216098   4.150   4.737   1.850
 5067SOL     OW16099   4.581   0.805   1.714
 5067SOL    HW116100   4.629   0.770   1.634
 5067SOL    HW216101   4.497   0.752   1.730
 5068SOL     OW16102   2.658   4.970   6.811
 5068SOL    HW116103   2.688   4.982   6.717
 5068SOL    HW216104   2.558   4.968   6.816
 5069SOL     OW16105   2.513   2.958   5.498
 5069SOL    HW116106   2.565   2.962   5.412
 5069SOL    HW216107   2.485   3.050   5.524
 5070SOL     OW16108   4.203   4.813   3.738
 5070SOL    HW116109   4.252   4.768   3.664
 5070SOL    HW216110   4.170   4.902   3.706
 5071SOL     OW16111   3.973   1.838   3.084
 5071SOL    HW116112   3.929   1.877   3.165
 5071SOL    HW216113   3.980   1.739   3.094
 5072SOL     OW16114   1.041   0.288   1.648
 5072SOL    HW116115   1.002   0.357   1.709
 5072SOL    HW216116   1.138   0.277   1.667
 5073SOL     OW16117   0.416   6.135   1.277
 5073SOL    HW116118   0.320   6.154   1.300
 5073SOL    HW216119   0.472   6.144   1.360
 5074SOL     OW16120   3.399   2.874   1.227
 5074SOL    HW116121   3.483   2.891   1.278
 5074SOL    HW216122   3.351   2.796   1.266
 5075SOL     OW16123   1.314   2.057   6.710
 5075SOL    HW116124   1.316   2.126   6.637
 5075SOL    HW216125   1.407   2.034   6.737
 5076SOL     OW16126   4.364   0.422   0.468
 5076SOL    HW116127   4.393   0.517   0.481
 5076SOL    HW216128   4.435   0.372   0.418
 5077SOL     OW16129   2.181   4.389   5.500
 5077SOL    HW116130   2.230   4.351   5.421
 5077SOL    HW216131   2.162   4.486   5.484
 5078SOL     OW16132   0.369   1.010   3.671
 5078SOL    HW116133   0.397   1.106   3.681
 5078SOL    HW216134   0.306   0.987   3.746
 5079SOL     OW16135   2.106   3.204   5.460
 5079SOL    HW116136   2.132   3.111   5.437
 5079SOL    HW216137   2.185   3.265   5.447
 5080SOL     OW16138   5.829   6.860   6.500
 5080SOL    HW116139   5.876   6.789   6.449
 5080SOL    HW216140   5.893   6.933   6.524
 5081SOL     OW16141   3.099   3.245   4.725
 5081SOL    HW116142   3.058   3.228   4.636
 5081SOL    HW216143   3.039   3.210   4.797
 5082SOL     OW16144   5.347   5.788   0.690
 5082SOL    HW116145   5.273   5.801   0.624
 5082SOL    HW216146   5.407   5.867   0.688
 5083SOL     OW16147   2.256   6.508   2.359
 5083SOL    HW116148   2.332   6.459   2.317
 5083SOL    HW216149   2.173   6.495   2.305
 5084SOL     OW16150   0.483   4.310   3.873
 5084SOL    HW116151   0.495   4.233   3.810
 5084SOL    HW216152   0.450   4.389   3.822
 5085SOL     OW16153   5.730   3.109   6.575
 5085SOL    HW116154   5.689   3.094   6.485
 5085SOL    HW216155   5.661   3.145   6.637
 5086SOL     OW16156   1.275   5.613   3.215
 5086SOL    HW116157   1.366   5.636   3.182
 5086SOL    HW216158   1.267   5.513   3.224
 5087SOL     OW16159   1.759   5.520   2.506
 5087SOL    HW116160   1.814   5.558   2.580
 5087SOL    HW216161   1.785   5.425   2.489
 5088SOL     OW16162   6.447   1.144   4.507
 5088SOL    HW116163   6.501   1.080   4.452
 5088SOL    HW216164   6.465   1.238   4.477
 5089SOL     OW16165   5.125   4.361   4.337
 5089SOL    HW116166   5.146   4.263   4.331
 5089SOL    HW216167   5.205   4.410   4.370
 5090SOL     OW16168   1.940   4.051   2.464
 5090SOL    HW116169   1.997   4.110   2.406
 5090SOL    HW216170   1.996   3.977   2.502
 5091SOL     OW16171   0.769   0.913   2.134
 5091SOL    HW116172   0.767   0.973   2.054
 5091SOL    HW216173   0.676   0.881   2.153
 5092SOL     OW16174   3.185   3.573   1.861
 5092SOL    HW116175   3.252   3.501   1.875
 5092SOL    HW216176   3.150   3.604   1.950
 5093SOL     OW16177   2.684   1.283   1.311
 5093SOL    HW116178   2.626   1.334   1.375
 5093SOL    HW216179   2.629   1.253   1.233
 5094SOL     OW16180   2.391   5.329   6.115
 5094SOL    HW116181   2.455   5.394   6.075
 5094SOL    HW216182   2.397   5.333   6.215
 5095SOL     OW16183   5.897   2.121   4.147
 5095SOL    HW116184   5.950   2.047   4.104
 5095SOL    HW216185   5.804   2.120   4.111
 5096SOL     OW16186   3.801   4.664   0.765
 5096SOL    HW116187   3.785   4.576   0.721
 5096SOL    HW216188   3.761   4.664   0.856
 5097SOL     OW16189   1.530   0.713   6.628
 5097SOL    HW116190   1.529   0.667   6.716
 5097SOL    HW216191   1.497   0.651   6.557
 5098SOL     OW16192   2.476   0.243   1.815
 5098SOL    HW116193   2.509   0.330   1.779
 5098SOL    HW216194   2.554   0.184   1.837
 5099SOL     OW16195   0.740   6.565   6.548
 5099SOL    HW116196   0.661   6.621   6.572
 5099SOL    HW216197   0.789   6.607   6.471
 5100SOL     OW16198   3.521   5.367   4.999
 5100SOL    HW116199   3.481   5.376   4.908
 5100SOL    HW216200   3.449   5.375   5.068
 5101SOL     OW16201   5.329   6.539   7.009
 5101SOL    HW116202   5.288   6.628   0.010
 5101SOL    HW216203   5.428   6.544   0.004
 5102SOL     OW16204   5.126   6.670   4.270
 5102SOL    HW116205   5.206   6.699   4.218
 5102SOL    HW216206   5.046   6.723   4.241
 5103SOL     OW16207   6.880   1.186   4.008
 5103SOL    HW116208   6.796   1.209   3.959
 5103SOL    HW216209   6.951   1.252   3.984
 5104SOL     OW16210   1.998   6.788   2.999
 5104SOL    HW116211   1.975   6.705   3.050
 5104SOL    HW216212   2.091   6.816   3.021
 5105SOL     OW16213   3.429   2.853   0.593
 5105SOL    HW116214   3.449   2.795   0.514
 5105SOL    HW216215   3.488   2.934   0.590
 5106SOL     OW16216   4.382   1.192   0.399
 5106SOL    HW116217   4.437   1.225   0.476
 5106SOL    HW216218   4.335   1.269   0.356
 5107SOL     OW16219   3.102   0.944   0.389
 5107SOL    HW116220   3.115   0.864   0.447
 5107SOL    HW216221   3.038   0.922   0.315
 5108SOL     OW16222   3.112   2.993   5.187
 5108SOL    HW116223   3.192   2.967   5.133
 5108SOL    HW216224   3.129   2.972   5.283
 5109SOL     OW16225   1.038   0.569   0.588
 5109SOL    HW116226   1.072   0.640   0.650
 5109SOL    HW216227   0.981   0.504   0.639
 5110SOL     OW16228   0.202   0.323   6.120
 5110SOL    HW116229   0.184   0.237   6.073
 5110SOL    HW216230   0.151   0.396   6.075
 5111SOL     OW16231   1.868   1.322   5.289
 5111SOL    HW116232   1.914   1.288   5.371
 5111SOL    HW216233   1.885   1.419   5.279
 5112SOL     OW16234   1.415   0.516   2.805
 5112SOL    HW116235   1.399   0.614   2.793
 5112SOL    HW216236   1.511   0.500   2.827
 5113SOL     OW16237   2.298   0.046   1.002
 5113SOL    HW116238   2.396   0.033   1.016
 5113SOL    HW216239   2.261   6.988   0.950
 5114SOL     OW16240   2.845   1.155   0.295
 5114SOL    HW116241   2.894   1.125   0.376
 5114SOL    HW216242   2.892   1.234   0.255
 5115SOL     OW16243   2.279   5.104   4.524
 5115SOL    HW116244   2.196   5.076   4.572
 5115SOL    HW216245   2.308   5.032   4.461
 5116SOL     OW16246   6.342   0.200   6.279
 5116SOL    HW116247   6.300   0.110   6.290
 5116SOL    HW216248   6.273   0.270   6.292
 5117SOL     OW16249   2.475   4.451   4.518
 5117SOL    HW116250   2.410   4.384   4.482
 5117SOL    HW216251   2.457   4.466   4.615
 5118SOL     OW16252   5.155   0.386   0.153
 5118SOL    HW116253   5.213   0.443   0.095
 5118SOL    HW216254   5.139   0.432   0.240
 5119SOL     OW16255   4.804   0.968   1.887
 5119SOL    HW116256   4.801   1.008   1.979
 5119SOL    HW216257   4.778   1.037   1.820
 5120SOL     OW16258   3.996   1.230   4.053
 5120SOL    HW116259   4.048   1.146   4.040
 5120SOL    HW216260   3.964   1.264   3.964
 5121SOL     OW16261   2.986   1.949   6.786
 5121SOL    HW116262   2.891   1.955   6.816
 5121SOL    HW216263   3.046   1.984   6.858
 5122SOL     OW16264   3.326   6.597   2.685
 5122SOL    HW116265   3.330   6.502   2.716
 5122SOL    HW216266   3.268   6.650   2.747
 5123SOL     OW16267   4.508   2.021   4.984
 5123SOL    HW116268   4.477   2.113   4.959
 5123SOL    HW216269   4.561   2.026   5.069
 5124SOL     OW16270   3.245   5.178   5.341
 5124SOL    HW116271   3.321   5.137   5.391
 5124SOL    HW216272   3.203   5.109   5.282
 5125SOL     OW16273   6.137   3.281   4.514
 5125SOL    HW116274   6.091   3.223   4.447
 5125SOL    HW216275   6.074   3.352   4.545
 5126SOL     OW16276   6.554   5.141   5.136
 5126SOL    HW116277   6.464   5.167   5.171
 5126SOL    HW216278   6.570   5.044   5.155
 5127SOL     OW16279   0.825   3.881   6.868
 5127SOL    HW116280   0.765   3.935   6.809
 5127SOL    HW216281   0.775   3.853   6.950
 5128SOL     OW16282   6.798   0.896   6.220
 5128SOL    HW116283   6.740   0.839   6.279
 5128SOL    HW216284   6.761   0.988   6.215
 5129SOL     OW16285   5.046   0.505   2.794
 5129SOL    HW116286   4.970   0.559   2.759
 5129SOL    HW216287   5.132   0.540   2.755
 5130SOL     OW16288   1.790   5.758   3.750
 5130SOL    HW116289   1.850   5.685   3.781
 5130SOL    HW216290   1.704   5.754   3.801
 5131SOL     OW16291   2.535   5.272   3.519
 5131SOL    HW116292   2.633   5.253   3.518
 5131SOL    HW216293   2.505   5.285   3.614
 5132SOL     OW16294   3.152   2.590   5.802
 5132SOL    HW116295   3.159   2.690   5.799
 5132SOL    HW216296   3.085   2.563   5.871
 5133SOL     OW16297   1.700   5.672   6.893
 5133SOL    HW116298   1.723   5.608   6.967
 5133SOL    HW216299   1.625   5.633   6.839
 5134SOL     OW16300   6.341   1.225   2.393
 5134SOL    HW116301   6.371   1.244   2.486
 5134SOL    HW216302   6.384   1.140   2.361
 5135SOL     OW16303   5.155   3.492   4.310
 5135SOL    HW116304   5.062   3.472   4.280
 5135SOL    HW216305   5.155   3.575   4.366
 5136SOL     OW16306   5.558   0.810   6.670
 5136SOL    HW116307   5.480   0.748   6.664
 5136SOL    HW216308   5.614   0.802   6.587
 5137SOL     OW16309   4.658   3.664   5.646
 5137SOL    HW116310   4.708   3.625   5.569
 5137SOL    HW216311   4.617   3.751   5.619
 5138SOL     OW16312   3.623   2.876   4.641
 5138SOL    HW116313   3.681   2.936   4.696
 5138SOL    HW216314   3.536   2.862   4.688
 5139SOL     OW16315   0.894   0.340   3.924
 5139SOL    HW116316   0.850   0.401   3.859
 5139SOL    HW216317   0.832   0.321   4.000
 5140SOL     OW16318   3.704   2.310   5.300
 5140SOL    HW116319   3.697   2.247   5.378
 5140SOL    HW216320   3.643   2.387   5.315
 5141SOL     OW16321   6.273   3.637   0.655
 5141SOL    HW116322   6.294   3.677   0.744
 5141SOL    HW216323   6.340   3.565   0.635
 5142SOL     OW16324   5.517   6.279   3.139
 5142SOL    HW116325   5.577   6.321   3.207
 5142SOL    HW216326   5.515   6.335   3.056
 5143SOL     OW16327   6.716   4.275   4.310
 5143SOL    HW116328   6.669   4.362   4.328
 5143SOL    HW216329   6.677   4.233   4.228
 5144SOL     OW16330   1.106   5.026   5.335
 5144SOL    HW116331   1.192   5.069   5.307
 5144SOL    HW216332   1.055   5.090   5.393
 5145SOL     OW16333   3.808   6.024   6.700
 5145SOL    HW116334   3.708   6.017   6.700
 5145SOL    HW216335   3.842   6.008   6.607
 5146SOL     OW16336   3.272   3.379   5.066
 5146SOL    HW116337   3.331   3.425   5.000
 5146SOL    HW216338   3.236   3.446   5.131
 5147SOL     OW16339   6.422   5.750   3.454
 5147SOL    HW116340   6.506   5.755   3.509
 5147SOL    HW216341   6.347   5.795   3.503
 5148SOL     OW16342   0.081   1.179   1.655
 5148SOL    HW116343   0.059   1.133   1.569
 5148SOL    HW216344   0.010   1.247   1.676
 5149SOL     OW16345   6.569   5.777   3.816
 5149SOL    HW116346   6.619   5.816   3.739
 5149SOL    HW216347   6.592   5.826   3.900
 5150SOL     OW16348   2.267   5.400   3.216
 5150SOL    HW116349   2.209   5.481   3.217
 5150SOL    HW216350   2.335   5.407   3.288
 5151SOL     OW16351   6.738   4.050   2.125
 5151SOL    HW116352   6.755   4.044   2.223
 5151SOL    HW216353   6.755   3.962   2.082
 5152SOL     OW16354   1.390   5.388   0.059
 5152SOL    HW116355   1.345   5.446   7.011
 5152SOL    HW216356   1.400   5.296   0.023
 5153SOL     OW16357   0.883   2.132   0.307
 5153SOL    HW116358   0.802   2.106   0.359
 5153SOL    HW216359   0.923   2.215   0.346
 5154SOL     OW16360   1.068   3.109   6.121
 5154SOL    HW116361   1.033   3.070   6.036
 5154SOL    HW216362   1.128   3.043   6.166
 5155SOL     OW16363   4.202   6.575   2.298
 5155SOL    HW116364   4.216   6.631   2.216
 5155SOL    HW216365   4.161   6.632   2.370
 5156SOL     OW16366   5.586   4.785   5.887
 5156SOL    HW116367   5.653   4.812   5.956
 5156SOL    HW216368   5.540   4.866   5.852
 5157SOL     OW16369   3.294   1.787   3.265
 5157SOL    HW116370   3.373   1.782   3.204
 5157SOL    HW216371   3.314   1.737   3.349
 5158SOL     OW16372   3.483   1.854   0.938
 5158SOL    HW116373   3.549   1.928   0.949
 5158SOL    HW216374   3.512   1.774   0.990
 5159SOL     OW16375   5.678   3.611   5.599
 5159SOL    HW116376   5.712   3.638   5.508
 5159SOL    HW216377   5.581   3.633   5.605
 5160SOL     OW16378   0.409   5.220   2.930
 5160SOL    HW116379   0.494   5.250   2.973
 5160SOL    HW216380   0.335   5.280   2.957
 5161SOL     OW16381   1.797   3.751   0.321
 5161SOL    HW116382   1.757   3.793   0.403
 5161SOL    HW216383   1.881   3.799   0.297
 5162SOL     OW16384   0.940   6.003   2.585
 5162SOL    HW116385   1.027   6.019   2.538
 5162SOL    HW216386   0.923   5.904   2.590
 5163SOL     OW16387   2.706   6.714   0.627
 5163SOL    HW116388   2.638   6.784   0.604
 5163SOL    HW216389   2.797   6.756   0.630
 5164SOL     OW16390   3.727   2.324   6.922
 5164SOL    HW116391   3.703   2.421   6.927
 5164SOL    HW216392   3.770   2.296   7.008
 5165SOL     OW16393   0.594   4.180   5.858
 5165SOL    HW116394   0.628   4.105   5.800
 5165SOL    HW216395   0.499   4.200   5.833
 5166SOL     OW16396   1.192   6.047   2.446
 5166SOL    HW116397   1.184   6.146   2.456
 5166SOL    HW216398   1.251   6.026   2.369
 5167SOL     OW16399   6.545   5.209   5.782
 5167SOL    HW116400   6.606   5.284   5.805
 5167SOL    HW216401   6.486   5.235   5.706
 5168SOL     OW16402   5.254   3.506   1.635
 5168SOL    HW116403   5.230   3.592   1.679
 5168SOL    HW216404   5.170   3.455   1.614
 5169SOL     OW16405   4.067   1.813   4.149
 5169SOL    HW116406   4.113   1.726   4.131
 5169SOL    HW216407   4.053   1.824   4.247
 5170SOL     OW16408   1.357   3.967   4.957
 5170SOL    HW116409   1.297   4.013   4.891
 5170SOL    HW216410   1.415   4.035   5.002
 5171SOL     OW16411   0.785   4.082   5.510
 5171SOL    HW116412   0.784   4.181   5.526
 5171SOL    HW216413   0.820   4.036   5.592
 5172SOL     OW16414   1.444   3.579   2.720
 5172SOL    HW116415   1.391   3.506   2.678
 5172SOL    HW216416   1.447   3.566   2.819
 5173SOL     OW16417   5.054   5.029   4.816
 5173SOL    HW116418   5.107   5.069   4.741
 5173SOL    HW216419   5.108   4.957   4.860
 5174SOL     OW16420   2.495   4.871   3.416
 5174SOL    HW116421   2.436   4.893   3.494
 5174SOL    HW216422   2.495   4.772   3.401
 5175SOL     OW16423   3.070   3.929   6.371
 5175SOL    HW116424   3.024   3.866   6.433
 5175SOL    HW216425   3.042   4.023   6.390
 5176SOL     OW16426   5.497   3.262   6.949
 5176SOL    HW116427   5.517   3.178   6.898
 5176SOL    HW216428   5.470   3.334   6.886
 5177SOL     OW16429   5.699   6.900   0.630
 5177SOL    HW116430   5.740   6.990   0.619
 5177SOL    HW216431   5.655   6.895   0.720
 5178SOL     OW16432   0.774   3.633   2.602
 5178SOL    HW116433   0.685   3.647   2.645
 5178SOL    HW216434   0.837   3.704   2.633
 5179SOL     OW16435   4.978   4.731   4.381
 5179SOL    HW116436   4.883   4.729   4.349
 5179SOL    HW216437   5.000   4.644   4.425
 5180SOL     OW16438   2.285   1.660   0.673
 5180SOL    HW116439   2.228   1.631   0.596
 5180SOL    HW216440   2.319   1.752   0.656
 5181SOL     OW16441   5.255   0.858   2.711
 5181SOL    HW116442   5.242   0.920   2.634
 5181SOL    HW216443   5.166   0.823   2.741
 5182SOL     OW16444   4.020   4.473   1.638
 5182SOL    HW116445   4.103   4.423   1.613
 5182SOL    HW216446   4.038   4.571   1.634
 5183SOL     OW16447   3.813   1.926   2.684
 5183SOL    HW116448   3.825   1.957   2.779
 5183SOL    HW216449   3.806   2.005   2.624
 5184SOL     OW16450   0.763   2.172   3.958
 5184SOL    HW116451   0.749   2.138   4.051
 5184SOL    HW216452   0.722   2.109   3.893
 5185SOL     OW16453   5.305   0.564   2.700
 5185SOL    HW116454   5.316   0.662   2.686
 5185SOL    HW216455   5.389   0.526   2.737
 5186SOL     OW16456   6.281   1.699   0.092
 5186SOL    HW116457   6.283   1.773   0.026
 5186SOL    HW216458   6.321   1.730   0.178
 5187SOL     OW16459   1.394   6.056   4.229
 5187SOL    HW116460   1.447   6.111   4.294
 5187SOL    HW216461   1.311   6.021   4.273
 5188SOL     OW16462   6.971   5.842   1.717
 5188SOL    HW116463   0.038   5.873   1.757
 5188SOL    HW216464   6.943   5.907   1.646
 5189SOL     OW16465   4.166   4.891   0.889
 5189SOL    HW116466   4.179   4.874   0.791
 5189SOL    HW216467   4.072   4.868   0.914
 5190SOL     OW16468   0.481   2.323   4.255
 5190SOL    HW116469   0.399   2.362   4.298
 5190SOL    HW216470   0.542   2.289   4.327
 5191SOL     OW16471   4.006   6.774   2.091
 5191SOL    HW116472   3.991   6.766   2.190
 5191SOL    HW216473   4.103   6.786   2.073
 5192SOL     OW16474   2.212   5.532   1.206
 5192SOL    HW116475   2.275   5.535   1.284
 5192SOL    HW216476   2.120   5.513   1.239
 5193SOL     OW16477   5.473   5.539   4.765
 5193SOL    HW116478   5.520   5.552   4.678
 5193SOL    HW216479   5.470   5.441   4.788
 5194SOL     OW16480   4.099   1.970   0.274
 5194SOL    HW116481   4.093   1.932   0.182
 5194SOL    HW216482   4.173   1.924   0.324
 5195SOL     OW16483   6.885   0.022   3.934
 5195SOL    HW116484   6.930   7.012   3.850
 5195SOL    HW216485   6.925   6.992   4.012
 5196SOL     OW16486   3.894   6.425   1.425
 5196SOL    HW116487   3.990   6.410   1.447
 5196SOL    HW216488   3.838   6.356   1.471
 5197SOL     OW16489   2.484   3.934   6.065
 5197SOL    HW116490   2.537   3.938   6.150
 5197SOL    HW216491   2.546   3.923   5.987
 5198SOL     OW16492   4.790   5.810   2.908
 5198SOL    HW116493   4.756   5.884   2.967
 5198SOL    HW216494   4.889   5.820   2.896
 5199SOL     OW16495   1.182   6.554   0.518
 5199SOL    HW116496   1.097   6.606   0.515
 5199SOL    HW216497   1.225   6.565   0.607
 5200SOL     OW16498   0.545   3.651   5.301
 5200SOL    HW116499   0.621   3.599   5.261
 5200SOL    HW216500   0.543   3.743   5.263
 5201SOL     OW16501   0.166   0.218   3.188
 5201SOL    HW116502   0.079   0.245   3.230
 5201SOL    HW216503   0.236   0.211   3.258
 5202SOL     OW16504   6.057   3.194   6.002
 5202SOL    HW116505   6.093   3.239   5.921
 5202SOL    HW216506   6.130   3.144   6.048
 5203SOL     OW16507   2.011   2.751   0.095
 5203SOL    HW116508   1.960   2.832   0.123
 5203SOL    HW216509   1.984   2.726   0.002
 5204SOL     OW16510   3.820   4.978   6.596
 5204SOL    HW116511   3.721   4.988   6.595
 5204SOL    HW216512   3.845   4.891   6.638
 5205SOL     OW16513   0.647   6.187   0.296
 5205SOL    HW116514   0.558   6.191   0.343
 5205SOL    HW216515   0.698   6.271   0.314
 5206SOL     OW16516   0.745   4.388   5.950
 5206SOL    HW116517   0.702   4.299   5.934
 5206SOL    HW216518   0.675   4.460   5.946
 5207SOL     OW16519   1.399   6.035   3.714
 5207SOL    HW116520   1.330   6.010   3.783
 5207SOL    HW216521   1.469   6.092   3.757
 5208SOL     OW16522   4.099   2.508   6.092
 5208SOL    HW116523   4.018   2.543   6.139
 5208SOL    HW216524   4.108   2.410   6.108
 5209SOL     OW16525   5.526   6.002   3.153
 5209SOL    HW116526   5.540   6.101   3.160
 5209SOL    HW216527   5.546   5.960   3.242
 5210SOL     OW16528   4.259   2.708   6.125
 5210SOL    HW116529   4.263   2.772   6.049
 5210SOL    HW216530   4.191   2.637   6.106
 5211SOL     OW16531   3.251   2.987   5.465
 5211SOL    HW116532   3.189   3.065   5.465
 5211SOL    HW216533   3.324   3.002   5.532
 5212SOL     OW16534   6.885   2.507   0.882
 5212SOL    HW116535   6.921   2.540   0.795
 5212SOL    HW216536   6.952   2.447   0.925
 5213SOL     OW16537   4.734   3.444   6.295
 5213SOL    HW116538   4.781   3.505   6.360
 5213SOL    HW216539   4.728   3.489   6.206
 5214SOL     OW16540   4.517   1.767   5.708
 5214SOL    HW116541   4.549   1.739   5.799
 5214SOL    HW216542   4.417   1.769   5.708
 5215SOL     OW16543   6.525   4.983   3.545
 5215SOL    HW116544   6.488   4.988   3.452
 5215SOL    HW216545   6.551   5.074   3.576
 5216SOL     OW16546   5.064   4.583   1.920
 5216SOL    HW116547   5.020   4.660   1.873
 5216SOL    HW216548   5.153   4.612   1.955
 5217SOL     OW16549   3.875   5.449   4.749
 5217SOL    HW116550   3.867   5.423   4.845
 5217SOL    HW216551   3.815   5.392   4.693
 5218SOL     OW16552   0.924   0.930   3.759
 5218SOL    HW116553   0.964   0.944   3.668
 5218SOL    HW216554   0.828   0.904   3.750
 5219SOL     OW16555   4.112   1.239   5.672
 5219SOL    HW116556   4.116   1.153   5.723
 5219SOL    HW216557   4.173   1.306   5.714
 5220SOL     OW16558   1.445   5.911   2.875
 5220SOL    HW116559   1.503   5.879   2.800
 5220SOL    HW216560   1.365   5.957   2.838
 5221SOL     OW16561   5.818   2.203   3.810
 5221SOL    HW116562   5.748   2.261   3.769
 5221SOL    HW216563   5.908   2.242   3.793
 5222SOL     OW16564   3.515   5.996   3.307
 5222SOL    HW116565   3.438   5.950   3.350
 5222SOL    HW216566   3.522   6.089   3.343
 5223SOL     OW16567   6.752   2.664   1.281
 5223SOL    HW116568   6.779   2.728   1.208
 5223SOL    HW216569   6.803   2.686   1.364
 5224SOL     OW16570   0.144   2.485   3.992
 5224SOL    HW116571   0.055   2.527   4.011
 5224SOL    HW216572   0.131   2.402   3.938
 5225SOL     OW16573   0.665   0.084   3.373
 5225SOL    HW116574   0.599   0.144   3.329
 5225SOL    HW216575   0.739   0.062   3.309
 5226SOL     OW16576   0.315   6.034   4.736
 5226SOL    HW116577   0.313   6.125   4.697
 5226SOL    HW216578   0.260   5.972   4.680
 5227SOL     OW16579   0.976   3.292   4.481
 5227SOL    HW116580   1.062   3.240   4.480
 5227SOL    HW216581   0.923   3.271   4.399
 5228SOL     OW16582   6.631   2.718   1.584
 5228SOL    HW116583   6.604   2.812   1.603
 5228SOL    HW216584   6.729   2.715   1.564
 5229SOL     OW16585   1.822   5.858   0.031
 5229SOL    HW116586   1.790   5.788   6.986
 5229SOL    HW216587   1.744   5.916   0.057
 5230SOL     OW16588   0.548   5.948   1.067
 5230SOL    HW116589   0.516   5.997   1.148
 5230SOL    HW216590   0.480   5.879   1.041
 5231SOL     OW16591   4.425   3.332   5.400
 5231SOL    HW116592   4.371   3.271   5.342
 5231SOL    HW216593   4.370   3.410   5.429
 5232SOL     OW16594   3.525   2.241   5.816
 5232SOL    HW116595   3.548   2.321   5.760
 5232SOL    HW216596   3.428   2.219   5.803
 5233SOL     OW16597   4.970   0.844   2.538
 5233SOL    HW116598   4.911   0.924   2.550
 5233SOL    HW216599   5.011   0.845   2.447
 5234SOL     OW16600   2.393   0.910   6.787
 5234SOL    HW116601   2.301   0.896   6.751
 5234SOL    HW216602   2.387   0.947   6.880
 5235SOL     OW16603   1.472   2.759   1.701
 5235SOL    HW116604   1.457   2.732   1.606
 5235SOL    HW216605   1.386   2.791   1.740
 5236SOL     OW16606   5.430   3.915   2.681
 5236SOL    HW116607   5.386   3.933   2.769
 5236SOL    HW216608   5.438   4.000   2.629
 5237SOL     OW16609   1.665   1.155   5.459
 5237SOL    HW116610   1.731   1.202   5.401
 5237SOL    HW216611   1.594   1.113   5.402
 5238SOL     OW16612   0.565   4.314   0.394
 5238SOL    HW116613   0.663   4.319   0.412
 5238SOL    HW216614   0.514   4.352   0.471
 5239SOL     OW16615   3.440   3.250   3.726
 5239SOL    HW116616   3.407   3.178   3.665
 5239SOL    HW216617   3.366   3.283   3.784
 5240SOL     OW16618   3.060   1.171   6.108
 5240SOL    HW116619   3.042   1.153   6.204
 5240SOL    HW216620   3.103   1.091   6.066
 5241SOL     OW16621   1.323   5.195   5.154
 5241SOL    HW116622   1.287   5.285   5.129
 5241SOL    HW216623   1.422   5.195   5.141
 5242SOL     OW16624   0.490   6.419   6.356
 5242SOL    HW116625   0.483   6.418   6.456
 5242SOL    HW216626   0.427   6.352   6.317
 5243SOL     OW16627   1.082   5.414   1.947
 5243SOL    HW116628   1.016   5.355   1.993
 5243SOL    HW216629   1.091   5.501   1.996
 5244SOL     OW16630   3.518   4.758   6.603
 5244SOL    HW116631   3.558   4.850   6.602
 5244SOL    HW216632   3.454   4.751   6.679
 5245SOL     OW16633   4.204   3.864   0.678
 5245SOL    HW116634   4.292   3.911   0.689
 5245SOL    HW216635   4.211   3.772   0.718
 5246SOL     OW16636   5.717   3.883   2.666
 5246SOL    HW116637   5.759   3.937   2.739
 5246SOL    HW216638   5.620   3.869   2.688
 5247SOL     OW16639   0.941   0.416   0.082
 5247SOL    HW116640   0.931   0.433   0.180
 5247SOL    HW216641   0.963   0.319   0.067
 5248SOL     OW16642   5.823   0.614   4.315
 5248SOL    HW116643   5.806   0.628   4.413
 5248SOL    HW216644   5.869   0.695   4.278
 5249SOL     OW16645   6.908   4.595   5.204
 5249SOL    HW116646   6.968   4.536   5.258
 5249SOL    HW216647   6.824   4.545   5.181
 5250SOL     OW16648   1.495   0.029   5.315
 5250SOL    HW116649   1.473   0.057   5.222
 5250SOL    HW216650   1.580   0.072   5.344
 5251SOL     OW16651   0.651   3.203   0.339
 5251SOL    HW116652   0.740   3.246   0.319
 5251SOL    HW216653   0.578   3.257   0.297
 5252SOL     OW16654   1.944   5.928   0.425
 5252SOL    HW116655   1.975   5.879   0.506
 5252SOL    HW216656   1.888   5.868   0.369
 5253SOL     OW16657   5.605   4.167   4.348
 5253SOL    HW116658   5.679   4.171   4.280
 5253SOL    HW216659   5.626   4.229   4.424
 5254SOL     OW16660   4.575   1.363   2.939
 5254SOL    HW116661   4.654   1.407   2.896
 5254SOL    HW216662   4.606   1.291   3.000
 5255SOL     OW16663   4.918   0.976   6.452
 5255SOL    HW116664   5.011   0.988   6.488
 5255SOL    HW216665   4.892   0.879   6.459
 5256SOL     OW16666   4.597   1.055   3.042
 5256SOL    HW116667   4.544   1.022   2.964
 5256SOL    HW216668   4.650   0.979   3.080
 5257SOL     OW16669   4.914   5.937   2.000
 5257SOL    HW116670   4.829   5.925   1.948
 5257SOL    HW216671   4.950   5.848   2.027
 5258SOL     OW16672   5.793   3.654   1.768
 5258SOL    HW116673   5.785   3.554   1.771
 5258SOL    HW216674   5.875   3.678   1.716
 5259SOL     OW16675   5.206   6.607   0.366
 5259SOL    HW116676   5.158   6.666   0.301
 5259SOL    HW216677   5.262   6.663   0.426
 5260SOL     OW16678   5.636   3.811   1.164
 5260SOL    HW116679   5.541   3.785   1.149
 5260SOL    HW216680   5.682   3.822   1.076
 5261SOL     OW16681   1.072   3.604   6.986
 5261SOL    HW116682   1.060   3.521   0.021
 5261SOL    HW216683   1.040   3.588   6.892
 5262SOL     OW16684   2.832   0.291   2.954
 5262SOL    HW116685   2.757   0.352   2.928
 5262SOL    HW216686   2.913   0.345   2.975
 5263SOL     OW16687   1.938   1.618   5.267
 5263SOL    HW116688   1.839   1.607   5.259
 5263SOL    HW216689   1.958   1.710   5.300
 5264SOL     OW16690   5.859   1.728   2.390
 5264SOL    HW116691   5.834   1.663   2.318
 5264SOL    HW216692   5.948   1.769   2.369
 5265SOL     OW16693   5.582   3.734   4.175
 5265SOL    HW116694   5.596   3.803   4.103
 5265SOL    HW216695   5.519   3.664   4.142
 5266SOL     OW16696   2.607   6.217   1.729
 5266SOL    HW116697   2.628   6.237   1.825
 5266SOL    HW216698   2.692   6.214   1.676
 5267SOL     OW16699   4.916   4.218   5.023
 5267SOL    HW116700   4.841   4.198   5.086
 5267SOL    HW216701   4.951   4.133   4.984
 5268SOL     OW16702   6.204   0.976   6.526
 5268SOL    HW116703   6.139   1.039   6.567
 5268SOL    HW216704   6.188   0.972   6.427
 5269SOL     OW16705   1.623   0.125   3.809
 5269SOL    HW116706   1.715   0.163   3.822
 5269SOL    HW216707   1.625   0.057   3.735
 5270SOL     OW16708   5.058   1.694   1.441
 5270SOL    HW116709   5.057   1.776   1.384
 5270SOL    HW216710   5.078   1.614   1.384
 5271SOL     OW16711   5.757   5.815   4.638
 5271SOL    HW116712   5.794   5.722   4.630
 5271SOL    HW216713   5.691   5.831   4.565
 5272SOL     OW16714   2.537   5.387   1.823
 5272SOL    HW116715   2.477   5.307   1.827
 5272SOL    HW216716   2.481   5.470   1.816
 5273SOL     OW16717   6.446   2.906   3.391
 5273SOL    HW116718   6.349   2.879   3.389
 5273SOL    HW216719   6.452   3.005   3.400
 5274SOL     OW16720   6.506   6.374   1.803
 5274SOL    HW116721   6.417   6.357   1.844
 5274SOL    HW216722   6.561   6.429   1.865
 5275SOL     OW16723   3.558   1.650   6.771
 5275SOL    HW116724   3.552   1.551   6.781
 5275SOL    HW216725   3.474   1.693   6.803
 5276SOL     OW16726   0.820   0.097   0.367
 5276SOL    HW116727   0.818   0.195   0.388
 5276SOL    HW216728   0.745   0.075   0.304
 5277SOL     OW16729   2.186   2.058   3.244
 5277SOL    HW116730   2.192   2.100   3.335
 5277SOL    HW216731   2.228   2.119   3.177
 5278SOL     OW16732   4.924   0.363   4.324
 5278SOL    HW116733   4.959   0.422   4.251
 5278SOL    HW216734   5.001   0.315   4.366
 5279SOL     OW16735   1.630   5.337   6.686
 5279SOL    HW116736   1.624   5.297   6.595
 5279SOL    HW216737   1.715   5.309   6.730
 5280SOL     OW16738   3.691   6.709   5.487
 5280SOL    HW116739   3.610   6.657   5.460
 5280SOL    HW216740   3.773   6.654   5.470
 5281SOL     OW16741   0.755   2.099   2.360
 5281SOL    HW116742   0.761   2.031   2.287
 5281SOL    HW216743   0.659   2.123   2.376
 5282SOL     OW16744   2.529   1.637   3.122
 5282SOL    HW116745   2.483   1.721   3.093
 5282SOL    HW216746   2.572   1.594   3.043
 5283SOL     OW16747   4.219   6.656   1.560
 5283SOL    HW116748   4.261   6.633   1.648
 5283SOL    HW216749   4.263   6.738   1.523
 5284SOL     OW16750   5.079   3.728   3.364
 5284SOL    HW116751   5.107   3.754   3.271
 5284SOL    HW216752   4.991   3.771   3.385
 5285SOL     OW16753   2.163   4.152   4.230
 5285SOL    HW116754   2.067   4.177   4.220
 5285SOL    HW216755   2.182   4.070   4.175
 5286SOL     OW16756   0.862   3.638   1.751
 5286SOL    HW116757   0.839   3.668   1.659
 5286SOL    HW216758   0.911   3.710   1.799
 5287SOL     OW16759   1.671   6.245   1.727
 5287SOL    HW116760   1.716   6.281   1.808
 5287SOL    HW216761   1.683   6.309   1.651
 5288SOL     OW16762   4.134   0.400   1.716
 5288SOL    HW116763   4.130   0.307   1.679
 5288SOL    HW216764   4.159   0.396   1.813
 5289SOL     OW16765   1.616   5.487   6.096
 5289SOL    HW116766   1.629   5.388   6.102
 5289SOL    HW216767   1.701   5.531   6.068
 5290SOL     OW16768   1.633   4.764   5.604
 5290SOL    HW116769   1.675   4.723   5.524
 5290SOL    HW216770   1.687   4.742   5.686
 5291SOL     OW16771   2.851   5.058   5.399
 5291SOL    HW116772   2.899   4.979   5.436
 5291SOL    HW216773   2.836   5.125   5.472
 5292SOL     OW16774   6.650   4.145   0.266
 5292SOL    HW116775   6.687   4.081   0.334
 5292SOL    HW216776   6.552   4.130   0.255
 5293SOL     OW16777   1.052   0.706   3.873
 5293SOL    HW116778   1.080   0.728   3.967
 5293SOL    HW216779   1.015   0.788   3.830
 5294SOL     OW16780   4.864   3.329   5.193
 5294SOL    HW116781   4.849   3.405   5.130
 5294SOL    HW216782   4.841   3.358   5.286
 5295SOL     OW16783   4.388   0.109   2.426
 5295SOL    HW116784   4.304   0.121   2.374
 5295SOL    HW216785   4.467   0.134   2.369
 5296SOL     OW16786   2.144   5.252   0.625
 5296SOL    HW116787   2.134   5.284   0.720
 5296SOL    HW216788   2.108   5.321   0.563
 5297SOL     OW16789   3.066   1.876   1.186
 5297SOL    HW116790   3.123   1.860   1.106
 5297SOL    HW216791   2.984   1.819   1.181
 5298SOL     OW16792   1.589   6.067   6.488
 5298SOL    HW116793   1.628   6.158   6.499
 5298SOL    HW216794   1.525   6.066   6.412
 5299SOL     OW16795   3.034   2.455   0.840
 5299SOL    HW116796   3.086   2.440   0.756
 5299SOL    HW216797   3.056   2.383   0.906
 5300SOL     OW16798   0.312   6.213   1.585
 5300SOL    HW116799   0.388   6.263   1.627
 5300SOL    HW216800   0.343   6.123   1.555
 5301SOL     OW16801   4.329   2.521   6.975
 5301SOL    HW116802   4.357   2.508   0.051
 5301SOL    HW216803   4.383   2.459   6.917
 5302SOL     OW16804   6.136   4.699   3.443
 5302SOL    HW116805   6.050   4.651   3.455
 5302SOL    HW216806   6.119   4.798   3.438
 5303SOL     OW16807   0.189   5.842   2.819
 5303SOL    HW116808   0.138   5.773   2.768
 5303SOL    HW216809   0.132   5.876   2.894
 5304SOL     OW16810   5.943   1.447   6.905
 5304SOL    HW116811   5.869   1.443   6.972
 5304SOL    HW216812   5.915   1.503   6.828
 5305SOL     OW16813   1.780   5.434   4.340
 5305SOL    HW116814   1.744   5.355   4.290
 5305SOL    HW216815   1.761   5.517   4.289
 5306SOL     OW16816   0.300   4.983   4.777
 5306SOL    HW116817   0.234   5.059   4.776
 5306SOL    HW216818   0.375   5.004   4.714
 5307SOL     OW16819   4.036   6.934   0.231
 5307SOL    HW116820   3.947   6.963   0.194
 5307SOL    HW216821   4.028   6.840   0.266
 5308SOL     OW16822   1.115   6.208   3.501
 5308SOL    HW116823   1.168   6.175   3.579
 5308SOL    HW216824   1.066   6.131   3.459
 5309SOL     OW16825   3.816   4.315   1.741
 5309SOL    HW116826   3.731   4.358   1.772
 5309SOL    HW216827   3.881   4.386   1.714
 5310SOL     OW16828   6.141   3.164   1.749
 5310SOL    HW116829   6.198   3.246   1.761
 5310SOL    HW216830   6.177   3.090   1.807
 5311SOL     OW16831   0.180   6.388   0.436
 5311SOL    HW116832   0.108   6.446   0.396
 5311SOL    HW216833   0.246   6.364   0.365
 5312SOL     OW16834   0.626   4.261   1.983
 5312SOL    HW116835   0.596   4.240   2.076
 5312SOL    HW216836   0.680   4.185   1.947
 5313SOL     OW16837   1.200   4.292   6.479
 5313SOL    HW116838   1.209   4.327   6.386
 5313SOL    HW216839   1.242   4.357   6.543
 5314SOL     OW16840   3.509   6.707   0.124
 5314SOL    HW116841   3.425   6.761   0.113
 5314SOL    HW216842   3.545   6.719   0.216
 5315SOL     OW16843   4.344   3.729   1.703
 5315SOL    HW116844   4.352   3.699   1.608
 5315SOL    HW216845   4.371   3.825   1.710
 5316SOL     OW16846   6.863   4.422   4.879
 5316SOL    HW116847   6.917   4.338   4.883
 5316SOL    HW216848   6.882   4.470   4.794
 5317SOL     OW16849   0.117   0.056   4.749
 5317SOL    HW116850   0.078   0.119   4.681
 5317SOL    HW216851   0.137   0.106   4.833
 5318SOL     OW16852   0.192   2.098   6.133
 5318SOL    HW116853   0.171   2.057   6.045
 5318SOL    HW216854   0.259   2.042   6.181
 5319SOL     OW16855   4.478   6.544   6.487
 5319SOL    HW116856   4.479   6.467   6.424
 5319SOL    HW216857   4.568   6.586   6.490
 5320SOL     OW16858   5.293   5.212   0.442
 5320SOL    HW116859   5.259   5.162   0.363
 5320SOL    HW216860   5.216   5.255   0.490
 5321SOL     OW16861   1.136   4.014   3.187
 5321SOL    HW116862   1.096   3.922   3.183
 5321SOL    HW216863   1.066   4.081   3.164
 5322SOL     OW16864   3.666   5.867   6.212
 5322SOL    HW116865   3.618   5.847   6.297
 5322SOL    HW216866   3.600   5.875   6.138
 5323SOL     OW16867   3.816   3.237   6.813
 5323SOL    HW116868   3.727   3.193   6.827
 5323SOL    HW216869   3.888   3.177   6.846
 5324SOL     OW16870   3.886   2.531   1.656
 5324SOL    HW116871   3.830   2.487   1.726
 5324SOL    HW216872   3.967   2.474   1.638
 5325SOL     OW16873   5.005   0.435   4.083
 5325SOL    HW116874   5.081   0.499   4.072
 5325SOL    HW216875   5.023   0.352   4.029
 5326SOL     OW16876   0.402   5.444   3.284
 5326SOL    HW116877   0.467   5.418   3.213
 5326SOL    HW216878   0.353   5.363   3.315
 5327SOL     OW16879   5.731   4.430   4.964
 5327SOL    HW116880   5.784   4.464   5.042
 5327SOL    HW216881   5.783   4.358   4.918
 5328SOL     OW16882   4.507   2.950   5.525
 5328SOL    HW116883   4.518   2.856   5.554
 5328SOL    HW216884   4.430   2.992   5.574
 5329SOL     OW16885   0.234   3.886   0.512
 5329SOL    HW116886   0.260   3.948   0.438
 5329SOL    HW216887   0.256   3.792   0.486
 5330SOL     OW16888   3.758   3.824   5.628
 5330SOL    HW116889   3.778   3.921   5.623
 5330SOL    HW216890   3.690   3.807   5.700
 5331SOL     OW16891   5.453   0.605   1.797
 5331SOL    HW116892   5.436   0.703   1.809
 5331SOL    HW216893   5.371   0.561   1.760
 5332SOL     OW16894   0.461   3.593   0.497
 5332SOL    HW116895   0.431   3.511   0.546
 5332SOL    HW216896   0.540   3.632   0.544
 5333SOL     OW16897   0.924   0.608   3.382
 5333SOL    HW116898   0.910   0.703   3.412
 5333SOL    HW216899   0.986   0.607   3.304
 5334SOL     OW16900   3.936   6.274   5.246
 5334SOL    HW116901   3.982   6.236   5.166
 5334SOL    HW216902   3.977   6.237   5.329
 5335SOL     OW16903   0.185   5.258   2.675
 5335SOL    HW116904   0.274   5.278   2.716
 5335SOL    HW216905   0.121   5.230   2.746
 5336SOL     OW16906   2.659   1.639   3.487
 5336SOL    HW116907   2.608   1.556   3.462
 5336SOL    HW216908   2.636   1.713   3.425
 5337SOL     OW16909   5.217   4.923   2.277
 5337SOL    HW116910   5.264   4.950   2.192
 5337SOL    HW216911   5.272   4.950   2.356
 5338SOL     OW16912   6.008   0.856   6.131
 5338SOL    HW116913   5.950   0.909   6.069
 5338SOL    HW216914   5.974   0.762   6.136
 5339SOL     OW16915   5.535   1.688   3.445
 5339SOL    HW116916   5.622   1.734   3.462
 5339SOL    HW216917   5.460   1.752   3.461
 5340SOL     OW16918   6.103   3.742   1.318
 5340SOL    HW116919   6.122   3.749   1.416
 5340SOL    HW216920   6.031   3.807   1.293
 5341SOL     OW16921   3.492   5.690   5.335
 5341SOL    HW116922   3.512   5.764   5.272
 5341SOL    HW216923   3.396   5.694   5.363
 5342SOL     OW16924   4.727   0.110   4.541
 5342SOL    HW116925   4.812   0.160   4.558
 5342SOL    HW216926   4.723   0.031   4.602
 5343SOL     OW16927   4.148   3.435   4.745
 5343SOL    HW116928   4.246   3.444   4.725
 5343SOL    HW216929   4.114   3.522   4.781
 5344SOL     OW16930   1.596   2.457   1.210
 5344SOL    HW116931   1.588   2.557   1.213
 5344SOL    HW216932   1.508   2.416   1.234
 5345SOL     OW16933   4.843   6.647   0.250
 5345SOL    HW116934   4.845   6.548   0.262
 5345SOL    HW216935   4.898   6.672   0.170
 5346SOL     OW16936   2.433   5.617   3.923
 5346SOL    HW116937   2.528   5.596   3.943
 5346SOL    HW216938   2.428   5.683   3.848
 5347SOL     OW16939   0.661   2.804   2.629
 5347SOL    HW116940   0.712   2.810   2.543
 5347SOL    HW216941   0.704   2.861   2.698
 5348SOL     OW16942   6.720   1.339   0.318
 5348SOL    HW116943   6.670   1.267   0.367
 5348SOL    HW216944   6.669   1.365   0.236
 5349SOL     OW16945   2.234   3.525   0.139
 5349SOL    HW116946   2.216   3.439   0.092
 5349SOL    HW216947   2.204   3.601   0.082
 5350SOL     OW16948   1.678   6.964   4.693
 5350SOL    HW116949   1.613   6.914   4.635
 5350SOL    HW216950   1.629   0.019   4.740
 5351SOL     OW16951   6.684   5.144   2.013
 5351SOL    HW116952   6.602   5.197   1.992
 5351SOL    HW216953   6.753   5.160   1.942
 5352SOL     OW16954   2.260   4.800   2.739
 5352SOL    HW116955   2.258   4.717   2.794
 5352SOL    HW216956   2.355   4.827   2.722
 5353SOL     OW16957   3.710   5.300   4.573
 5353SOL    HW116958   3.692   5.316   4.476
 5353SOL    HW216959   3.629   5.323   4.627
 5354SOL     OW16960   2.482   4.371   1.096
 5354SOL    HW116961   2.384   4.387   1.084
 5354SOL    HW216962   2.531   4.458   1.093
 5355SOL     OW16963   5.985   4.958   4.522
 5355SOL    HW116964   5.996   5.001   4.433
 5355SOL    HW216965   6.050   4.882   4.531
 5356SOL     OW16966   6.246   3.444   2.356
 5356SOL    HW116967   6.173   3.510   2.372
 5356SOL    HW216968   6.326   3.468   2.411
 5357SOL     OW16969   2.971   5.642   0.776
 5357SOL    HW116970   2.963   5.697   0.859
 5357SOL    HW216971   3.057   5.592   0.777
 5358SOL     OW16972   4.264   1.497   0.323
 5358SOL    HW116973   4.164   1.497   0.335
 5358SOL    HW216974   4.288   1.439   0.245
 5359SOL     OW16975   2.510   1.421   5.973
 5359SOL    HW116976   2.423   1.373   5.976
 5359SOL    HW216977   2.507   1.500   6.035
 5360SOL     OW16978   3.512   6.280   3.347
 5360SOL    HW116979   3.560   6.349   3.294
 5360SOL    HW216980   3.471   6.322   3.428
 5361SOL     OW16981   2.178   0.471   4.638
 5361SOL    HW116982   2.175   0.544   4.570
 5361SOL    HW216983   2.159   0.383   4.594
 5362SOL     OW16984   6.480   6.327   2.470
 5362SOL    HW116985   6.498   6.322   2.568
 5362SOL    HW216986   6.409   6.395   2.453
 5363SOL     OW16987   6.503   6.327   5.863
 5363SOL    HW116988   6.425   6.304   5.921
 5363SOL    HW216989   6.548   6.409   5.899
 5364SOL     OW16990   6.333   0.010   2.156
 5364SOL    HW116991   6.264   6.991   2.095
 5364SOL    HW216992   6.318   0.109   2.165
 5365SOL     OW16993   3.710   3.310   1.648
 5365SOL    HW116994   3.696   3.241   1.720
 5365SOL    HW216995   3.795   3.290   1.599
 5366SOL     OW16996   5.902   6.308   1.175
 5366SOL    HW116997   5.941   6.398   1.195
 5366SOL    HW216998   5.954   6.238   1.224
 5367SOL     OW16999   0.031   6.995   1.670
 5367SOL    HW117000   0.057   6.943   1.589
 5367SOL    HW217001   0.112   7.009   1.727
 5368SOL     OW17002   5.622   0.214   2.744
 5368SOL    HW117003   5.709   0.208   2.792
 5368SOL    HW217004   5.622   0.153   2.666
 5369SOL     OW17005   2.626   6.497   0.819
 5369SOL    HW117006   2.659   6.580   0.774
 5369SOL    HW217007   2.603   6.428   0.750
 5370SOL     OW17008   4.823   3.312   0.746
 5370SOL    HW117009   4.916   3.325   0.713
 5370SOL    HW217010   4.813   3.221   0.786
 5371SOL     OW17011   0.764   4.429   5.490
 5371SOL    HW117012   0.762   4.500   5.561
 5371SOL    HW217013   0.856   4.392   5.484
 5372SOL     OW17014   1.289   6.087   2.726
 5372SOL    HW117015   1.293   6.042   2.636
 5372SOL    HW217016   1.194   6.112   2.746
 5373SOL     OW17017   3.959   6.641   5.463
 5373SOL    HW117018   4.031   6.604   5.404
 5373SOL    HW217019   3.960   6.741   5.458
 5374SOL     OW17020   2.204   4.310   0.642
 5374SOL    HW117021   2.302   4.297   0.626
 5374SOL    HW217022   2.181   4.283   0.735
 5375SOL     OW17023   0.494   6.122   4.930
 5375SOL    HW117024   0.447   6.191   4.984
 5375SOL    HW217025   0.437   6.095   4.853
 5376SOL     OW17026   1.412   2.264   1.316
 5376SOL    HW117027   1.313   2.248   1.317
 5376SOL    HW217028   1.458   2.192   1.368
 5377SOL     OW17029   0.454   0.163   1.923
 5377SOL    HW117030   0.460   0.104   2.004
 5377SOL    HW217031   0.405   0.247   1.946
 5378SOL     OW17032   6.717   6.721   2.752
 5378SOL    HW117033   6.680   6.803   2.709
 5378SOL    HW217034   6.795   6.744   2.809
 5379SOL     OW17035   0.970   3.683   4.959
 5379SOL    HW117036   0.967   3.783   4.966
 5379SOL    HW217037   1.034   3.657   4.887
 5380SOL     OW17038   3.469   6.748   2.338
 5380SOL    HW117039   3.512   6.664   2.306
 5380SOL    HW217040   3.503   6.825   2.285
 5381SOL     OW17041   6.887   5.441   2.204
 5381SOL    HW117042   6.791   5.431   2.176
 5381SOL    HW217043   6.897   5.524   2.258
 5382SOL     OW17044   3.004   1.719   2.053
 5382SOL    HW117045   2.921   1.756   2.012
 5382SOL    HW217046   3.077   1.715   1.984
 5383SOL     OW17047   1.664   2.723   4.511
 5383SOL    HW117048   1.750   2.733   4.561
 5383SOL    HW217049   1.636   2.812   4.474
 5384SOL     OW17050   5.630   0.631   5.370
 5384SOL    HW117051   5.633   0.729   5.388
 5384SOL    HW217052   5.567   0.587   5.434
 5385SOL     OW17053   3.780   3.665   5.079
 5385SOL    HW117054   3.732   3.579   5.064
 5385SOL    HW217055   3.878   3.648   5.086
 5386SOL     OW17056   4.361   1.437   4.035
 5386SOL    HW117057   4.396   1.355   4.081
 5386SOL    HW217058   4.296   1.411   3.964
 5387SOL     OW17059   2.286   6.839   3.058
 5387SOL    HW117060   2.300   6.801   3.149
 5387SOL    HW217061   2.280   6.939   3.064
 5388SOL     OW17062   0.967   1.028   2.982
 5388SOL    HW117063   1.026   1.107   2.999
 5388SOL    HW217064   0.872   1.058   2.977
 5389SOL     OW17065   3.709   1.296   3.375
 5389SOL    HW117066   3.646   1.348   3.433
 5389SOL    HW217067   3.802   1.330   3.387
 5390SOL     OW17068   5.103   4.131   3.994
 5390SOL    HW117069   5.074   4.128   4.089
 5390SOL    HW217070   5.143   4.043   3.968
 5391SOL     OW17071   2.084   1.674   0.477
 5391SOL    HW117072   2.124   1.670   0.386
 5391SOL    HW217073   2.027   1.594   0.493
 5392SOL     OW17074   5.858   3.636   0.774
 5392SOL    HW117075   5.870   3.668   0.680
 5392SOL    HW217076   5.908   3.550   0.787
 5393SOL     OW17077   5.230   0.739   5.115
 5393SOL    HW117078   5.237   0.682   5.034
 5393SOL    HW217079   5.160   0.701   5.176
 5394SOL     OW17080   0.293   5.543   1.203
 5394SOL    HW117081   0.361   5.521   1.133
 5394SOL    HW217082   0.259   5.637   1.188
 5395SOL     OW17083   4.896   0.674   1.021
 5395SOL    HW117084   4.888   0.773   1.021
 5395SOL    HW217085   4.964   0.646   0.953
 5396SOL     OW17086   5.454   4.846   1.333
 5396SOL    HW117087   5.498   4.758   1.345
 5396SOL    HW217088   5.396   4.845   1.252
 5397SOL     OW17089   0.260   2.570   1.365
 5397SOL    HW117090   0.244   2.654   1.417
 5397SOL    HW217091   0.222   2.580   1.274
 5398SOL     OW17092   2.896   2.248   3.777
 5398SOL    HW117093   2.911   2.252   3.876
 5398SOL    HW217094   2.902   2.154   3.746
 5399SOL     OW17095   2.853   6.446   6.708
 5399SOL    HW117096   2.850   6.526   6.768
 5399SOL    HW217097   2.776   6.385   6.731
 5400SOL     OW17098   3.286   3.428   6.688
 5400SOL    HW117099   3.228   3.494   6.639
 5400SOL    HW217100   3.232   3.382   6.758
 5401SOL     OW17101   6.169   4.496   2.807
 5401SOL    HW117102   6.131   4.409   2.839
 5401SOL    HW217103   6.190   4.489   2.709
 5402SOL     OW17104   2.482   5.825   1.676
 5402SOL    HW117105   2.491   5.826   1.577
 5402SOL    HW217106   2.572   5.833   1.718
 5403SOL     OW17107   4.869   3.686   6.109
 5403SOL    HW117108   4.882   3.674   6.011
 5403SOL    HW217109   4.956   3.670   6.157
 5404SOL     OW17110   0.831   0.654   2.042
 5404SOL    HW117111   0.811   0.748   2.071
 5404SOL    HW217112   0.866   0.602   2.120
 5405SOL     OW17113   5.385   5.752   0.068
 5405SOL    HW117114   5.455   5.774   7.018
 5405SOL    HW217115   5.314   5.695   0.026
 5406SOL     OW17116   1.680   0.580   5.354
 5406SOL    HW117117   1.586   0.591   5.384
 5406SOL    HW217118   1.731   0.528   5.422
 5407SOL     OW17119   3.148   1.770   0.941
 5407SOL    HW117120   3.114   1.678   0.922
 5407SOL    HW217121   3.235   1.785   0.893
 5408SOL     OW17122   4.185   0.257   5.356
 5408SOL    HW117123   4.184   0.181   5.421
 5408SOL    HW217124   4.213   0.224   5.267
 5409SOL     OW17125   6.643   1.566   3.071
 5409SOL    HW117126   6.552   1.574   3.111
 5409SOL    HW217127   6.651   1.480   3.022
 5410SOL     OW17128   1.184   2.440   6.421
 5410SOL    HW117129   1.203   2.536   6.444
 5410SOL    HW217130   1.213   2.382   6.497
 5411SOL     OW17131   6.002   5.564   5.710
 5411SOL    HW117132   6.092   5.532   5.681
 5411SOL    HW217133   6.003   5.663   5.721
 5412SOL     OW17134   3.465   1.254   0.064
 5412SOL    HW117135   3.438   1.208   0.149
 5412SOL    HW217136   3.565   1.259   0.060
 5413SOL     OW17137   6.684   0.785   0.517
 5413SOL    HW117138   6.731   0.828   0.594
 5413SOL    HW217139   6.730   0.812   0.432
 5414SOL     OW17140   6.231   4.432   4.925
 5414SOL    HW117141   6.151   4.371   4.919
 5414SOL    HW217142   6.206   4.522   4.891
 5415SOL     OW17143   1.542   6.581   1.863
 5415SOL    HW117144   1.607   6.505   1.861
 5415SOL    HW217145   1.508   6.597   1.770
 5416SOL     OW17146   3.203   4.967   5.692
 5416SOL    HW117147   3.266   5.045   5.697
 5416SOL    HW217148   3.169   4.947   5.784
 5417SOL     OW17149   4.293   6.252   5.003
 5417SOL    HW117150   4.234   6.179   5.038
 5417SOL    HW217151   4.364   6.272   5.070
 5418SOL     OW17152   5.145   0.236   4.639
 5418SOL    HW117153   5.172   0.147   4.601
 5418SOL    HW217154   5.172   0.309   4.575
 5419SOL     OW17155   3.409   5.165   0.323
 5419SOL    HW117156   3.425   5.232   0.396
 5419SOL    HW217157   3.333   5.106   0.347
 5420SOL     OW17158   2.102   2.268   1.284
 5420SOL    HW117159   2.074   2.363   1.300
 5420SOL    HW217160   2.116   2.222   1.371
 5421SOL     OW17161   2.826   5.314   3.045
 5421SOL    HW117162   2.838   5.221   3.078
 5421SOL    HW217163   2.744   5.354   3.086
 5422SOL     OW17164   0.423   5.209   4.347
 5422SOL    HW117165   0.467   5.123   4.321
 5422SOL    HW217166   0.393   5.257   4.265
 5423SOL     OW17167   5.714   4.506   0.407
 5423SOL    HW117168   5.713   4.462   0.497
 5423SOL    HW217169   5.768   4.590   0.411
 5424SOL     OW17170   5.914   3.884   4.581
 5424SOL    HW117171   5.942   3.892   4.486
 5424SOL    HW217172   5.908   3.974   4.623
 5425SOL     OW17173   4.971   2.292   4.385
 5425SOL    HW117174   4.979   2.231   4.464
 5425SOL    HW217175   4.939   2.241   4.306
 5426SOL     OW17176   6.061   5.704   2.968
 5426SOL    HW117177   6.097   5.726   3.059
 5426SOL    HW217178   6.137   5.673   2.910
 5427SOL     OW17179   5.265   3.943   0.492
 5427SOL    HW117180   5.223   3.886   0.563
 5427SOL    HW217181   5.246   3.905   0.402
 5428SOL     OW17182   6.119   6.813   2.491
 5428SOL    HW117183   6.154   6.738   2.547
 5428SOL    HW217184   6.164   6.811   2.401
 5429SOL     OW17185   2.353   0.802   6.307
 5429SOL    HW117186   2.397   0.739   6.371
 5429SOL    HW217187   2.372   0.896   6.335
 5430SOL     OW17188   2.316   2.570   6.015
 5430SOL    HW117189   2.410   2.535   6.016
 5430SOL    HW217190   2.297   2.616   6.102
 5431SOL     OW17191   3.288   4.165   6.387
 5431SOL    HW117192   3.343   4.246   6.408
 5431SOL    HW217193   3.291   4.102   6.464
 5432SOL     OW17194   3.319   5.198   6.492
 5432SOL    HW117195   3.222   5.199   6.468
 5432SOL    HW217196   3.359   5.287   6.471
 5433SOL     OW17197   0.697   0.733   2.602
 5433SOL    HW117198   0.600   0.739   2.578
 5433SOL    HW217199   0.752   0.761   2.524
 5434SOL     OW17200   4.003   0.784   4.431
 5434SOL    HW117201   4.070   0.713   4.449
 5434SOL    HW217202   4.020   0.825   4.341
 5435SOL     OW17203   5.973   2.702   1.053
 5435SOL    HW117204   6.017   2.778   1.101
 5435SOL    HW217205   6.043   2.648   1.006
 5436SOL     OW17206   6.014   4.457   3.841
 5436SOL    HW117207   6.101   4.504   3.827
 5436SOL    HW217208   6.004   4.434   3.938
 5437SOL     OW17209   2.897   5.629   5.525
 5437SOL    HW117210   2.896   5.699   5.596
 5437SOL    HW217211   2.881   5.672   5.436
 5438SOL     OW17212   6.227   3.005   1.928
 5438SOL    HW117213   6.202   2.989   2.023
 5438SOL    HW217214   6.317   3.049   1.924
 5439SOL     OW17215   0.434   2.299   0.420
 5439SOL    HW117216   0.336   2.278   0.422
 5439SOL    HW217217   0.472   2.269   0.333
 5440SOL     OW17218   6.488   6.804   3.652
 5440SOL    HW117219   6.563   6.866   3.629
 5440SOL    HW217220   6.427   6.849   3.717
 5441SOL     OW17221   4.728   2.833   3.600
 5441SOL    HW117222   4.702   2.925   3.631
 5441SOL    HW217223   4.723   2.830   3.500
 5442SOL     OW17224   4.064   6.952   2.617
 5442SOL    HW117225   4.014   0.017   2.595
 5442SOL    HW217226   4.100   6.958   2.710
 5443SOL     OW17227   3.695   5.398   3.724
 5443SOL    HW117228   3.684   5.334   3.648
 5443SOL    HW217229   3.746   5.478   3.692
 5444SOL     OW17230   0.651   0.669   3.584
 5444SOL    HW117231   0.675   0.614   3.505
 5444SOL    HW217232   0.552   0.663   3.600
 5445SOL     OW17233   6.233   3.859   4.084
 5445SOL    HW117234   6.302   3.865   4.156
 5445SOL    HW217235   6.251   3.929   4.014
 5446SOL     OW17236   5.719   5.402   4.935
 5446SOL    HW117237   5.704   5.501   4.928
 5446SOL    HW217238   5.758   5.368   4.849
 5447SOL     OW17239   1.472   1.715   0.850
 5447SOL    HW117240   1.554   1.669   0.885
 5447SOL    HW217241   1.434   1.775   0.920
 5448SOL     OW17242   5.251   4.975   4.245
 5448SOL    HW117243   5.277   5.012   4.155
 5448SOL    HW217244   5.269   5.043   4.316
 5449SOL     OW17245   1.876   1.391   1.192
 5449SOL    HW117246   1.787   1.393   1.147
 5449SOL    HW217247   1.918   1.482   1.186
 5450SOL     OW17248   2.818   0.124   0.636
 5450SOL    HW117249   2.829   0.220   0.610
 5450SOL    HW217250   2.785   0.118   0.731
 5451SOL     OW17251   2.523   6.322   3.527
 5451SOL    HW117252   2.445   6.324   3.464
 5451SOL    HW217253   2.516   6.399   3.591
 5452SOL     OW17254   2.673   4.169   0.014
 5452SOL    HW117255   2.615   4.108   0.068
 5452SOL    HW217256   2.666   4.146   6.937
 5453SOL     OW17257   5.072   4.262   2.625
 5453SOL    HW117258   5.018   4.292   2.547
 5453SOL    HW217259   5.154   4.317   2.632
 5454SOL     OW17260   4.784   5.978   6.930
 5454SOL    HW117261   4.850   6.044   6.893
 5454SOL    HW217262   4.693   6.018   6.929
 5455SOL     OW17263   0.436   2.964   3.138
 5455SOL    HW117264   0.518   2.982   3.192
 5455SOL    HW217265   0.391   3.050   3.115
 5456SOL     OW17266   3.196   0.146   0.050
 5456SOL    HW117267   3.147   0.062   0.025
 5456SOL    HW217268   3.169   0.220   7.008
 5457SOL     OW17269   6.335   1.862   1.363
 5457SOL    HW117270   6.256   1.918   1.337
 5457SOL    HW217271   6.332   1.775   1.315
 5458SOL     OW17272   0.635   5.026   0.134
 5458SOL    HW117273   0.568   4.983   0.073
 5458SOL    HW217274   0.662   5.114   0.096
 5459SOL     OW17275   3.027   3.909   5.872
 5459SOL    HW117276   2.932   3.910   5.842
 5459SOL    HW217277   3.032   3.935   5.969
 5460SOL     OW17278   3.589   6.830   3.001
 5460SOL    HW117279   3.574   6.775   2.919
 5460SOL    HW217280   3.673   6.800   3.046
 5461SOL     OW17281   0.441   0.549   4.864
 5461SOL    HW117282   0.446   0.542   4.764
 5461SOL    HW217283   0.367   0.490   4.897
 5462SOL     OW17284   5.504   6.287   6.944
 5462SOL    HW117285   5.476   6.211   7.002
 5462SOL    HW217286   5.424   6.332   6.906
 5463SOL     OW17287   0.413   1.627   7.016
 5463SOL    HW117288   0.474   1.598   0.070
 5463SOL    HW217289   0.466   1.666   6.941
 5464SOL     OW17290   6.238   0.269   4.884
 5464SOL    HW117291   6.205   0.255   4.790
 5464SOL    HW217292   6.337   0.280   4.882
 5465SOL     OW17293   4.990   1.015   4.415
 5465SOL    HW117294   5.082   1.054   4.412
 5465SOL    HW217295   4.980   0.960   4.498
 5466SOL     OW17296   5.249   3.156   5.557
 5466SOL    HW117297   5.160   3.200   5.571
 5466SOL    HW217298   5.240   3.058   5.569
 5467SOL     OW17299   5.150   3.803   3.794
 5467SOL    HW117300   5.144   3.731   3.863
 5467SOL    HW217301   5.131   3.764   3.704
 5468SOL     OW17302   6.391   2.032   4.766
 5468SOL    HW117303   6.479   2.077   4.776
 5468SOL    HW217304   6.332   2.087   4.708
 5469SOL     OW17305   3.320   6.346   5.426
 5469SOL    HW117306   3.294   6.369   5.332
 5469SOL    HW217307   3.302   6.425   5.485
 5470SOL     OW17308   3.479   5.560   3.533
 5470SOL    HW117309   3.383   5.585   3.519
 5470SOL    HW217310   3.535   5.644   3.535
 5471SOL     OW17311   6.524   0.425   3.498
 5471SOL    HW117312   6.552   0.473   3.415
 5471SOL    HW217313   6.431   0.453   3.523
 5472SOL     OW17314   2.832   3.756   6.149
 5472SOL    HW117315   2.815   3.743   6.052
 5472SOL    HW217316   2.923   3.722   6.172
 5473SOL     OW17317   1.179   3.338   1.727
 5473SOL    HW117318   1.218   3.249   1.701
 5473SOL    HW217319   1.238   3.411   1.693
 5474SOL     OW17320   1.126   4.411   4.576
 5474SOL    HW117321   1.218   4.429   4.612
 5474SOL    HW217322   1.123   4.319   4.536
 5475SOL     OW17323   1.773   2.261   1.176
 5475SOL    HW117324   1.703   2.329   1.155
 5475SOL    HW217325   1.816   2.284   1.264
 5476SOL     OW17326   2.391   4.481   5.200
 5476SOL    HW117327   2.343   4.394   5.210
 5476SOL    HW217328   2.436   4.504   5.287
 5477SOL     OW17329   2.349   4.291   2.389
 5477SOL    HW117330   2.293   4.220   2.348
 5477SOL    HW217331   2.330   4.298   2.486
 5478SOL     OW17332   3.297   6.772   5.368
 5478SOL    HW117333   3.224   6.828   5.406
 5478SOL    HW217334   3.310   6.691   5.425
 5479SOL     OW17335   5.815   1.735   5.617
 5479SOL    HW117336   5.798   1.817   5.672
 5479SOL    HW217337   5.764   1.742   5.531
 5480SOL     OW17338   5.997   6.202   4.013
 5480SOL    HW117339   6.052   6.267   4.065
 5480SOL    HW217340   5.904   6.238   4.002
 5481SOL     OW17341   4.674   0.977   4.400
 5481SOL    HW117342   4.577   0.960   4.381
 5481SOL    HW217343   4.709   1.044   4.335
 5482SOL     OW17344   3.597   4.256   1.392
 5482SOL    HW117345   3.686   4.211   1.404
 5482SOL    HW217346   3.537   4.196   1.339
 5483SOL     OW17347   6.805   2.808   5.133
 5483SOL    HW117348   6.904   2.815   5.129
 5483SOL    HW217349   6.775   2.812   5.229
 5484SOL     OW17350   4.554   0.735   3.396
 5484SOL    HW117351   4.594   0.786   3.472
 5484SOL    HW217352   4.604   0.650   3.382
 5485SOL     OW17353   4.128   0.175   4.886
 5485SOL    HW117354   4.037   0.203   4.855
 5485SOL    HW217355   4.146   0.081   4.854
 5486SOL     OW17356   1.876   5.939   5.086
 5486SOL    HW117357   1.850   5.863   5.026
 5486SOL    HW217358   1.970   5.966   5.067
 5487SOL     OW17359   5.414   3.519   6.530
 5487SOL    HW117360   5.503   3.500   6.490
 5487SOL    HW217361   5.343   3.469   6.480
 5488SOL     OW17362   5.995   0.747   1.059
 5488SOL    HW117363   6.002   0.720   1.155
 5488SOL    HW217364   5.952   0.837   1.053
 5489SOL     OW17365   1.142   4.173   1.254
 5489SOL    HW117366   1.218   4.112   1.275
 5489SOL    HW217367   1.079   4.177   1.332
 5490SOL     OW17368   2.719   0.184   0.920
 5490SOL    HW117369   2.791   0.232   0.971
 5490SOL    HW217370   2.675   0.117   0.978
 5491SOL     OW17371   1.713   4.230   0.874
 5491SOL    HW117372   1.767   4.254   0.955
 5491SOL    HW217373   1.673   4.312   0.834
 5492SOL     OW17374   0.240   2.809   5.875
 5492SOL    HW117375   0.258   2.743   5.803
 5492SOL    HW217376   0.253   2.902   5.839
 5493SOL     OW17377   3.864   4.005   3.846
 5493SOL    HW117378   3.829   4.090   3.886
 5493SOL    HW217379   3.793   3.934   3.851
 5494SOL     OW17380   6.470   2.954   6.363
 5494SOL    HW117381   6.458   2.990   6.455
 5494SOL    HW217382   6.435   3.021   6.297
 5495SOL     OW17383   3.132   1.880   0.582
 5495SOL    HW117384   3.060   1.828   0.628
 5495SOL    HW217385   3.195   1.917   0.650
 5496SOL     OW17386   3.636   0.504   3.304
 5496SOL    HW117387   3.671   0.541   3.218
 5496SOL    HW217388   3.712   0.488   3.367
 5497SOL     OW17389   0.531   1.895   4.201
 5497SOL    HW117390   0.463   1.876   4.130
 5497SOL    HW217391   0.489   1.882   4.291
 5498SOL     OW17392   6.496   6.274   1.263
 5498SOL    HW117393   6.399   6.282   1.284
 5498SOL    HW217394   6.540   6.214   1.330
 5499SOL     OW17395   0.811   0.307   4.963
 5499SOL    HW117396   0.861   0.357   4.893
 5499SOL    HW217397   0.713   0.307   4.941
 5500SOL     OW17398   0.757   0.364   0.373
 5500SOL    HW117399   0.667   0.390   0.338
 5500SOL    HW217400   0.767   0.398   0.467
 5501SOL     OW17401   3.672   0.063   0.299
 5501SOL    HW117402   3.709   0.127   0.367
 5501SOL    HW217403   3.580   0.092   0.273
 5502SOL     OW17404   5.468   3.459   0.135
 5502SOL    HW117405   5.497   3.384   0.075
 5502SOL    HW217406   5.377   3.491   0.107
 5503SOL     OW17407   0.631   5.178   1.989
 5503SOL    HW117408   0.719   5.224   1.991
 5503SOL    HW217409   0.645   5.079   1.997
 5504SOL     OW17410   3.737   1.196   4.920
 5504SOL    HW117411   3.806   1.234   4.981
 5504SOL    HW217412   3.773   1.193   4.827
 5505SOL     OW17413   1.874   5.060   4.426
 5505SOL    HW117414   1.927   5.057   4.511
 5505SOL    HW217415   1.934   5.042   4.348
 5506SOL     OW17416   1.423   2.295   6.560
 5506SOL    HW117417   1.462   2.256   6.477
 5506SOL    HW217418   1.495   2.308   6.628
 5507SOL     OW17419   3.699   0.948   4.178
 5507SOL    HW117420   3.774   1.001   4.137
 5507SOL    HW217421   3.690   0.861   4.131
 5508SOL     OW17422   1.803   0.831   6.572
 5508SOL    HW117423   1.713   0.788   6.571
 5508SOL    HW217424   1.854   0.798   6.652
 5509SOL     OW17425   6.913   6.361   6.913
 5509SOL    HW117426   6.831   6.316   6.950
 5509SOL    HW217427   6.938   6.437   6.973
 5510SOL     OW17428   5.092   5.383   0.574
 5510SOL    HW117429   5.145   5.382   0.659
 5510SOL    HW217430   5.003   5.426   0.592
 5511SOL     OW17431   1.927   1.615   4.114
 5511SOL    HW117432   1.995   1.594   4.184
 5511SOL    HW217433   1.961   1.689   4.055
 5512SOL     OW17434   5.577   2.359   1.726
 5512SOL    HW117435   5.581   2.347   1.627
 5512SOL    HW217436   5.651   2.421   1.754
 5513SOL     OW17437   4.166   4.859   6.688
 5513SOL    HW117438   4.254   4.819   6.662
 5513SOL    HW217439   4.159   4.952   6.650
 5514SOL     OW17440   4.352   6.556   4.435
 5514SOL    HW117441   4.432   6.612   4.414
 5514SOL    HW217442   4.382   6.464   4.462
 5515SOL     OW17443   0.496   5.847   1.823
 5515SOL    HW117444   0.432   5.771   1.830
 5515SOL    HW217445   0.574   5.820   1.766
 5516SOL     OW17446   1.901   4.286   6.354
 5516SOL    HW117447   1.974   4.242   6.303
 5516SOL    HW217448   1.933   4.306   6.447
 5517SOL     OW17449   2.033   3.321   1.861
 5517SOL    HW117450   2.123   3.351   1.892
 5517SOL    HW217451   1.964   3.348   1.928
 5518SOL     OW17452   5.879   6.240   6.588
 5518SOL    HW117453   5.835   6.188   6.514
 5518SOL    HW217454   5.809   6.267   6.655
 5519SOL     OW17455   5.730   3.716   3.721
 5519SOL    HW117456   5.793   3.786   3.687
 5519SOL    HW217457   5.746   3.703   3.819
 5520SOL     OW17458   5.929   6.041   2.460
 5520SOL    HW117459   6.020   6.048   2.501
 5520SOL    HW217460   5.918   6.114   2.393
 5521SOL     OW17461   5.407   6.247   1.810
 5521SOL    HW117462   5.454   6.178   1.865
 5521SOL    HW217463   5.308   6.237   1.821
 5522SOL     OW17464   0.374   5.281   0.361
 5522SOL    HW117465   0.426   5.201   0.390
 5522SOL    HW217466   0.429   5.334   0.296
 5523SOL     OW17467   3.954   0.699   1.960
 5523SOL    HW117468   3.989   0.780   2.007
 5523SOL    HW217469   3.923   0.632   2.028
 5524SOL     OW17470   5.547   0.215   5.023
 5524SOL    HW117471   5.646   0.225   5.013
 5524SOL    HW217472   5.523   0.215   5.120
 5525SOL     OW17473   0.227   2.040   0.879
 5525SOL    HW117474   0.320   2.075   0.874
 5525SOL    HW217475   0.218   1.961   0.819
 5526SOL     OW17476   4.829   5.205   3.491
 5526SOL    HW117477   4.927   5.224   3.489
 5526SOL    HW217478   4.811   5.128   3.552
 5527SOL     OW17479   5.196   3.603   4.011
 5527SOL    HW117480   5.130   3.529   4.022
 5527SOL    HW217481   5.286   3.573   4.044
 5528SOL     OW17482   1.610   1.160   6.728
 5528SOL    HW117483   1.546   1.084   6.719
 5528SOL    HW217484   1.699   1.134   6.692
 5529SOL     OW17485   3.143   0.289   3.430
 5529SOL    HW117486   3.114   0.288   3.334
 5529SOL    HW217487   3.240   0.310   3.436
 5530SOL     OW17488   5.938   2.349   1.948
 5530SOL    HW117489   5.851   2.386   1.918
 5530SOL    HW217490   6.013   2.404   1.910
 5531SOL     OW17491   3.127   3.361   2.117
 5531SOL    HW117492   3.186   3.364   2.036
 5531SOL    HW217493   3.084   3.271   2.123
 5532SOL     OW17494   1.563   2.925   0.625
 5532SOL    HW117495   1.639   2.878   0.670
 5532SOL    HW217496   1.477   2.880   0.649
 5533SOL     OW17497   3.698   1.627   3.156
 5533SOL    HW117498   3.713   1.586   3.246
 5533SOL    HW217499   3.625   1.694   3.162
 5534SOL     OW17500   0.349   1.146   6.129
 5534SOL    HW117501   0.352   1.142   6.229
 5534SOL    HW217502   0.307   1.232   6.100
 5535SOL     OW17503   6.814   2.822   3.248
 5535SOL    HW117504   6.863   2.756   3.191
 5535SOL    HW217505   6.751   2.773   3.308
 5536SOL     OW17506   3.332   1.214   4.018
 5536SOL    HW117507   3.260   1.272   4.055
 5536SOL    HW217508   3.413   1.220   4.077
 5537SOL     OW17509   3.158   0.351   2.417
 5537SOL    HW117510   3.109   0.438   2.407
 5537SOL    HW217511   3.093   0.280   2.444
 5538SOL     OW17512   2.544   6.127   5.955
 5538SOL    HW117513   2.618   6.194   5.948
 5538SOL    HW217514   2.467   6.157   5.900
 5539SOL     OW17515   1.486   2.944   1.366
 5539SOL    HW117516   1.410   3.007   1.348
 5539SOL    HW217517   1.461   2.882   1.440
 5540SOL     OW17518   5.125   4.375   3.858
 5540SOL    HW117519   5.220   4.407   3.863
 5540SOL    HW217520   5.110   4.303   3.926
 5541SOL     OW17521   5.980   0.065   6.102
 5541SOL    HW117522   5.909   0.122   6.142
 5541SOL    HW217523   6.066   0.080   6.150
 5542SOL     OW17524   5.597   4.006   6.122
 5542SOL    HW117525   5.583   3.977   6.028
 5542SOL    HW217526   5.508   4.029   6.163
 5543SOL     OW17527   3.936   4.937   5.445
 5543SOL    HW117528   4.019   4.910   5.495
 5543SOL    HW217529   3.934   5.037   5.436
 5544SOL     OW17530   4.894   5.934   6.644
 5544SOL    HW117531   4.963   5.954   6.575
 5544SOL    HW217532   4.910   5.842   6.681
 5545SOL     OW17533   3.699   1.031   1.553
 5545SOL    HW117534   3.744   0.943   1.540
 5545SOL    HW217535   3.659   1.034   1.644
 5546SOL     OW17536   1.020   4.956   4.834
 5546SOL    HW117537   0.957   4.879   4.841
 5546SOL    HW217538   0.969   5.041   4.827
 5547SOL     OW17539   2.154   0.251   4.947
 5547SOL    HW117540   2.109   0.336   4.920
 5547SOL    HW217541   2.229   0.271   5.010
 5548SOL     OW17542   5.427   3.095   5.258
 5548SOL    HW117543   5.352   3.157   5.236
 5548SOL    HW217544   5.394   3.023   5.319
 5549SOL     OW17545   4.288   3.981   6.304
 5549SOL    HW117546   4.241   4.058   6.261
 5549SOL    HW217547   4.298   3.907   6.238
 5550SOL     OW17548   2.410   4.743   1.737
 5550SOL    HW117549   2.451   4.661   1.776
 5550SOL    HW217550   2.437   4.823   1.791
 5551SOL     OW17551   2.253   0.519   3.668
 5551SOL    HW117552   2.173   0.519   3.728
 5551SOL    HW217553   2.228   0.561   3.581
 5552SOL     OW17554   6.843   0.800   0.045
 5552SOL    HW117555   6.942   0.789   0.055
 5552SOL    HW217556   6.816   0.776   6.971
 5553SOL     OW17557   4.968   6.668   7.011
 5553SOL    HW117558   4.909   6.742   6.980
 5553SOL    HW217559   4.930   6.581   6.982
 5554SOL     OW17560   3.975   1.556   5.284
 5554SOL    HW117561   3.907   1.599   5.225
 5554SOL    HW217562   3.936   1.542   5.375
 5555SOL     OW17563   1.600   4.515   4.653
 5555SOL    HW117564   1.577   4.497   4.749
 5555SOL    HW217565   1.525   4.565   4.610
 5556SOL     OW17566   6.905   1.924   3.778
 5556SOL    HW117567   6.940   1.923   3.685
 5556SOL    HW217568   6.886   2.019   3.806
 5557SOL     OW17569   3.575   6.598   2.847
 5557SOL    HW117570   3.492   6.590   2.791
 5557SOL    HW217571   3.656   6.595   2.787
 5558SOL     OW17572   5.195   3.352   6.416
 5558SOL    HW117573   5.147   3.437   6.394
 5558SOL    HW217574   5.144   3.302   6.486
 5559SOL     OW17575   3.231   6.761   2.174
 5559SOL    HW117576   3.297   6.733   2.243
 5559SOL    HW217577   3.178   6.838   2.208
 5560SOL     OW17578   0.786   6.713   3.468
 5560SOL    HW117579   0.723   6.728   3.391
 5560SOL    HW217580   0.879   6.738   3.440
 5561SOL     OW17581   2.111   2.837   4.127
 5561SOL    HW117582   2.083   2.770   4.057
 5561SOL    HW217583   2.177   2.794   4.189
 5562SOL     OW17584   2.913   2.440   6.837
 5562SOL    HW117585   2.893   2.383   6.758
 5562SOL    HW217586   2.996   2.493   6.821
 5563SOL     OW17587   4.584   6.061   2.688
 5563SOL    HW117588   4.633   6.093   2.606
 5563SOL    HW217589   4.508   6.002   2.660
 5564SOL     OW17590   4.642   1.487   1.531
 5564SOL    HW117591   4.591   1.520   1.610
 5564SOL    HW217592   4.691   1.563   1.489
 5565SOL     OW17593   4.913   1.674   6.842
 5565SOL    HW117594   4.886   1.583   6.873
 5565SOL    HW217595   4.831   1.732   6.835
 5566SOL     OW17596   1.628   5.686   0.809
 5566SOL    HW117597   1.658   5.671   0.715
 5566SOL    HW217598   1.545   5.741   0.809
 5567SOL     OW17599   0.381   4.832   2.108
 5567SOL    HW117600   0.364   4.882   2.023
 5567SOL    HW217601   0.330   4.876   2.183
 5568SOL     OW17602   4.643   2.272   3.043
 5568SOL    HW117603   4.591   2.300   2.961
 5568SOL    HW217604   4.616   2.180   3.069
 5569SOL     OW17605   2.555   1.258   1.704
 5569SOL    HW117606   2.648   1.263   1.668
 5569SOL    HW217607   2.510   1.347   1.694
 5570SOL     OW17608   5.447   5.271   4.875
 5570SOL    HW117609   5.371   5.315   4.923
 5570SOL    HW217610   5.515   5.242   4.942
 5571SOL     OW17611   0.495   6.550   0.290
 5571SOL    HW117612   0.452   6.543   0.200
 5571SOL    HW217613   0.457   6.628   0.339
 5572SOL     OW17614   1.779   2.846   5.047
 5572SOL    HW117615   1.839   2.803   4.979
 5572SOL    HW217616   1.737   2.928   5.008
 5573SOL     OW17617   1.946   3.511   6.912
 5573SOL    HW117618   1.913   3.525   7.006
 5573SOL    HW217619   2.022   3.573   6.895
 5574SOL     OW17620   6.301   1.589   4.069
 5574SOL    HW117621   6.349   1.519   4.121
 5574SOL    HW217622   6.216   1.613   4.116
 5575SOL     OW17623   0.308   1.323   1.893
 5575SOL    HW117624   0.328   1.295   1.799
 5575SOL    HW217625   0.209   1.329   1.906
 5576SOL     OW17626   0.539   6.344   1.653
 5576SOL    HW117627   0.555   6.259   1.704
 5576SOL    HW217628   0.548   6.422   1.714
 5577SOL     OW17629   3.064   2.377   6.161
 5577SOL    HW117630   3.002   2.415   6.229
 5577SOL    HW217631   3.025   2.391   6.070
 5578SOL     OW17632   4.211   3.857   0.287
 5578SOL    HW117633   4.247   3.801   0.361
 5578SOL    HW217634   4.283   3.874   0.220
 5579SOL     OW17635   6.628   3.757   6.156
 5579SOL    HW117636   6.537   3.742   6.118
 5579SOL    HW217637   6.641   3.854   6.174
 5580SOL     OW17638   4.579   1.959   5.962
 5580SOL    HW117639   4.670   1.982   5.929
 5580SOL    HW217640   4.510   1.988   5.895
 5581SOL     OW17641   2.237   6.692   1.757
 5581SOL    HW117642   2.337   6.693   1.766
 5581SOL    HW217643   2.201   6.782   1.783
 5582SOL     OW17644   3.896   3.397   3.291
 5582SOL    HW117645   3.969   3.461   3.315
 5582SOL    HW217646   3.832   3.441   3.228
 5583SOL     OW17647   4.340   0.215   2.664
 5583SOL    HW117648   4.329   0.170   2.576
 5583SOL    HW217649   4.392   0.299   2.652
 5584SOL     OW17650   5.433   3.704   4.775
 5584SOL    HW117651   5.466   3.693   4.681
 5584SOL    HW217652   5.496   3.658   4.838
 5585SOL     OW17653   4.487   0.001   4.117
 5585SOL    HW117654   4.390   6.996   4.126
 5585SOL    HW217655   4.505   0.084   4.170
 5586SOL     OW17656   1.010   2.230   6.375
 5586SOL    HW117657   1.067   2.152   6.403
 5586SOL    HW217658   1.060   2.315   6.389
 5587SOL     OW17659   4.387   6.219   2.444
 5587SOL    HW117660   4.340   6.139   2.407
 5587SOL    HW217661   4.486   6.206   2.434
 5588SOL     OW17662   1.050   6.759   3.403
 5588SOL    HW117663   1.141   6.747   3.444
 5588SOL    HW217664   1.051   6.722   3.310
 5589SOL     OW17665   5.905   3.053   6.817
 5589SOL    HW117666   5.889   2.979   6.883
 5589SOL    HW217667   5.835   3.050   6.746
 5590SOL     OW17668   0.460   5.779   2.977
 5590SOL    HW117669   0.373   5.799   2.932
 5590SOL    HW217670   0.472   5.840   3.056
 5591SOL     OW17671   6.142   1.368   6.628
 5591SOL    HW117672   6.063   1.311   6.603
 5591SOL    HW217673   6.110   1.461   6.645
 5592SOL     OW17674   1.953   4.441   2.824
 5592SOL    HW117675   2.015   4.458   2.901
 5592SOL    HW217676   1.899   4.359   2.842
 5593SOL     OW17677   6.670   2.177   6.134
 5593SOL    HW117678   6.675   2.114   6.211
 5593SOL    HW217679   6.585   2.160   6.083
 5594SOL     OW17680   2.690   1.346   6.705
 5594SOL    HW117681   2.642   1.326   6.791
 5594SOL    HW217682   2.643   1.421   6.658
 5595SOL     OW17683   6.147   1.099   5.013
 5595SOL    HW117684   6.230   1.146   4.984
 5595SOL    HW217685   6.163   1.053   5.101
 5596SOL     OW17686   4.936   0.496   2.312
 5596SOL    HW117687   4.861   0.515   2.375
 5596SOL    HW217688   4.950   0.397   2.306
 5597SOL     OW17689   5.387   2.147   4.930
 5597SOL    HW117690   5.477   2.180   4.902
 5597SOL    HW217691   5.388   2.125   5.028
 5598SOL     OW17692   4.994   2.289   3.857
 5598SOL    HW117693   4.946   2.355   3.914
 5598SOL    HW217694   5.011   2.328   3.767
 5599SOL     OW17695   6.650   3.247   2.094
 5599SOL    HW117696   6.585   3.199   2.152
 5599SOL    HW217697   6.743   3.233   2.130
 5600SOL     OW17698   2.039   0.344   2.276
 5600SOL    HW117699   1.957   0.297   2.308
 5600SOL    HW217700   2.117   0.282   2.282
 5601SOL     OW17701   4.250   1.887   6.179
 5601SOL    HW117702   4.204   1.959   6.233
 5601SOL    HW217703   4.334   1.859   6.226
 5602SOL     OW17704   0.368   0.712   2.814
 5602SOL    HW117705   0.302   0.785   2.800
 5602SOL    HW217706   0.321   0.623   2.810
 5603SOL     OW17707   4.996   2.275   5.423
 5603SOL    HW117708   4.938   2.345   5.466
 5603SOL    HW217709   5.078   2.319   5.386
 5604SOL     OW17710   0.627   2.018   4.681
 5604SOL    HW117711   0.639   1.923   4.653
 5604SOL    HW217712   0.530   2.039   4.686
 5605SOL     OW17713   1.702   6.467   4.686
 5605SOL    HW117714   1.792   6.424   4.699
 5605SOL    HW217715   1.712   6.566   4.685
 5606SOL     OW17716   4.160   0.258   0.361
 5606SOL    HW117717   4.198   0.214   0.280
 5606SOL    HW217718   4.226   0.323   0.397
 5607SOL     OW17719   5.172   2.065   3.858
 5607SOL    HW117720   5.098   2.131   3.852
 5607SOL    HW217721   5.256   2.112   3.886
 5608SOL     OW17722   5.837   1.360   3.422
 5608SOL    HW117723   5.862   1.323   3.511
 5608SOL    HW217724   5.904   1.331   3.354
 5609SOL     OW17725   4.876   5.789   0.484
 5609SOL    HW117726   4.955   5.839   0.448
 5609SOL    HW217727   4.797   5.803   0.424
 5610SOL     OW17728   5.987   3.736   1.581
 5610SOL    HW117729   5.914   3.763   1.518
 5610SOL    HW217730   6.038   3.816   1.611
 5611SOL     OW17731   0.708   5.425   2.224
 5611SOL    HW117732   0.774   5.387   2.159
 5611SOL    HW217733   0.615   5.400   2.196
 5612SOL     OW17734   3.136   2.837   0.718
 5612SOL    HW117735   3.189   2.850   0.802
 5612SOL    HW217736   3.181   2.884   0.642
 5613SOL     OW17737   6.506   4.858   5.273
 5613SOL    HW117738   6.520   4.873   5.371
 5613SOL    HW217739   6.462   4.770   5.259
 5614SOL     OW17740   5.642   3.045   5.058
 5614SOL    HW117741   5.570   3.084   5.115
 5614SOL    HW217742   5.721   3.107   5.058
 5615SOL     OW17743   0.036   1.364   3.146
 5615SOL    HW117744   0.026   1.294   3.076
 5615SOL    HW217745   0.113   1.424   3.122
 5616SOL     OW17746   2.212   2.759   5.047
 5616SOL    HW117747   2.285   2.692   5.064
 5616SOL    HW217748   2.251   2.851   5.048
 5617SOL     OW17749   1.654   3.519   4.893
 5617SOL    HW117750   1.683   3.442   4.837
 5617SOL    HW217751   1.729   3.584   4.903
 5618SOL     OW17752   6.890   5.093   3.256
 5618SOL    HW117753   6.839   5.117   3.173
 5618SOL    HW217754   6.916   5.176   3.304
 5619SOL     OW17755   3.461   3.575   3.248
 5619SOL    HW117756   3.419   3.486   3.229
 5619SOL    HW217757   3.505   3.571   3.338
 5620SOL     OW17758   4.829   3.716   6.512
 5620SOL    HW117759   4.767   3.677   6.579
 5620SOL    HW217760   4.799   3.809   6.490
 5621SOL     OW17761   1.377   3.169   6.210
 5621SOL    HW117762   1.325   3.246   6.248
 5621SOL    HW217763   1.432   3.200   6.134
 5622SOL     OW17764   4.788   6.494   5.876
 5622SOL    HW117765   4.851   6.451   5.811
 5622SOL    HW217766   4.707   6.527   5.827
 5623SOL     OW17767   4.524   6.030   5.240
 5623SOL    HW117768   4.535   5.998   5.146
 5623SOL    HW217769   4.612   6.021   5.288
 5624SOL     OW17770   0.596   5.403   3.846
 5624SOL    HW117771   0.530   5.336   3.881
 5624SOL    HW217772   0.654   5.435   3.921
 5625SOL     OW17773   0.105   5.203   5.302
 5625SOL    HW117774   0.080   5.123   5.247
 5625SOL    HW217775   0.127   5.174   5.396
 5626SOL     OW17776   2.520   5.767   4.203
 5626SOL    HW117777   2.488   5.862   4.196
 5626SOL    HW217778   2.442   5.706   4.212
 5627SOL     OW17779   6.746   5.376   6.235
 5627SOL    HW117780   6.663   5.384   6.179
 5627SOL    HW217781   6.820   5.427   6.193
 5628SOL     OW17782   2.720   2.472   1.252
 5628SOL    HW117783   2.817   2.491   1.242
 5628SOL    HW217784   2.668   2.557   1.249
 5629SOL     OW17785   5.087   2.631   1.791
 5629SOL    HW117786   4.999   2.679   1.788
 5629SOL    HW217787   5.134   2.652   1.876
 5630SOL     OW17788   1.910   4.002   6.586
 5630SOL    HW117789   1.911   4.100   6.602
 5630SOL    HW217790   1.883   3.984   6.491
 5631SOL     OW17791   5.712   1.484   1.163
 5631SOL    HW117792   5.636   1.521   1.216
 5631SOL    HW217793   5.695   1.499   1.065
 5632SOL     OW17794   4.618   1.898   5.227
 5632SOL    HW117795   4.528   1.866   5.257
 5632SOL    HW217796   4.664   1.943   5.303
 5633SOL     OW17797   6.187   4.756   4.547
 5633SOL    HW117798   6.214   4.721   4.637
 5633SOL    HW217799   6.269   4.767   4.490
 5634SOL     OW17800   2.099   4.801   3.972
 5634SOL    HW117801   2.104   4.702   3.956
 5634SOL    HW217802   2.190   4.841   3.967
 5635SOL     OW17803   2.225   6.256   6.527
 5635SOL    HW117804   2.177   6.176   6.562
 5635SOL    HW217805   2.294   6.285   6.593
 5636SOL     OW17806   6.007   0.704   5.470
 5636SOL    HW117807   6.069   0.626   5.480
 5636SOL    HW217808   5.926   0.690   5.526
 5637SOL     OW17809   3.972   0.142   3.599
 5637SOL    HW117810   3.938   0.164   3.691
 5637SOL    HW217811   3.898   0.103   3.545
 5638SOL     OW17812   6.422   5.028   1.022
 5638SOL    HW117813   6.495   5.039   0.954
 5638SOL    HW217814   6.463   5.010   1.112
 5639SOL     OW17815   2.498   0.543   1.288
 5639SOL    HW117816   2.592   0.574   1.268
 5639SOL    HW217817   2.478   0.462   1.234
 5640SOL     OW17818   2.960   0.141   2.115
 5640SOL    HW117819   3.060   0.136   2.116
 5640SOL    HW217820   2.922   0.049   2.107
 5641SOL     OW17821   0.316   5.079   5.895
 5641SOL    HW117822   0.217   5.095   5.892
 5641SOL    HW217823   0.342   5.045   5.985
 5642SOL     OW17824   0.945   5.071   5.106
 5642SOL    HW117825   1.027   5.024   5.139
 5642SOL    HW217826   0.956   5.091   5.008
 5643SOL     OW17827   3.488   0.702   4.430
 5643SOL    HW117828   3.450   0.614   4.460
 5643SOL    HW217829   3.587   0.697   4.430
 5644SOL     OW17830   3.889   0.452   3.686
 5644SOL    HW117831   3.840   0.529   3.727
 5644SOL    HW217832   3.934   0.399   3.757
 5645SOL     OW17833   6.266   3.931   3.382
 5645SOL    HW117834   6.227   3.855   3.434
 5645SOL    HW217835   6.201   3.962   3.313
 5646SOL     OW17836   2.027   5.937   3.408
 5646SOL    HW117837   1.943   5.930   3.462
 5646SOL    HW217838   2.101   5.889   3.455
 5647SOL     OW17839   6.517   6.635   0.337
 5647SOL    HW117840   6.479   6.595   0.420
 5647SOL    HW217841   6.470   6.721   0.316
 5648SOL     OW17842   2.267   1.218   2.585
 5648SOL    HW117843   2.338   1.181   2.644
 5648SOL    HW217844   2.203   1.273   2.639
 5649SOL     OW17845   0.354   6.927   5.431
 5649SOL    HW117846   0.331   0.004   5.445
 5649SOL    HW217847   0.271   6.872   5.432
 5650SOL     OW17848   0.341   5.792   0.941
 5650SOL    HW117849   0.245   5.816   0.929
 5650SOL    HW217850   0.390   5.810   0.856
 5651SOL     OW17851   0.418   1.431   1.440
 5651SOL    HW117852   0.452   1.525   1.433
 5651SOL    HW217853   0.432   1.384   1.352
 5652SOL     OW17854   6.021   6.396   2.383
 5652SOL    HW117855   5.968   6.481   2.377
 5652SOL    HW217856   5.994   6.334   2.309
 5653SOL     OW17857   0.297   6.139   6.434
 5653SOL    HW117858   0.343   6.103   6.353
 5653SOL    HW217859   0.250   6.224   6.410
 5654SOL     OW17860   6.511   6.675   5.523
 5654SOL    HW117861   6.593   6.663   5.467
 5654SOL    HW217862   6.533   6.738   5.599
 5655SOL     OW17863   1.230   2.987   4.794
 5655SOL    HW117864   1.244   3.016   4.700
 5655SOL    HW217865   1.133   2.991   4.816
 5656SOL     OW17866   0.586   3.142   0.624
 5656SOL    HW117867   0.601   3.156   0.526
 5656SOL    HW217868   0.646   3.203   0.676
 5657SOL     OW17869   5.773   0.383   0.516
 5657SOL    HW117870   5.774   0.465   0.573
 5657SOL    HW217871   5.789   0.303   0.574
 5658SOL     OW17872   3.140   5.558   5.776
 5658SOL    HW117873   3.081   5.504   5.836
 5658SOL    HW217874   3.172   5.501   5.700
 5659SOL     OW17875   4.079   3.833   3.492
 5659SOL    HW117876   4.102   3.785   3.577
 5659SOL    HW217877   4.029   3.917   3.513
 5660SOL     OW17878   5.694   0.176   5.310
 5660SOL    HW117879   5.597   0.200   5.301
 5660SOL    HW217880   5.748   0.259   5.316
 5661SOL     OW17881   0.574   3.901   5.220
 5661SOL    HW117882   0.503   3.971   5.214
 5661SOL    HW217883   0.660   3.938   5.186
 5662SOL     OW17884   2.592   5.550   3.159
 5662SOL    HW117885   2.501   5.590   3.172
 5662SOL    HW217886   2.592   5.457   3.195
 5663SOL     OW17887   2.423   3.042   6.690
 5663SOL    HW117888   2.467   2.975   6.750
 5663SOL    HW217889   2.324   3.026   6.688
 5664SOL     OW17890   6.817   4.293   5.243
 5664SOL    HW117891   6.794   4.283   5.146
 5664SOL    HW217892   6.883   4.223   5.270
 5665SOL     OW17893   1.558   1.780   6.858
 5665SOL    HW117894   1.552   1.879   6.866
 5665SOL    HW217895   1.624   1.756   6.786
 5666SOL     OW17896   6.349   5.874   1.154
 5666SOL    HW117897   6.309   5.813   1.086
 5666SOL    HW217898   6.286   5.886   1.230
 5667SOL     OW17899   1.406   4.676   3.994
 5667SOL    HW117900   1.421   4.773   4.012
 5667SOL    HW217901   1.331   4.666   3.928
 5668SOL     OW17902   5.038   2.041   4.919
 5668SOL    HW117903   4.939   2.057   4.918
 5668SOL    HW217904   5.086   2.128   4.928
 5669SOL     OW17905   0.704   2.911   6.985
 5669SOL    HW117906   0.692   2.907   0.065
 5669SOL    HW217907   0.799   2.935   6.964
 5670SOL     OW17908   6.776   2.668   3.639
 5670SOL    HW117909   6.856   2.651   3.582
 5670SOL    HW217910   6.694   2.665   3.582
 5671SOL     OW17911   0.931   5.992   6.050
 5671SOL    HW117912   0.911   5.905   6.005
 5671SOL    HW217913   0.894   5.990   6.143
 5672SOL     OW17914   4.194   4.479   6.476
 5672SOL    HW117915   4.116   4.495   6.416
 5672SOL    HW217916   4.162   4.439   6.562
 5673SOL     OW17917   0.737   6.377   1.436
 5673SOL    HW117918   0.719   6.279   1.443
 5673SOL    HW217919   0.667   6.427   1.487
 5674SOL     OW17920   6.599   4.538   4.342
 5674SOL    HW117921   6.509   4.526   4.300
 5674SOL    HW217922   6.589   4.572   4.435
 5675SOL     OW17923   4.845   2.466   5.539
 5675SOL    HW117924   4.895   2.553   5.540
 5675SOL    HW217925   4.750   2.482   5.567
 5676SOL     OW17926   2.218   2.439   2.246
 5676SOL    HW117927   2.133   2.385   2.241
 5676SOL    HW217928   2.211   2.505   2.320
 5677SOL     OW17929   0.716   2.315   3.003
 5677SOL    HW117930   0.645   2.258   3.044
 5677SOL    HW217931   0.728   2.398   3.057
 5678SOL     OW17932   3.689   6.283   2.952
 5678SOL    HW117933   3.613   6.219   2.963
 5678SOL    HW217934   3.681   6.328   2.863
 5679SOL     OW17935   1.358   0.964   4.069
 5679SOL    HW117936   1.433   0.973   4.134
 5679SOL    HW217937   1.281   0.918   4.113
 5680SOL     OW17938   1.413   5.806   0.546
 5680SOL    HW117939   1.426   5.797   0.447
 5680SOL    HW217940   1.491   5.854   0.585
 5681SOL     OW17941   0.412   3.766   6.772
 5681SOL    HW117942   0.449   3.839   6.829
 5681SOL    HW217943   0.393   3.686   6.829
 5682SOL     OW17944   2.112   4.296   5.949
 5682SOL    HW117945   2.156   4.347   5.875
 5682SOL    HW217946   2.155   4.206   5.957
 5683SOL     OW17947   3.523   0.866   0.143
 5683SOL    HW117948   3.479   0.785   0.181
 5683SOL    HW217949   3.598   0.839   0.083
 5684SOL     OW17950   3.400   2.869   4.829
 5684SOL    HW117951   3.367   2.778   4.802
 5684SOL    HW217952   3.396   2.877   4.929
 5685SOL     OW17953   1.893   3.213   2.663
 5685SOL    HW117954   1.898   3.147   2.589
 5685SOL    HW217955   1.819   3.278   2.646
 5686SOL     OW17956   2.812   6.656   6.191
 5686SOL    HW117957   2.730   6.713   6.197
 5686SOL    HW217958   2.787   6.563   6.163
 5687SOL     OW17959   0.882   4.801   5.718
 5687SOL    HW117960   0.950   4.872   5.704
 5687SOL    HW217961   0.854   4.764   5.630
 5688SOL     OW17962   6.626   1.700   0.109
 5688SOL    HW117963   6.574   1.728   0.028
 5688SOL    HW217964   6.652   1.604   0.099
 5689SOL     OW17965   4.006   0.369   0.650
 5689SOL    HW117966   4.033   0.449   0.703
 5689SOL    HW217967   4.068   0.356   0.573
 5690SOL     OW17968   2.467   5.974   0.759
 5690SOL    HW117969   2.378   6.019   0.763
 5690SOL    HW217970   2.474   5.923   0.674
 5691SOL     OW17971   2.724   6.309   2.041
 5691SOL    HW117972   2.783   6.385   2.069
 5691SOL    HW217973   2.756   6.225   2.085
 5692SOL     OW17974   6.940   3.368   6.176
 5692SOL    HW117975   0.012   3.389   6.211
 5692SOL    HW217976   6.881   3.339   6.251
 5693SOL     OW17977   5.784   2.507   2.404
 5693SOL    HW117978   5.702   2.557   2.375
 5693SOL    HW217979   5.849   2.503   2.328
 5694SOL     OW17980   1.261   2.458   3.651
 5694SOL    HW117981   1.170   2.485   3.682
 5694SOL    HW217982   1.261   2.362   3.624
 5695SOL     OW17983   1.693   2.688   3.340
 5695SOL    HW117984   1.790   2.703   3.321
 5695SOL    HW217985   1.678   2.592   3.365
 5696SOL     OW17986   1.647   0.682   3.191
 5696SOL    HW117987   1.547   0.686   3.190
 5696SOL    HW217988   1.684   0.774   3.199
 5697SOL     OW17989   6.217   2.676   1.659
 5697SOL    HW117990   6.184   2.752   1.604
 5697SOL    HW217991   6.288   2.626   1.608
 5698SOL     OW17992   0.673   3.255   2.914
 5698SOL    HW117993   0.617   3.304   2.847
 5698SOL    HW217994   0.761   3.303   2.925
 5699SOL     OW17995   6.585   2.475   2.669
 5699SOL    HW117996   6.547   2.436   2.586
 5699SOL    HW217997   6.613   2.402   2.731
 5700SOL     OW17998   6.995   6.852   4.128
 5700SOL    HW117999   6.953   6.836   4.217
 5700SOL    HW218000   6.982   6.771   4.071
 5701SOL     OW18001   1.327   6.721   3.078
 5701SOL    HW118002   1.373   6.809   3.065
 5701SOL    HW218003   1.237   6.736   3.119
 5702SOL     OW18004   2.089   6.549   5.555
 5702SOL    HW118005   2.159   6.603   5.508
 5702SOL    HW218006   2.007   6.605   5.570
 5703SOL     OW18007   5.848   4.539   1.784
 5703SOL    HW118008   5.916   4.611   1.771
 5703SOL    HW218009   5.757   4.575   1.762
 5704SOL     OW18010   3.972   5.616   2.190
 5704SOL    HW118011   3.899   5.649   2.249
 5704SOL    HW218012   4.058   5.613   2.241
 5705SOL     OW18013   4.798   1.176   1.167
 5705SOL    HW118014   4.750   1.235   1.232
 5705SOL    HW218015   4.859   1.115   1.216
 5706SOL     OW18016   0.584   2.681   0.117
 5706SOL    HW118017   0.584   2.713   0.211
 5706SOL    HW218018   0.518   2.735   0.063
 5707SOL     OW18019   6.981   6.855   0.255
 5707SOL    HW118020   6.881   6.852   0.247
 5707SOL    HW218021   7.007   6.832   0.349
 5708SOL     OW18022   5.227   6.069   1.344
 5708SOL    HW118023   5.281   6.017   1.410
 5708SOL    HW218024   5.165   6.130   1.393
 5709SOL     OW18025   1.714   0.405   3.325
 5709SOL    HW118026   1.785   0.367   3.265
 5709SOL    HW218027   1.676   0.488   3.285
 5710SOL     OW18028   2.484   2.831   6.392
 5710SOL    HW118029   2.412   2.900   6.395
 5710SOL    HW218030   2.466   2.761   6.461
 5711SOL     OW18031   5.343   1.208   2.685
 5711SOL    HW118032   5.360   1.129   2.626
 5711SOL    HW218033   5.413   1.277   2.669
 5712SOL     OW18034   0.946   5.711   5.955
 5712SOL    HW118035   0.991   5.664   6.031
 5712SOL    HW218036   1.013   5.732   5.884
 5713SOL     OW18037   2.181   2.687   1.625
 5713SOL    HW118038   2.203   2.784   1.610
 5713SOL    HW218039   2.082   2.675   1.622
 5714SOL     OW18040   0.527   5.534   6.227
 5714SOL    HW118041   0.587   5.585   6.164
 5714SOL    HW218042   0.565   5.539   6.319
 5715SOL     OW18043   0.986   6.409   2.968
 5715SOL    HW118044   0.994   6.472   2.891
 5715SOL    HW218045   1.069   6.416   3.025
 5716SOL     OW18046   1.569   4.623   0.046
 5716SOL    HW118047   1.526   4.677   0.118
 5716SOL    HW218048   1.667   4.641   0.045
 5717SOL     OW18049   1.792   6.117   0.837
 5717SOL    HW118050   1.843   6.097   0.921
 5717SOL    HW218051   1.727   6.191   0.854
 5718SOL     OW18052   1.194   3.637   6.013
 5718SOL    HW118053   1.250   3.575   5.959
 5718SOL    HW218054   1.190   3.604   6.108
 5719SOL     OW18055   2.577   1.292   6.204
 5719SOL    HW118056   2.583   1.343   6.118
 5719SOL    HW218057   2.553   1.197   6.185
 5720SOL     OW18058   1.121   5.253   4.432
 5720SOL    HW118059   1.184   5.327   4.408
 5720SOL    HW218060   1.166   5.191   4.496
 5721SOL     OW18061   0.301   3.918   0.797
 5721SOL    HW118062   0.220   3.974   0.780
 5721SOL    HW218063   0.346   3.898   0.710
 5722SOL     OW18064   6.187   1.664   5.371
 5722SOL    HW118065   6.145   1.754   5.364
 5722SOL    HW218066   6.120   1.597   5.402
 5723SOL     OW18067   4.503   3.374   6.474
 5723SOL    HW118068   4.555   3.373   6.389
 5723SOL    HW218069   4.409   3.404   6.455
 5724SOL     OW18070   4.214   2.660   5.377
 5724SOL    HW118071   4.170   2.631   5.462
 5724SOL    HW218072   4.179   2.605   5.301
 5725SOL     OW18073   6.121   5.961   4.062
 5725SOL    HW118074   6.089   6.040   4.011
 5725SOL    HW218075   6.221   5.966   4.073
 5726SOL     OW18076   6.803   4.230   4.549
 5726SOL    HW118077   6.718   4.218   4.599
 5726SOL    HW218078   6.784   4.229   4.450
 5727SOL     OW18079   1.026   2.698   3.938
 5727SOL    HW118080   1.016   2.625   3.871
 5727SOL    HW218081   0.988   2.783   3.902
 5728SOL     OW18082   4.149   1.861   6.661
 5728SOL    HW118083   4.106   1.857   6.751
 5728SOL    HW218084   4.232   1.917   6.666
 5729SOL     OW18085   0.960   1.395   0.539
 5729SOL    HW118086   1.044   1.433   0.501
 5729SOL    HW218087   0.983   1.333   0.615
 5730SOL     OW18088   4.371   5.289   5.568
 5730SOL    HW118089   4.305   5.318   5.499
 5730SOL    HW218090   4.463   5.314   5.539
 5731SOL     OW18091   1.383   6.933   3.338
 5731SOL    HW118092   1.401   7.012   3.397
 5731SOL    HW218093   1.353   6.856   3.394
 5732SOL     OW18094   6.843   5.269   5.451
 5732SOL    HW118095   6.825   5.364   5.423
 5732SOL    HW218096   6.792   5.207   5.393
 5733SOL     OW18097   3.897   0.573   5.570
 5733SOL    HW118098   3.976   0.630   5.590
 5733SOL    HW218099   3.815   0.616   5.608
 5734SOL     OW18100   1.363   5.877   5.918
 5734SOL    HW118101   1.371   5.864   6.017
 5734SOL    HW218102   1.420   5.954   5.890
 5735SOL     OW18103   3.940   1.855   2.405
 5735SOL    HW118104   3.854   1.822   2.365
 5735SOL    HW218105   3.922   1.895   2.495
 5736SOL     OW18106   6.489   4.406   1.154
 5736SOL    HW118107   6.417   4.476   1.154
 5736SOL    HW218108   6.470   4.340   1.226
 5737SOL     OW18109   4.602   5.611   6.475
 5737SOL    HW118110   4.588   5.545   6.401
 5737SOL    HW218111   4.570   5.572   6.561
 5738SOL     OW18112   3.101   2.253   6.435
 5738SOL    HW118113   3.182   2.272   6.490
 5738SOL    HW218114   3.113   2.290   6.343
 5739SOL     OW18115   0.994   6.892   5.350
 5739SOL    HW118116   1.063   6.878   5.421
 5739SOL    HW218117   1.015   6.976   5.299
 5740SOL     OW18118   3.880   3.694   0.858
 5740SOL    HW118119   3.884   3.742   0.770
 5740SOL    HW218120   3.804   3.629   0.858
 5741SOL     OW18121   6.253   4.099   4.727
 5741SOL    HW118122   6.351   4.094   4.709
 5741SOL    HW218123   6.230   4.040   4.804
 5742SOL     OW18124   4.754   6.497   2.429
 5742SOL    HW118125   4.760   6.570   2.497
 5742SOL    HW218126   4.659   6.479   2.407
 5743SOL     OW18127   2.453   5.433   5.538
 5743SOL    HW118128   2.528   5.407   5.477
 5743SOL    HW218129   2.482   5.509   5.596
 5744SOL     OW18130   4.882   1.302   0.794
 5744SOL    HW118131   4.899   1.211   0.755
 5744SOL    HW218132   4.968   1.340   0.829
 5745SOL     OW18133   2.164   1.309   3.744
 5745SOL    HW118134   2.144   1.213   3.761
 5745SOL    HW218135   2.090   1.366   3.780
 5746SOL     OW18136   5.166   6.825   1.456
 5746SOL    HW118137   5.204   6.906   1.501
 5746SOL    HW218138   5.167   6.748   1.519
 5747SOL     OW18139   0.538   5.079   2.279
 5747SOL    HW118140   0.555   5.126   2.192
 5747SOL    HW218141   0.508   5.145   2.347
 5748SOL     OW18142   1.177   0.250   0.777
 5748SOL    HW118143   1.124   0.180   0.826
 5748SOL    HW218144   1.154   0.247   0.680
 5749SOL     OW18145   1.347   6.258   4.819
 5749SOL    HW118146   1.405   6.191   4.865
 5749SOL    HW218147   1.375   6.267   4.724
 5750SOL     OW18148   6.545   6.101   5.007
 5750SOL    HW118149   6.469   6.091   5.071
 5750SOL    HW218150   6.511   6.100   4.913
 5751SOL     OW18151   2.230   2.977   4.767
 5751SOL    HW118152   2.279   2.982   4.854
 5751SOL    HW218153   2.267   2.902   4.712
 5752SOL     OW18154   6.459   0.192   0.603
 5752SOL    HW118155   6.530   0.189   0.673
 5752SOL    HW218156   6.470   0.275   0.548
 5753SOL     OW18157   3.791   3.340   4.193
 5753SOL    HW118158   3.881   3.307   4.223
 5753SOL    HW218159   3.797   3.371   4.099
 5754SOL     OW18160   0.433   4.975   1.700
 5754SOL    HW118161   0.501   4.984   1.772
 5754SOL    HW218162   0.468   5.016   1.616
 5755SOL     OW18163   2.285   2.453   6.498
 5755SOL    HW118164   2.254   2.376   6.553
 5755SOL    HW218165   2.206   2.494   6.451
 5756SOL     OW18166   6.174   0.356   3.361
 5756SOL    HW118167   6.238   0.279   3.358
 5756SOL    HW218168   6.105   0.339   3.432
 5757SOL     OW18169   0.404   6.362   3.314
 5757SOL    HW118170   0.316   6.369   3.359
 5757SOL    HW218171   0.421   6.444   3.259
 5758SOL     OW18172   2.402   0.887   4.934
 5758SOL    HW118173   2.498   0.908   4.920
 5758SOL    HW218174   2.360   0.863   4.846
 5759SOL     OW18175   4.800   1.116   6.711
 5759SOL    HW118176   4.894   1.093   6.735
 5759SOL    HW218177   4.747   1.033   6.700
 5760SOL     OW18178   6.548   3.554   1.040
 5760SOL    HW118179   6.586   3.477   1.091
 5760SOL    HW218180   6.473   3.596   1.091
 5761SOL     OW18181   5.882   5.498   6.647
 5761SOL    HW118182   5.790   5.533   6.628
 5761SOL    HW218183   5.884   5.456   6.737
 5762SOL     OW18184   4.916   4.017   0.435
 5762SOL    HW118185   4.991   4.070   0.394
 5762SOL    HW218186   4.932   3.919   0.419
 5763SOL     OW18187   6.346   6.405   0.631
 5763SOL    HW118188   6.288   6.464   0.574
 5763SOL    HW218189   6.324   6.420   0.727
 5764SOL     OW18190   5.290   5.183   5.512
 5764SOL    HW118191   5.329   5.276   5.512
 5764SOL    HW218192   5.238   5.169   5.596
 5765SOL     OW18193   6.428   2.433   0.296
 5765SOL    HW118194   6.468   2.430   0.205
 5765SOL    HW218195   6.476   2.501   0.351
 5766SOL     OW18196   2.007   1.781   6.927
 5766SOL    HW118197   2.097   1.770   6.885
 5766SOL    HW218198   1.994   1.876   6.955
 5767SOL     OW18199   1.132   1.108   0.411
 5767SOL    HW118200   1.134   1.162   0.495
 5767SOL    HW218201   1.162   1.165   0.334
 5768SOL     OW18202   1.595   6.212   3.812
 5768SOL    HW118203   1.575   6.307   3.838
 5768SOL    HW218204   1.676   6.210   3.753
 5769SOL     OW18205   2.870   6.150   4.671
 5769SOL    HW118206   2.827   6.138   4.760
 5769SOL    HW218207   2.929   6.072   4.652
 5770SOL     OW18208   6.212   6.031   0.291
 5770SOL    HW118209   6.148   6.104   0.315
 5770SOL    HW218210   6.212   6.018   0.191
 5771SOL     OW18211   1.358   0.119   3.926
 5771SOL    HW118212   1.294   0.101   3.851
 5771SOL    HW218213   1.451   0.093   3.897
 5772SOL     OW18214   5.449   1.985   1.536
 5772SOL    HW118215   5.511   1.917   1.498
 5772SOL    HW218216   5.391   2.021   1.463
 5773SOL     OW18217   4.061   0.519   2.915
 5773SOL    HW118218   4.045   0.465   2.998
 5773SOL    HW218219   4.080   0.614   2.940
 5774SOL     OW18220   2.431   6.068   3.564
 5774SOL    HW118221   2.390   6.053   3.474
 5774SOL    HW218222   2.491   6.148   3.560
 5775SOL     OW18223   1.771   0.886   2.343
 5775SOL    HW118224   1.774   0.870   2.441
 5775SOL    HW218225   1.691   0.840   2.304
 5776SOL     OW18226   0.136   0.617   4.490
 5776SOL    HW118227   0.133   0.713   4.516
 5776SOL    HW218228   0.051   0.592   4.444
 5777SOL     OW18229   6.605   0.053   5.053
 5777SOL    HW118230   6.689   0.051   4.998
 5777SOL    HW218231   6.627   0.078   5.147
 5778SOL     OW18232   1.886   0.831   1.493
 5778SOL    HW118233   1.833   0.879   1.424
 5778SOL    HW218234   1.831   0.820   1.576
 5779SOL     OW18235   4.320   3.183   0.996
 5779SOL    HW118236   4.345   3.277   0.974
 5779SOL    HW218237   4.259   3.182   1.076
 5780SOL     OW18238   6.005   5.856   3.685
 5780SOL    HW118239   5.907   5.874   3.677
 5780SOL    HW218240   6.020   5.781   3.749
 5781SOL     OW18241   0.076   4.342   4.563
 5781SOL    HW118242   7.010   4.297   4.533
 5781SOL    HW218243   0.149   4.320   4.498
 5782SOL     OW18244   1.121   1.643   0.431
 5782SOL    HW118245   1.072   1.710   0.374
 5782SOL    HW218246   1.219   1.661   0.427
 5783SOL     OW18247   2.237   0.372   1.542
 5783SOL    HW118248   2.202   0.375   1.636
 5783SOL    HW218249   2.263   0.465   1.514
 5784SOL     OW18250   6.854   5.802   0.094
 5784SOL    HW118251   6.879   5.875   0.030
 5784SOL    HW218252   6.758   5.778   0.081
 5785SOL     OW18253   1.863   1.980   0.804
 5785SOL    HW118254   1.935   1.962   0.737
 5785SOL    HW218255   1.780   2.011   0.756
 5786SOL     OW18256   0.610   4.078   0.698
 5786SOL    HW118257   0.592   4.176   0.695
 5786SOL    HW218258   0.614   4.047   0.793
 5787SOL     OW18259   3.891   1.327   5.116
 5787SOL    HW118260   3.913   1.425   5.109
 5787SOL    HW218261   3.943   1.287   5.191
 5788SOL     OW18262   3.050   1.768   1.491
 5788SOL    HW118263   3.063   1.742   1.396
 5788SOL    HW218264   3.137   1.795   1.531
 5789SOL     OW18265   2.773   4.240   0.398
 5789SOL    HW118266   2.809   4.156   0.439
 5789SOL    HW218267   2.809   4.249   0.305
 5790SOL     OW18268   0.329   4.409   4.877
 5790SOL    HW118269   0.302   4.472   4.950
 5790SOL    HW218270   0.257   4.341   4.863
 5791SOL     OW18271   3.253   1.515   2.583
 5791SOL    HW118272   3.319   1.584   2.554
 5791SOL    HW218273   3.174   1.559   2.625
 5792SOL     OW18274   5.986   3.012   2.499
 5792SOL    HW118275   5.979   3.079   2.425
 5792SOL    HW218276   6.045   2.937   2.471
 5793SOL     OW18277   5.198   0.995   3.734
 5793SOL    HW118278   5.128   1.060   3.764
 5793SOL    HW218279   5.285   1.020   3.776
 5794SOL     OW18280   2.045   0.925   0.280
 5794SOL    HW118281   2.132   0.972   0.292
 5794SOL    HW218282   2.060   0.826   0.284
 5795SOL     OW18283   6.504   0.227   6.500
 5795SOL    HW118284   6.484   0.216   6.403
 5795SOL    HW218285   6.439   0.173   6.554
 5796SOL     OW18286   4.830   1.043   5.875
 5796SOL    HW118287   4.914   1.045   5.929
 5796SOL    HW218288   4.754   1.010   5.931
 5797SOL     OW18289   4.766   2.239   0.167
 5797SOL    HW118290   4.825   2.215   0.090
 5797SOL    HW218291   4.714   2.322   0.145
 5798SOL     OW18292   0.399   5.479   4.459
 5798SOL    HW118293   0.370   5.517   4.547
 5798SOL    HW218294   0.402   5.380   4.465
 5799SOL     OW18295   0.458   0.822   3.239
 5799SOL    HW118296   0.524   0.895   3.250
 5799SOL    HW218297   0.407   0.811   3.325
 5800SOL     OW18298   6.170   6.375   1.770
 5800SOL    HW118299   6.182   6.306   1.699
 5800SOL    HW218300   6.074   6.403   1.774
 5801SOL     OW18301   1.943   2.830   3.367
 5801SOL    HW118302   1.902   2.851   3.455
 5801SOL    HW218303   1.943   2.912   3.309
 5802SOL     OW18304   0.092   3.582   2.678
 5802SOL    HW118305   0.088   3.658   2.743
 5802SOL    HW218306   0.179   3.584   2.629
 5803SOL     OW18307   1.919   5.365   1.785
 5803SOL    HW118308   1.989   5.321   1.729
 5803SOL    HW218309   1.885   5.447   1.738
 5804SOL     OW18310   0.133   5.123   3.187
 5804SOL    HW118311   0.181   5.046   3.146
 5804SOL    HW218312   0.036   5.101   3.196
 5805SOL     OW18313   2.142   3.466   0.610
 5805SOL    HW118314   2.125   3.545   0.669
 5805SOL    HW218315   2.201   3.494   0.534
 5806SOL     OW18316   6.725   5.213   4.937
 5806SOL    HW118317   6.774   5.276   4.997
 5806SOL    HW218318   6.650   5.171   4.987
 5807SOL     OW18319   0.970   4.168   0.756
 5807SOL    HW118320   0.925   4.249   0.794
 5807SOL    HW218321   0.906   4.091   0.757
 5808SOL     OW18322   6.335   5.094   4.089
 5808SOL    HW118323   6.356   5.095   3.992
 5808SOL    HW218324   6.327   5.187   4.124
 5809SOL     OW18325   6.606   2.210   4.825
 5809SOL    HW118326   6.654   2.125   4.848
 5809SOL    HW218327   6.580   2.258   4.909
 5810SOL     OW18328   4.681   1.477   5.234
 5810SOL    HW118329   4.595   1.475   5.285
 5810SOL    HW218330   4.727   1.389   5.245
 5811SOL     OW18331   3.226   0.511   5.060
 5811SOL    HW118332   3.318   0.520   5.022
 5811SOL    HW218333   3.202   0.595   5.110
 5812SOL     OW18334   5.857   3.180   4.986
 5812SOL    HW118335   5.841   3.197   4.889
 5812SOL    HW218336   5.941   3.126   4.996
 5813SOL     OW18337   1.598   1.688   1.626
 5813SOL    HW118338   1.683   1.730   1.596
 5813SOL    HW218339   1.611   1.589   1.638
 5814SOL     OW18340   6.295   3.789   2.255
 5814SOL    HW118341   6.389   3.780   2.289
 5814SOL    HW218342   6.291   3.760   2.159
 5815SOL     OW18343   3.993   1.557   4.365
 5815SOL    HW118344   3.995   1.588   4.460
 5815SOL    HW218345   3.903   1.575   4.326
 5816SOL     OW18346   4.987   4.623   0.389
 5816SOL    HW118347   4.928   4.544   0.372
 5816SOL    HW218348   4.955   4.701   0.335
 5817SOL     OW18349   6.000   4.357   5.640
 5817SOL    HW118350   6.006   4.431   5.707
 5817SOL    HW218351   6.089   4.310   5.634
 5818SOL     OW18352   6.733   5.463   5.265
 5818SOL    HW118353   6.815   5.469   5.208
 5818SOL    HW218354   6.658   5.512   5.221
 5819SOL     OW18355   3.742   0.219   6.814
 5819SOL    HW118356   3.650   0.258   6.806
 5819SOL    HW218357   3.784   0.253   6.898
 5820SOL     OW18358   4.563   4.510   3.329
 5820SOL    HW118359   4.495   4.511   3.402
 5820SOL    HW218360   4.652   4.536   3.366
 5821SOL     OW18361   6.988   0.434   2.342
 5821SOL    HW118362   0.027   0.416   2.422
 5821SOL    HW218363   0.002   0.516   2.295
 5822SOL     OW18364   1.398   2.685   1.452
 5822SOL    HW118365   1.352   2.683   1.364
 5822SOL    HW218366   1.399   2.592   1.491
 5823SOL     OW18367   2.568   0.371   4.668
 5823SOL    HW118368   2.538   0.455   4.713
 5823SOL    HW218369   2.570   0.296   4.734
 5824SOL     OW18370   6.946   5.647   2.386
 5824SOL    HW118371   7.013   5.574   2.402
 5824SOL    HW218372   6.901   5.671   2.472
 5825SOL     OW18373   6.880   0.692   5.126
 5825SOL    HW118374   6.881   0.787   5.096
 5825SOL    HW218375   6.894   0.632   5.048
 5826SOL     OW18376   0.513   5.111   5.681
 5826SOL    HW118377   0.511   5.202   5.642
 5826SOL    HW218378   0.432   5.097   5.739
 5827SOL     OW18379   1.806   4.155   5.087
 5827SOL    HW118380   1.877   4.140   5.018
 5827SOL    HW218381   1.847   4.154   5.178
 5828SOL     OW18382   6.047   1.898   1.811
 5828SOL    HW118383   6.051   1.859   1.719
 5828SOL    HW218384   6.069   1.996   1.806
 5829SOL     OW18385   1.141   0.470   3.942
 5829SOL    HW118386   1.086   0.553   3.931
 5829SOL    HW218387   1.082   0.390   3.930
 5830SOL     OW18388   5.259   6.564   5.893
 5830SOL    HW118389   5.278   6.557   5.991
 5830SOL    HW218390   5.287   6.654   5.860
 5831SOL     OW18391   1.232   1.076   5.437
 5831SOL    HW118392   1.239   1.101   5.534
 5831SOL    HW218393   1.157   1.011   5.425
 5832SOL     OW18394   3.111   4.836   6.810
 5832SOL    HW118395   3.015   4.810   6.808
 5832SOL    HW218396   3.149   4.831   6.718
 5833SOL     OW18397   3.612   4.305   5.124
 5833SOL    HW118398   3.551   4.376   5.161
 5833SOL    HW218399   3.581   4.216   5.156
 5834SOL     OW18400   0.262   2.207   0.094
 5834SOL    HW118401   0.230   2.294   0.057
 5834SOL    HW218402   0.312   2.157   0.023
 5835SOL     OW18403   5.382   2.955   3.134
 5835SOL    HW118404   5.375   2.962   3.034
 5835SOL    HW218405   5.345   3.038   3.176
 5836SOL     OW18406   2.685   0.079   1.863
 5836SOL    HW118407   2.681   0.016   1.785
 5836SOL    HW218408   2.719   0.030   1.943
 5837SOL     OW18409   3.435   3.937   0.195
 5837SOL    HW118410   3.388   4.019   0.227
 5837SOL    HW218411   3.435   3.936   0.095
 5838SOL     OW18412   2.467   1.918   0.738
 5838SOL    HW118413   2.504   1.859   0.810
 5838SOL    HW218414   2.538   1.980   0.706
 5839SOL     OW18415   0.887   1.911   2.563
 5839SOL    HW118416   0.949   1.867   2.497
 5839SOL    HW218417   0.821   1.968   2.513
 5840SOL     OW18418   1.298   4.969   6.315
 5840SOL    HW118419   1.370   4.901   6.323
 5840SOL    HW218420   1.252   4.959   6.226
 5841SOL     OW18421   5.206   1.985   2.299
 5841SOL    HW118422   5.212   2.017   2.393
 5841SOL    HW218423   5.275   2.031   2.243
 5842SOL     OW18424   5.067   3.335   1.573
 5842SOL    HW118425   5.037   3.249   1.614
 5842SOL    HW218426   5.058   3.331   1.474
 5843SOL     OW18427   1.426   4.006   2.647
 5843SOL    HW118428   1.507   3.981   2.594
 5843SOL    HW218429   1.398   3.929   2.703
 5844SOL     OW18430   1.718   5.824   5.953
 5844SOL    HW118431   1.759   5.906   5.914
 5844SOL    HW218432   1.646   5.851   6.017
 5845SOL     OW18433   0.412   0.298   2.472
 5845SOL    HW118434   0.468   0.221   2.502
 5845SOL    HW218435   0.452   0.340   2.391
 5846SOL     OW18436   5.877   3.208   5.602
 5846SOL    HW118437   5.785   3.169   5.592
 5846SOL    HW218438   5.874   3.281   5.670
 5847SOL     OW18439   3.072   2.079   1.945
 5847SOL    HW118440   2.974   2.094   1.963
 5847SOL    HW218441   3.105   2.147   1.880
 5848SOL     OW18442   1.368   5.697   2.689
 5848SOL    HW118443   1.464   5.725   2.677
 5848SOL    HW218444   1.325   5.688   2.599
 5849SOL     OW18445   1.014   0.478   5.520
 5849SOL    HW118446   0.993   0.381   5.531
 5849SOL    HW218447   1.032   0.518   5.610
 5850SOL     OW18448   6.656   3.539   1.788
 5850SOL    HW118449   6.753   3.561   1.796
 5850SOL    HW218450   6.617   3.526   1.879
 5851SOL     OW18451   5.079   3.326   2.887
 5851SOL    HW118452   5.165   3.328   2.938
 5851SOL    HW218453   5.071   3.239   2.838
 5852SOL     OW18454   5.451   6.658   3.417
 5852SOL    HW118455   5.510   6.583   3.387
 5852SOL    HW218456   5.508   6.737   3.442
 5853SOL     OW18457   3.326   5.837   4.505
 5853SOL    HW118458   3.418   5.824   4.543
 5853SOL    HW218459   3.273   5.753   4.516
 5854SOL     OW18460   4.210   4.222   6.167
 5854SOL    HW118461   4.119   4.227   6.209
 5854SOL    HW218462   4.248   4.313   6.160
 5855SOL     OW18463   0.666   1.270   4.770
 5855SOL    HW118464   0.722   1.202   4.723
 5855SOL    HW218465   0.703   1.361   4.753
 5856SOL     OW18466   1.855   5.874   4.000
 5856SOL    HW118467   1.832   5.832   3.912
 5856SOL    HW218468   1.784   5.940   4.025
 5857SOL     OW18469   5.841   2.442   6.184
 5857SOL    HW118470   5.889   2.463   6.100
 5857SOL    HW218471   5.746   2.472   6.177
 5858SOL     OW18472   2.709   2.184   3.146
 5858SOL    HW118473   2.636   2.225   3.092
 5858SOL    HW218474   2.717   2.087   3.122
 5859SOL     OW18475   6.109   6.266   2.083
 5859SOL    HW118476   6.204   6.264   2.113
 5859SOL    HW218477   6.089   6.354   2.040
 5860SOL     OW18478   0.465   3.499   2.316
 5860SOL    HW118479   0.432   3.584   2.357
 5860SOL    HW218480   0.388   3.449   2.276
 5861SOL     OW18481   4.558   1.503   4.396
 5861SOL    HW118482   4.475   1.510   4.341
 5861SOL    HW218483   4.638   1.496   4.336
 5862SOL     OW18484   6.095   5.621   1.213
 5862SOL    HW118485   6.079   5.719   1.200
 5862SOL    HW218486   6.044   5.589   1.293
 5863SOL     OW18487   3.184   2.040   5.191
 5863SOL    HW118488   3.283   2.052   5.198
 5863SOL    HW218489   3.140   2.129   5.179
 5864SOL     OW18490   4.102   3.717   2.160
 5864SOL    HW118491   4.087   3.749   2.253
 5864SOL    HW218492   4.172   3.774   2.116
 5865SOL     OW18493   5.994   6.998   5.095
 5865SOL    HW118494   5.990   6.986   5.194
 5865SOL    HW218495   6.009   0.075   5.074
 5866SOL     OW18496   4.149   4.350   0.473
 5866SOL    HW118497   4.176   4.261   0.509
 5866SOL    HW218498   4.097   4.338   0.389
 5867SOL     OW18499   2.062   3.572   1.146
 5867SOL    HW118500   2.029   3.575   1.241
 5867SOL    HW218501   1.983   3.574   1.084
 5868SOL     OW18502   0.764   1.431   5.373
 5868SOL    HW118503   0.696   1.458   5.304
 5868SOL    HW218504   0.779   1.507   5.436
 5869SOL     OW18505   1.967   6.594   3.444
 5869SOL    HW118506   1.907   6.668   3.476
 5869SOL    HW218507   1.964   6.590   3.344
 5870SOL     OW18508   4.329   6.398   4.750
 5870SOL    HW118509   4.272   6.349   4.684
 5870SOL    HW218510   4.334   6.346   4.835
 5871SOL     OW18511   3.278   3.255   1.345
 5871SOL    HW118512   3.244   3.182   1.285
 5871SOL    HW218513   3.378   3.257   1.340
 5872SOL     OW18514   4.484   6.148   1.157
 5872SOL    HW118515   4.501   6.049   1.157
 5872SOL    HW218516   4.482   6.182   1.251
 5873SOL     OW18517   3.592   1.568   1.898
 5873SOL    HW118518   3.578   1.575   1.996
 5873SOL    HW218519   3.543   1.642   1.851
 5874SOL     OW18520   3.380   4.442   6.388
 5874SOL    HW118521   3.296   4.451   6.335
 5874SOL    HW218522   3.453   4.493   6.343
 5875SOL     OW18523   4.377   1.164   6.899
 5875SOL    HW118524   4.393   1.068   6.922
 5875SOL    HW218525   4.426   1.187   6.815
 5876SOL     OW18526   3.852   2.970   0.454
 5876SOL    HW118527   3.884   3.062   0.432
 5876SOL    HW218528   3.755   2.962   0.430
 5877SOL     OW18529   0.702   0.578   1.477
 5877SOL    HW118530   0.776   0.632   1.437
 5877SOL    HW218531   0.625   0.638   1.498
 5878SOL     OW18532   6.088   5.549   3.826
 5878SOL    HW118533   6.062   5.604   3.905
 5878SOL    HW218534   6.186   5.562   3.808
 5879SOL     OW18535   1.608   4.260   6.851
 5879SOL    HW118536   1.563   4.174   6.826
 5879SOL    HW218537   1.602   4.324   6.774
 5880SOL     OW18538   4.633   4.575   5.966
 5880SOL    HW118539   4.601   4.583   6.061
 5880SOL    HW218540   4.665   4.482   5.949
 5881SOL     OW18541   0.646   0.192   2.233
 5881SOL    HW118542   0.566   0.140   2.204
 5881SOL    HW218543   0.729   0.146   2.200
 5882SOL     OW18544   0.368   5.781   0.482
 5882SOL    HW118545   0.443   5.777   0.416
 5882SOL    HW218546   0.355   5.876   0.511
 5883SOL     OW18547   0.736   1.559   6.480
 5883SOL    HW118548   0.817   1.554   6.422
 5883SOL    HW218549   0.705   1.467   6.502
 5884SOL     OW18550   4.102   1.302   4.477
 5884SOL    HW118551   4.165   1.379   4.478
 5884SOL    HW218552   4.012   1.333   4.448
 5885SOL     OW18553   0.476   6.540   2.249
 5885SOL    HW118554   0.546   6.590   2.198
 5885SOL    HW218555   0.451   6.457   2.200
 5886SOL     OW18556   0.133   2.249   3.857
 5886SOL    HW118557   0.111   2.154   3.833
 5886SOL    HW218558   0.191   2.289   3.785
 5887SOL     OW18559   2.804   2.142   1.917
 5887SOL    HW118560   2.811   2.238   1.946
 5887SOL    HW218561   2.811   2.137   1.818
 5888SOL     OW18562   2.377   0.928   1.135
 5888SOL    HW118563   2.388   0.961   1.229
 5888SOL    HW218564   2.466   0.919   1.092
 5889SOL     OW18565   0.339   0.383   0.305
 5889SOL    HW118566   0.328   0.299   0.251
 5889SOL    HW218567   0.251   0.410   0.344
 5890SOL     OW18568   2.470   0.918   3.188
 5890SOL    HW118569   2.382   0.940   3.146
 5890SOL    HW218570   2.495   0.989   3.253
 5891SOL     OW18571   3.040   3.302   6.769
 5891SOL    HW118572   3.107   3.312   6.842
 5891SOL    HW218573   2.954   3.343   6.797
 5892SOL     OW18574   1.188   5.280   2.600
 5892SOL    HW118575   1.208   5.185   2.576
 5892SOL    HW218576   1.223   5.340   2.529
 5893SOL     OW18577   2.309   4.261   3.820
 5893SOL    HW118578   2.342   4.284   3.911
 5893SOL    HW218579   2.278   4.166   3.818
 5894SOL     OW18580   0.249   6.102   4.344
 5894SOL    HW118581   0.322   6.044   4.310
 5894SOL    HW218582   0.233   6.177   4.279
 5895SOL     OW18583   5.162   3.095   3.981
 5895SOL    HW118584   5.107   3.012   3.994
 5895SOL    HW218585   5.257   3.069   3.962
 5896SOL     OW18586   3.341   0.657   1.095
 5896SOL    HW118587   3.373   0.569   1.061
 5896SOL    HW218588   3.363   0.666   1.192
 5897SOL     OW18589   4.354   6.871   1.441
 5897SOL    HW118590   4.447   6.886   1.406
 5897SOL    HW218591   4.288   6.883   1.367
 5898SOL     OW18592   2.757   0.384   3.680
 5898SOL    HW118593   2.755   0.418   3.586
 5898SOL    HW218594   2.676   0.416   3.729
 5899SOL     OW18595   6.420   5.353   0.172
 5899SOL    HW118596   6.484   5.371   0.248
 5899SOL    HW218597   6.333   5.399   0.190
 5900SOL     OW18598   6.220   5.244   3.575
 5900SOL    HW118599   6.223   5.190   3.492
 5900SOL    HW218600   6.310   5.245   3.618
 5901SOL     OW18601   2.292   1.294   0.322
 5901SOL    HW118602   2.291   1.260   0.416
 5901SOL    HW218603   2.321   1.390   0.322
 5902SOL     OW18604   5.664   2.240   4.883
 5902SOL    HW118605   5.719   2.169   4.928
 5902SOL    HW218606   5.715   2.277   4.806
 5903SOL     OW18607   4.693   3.649   6.739
 5903SOL    HW118608   4.652   3.558   6.741
 5903SOL    HW218609   4.769   3.653   6.803
 5904SOL     OW18610   1.245   4.520   1.009
 5904SOL    HW118611   1.164   4.461   1.010
 5904SOL    HW218612   1.254   4.566   1.097
 5905SOL     OW18613   6.154   0.104   4.128
 5905SOL    HW118614   6.226   0.035   4.126
 5905SOL    HW218615   6.065   0.060   4.138
 5906SOL     OW18616   3.708   1.814   3.479
 5906SOL    HW118617   3.796   1.786   3.520
 5906SOL    HW218618   3.669   1.889   3.532
 5907SOL     OW18619   1.272   5.577   6.895
 5907SOL    HW118620   1.230   5.663   6.922
 5907SOL    HW218621   1.276   5.572   6.795
 5908SOL     OW18622   0.219   3.038   0.216
 5908SOL    HW118623   0.195   3.121   0.265
 5908SOL    HW218624   0.317   3.021   0.226
 5909SOL     OW18625   0.028   5.009   0.415
 5909SOL    HW118626   0.036   5.109   0.417
 5909SOL    HW218627   6.963   4.982   0.464
 5910SOL     OW18628   0.680   4.142   3.466
 5910SOL    HW118629   0.750   4.134   3.537
 5910SOL    HW218630   0.662   4.239   3.448
 5911SOL     OW18631   6.936   5.148   6.259
 5911SOL    HW118632   6.862   5.211   6.235
 5911SOL    HW218633   6.936   5.071   6.196
 5912SOL     OW18634   5.711   2.536   6.696
 5912SOL    HW118635   5.798   2.572   6.664
 5912SOL    HW218636   5.699   2.443   6.661
 5913SOL     OW18637   5.073   3.069   6.018
 5913SOL    HW118638   5.052   3.142   5.953
 5913SOL    HW218639   5.128   3.107   6.093
 5914SOL     OW18640   1.734   5.175   6.437
 5914SOL    HW118641   1.773   5.267   6.433
 5914SOL    HW218642   1.679   5.158   6.356
 5915SOL     OW18643   4.974   5.343   1.333
 5915SOL    HW118644   4.981   5.441   1.317
 5915SOL    HW218645   4.881   5.312   1.312
 5916SOL     OW18646   4.581   5.787   4.439
 5916SOL    HW118647   4.674   5.798   4.406
 5916SOL    HW218648   4.516   5.810   4.366
 5917SOL     OW18649   3.135   3.535   4.176
 5917SOL    HW118650   3.180   3.484   4.249
 5917SOL    HW218651   3.047   3.493   4.155
 5918SOL     OW18652   1.892   3.538   6.072
 5918SOL    HW118653   1.797   3.541   6.101
 5918SOL    HW218654   1.909   3.610   6.004
 5919SOL     OW18655   3.673   3.134   1.908
 5919SOL    HW118656   3.707   3.051   1.954
 5919SOL    HW218657   3.598   3.173   1.962
 5920SOL     OW18658   4.234   0.606   6.989
 5920SOL    HW118659   4.175   0.615   6.909
 5920SOL    HW218660   4.210   0.677   0.037
 5921SOL     OW18661   3.507   5.268   6.194
 5921SOL    HW118662   3.536   5.349   6.144
 5921SOL    HW218663   3.575   5.196   6.183
 5922SOL     OW18664   6.467   5.296   2.754
 5922SOL    HW118665   6.462   5.395   2.738
 5922SOL    HW218666   6.541   5.258   2.699
 5923SOL     OW18667   5.640   1.014   1.482
 5923SOL    HW118668   5.544   0.994   1.501
 5923SOL    HW218669   5.654   1.017   1.383
 5924SOL     OW18670   6.975   0.985   3.583
 5924SOL    HW118671   6.901   0.954   3.523
 5924SOL    HW218672   0.013   1.051   3.533
 5925SOL     OW18673   3.709   5.540   1.851
 5925SOL    HW118674   3.755   5.550   1.763
 5925SOL    HW218675   3.611   5.557   1.840
 5926SOL     OW18676   4.218   5.495   1.329
 5926SOL    HW118677   4.137   5.539   1.290
 5926SOL    HW218678   4.221   5.399   1.301
 5927SOL     OW18679   1.322   4.249   2.693
 5927SOL    HW118680   1.354   4.160   2.663
 5927SOL    HW218681   1.254   4.237   2.766
 5928SOL     OW18682   3.157   0.272   0.810
 5928SOL    HW118683   3.143   0.207   0.735
 5928SOL    HW218684   3.254   0.273   0.835
 5929SOL     OW18685   0.641   6.992   6.714
 5929SOL    HW118686   0.725   6.989   6.768
 5929SOL    HW218687   0.568   0.017   6.767
 5930SOL     OW18688   6.441   3.189   3.372
 5930SOL    HW118689   6.411   3.173   3.278
 5930SOL    HW218690   6.395   3.271   3.408
 5931SOL     OW18691   6.737   5.688   3.041
 5931SOL    HW118692   6.658   5.723   3.091
 5931SOL    HW218693   6.769   5.757   2.976
 5932SOL     OW18694   2.473   0.243   0.591
 5932SOL    HW118695   2.522   0.321   0.629
 5932SOL    HW218696   2.484   0.242   0.491
 5933SOL     OW18697   7.011   5.872   3.473
 5933SOL    HW118698   6.934   5.849   3.414
 5933SOL    HW218699   0.004   5.971   3.476
 5934SOL     OW18700   3.542   2.953   4.086
 5934SOL    HW118701   3.521   3.049   4.069
 5934SOL    HW218702   3.621   2.926   4.031
 5935SOL     OW18703   4.822   4.718   6.291
 5935SOL    HW118704   4.877   4.791   6.250
 5935SOL    HW218705   4.870   4.683   6.372
 5936SOL     OW18706   3.742   3.129   1.098
 5936SOL    HW118707   3.658   3.179   1.116
 5936SOL    HW218708   3.751   3.114   0.999
 5937SOL     OW18709   0.981   4.411   2.941
 5937SOL    HW118710   0.927   4.382   2.862
 5937SOL    HW218711   0.929   4.478   2.994
 5938SOL     OW18712   0.849   4.963   3.593
 5938SOL    HW118713   0.852   5.063   3.596
 5938SOL    HW218714   0.825   4.933   3.501
 5939SOL     OW18715   2.591   6.697   3.164
 5939SOL    HW118716   2.672   6.671   3.112
 5939SOL    HW218717   2.544   6.772   3.117
 5940SOL     OW18718   4.867   5.489   0.634
 5940SOL    HW118719   4.845   5.579   0.672
 5940SOL    HW218720   4.794   5.461   0.571
 5941SOL     OW18721   6.034   3.166   2.088
 5941SOL    HW118722   5.996   3.088   2.038
 5941SOL    HW218723   6.003   3.251   2.045
 5942SOL     OW18724   4.792   3.192   0.484
 5942SOL    HW118725   4.771   3.277   0.534
 5942SOL    HW218726   4.883   3.199   0.443
 5943SOL     OW18727   3.800   4.893   0.301
 5943SOL    HW118728   3.700   4.884   0.305
 5943SOL    HW218729   3.842   4.820   0.354
 5944SOL     OW18730   6.275   3.211   1.259
 5944SOL    HW118731   6.351   3.170   1.308
 5944SOL    HW218732   6.218   3.263   1.323
 5945SOL     OW18733   6.297   5.532   5.301
 5945SOL    HW118734   6.304   5.542   5.400
 5945SOL    HW218735   6.309   5.435   5.277
 5946SOL     OW18736   3.877   3.337   6.432
 5946SOL    HW118737   3.868   3.284   6.348
 5946SOL    HW218738   3.955   3.304   6.485
 5947SOL     OW18739   3.865   3.563   1.803
 5947SOL    HW118740   3.924   3.528   1.876
 5947SOL    HW218741   3.904   3.538   1.714
 5948SOL     OW18742   4.508   4.956   3.487
 5948SOL    HW118743   4.461   5.017   3.551
 5948SOL    HW218744   4.605   4.979   3.482
 5949SOL     OW18745   4.996   3.919   1.744
 5949SOL    HW118746   5.044   4.004   1.766
 5949SOL    HW218747   4.929   3.899   1.816
 5950SOL     OW18748   4.244   1.834   5.769
 5950SOL    HW118749   4.261   1.928   5.795
 5950SOL    HW218750   4.145   1.818   5.762
 5951SOL     OW18751   1.310   5.874   3.942
 5951SOL    HW118752   1.270   5.783   3.930
 5951SOL    HW218753   1.248   5.931   3.995
 5952SOL     OW18754   5.825   4.788   3.679
 5952SOL    HW118755   5.842   4.876   3.634
 5952SOL    HW218756   5.881   4.781   3.761
 5953SOL     OW18757   6.399   2.906   5.556
 5953SOL    HW118758   6.407   3.004   5.574
 5953SOL    HW218759   6.460   2.856   5.617
 5954SOL     OW18760   0.024   4.288   6.267
 5954SOL    HW118761   0.032   4.344   6.350
 5954SOL    HW218762   6.952   4.300   6.227
 5955SOL     OW18763   5.214   6.295   2.766
 5955SOL    HW118764   5.229   6.199   2.787
 5955SOL    HW218765   5.281   6.351   2.815
 5956SOL     OW18766   4.578   1.298   5.921
 5956SOL    HW118767   4.657   1.339   5.877
 5956SOL    HW218768   4.559   1.209   5.880
 5957SOL     OW18769   4.157   0.636   5.115
 5957SOL    HW118770   4.234   0.575   5.099
 5957SOL    HW218771   4.168   0.720   5.061
 5958SOL     OW18772   5.750   6.927   3.183
 5958SOL    HW118773   5.789   7.014   3.214
 5958SOL    HW218774   5.775   6.854   3.246
 5959SOL     OW18775   3.898   2.497   5.368
 5959SOL    HW118776   3.820   2.449   5.327
 5959SOL    HW218777   3.972   2.502   5.302
 5960SOL     OW18778   3.451   5.224   4.665
 5960SOL    HW118779   3.482   5.130   4.676
 5960SOL    HW218780   3.386   5.246   4.739
 5961SOL     OW18781   5.429   1.585   3.012
 5961SOL    HW118782   5.362   1.549   2.948
 5961SOL    HW218783   5.385   1.648   3.075
 5962SOL     OW18784   5.557   6.567   0.657
 5962SOL    HW118785   5.539   6.550   0.561
 5962SOL    HW218786   5.629   6.636   0.666
 5963SOL     OW18787   3.742   3.424   5.445
 5963SOL    HW118788   3.667   3.358   5.442
 5963SOL    HW218789   3.822   3.386   5.398
 5964SOL     OW18790   0.559   5.376   5.081
 5964SOL    HW118791   0.477   5.342   5.127
 5964SOL    HW218792   0.538   5.464   5.038
 5965SOL     OW18793   1.577   2.076   6.828
 5965SOL    HW118794   1.634   2.147   6.787
 5965SOL    HW218795   1.609   2.059   6.922
 5966SOL     OW18796   3.174   5.950   5.458
 5966SOL    HW118797   3.250   5.917   5.515
 5966SOL    HW218798   3.124   5.871   5.421
 5967SOL     OW18799   4.384   6.802   6.410
 5967SOL    HW118800   4.403   6.726   6.472
 5967SOL    HW218801   4.286   6.805   6.392
 5968SOL     OW18802   4.805   1.614   0.810
 5968SOL    HW118803   4.773   1.645   0.899
 5968SOL    HW218804   4.794   1.514   0.804
 5969SOL     OW18805   0.340   6.687   6.308
 5969SOL    HW118806   0.325   6.657   6.214
 5969SOL    HW218807   0.408   6.628   6.352
 5970SOL     OW18808   0.144   4.385   2.252
 5970SOL    HW118809   0.048   4.404   2.231
 5970SOL    HW218810   0.180   4.455   2.313
 5971SOL     OW18811   1.298   1.239   2.307
 5971SOL    HW118812   1.331   1.259   2.399
 5971SOL    HW218813   1.294   1.140   2.293
 5972SOL     OW18814   5.533   5.239   6.977
 5972SOL    HW118815   5.456   5.193   0.002
 5972SOL    HW218816   5.500   5.318   6.925
 5973SOL     OW18817   1.859   3.606   2.669
 5973SOL    HW118818   1.943   3.592   2.617
 5973SOL    HW218819   1.791   3.650   2.612
 5974SOL     OW18820   5.352   5.039   6.637
 5974SOL    HW118821   5.432   5.067   6.584
 5974SOL    HW218822   5.382   4.987   6.717
 5975SOL     OW18823   3.410   1.021   0.489
 5975SOL    HW118824   3.476   1.096   0.487
 5975SOL    HW218825   3.364   1.015   0.401
 5976SOL     OW18826   3.247   3.286   5.898
 5976SOL    HW118827   3.313   3.274   5.972
 5976SOL    HW218828   3.169   3.339   5.931
 5977SOL     OW18829   2.634   5.544   6.814
 5977SOL    HW118830   2.649   5.482   6.891
 5977SOL    HW218831   2.598   5.631   6.848
 5978SOL     OW18832   5.188   5.457   2.982
 5978SOL    HW118833   5.144   5.421   3.065
 5978SOL    HW218834   5.201   5.555   2.992
 5979SOL     OW18835   5.715   0.466   2.890
 5979SOL    HW118836   5.753   0.375   2.872
 5979SOL    HW218837   5.780   0.536   2.861
 5980SOL     OW18838   3.665   4.034   0.984
 5980SOL    HW118839   3.634   3.964   1.047
 5980SOL    HW218840   3.759   4.015   0.955
 5981SOL     OW18841   5.576   2.359   1.451
 5981SOL    HW118842   5.662   2.338   1.404
 5981SOL    HW218843   5.504   2.372   1.382
 5982SOL     OW18844   6.818   3.473   2.363
 5982SOL    HW118845   6.844   3.424   2.446
 5982SOL    HW218846   6.719   3.485   2.361
 5983SOL     OW18847   0.953   1.935   4.090
 5983SOL    HW118848   1.017   1.995   4.043
 5983SOL    HW218849   1.003   1.860   4.134
 5984SOL     OW18850   6.779   5.858   3.972
 5984SOL    HW118851   6.815   5.840   4.064
 5984SOL    HW218852   6.855   5.885   3.912
 5985SOL     OW18853   6.883   2.820   4.494
 5985SOL    HW118854   6.982   2.813   4.482
 5985SOL    HW218855   6.840   2.733   4.467
 5986SOL     OW18856   3.062   3.699   4.559
 5986SOL    HW118857   3.126   3.625   4.575
 5986SOL    HW218858   3.025   3.731   4.647
 5987SOL     OW18859   4.691   0.423   4.231
 5987SOL    HW118860   4.717   0.505   4.181
 5987SOL    HW218861   4.772   0.372   4.257
 5988SOL     OW18862   4.842   6.823   5.569
 5988SOL    HW118863   4.815   6.907   5.523
 5988SOL    HW218864   4.941   6.812   5.561
 5989SOL     OW18865   2.376   6.560   6.520
 5989SOL    HW118866   2.474   6.577   6.510
 5989SOL    HW218867   2.356   6.538   6.615
 5990SOL     OW18868   3.718   4.435   0.084
 5990SOL    HW118869   3.677   4.345   0.096
 5990SOL    HW218870   3.647   4.504   0.074
 5991SOL     OW18871   3.249   4.907   0.049
 5991SOL    HW118872   3.183   4.899   0.123
 5991SOL    HW218873   3.203   4.889   6.981
 5992SOL     OW18874   3.821   0.053   2.322
 5992SOL    HW118875   3.850   0.116   2.251
 5992SOL    HW218876   3.724   0.068   2.343
 5993SOL     OW18877   3.118   5.939   6.873
 5993SOL    HW118878   3.051   5.941   6.946
 5993SOL    HW218879   3.141   6.033   6.846
 5994SOL     OW18880   5.610   2.658   2.258
 5994SOL    HW118881   5.596   2.668   2.159
 5994SOL    HW218882   5.522   2.667   2.305
 5995SOL     OW18883   5.059   4.257   2.980
 5995SOL    HW118884   5.010   4.318   3.042
 5995SOL    HW218885   5.138   4.304   2.942
 5996SOL     OW18886   1.025   6.520   0.829
 5996SOL    HW118887   0.942   6.467   0.807
 5996SOL    HW218888   1.032   6.598   0.767
 5997SOL     OW18889   0.527   5.554   2.648
 5997SOL    HW118890   0.475   5.532   2.730
 5997SOL    HW218891   0.603   5.490   2.638
 5998SOL     OW18892   5.594   1.448   3.318
 5998SOL    HW118893   5.670   1.404   3.366
 5998SOL    HW218894   5.567   1.531   3.367
 5999SOL     OW18895   1.721   1.439   2.760
 5999SOL    HW118896   1.784   1.494   2.706
 5999SOL    HW218897   1.655   1.395   2.699
 6000SOL     OW18898   4.489   6.631   0.850
 6000SOL    HW118899   4.542   6.610   0.931
 6000SOL    HW218900   4.392   6.609   0.866
 6001SOL     OW18901   1.042   3.579   6.716
 6001SOL    HW118902   1.106   3.593   6.640
 6001SOL    HW218903   0.948   3.585   6.682
 6002SOL     OW18904   5.988   0.238   0.848
 6002SOL    HW118905   6.080   0.265   0.821
 6002SOL    HW218906   5.930   0.320   0.854
 6003SOL     OW18907   6.347   2.395   4.729
 6003SOL    HW118908   6.324   2.312   4.679
 6003SOL    HW218909   6.264   2.433   4.769
 6004SOL     OW18910   0.493   3.689   2.732
 6004SOL    HW118911   0.504   3.694   2.832
 6004SOL    HW218912   0.398   3.707   2.708
 6005SOL     OW18913   5.024   5.484   4.488
 6005SOL    HW118914   5.072   5.556   4.538
 6005SOL    HW218915   4.971   5.428   4.552
 6006SOL     OW18916   2.701   0.723   6.207
 6006SOL    HW118917   2.660   0.664   6.137
 6006SOL    HW218918   2.787   0.760   6.173
 6007SOL     OW18919   4.936   3.481   5.534
 6007SOL    HW118920   4.850   3.493   5.485
 6007SOL    HW218921   4.960   3.566   5.581
 6008SOL     OW18922   2.257   4.428   5.767
 6008SOL    HW118923   2.236   4.525   5.781
 6008SOL    HW218924   2.257   4.409   5.669
 6009SOL     OW18925   3.409   0.277   3.470
 6009SOL    HW118926   3.460   0.244   3.550
 6009SOL    HW218927   3.461   0.257   3.387
 6010SOL     OW18928   1.573   4.372   4.283
 6010SOL    HW118929   1.584   4.273   4.291
 6010SOL    HW218930   1.654   4.417   4.321
 6011SOL     OW18931   4.945   3.425   2.219
 6011SOL    HW118932   4.881   3.370   2.166
 6011SOL    HW218933   4.973   3.505   2.166
 6012SOL     OW18934   4.950   1.316   0.067
 6012SOL    HW118935   4.930   1.365   7.002
 6012SOL    HW218936   4.903   1.360   0.144
 6013SOL     OW18937   4.649   1.974   2.828
 6013SOL    HW118938   4.615   1.880   2.823
 6013SOL    HW218939   4.651   2.004   2.923
 6014SOL     OW18940   3.875   3.712   1.296
 6014SOL    HW118941   3.789   3.689   1.250
 6014SOL    HW218942   3.939   3.636   1.285
 6015SOL     OW18943   5.460   3.082   4.464
 6015SOL    HW118944   5.389   3.116   4.402
 6015SOL    HW218945   5.465   3.141   4.545
 6016SOL     OW18946   6.445   2.129   5.998
 6016SOL    HW118947   6.345   2.133   5.999
 6016SOL    HW218948   6.474   2.036   5.974
 6017SOL     OW18949   6.692   4.110   2.968
 6017SOL    HW118950   6.607   4.100   3.020
 6017SOL    HW218951   6.758   4.161   3.023
 6018SOL     OW18952   3.170   0.514   6.751
 6018SOL    HW118953   3.236   0.514   6.826
 6018SOL    HW218954   3.218   0.533   6.665
 6019SOL     OW18955   6.942   1.921   4.168
 6019SOL    HW118956   7.011   1.913   4.240
 6019SOL    HW218957   6.961   1.855   4.096
 6020SOL     OW18958   0.965   4.773   0.533
 6020SOL    HW118959   0.929   4.849   0.479
 6020SOL    HW218960   1.056   4.796   0.566
 6021SOL     OW18961   4.622   0.286   2.273
 6021SOL    HW118962   4.555   0.339   2.326
 6021SOL    HW218963   4.712   0.295   2.315
 6022SOL     OW18964   4.093   2.264   4.051
 6022SOL    HW118965   4.146   2.281   4.134
 6022SOL    HW218966   4.153   2.263   3.971
 6023SOL     OW18967   6.108   0.205   2.270
 6023SOL    HW118968   6.014   0.196   2.237
 6023SOL    HW218969   6.110   0.189   2.368
 6024SOL     OW18970   1.253   5.049   3.251
 6024SOL    HW118971   1.330   5.031   3.313
 6024SOL    HW218972   1.195   4.967   3.246
 6025SOL     OW18973   3.624   1.410   2.681
 6025SOL    HW118974   3.600   1.353   2.759
 6025SOL    HW218975   3.618   1.506   2.707
 6026SOL     OW18976   0.094   4.410   5.303
 6026SOL    HW118977   0.090   4.311   5.309
 6026SOL    HW218978   0.104   4.437   5.207
 6027SOL     OW18979   1.365   4.254   6.718
 6027SOL    HW118980   1.412   4.318   6.778
 6027SOL    HW218981   1.366   4.163   6.758
 6028SOL     OW18982   0.402   4.662   6.473
 6028SOL    HW118983   0.384   4.576   6.424
 6028SOL    HW218984   0.412   4.736   6.406
 6029SOL     OW18985   2.509   6.100   5.320
 6029SOL    HW118986   2.485   6.167   5.250
 6029SOL    HW218987   2.497   6.008   5.283
 6030SOL     OW18988   3.752   5.948   3.146
 6030SOL    HW118989   3.672   5.981   3.196
 6030SOL    HW218990   3.827   5.931   3.211
 6031SOL     OW18991   2.974   5.438   3.420
 6031SOL    HW118992   2.953   5.484   3.506
 6031SOL    HW218993   2.938   5.491   3.344
 6032SOL     OW18994   2.447   4.447   2.724
 6032SOL    HW118995   2.451   4.355   2.763
 6032SOL    HW218996   2.399   4.508   2.786
 6033SOL     OW18997   3.056   1.909   3.289
 6033SOL    HW118998   3.085   1.989   3.343
 6033SOL    HW218999   3.137   1.862   3.254
 6034SOL     OW19000   1.242   4.967   5.041
 6034SOL    HW119001   1.179   4.972   4.963
 6034SOL    HW219002   1.253   5.058   5.081
 6035SOL     OW19003   6.816   0.845   2.701
 6035SOL    HW119004   6.820   0.748   2.675
 6035SOL    HW219005   6.784   0.899   2.624
 6036SOL     OW19006   5.515   5.575   3.712
 6036SOL    HW119007   5.476   5.541   3.797
 6036SOL    HW219008   5.572   5.504   3.670
 6037SOL     OW19009   4.189   5.137   6.636
 6037SOL    HW119010   4.185   5.183   6.548
 6037SOL    HW219011   4.112   5.167   6.693
 6038SOL     OW19012   1.619   2.282   5.907
 6038SOL    HW119013   1.627   2.193   5.952
 6038SOL    HW219014   1.637   2.272   5.810
 6039SOL     OW19015   3.020   3.608   2.391
 6039SOL    HW119016   3.043   3.677   2.459
 6039SOL    HW219017   3.100   3.550   2.375
 6040SOL     OW19018   0.892   1.950   6.777
 6040SOL    HW119019   0.855   1.868   6.733
 6040SOL    HW219020   0.821   2.021   6.780
 6041SOL     OW19021   2.501   0.431   5.174
 6041SOL    HW119022   2.593   0.467   5.189
 6041SOL    HW219023   2.437   0.507   5.157
 6042SOL     OW19024   5.275   5.458   1.909
 6042SOL    HW119025   5.207   5.406   1.961
 6042SOL    HW219026   5.232   5.538   1.867
 6043SOL     OW19027   0.663   4.686   5.571
 6043SOL    HW119028   0.631   4.756   5.635
 6043SOL    HW219029   0.627   4.706   5.480
 6044SOL     OW19030   0.989   2.128   2.000
 6044SOL    HW119031   1.064   2.080   2.045
 6044SOL    HW219032   0.943   2.187   2.067
 6045SOL     OW19033   6.291   4.872   2.314
 6045SOL    HW119034   6.363   4.844   2.378
 6045SOL    HW219035   6.206   4.886   2.364
 6046SOL     OW19036   3.758   2.237   0.688
 6046SOL    HW119037   3.801   2.214   0.600
 6046SOL    HW219038   3.811   2.308   0.734
 6047SOL     OW19039   5.153   2.323   1.474
 6047SOL    HW119040   5.202   2.349   1.390
 6047SOL    HW219041   5.204   2.358   1.553
 6048SOL     OW19042   4.464   5.499   4.951
 6048SOL    HW119043   4.546   5.549   4.978
 6048SOL    HW219044   4.394   5.509   5.021
 6049SOL     OW19045   5.976   3.916   6.211
 6049SOL    HW119046   5.958   4.014   6.219
 6049SOL    HW219047   6.075   3.901   6.208
 6050SOL     OW19048   3.540   6.333   4.224
 6050SOL    HW119049   3.611   6.353   4.156
 6050SOL    HW219050   3.549   6.238   4.254
 6051SOL     OW19051   2.721   0.762   4.424
 6051SOL    HW119052   2.719   0.672   4.466
 6051SOL    HW219053   2.796   0.766   4.357
 6052SOL     OW19054   6.338   0.560   0.759
 6052SOL    HW119055   6.277   0.516   0.694
 6052SOL    HW219056   6.290   0.633   0.808
 6053SOL     OW19057   4.248   1.348   6.567
 6053SOL    HW119058   4.242   1.350   6.667
 6053SOL    HW219059   4.261   1.441   6.533
 6054SOL     OW19060   2.746   3.273   0.783
 6054SOL    HW119061   2.698   3.213   0.718
 6054SOL    HW219062   2.685   3.347   0.810
 6055SOL     OW19063   4.837   0.748   5.130
 6055SOL    HW119064   4.797   0.657   5.130
 6055SOL    HW219065   4.805   0.799   5.050
 6056SOL     OW19066   4.645   2.699   4.719
 6056SOL    HW119067   4.673   2.741   4.805
 6056SOL    HW219068   4.706   2.622   4.698
 6057SOL     OW19069   5.134   2.785   3.632
 6057SOL    HW119070   5.208   2.799   3.699
 6057SOL    HW219071   5.094   2.695   3.645
 6058SOL     OW19072   4.762   3.186   1.003
 6058SOL    HW119073   4.713   3.200   1.089
 6058SOL    HW219074   4.708   3.129   0.942
 6059SOL     OW19075   5.184   4.987   5.313
 6059SOL    HW119076   5.117   5.044   5.266
 6059SOL    HW219077   5.239   5.044   5.373
 6060SOL     OW19078   2.742   4.495   6.871
 6060SOL    HW119079   2.668   4.522   6.809
 6060SOL    HW219080   2.702   4.459   6.956
 6061SOL     OW19081   3.493   2.159   1.169
 6061SOL    HW119082   3.531   2.181   1.079
 6061SOL    HW219083   3.406   2.206   1.181
 6062SOL     OW19084   2.291   1.871   5.033
 6062SOL    HW119085   2.284   1.794   5.097
 6062SOL    HW219086   2.208   1.874   4.977
 6063SOL     OW19087   3.295   1.883   6.281
 6063SOL    HW119088   3.198   1.899   6.267
 6063SOL    HW219089   3.309   1.838   6.369
 6064SOL     OW19090   1.824   5.999   1.081
 6064SOL    HW119091   1.912   6.022   1.123
 6064SOL    HW219092   1.815   5.900   1.075
 6065SOL     OW19093   6.777   6.929   1.962
 6065SOL    HW119094   6.833   7.003   1.997
 6065SOL    HW219095   6.686   6.963   1.940
 6066SOL     OW19096   5.081   1.676   6.052
 6066SOL    HW119097   5.029   1.614   6.110
 6066SOL    HW219098   5.179   1.653   6.057
 6067SOL     OW19099   5.441   1.640   5.707
 6067SOL    HW119100   5.358   1.600   5.745
 6067SOL    HW219101   5.455   1.732   5.745
 6068SOL     OW19102   5.570   2.839   4.482
 6068SOL    HW119103   5.525   2.925   4.456
 6068SOL    HW219104   5.526   2.802   4.564
 6069SOL     OW19105   6.835   3.073   4.461
 6069SOL    HW119106   6.886   3.114   4.536
 6069SOL    HW219107   6.861   2.977   4.452
 6070SOL     OW19108   2.266   3.065   0.508
 6070SOL    HW119109   2.247   3.108   0.420
 6070SOL    HW219110   2.266   3.135   0.579
 6071SOL     OW19111   6.019   5.345   4.321
 6071SOL    HW119112   5.940   5.348   4.260
 6071SOL    HW219113   6.040   5.437   4.354
 6072SOL     OW19114   0.465   0.199   1.626
 6072SOL    HW119115   0.393   0.144   1.585
 6072SOL    HW219116   0.489   0.162   1.716
 6073SOL     OW19117   6.024   3.657   0.536
 6073SOL    HW119118   6.103   3.641   0.595
 6073SOL    HW219119   6.033   3.604   0.452
 6074SOL     OW19120   1.315   6.431   4.413
 6074SOL    HW119121   1.230   6.381   4.429
 6074SOL    HW219122   1.389   6.366   4.393
 6075SOL     OW19123   6.789   1.387   6.547
 6075SOL    HW119124   6.831   1.300   6.572
 6075SOL    HW219125   6.721   1.412   6.616
 6076SOL     OW19126   2.259   5.776   4.566
 6076SOL    HW119127   2.204   5.846   4.521
 6076SOL    HW219128   2.351   5.811   4.582
 6077SOL     OW19129   5.968   5.795   1.536
 6077SOL    HW119130   5.957   5.894   1.549
 6077SOL    HW219131   5.967   5.749   1.625
 6078SOL     OW19132   3.944   4.807   0.580
 6078SOL    HW119133   3.893   4.749   0.643
 6078SOL    HW219134   4.034   4.768   0.563
 6079SOL     OW19135   4.132   2.944   6.347
 6079SOL    HW119136   4.163   2.864   6.399
 6079SOL    HW219137   4.140   2.924   6.249
 6080SOL     OW19138   6.626   1.214   1.771
 6080SOL    HW119139   6.679   1.294   1.741
 6080SOL    HW219140   6.688   1.140   1.797
 6081SOL     OW19141   6.276   3.235   5.828
 6081SOL    HW119142   6.309   3.234   5.733
 6081SOL    HW219143   6.309   3.153   5.875
 6082SOL     OW19144   2.220   1.939   3.665
 6082SOL    HW119145   2.279   1.858   3.663
 6082SOL    HW219146   2.126   1.913   3.643
 6083SOL     OW19147   0.463   4.927   6.977
 6083SOL    HW119148   0.411   4.959   6.897
 6083SOL    HW219149   0.450   4.828   6.987
 6084SOL     OW19150   0.440   6.451   3.663
 6084SOL    HW119151   0.528   6.477   3.624
 6084SOL    HW219152   0.422   6.354   3.644
 6085SOL     OW19153   1.103   4.484   0.292
 6085SOL    HW119154   1.140   4.532   0.213
 6085SOL    HW219155   1.170   4.418   0.326
 6086SOL     OW19156   3.643   1.329   6.155
 6086SOL    HW119157   3.602   1.387   6.225
 6086SOL    HW219158   3.666   1.384   6.075
 6087SOL     OW19159   4.246   5.370   0.901
 6087SOL    HW119160   4.340   5.377   0.866
 6087SOL    HW219161   4.219   5.274   0.904
 6088SOL     OW19162   6.050   5.705   4.022
 6088SOL    HW119163   6.013   5.691   4.113
 6088SOL    HW219164   6.092   5.796   4.016
 6089SOL     OW19165   6.348   3.398   0.546
 6089SOL    HW119166   6.414   3.384   0.619
 6089SOL    HW219167   6.373   3.342   0.467
 6090SOL     OW19168   2.083   5.962   6.202
 6090SOL    HW119169   1.995   5.950   6.248
 6090SOL    HW219170   2.070   5.950   6.103
 6091SOL     OW19171   1.491   1.626   1.377
 6091SOL    HW119172   1.574   1.644   1.323
 6091SOL    HW219173   1.514   1.629   1.474
 6092SOL     OW19174   3.848   6.765   3.092
 6092SOL    HW119175   3.929   6.784   3.148
 6092SOL    HW219176   3.842   6.832   3.019
 6093SOL     OW19177   1.780   3.450   2.899
 6093SOL    HW119178   1.712   3.378   2.891
 6093SOL    HW219179   1.781   3.504   2.814
 6094SOL     OW19180   3.723   0.710   1.782
 6094SOL    HW119181   3.645   0.735   1.840
 6094SOL    HW219182   3.796   0.673   1.839
 6095SOL     OW19183   4.480   3.341   0.546
 6095SOL    HW119184   4.545   3.406   0.587
 6095SOL    HW219185   4.500   3.332   0.449
 6096SOL     OW19186   0.109   0.247   3.531
 6096SOL    HW119187   0.021   0.293   3.518
 6096SOL    HW219188   0.097   0.148   3.515
 6097SOL     OW19189   2.318   6.892   2.045
 6097SOL    HW119190   2.351   6.959   2.110
 6097SOL    HW219191   2.232   6.924   2.004
 6098SOL     OW19192   1.384   2.345   6.071
 6098SOL    HW119193   1.425   2.286   6.140
 6098SOL    HW219194   1.451   2.366   6.000
 6099SOL     OW19195   6.492   6.682   0.728
 6099SOL    HW119196   6.529   6.684   0.821
 6099SOL    HW219197   6.562   6.647   0.665
 6100SOL     OW19198   4.052   3.871   0.011
 6100SOL    HW119199   4.019   3.776   0.009
 6100SOL    HW219200   4.145   3.872   0.048
 6101SOL     OW19201   6.335   2.353   5.048
 6101SOL    HW119202   6.397   2.423   5.084
 6101SOL    HW219203   6.382   2.303   4.975
 6102SOL     OW19204   3.371   6.438   3.505
 6102SOL    HW119205   3.425   6.476   3.581
 6102SOL    HW219206   3.278   6.473   3.510
 6103SOL     OW19207   6.606   2.998   2.529
 6103SOL    HW119208   6.689   3.023   2.579
 6103SOL    HW219209   6.589   2.900   2.542
 6104SOL     OW19210   5.908   1.108   5.342
 6104SOL    HW119211   5.912   1.194   5.291
 6104SOL    HW219212   5.825   1.107   5.398
 6105SOL     OW19213   2.160   0.092   5.573
 6105SOL    HW119214   2.242   0.054   5.530
 6105SOL    HW219215   2.080   0.041   5.542
 6106SOL     OW19216   2.657   4.207   5.932
 6106SOL    HW119217   2.748   4.201   5.972
 6106SOL    HW219218   2.655   4.154   5.846
 6107SOL     OW19219   2.535   4.596   4.999
 6107SOL    HW119220   2.631   4.592   5.023
 6107SOL    HW219221   2.481   4.550   5.070
 6108SOL     OW19222   0.398   2.320   2.255
 6108SOL    HW119223   0.455   2.244   2.289
 6108SOL    HW219224   0.305   2.287   2.241
 6109SOL     OW19225   5.100   2.679   5.622
 6109SOL    HW119226   5.121   2.772   5.652
 6109SOL    HW219227   5.066   2.626   5.700
 6110SOL     OW19228   4.244   3.239   0.434
 6110SOL    HW119229   4.334   3.263   0.472
 6110SOL    HW219230   4.206   3.318   0.386
 6111SOL     OW19231   2.409   4.340   2.085
 6111SOL    HW119232   2.478   4.268   2.099
 6111SOL    HW219233   2.358   4.320   2.002
 6112SOL     OW19234   3.961   0.176   2.571
 6112SOL    HW119235   3.916   0.151   2.486
 6112SOL    HW219236   3.930   0.266   2.601
 6113SOL     OW19237   1.672   1.354   6.550
 6113SOL    HW119238   1.625   1.282   6.601
 6113SOL    HW219239   1.625   1.441   6.564
 6114SOL     OW19240   5.276   5.443   1.270
 6114SOL    HW119241   5.265   5.414   1.175
 6114SOL    HW219242   5.212   5.517   1.290
 6115SOL     OW19243   4.705   0.332   3.936
 6115SOL    HW119244   4.716   0.339   4.035
 6115SOL    HW219245   4.608   0.316   3.915
 6116SOL     OW19246   2.981   6.936   0.025
 6116SOL    HW119247   2.951   6.932   6.949
 6116SOL    HW219248   2.968   6.847   0.068
 6117SOL     OW19249   0.595   0.962   5.429
 6117SOL    HW119250   0.505   0.980   5.468
 6117SOL    HW219251   0.606   0.864   5.414
 6118SOL     OW19252   6.561   0.253   2.376
 6118SOL    HW119253   6.652   0.218   2.352
 6118SOL    HW219254   6.517   0.191   2.441
 6119SOL     OW19255   1.645   3.284   5.808
 6119SOL    HW119256   1.618   3.268   5.713
 6119SOL    HW219257   1.740   3.256   5.820
 6120SOL     OW19258   3.710   6.791   4.860
 6120SOL    HW119259   3.777   6.742   4.804
 6120SOL    HW219260   3.651   6.725   4.907
 6121SOL     OW19261   0.898   2.875   5.560
 6121SOL    HW119262   0.870   2.919   5.475
 6121SOL    HW219263   0.998   2.876   5.567
 6122SOL     OW19264   4.085   6.463   0.593
 6122SOL    HW119265   3.997   6.509   0.598
 6122SOL    HW219266   4.086   6.401   0.514
 6123SOL     OW19267   6.187   0.529   6.723
 6123SOL    HW119268   6.222   0.575   6.641
 6123SOL    HW219269   6.099   0.487   6.702
 6124SOL     OW19270   2.054   0.850   6.157
 6124SOL    HW119271   2.139   0.901   6.160
 6124SOL    HW219272   1.981   0.905   6.197
 6125SOL     OW19273   1.069   5.864   0.318
 6125SOL    HW119274   0.980   5.899   0.290
 6125SOL    HW219275   1.087   5.890   0.412
 6126SOL     OW19276   0.725   0.497   3.788
 6126SOL    HW119277   0.705   0.561   3.714
 6126SOL    HW219278   0.648   0.435   3.800
 6127SOL     OW19279   3.865   0.409   1.670
 6127SOL    HW119280   3.959   0.437   1.690
 6127SOL    HW219281   3.855   0.391   1.572
 6128SOL     OW19282   6.830   3.072   6.740
 6128SOL    HW119283   6.784   3.148   6.785
 6128SOL    HW219284   6.906   3.041   6.797
 6129SOL     OW19285   6.079   3.709   3.438
 6129SOL    HW119286   5.990   3.681   3.403
 6129SOL    HW219287   6.077   3.709   3.538
 6130SOL     OW19288   6.094   2.130   3.701
 6130SOL    HW119289   6.053   2.144   3.611
 6130SOL    HW219290   6.150   2.048   3.700
 6131SOL     OW19291   6.568   0.877   5.167
 6131SOL    HW119292   6.613   0.819   5.099
 6131SOL    HW219293   6.629   0.889   5.245
 6132SOL     OW19294   4.674   1.574   0.441
 6132SOL    HW119295   4.595   1.635   0.439
 6132SOL    HW219296   4.751   1.621   0.483
 6133SOL     OW19297   1.274   2.647   2.987
 6133SOL    HW119298   1.361   2.600   2.994
 6133SOL    HW219299   1.219   2.628   3.068
 6134SOL     OW19300   3.870   4.616   6.067
 6134SOL    HW119301   3.825   4.554   6.002
 6134SOL    HW219302   3.817   4.700   6.075
 6135SOL     OW19303   0.970   0.327   2.078
 6135SOL    HW119304   0.989   0.414   2.124
 6135SOL    HW219305   0.884   0.333   2.028
 6136SOL     OW19306   0.896   2.652   2.789
 6136SOL    HW119307   0.805   2.621   2.818
 6136SOL    HW219308   0.947   2.575   2.750
 6137SOL     OW19309   5.960   2.529   3.859
 6137SOL    HW119310   5.904   2.455   3.898
 6137SOL    HW219311   5.943   2.534   3.760
 6138SOL     OW19312   4.699   6.447   3.023
 6138SOL    HW119313   4.671   6.421   2.930
 6138SOL    HW219314   4.794   6.420   3.037
 6139SOL     OW19315   1.238   1.576   6.004
 6139SOL    HW119316   1.191   1.663   5.988
 6139SOL    HW219317   1.333   1.584   5.975
 6140SOL     OW19318   0.166   6.646   1.529
 6140SOL    HW119319   0.189   6.741   1.550
 6140SOL    HW219320   0.250   6.591   1.526
 6141SOL     OW19321   6.526   5.762   5.914
 6141SOL    HW119322   6.463   5.685   5.905
 6141SOL    HW219323   6.603   5.749   5.851
 6142SOL     OW19324   0.880   5.719   0.958
 6142SOL    HW119325   0.830   5.636   0.932
 6142SOL    HW219326   0.869   5.736   1.056
 6143SOL     OW19327   6.769   4.003   0.908
 6143SOL    HW119328   6.812   4.065   0.842
 6143SOL    HW219329   6.737   3.921   0.860
 6144SOL     OW19330   6.171   4.187   3.148
 6144SOL    HW119331   6.132   4.279   3.152
 6144SOL    HW219332   6.098   4.119   3.155
 6145SOL     OW19333   4.750   5.353   3.264
 6145SOL    HW119334   4.739   5.288   3.340
 6145SOL    HW219335   4.759   5.446   3.301
 6146SOL     OW19336   2.912   6.490   4.008
 6146SOL    HW119337   2.909   6.391   4.025
 6146SOL    HW219338   2.901   6.507   3.910
 6147SOL     OW19339   1.319   3.503   4.441
 6147SOL    HW119340   1.230   3.538   4.473
 6147SOL    HW219341   1.388   3.519   4.512
 6148SOL     OW19342   6.832   0.442   4.149
 6148SOL    HW119343   6.844   0.435   4.050
 6148SOL    HW219344   6.856   0.534   4.179
 6149SOL     OW19345   3.377   5.413   1.375
 6149SOL    HW119346   3.295   5.470   1.386
 6149SOL    HW219347   3.360   5.343   1.306
 6150SOL     OW19348   4.619   4.764   6.890
 6150SOL    HW119349   4.593   4.813   6.806
 6150SOL    HW219350   4.536   4.743   6.942
 6151SOL     OW19351   5.858   4.727   5.646
 6151SOL    HW119352   5.908   4.725   5.559
 6151SOL    HW219353   5.809   4.814   5.654
 6152SOL     OW19354   6.937   5.897   5.029
 6152SOL    HW119355   0.016   5.896   5.012
 6152SOL    HW219356   6.915   5.836   5.105
 6153SOL     OW19357   5.682   3.689   1.405
 6153SOL    HW119358   5.596   3.639   1.415
 6153SOL    HW219359   5.670   3.764   1.339
 6154SOL     OW19360   6.034   2.175   2.509
 6154SOL    HW119361   6.010   2.091   2.558
 6154SOL    HW219362   5.999   2.170   2.415
 6155SOL     OW19363   2.030   2.188   4.387
 6155SOL    HW119364   2.114   2.135   4.394
 6155SOL    HW219365   1.961   2.136   4.337
 6156SOL     OW19366   4.237   4.692   1.703
 6156SOL    HW119367   4.287   4.606   1.692
 6156SOL    HW219368   4.204   4.723   1.614
 6157SOL     OW19369   1.409   0.841   4.349
 6157SOL    HW119370   1.347   0.765   4.331
 6157SOL    HW219371   1.494   0.828   4.297
 6158SOL     OW19372   4.468   1.448   6.099
 6158SOL    HW119373   4.510   1.385   6.033
 6158SOL    HW219374   4.413   1.396   6.165
 6159SOL     OW19375   4.767   2.486   1.361
 6159SOL    HW119376   4.775   2.477   1.460
 6159SOL    HW219377   4.858   2.495   1.320
 6160SOL     OW19378   5.138   0.567   6.309
 6160SOL    HW119379   5.154   0.491   6.247
 6160SOL    HW219380   5.120   0.532   6.401
 6161SOL     OW19381   4.999   1.390   4.752
 6161SOL    HW119382   4.969   1.461   4.816
 6161SOL    HW219383   4.922   1.363   4.694
 6162SOL     OW19384   1.590   6.761   3.284
 6162SOL    HW119385   1.551   6.672   3.311
 6162SOL    HW219386   1.518   6.830   3.283
 6163SOL     OW19387   6.585   6.311   0.991
 6163SOL    HW119388   6.541   6.324   1.080
 6163SOL    HW219389   6.615   6.217   0.982
 6164SOL     OW19390   3.358   2.683   1.899
 6164SOL    HW119391   3.269   2.685   1.853
 6164SOL    HW219392   3.403   2.771   1.888
 6165SOL     OW19393   4.512   0.737   6.498
 6165SOL    HW119394   4.438   0.781   6.548
 6165SOL    HW219395   4.482   0.717   6.405
 6166SOL     OW19396   4.353   0.898   6.610
 6166SOL    HW119397   4.327   0.929   6.701
 6166SOL    HW219398   4.287   0.932   6.543
 6167SOL     OW19399   1.225   4.641   3.797
 6167SOL    HW119400   1.155   4.707   3.771
 6167SOL    HW219401   1.243   4.579   3.721
 6168SOL     OW19402   0.707   3.661   1.123
 6168SOL    HW119403   0.798   3.689   1.154
 6168SOL    HW219404   0.639   3.725   1.159
 6169SOL     OW19405   1.653   2.925   1.003
 6169SOL    HW119406   1.616   2.871   1.079
 6169SOL    HW219407   1.749   2.947   1.021
 6170SOL     OW19408   1.194   3.817   5.353
 6170SOL    HW119409   1.119   3.763   5.315
 6170SOL    HW219410   1.157   3.893   5.406
 6171SOL     OW19411   0.857   2.989   0.983
 6171SOL    HW119412   0.906   3.044   0.915
 6171SOL    HW219413   0.923   2.931   1.031
 6172SOL     OW19414   2.245   2.867   2.135
 6172SOL    HW119415   2.240   2.906   2.043
 6172SOL    HW219416   2.298   2.782   2.133
 6173SOL     OW19417   7.018   5.523   1.971
 6173SOL    HW119418   6.984   5.509   2.064
 6173SOL    HW219419   6.942   5.549   1.912
 6174SOL     OW19420   4.458   5.661   3.719
 6174SOL    HW119421   4.463   5.756   3.688
 6174SOL    HW219422   4.442   5.659   3.818
 6175SOL     OW19423   3.999   0.156   3.029
 6175SOL    HW119424   3.971   0.247   3.061
 6175SOL    HW219425   4.005   0.094   3.107
 6176SOL     OW19426   5.027   4.712   5.759
 6176SOL    HW119427   5.045   4.732   5.663
 6176SOL    HW219428   4.991   4.619   5.768
 6177SOL     OW19429   5.397   1.368   1.324
 6177SOL    HW119430   5.451   1.452   1.327
 6177SOL    HW219431   5.384   1.333   1.416
 6178SOL     OW19432   5.145   4.381   2.295
 6178SOL    HW119433   5.099   4.394   2.207
 6178SOL    HW219434   5.085   4.331   2.357
 6179SOL     OW19435   6.575   4.513   4.011
 6179SOL    HW119436   6.615   4.528   3.921
 6179SOL    HW219437   6.639   4.541   4.082
 6180SOL     OW19438   2.522   4.170   0.419
 6180SOL    HW119439   2.501   4.156   0.516
 6180SOL    HW219440   2.621   4.176   0.407
 6181SOL     OW19441   4.887   6.581   6.123
 6181SOL    HW119442   4.866   6.677   6.106
 6181SOL    HW219443   4.855   6.525   6.046
 6182SOL     OW19444   4.991   2.865   4.857
 6182SOL    HW119445   5.027   2.777   4.888
 6182SOL    HW219446   5.057   2.907   4.795
 6183SOL     OW19447   1.624   2.374   3.354
 6183SOL    HW119448   1.638   2.277   3.376
 6183SOL    HW219449   1.553   2.411   3.415
 6184SOL     OW19450   2.788   6.289   6.985
 6184SOL    HW119451   2.708   6.329   6.940
 6184SOL    HW219452   2.761   6.203   0.011
 6185SOL     OW19453   0.249   4.119   6.308
 6185SOL    HW119454   0.157   4.155   6.291
 6185SOL    HW219455   0.305   4.132   6.226
 6186SOL     OW19456   6.648   1.104   0.445
 6186SOL    HW119457   6.575   1.070   0.504
 6186SOL    HW219458   6.701   1.027   0.410
 6187SOL     OW19459   5.395   4.371   3.922
 6187SOL    HW119460   5.365   4.306   3.991
 6187SOL    HW219461   5.488   4.402   3.943
 6188SOL     OW19462   1.714   1.784   0.086
 6188SOL    HW119463   1.804   1.776   0.129
 6188SOL    HW219464   1.714   1.734   7.019
 6189SOL     OW19465   4.770   4.627   2.626
 6189SOL    HW119466   4.840   4.575   2.675
 6189SOL    HW219467   4.724   4.567   2.560
 6190SOL     OW19468   0.673   3.830   5.526
 6190SOL    HW119469   0.591   3.803   5.476
 6190SOL    HW219470   0.697   3.925   5.503
 6191SOL     OW19471   2.958   2.632   6.522
 6191SOL    HW119472   2.878   2.640   6.581
 6191SOL    HW219473   3.034   2.686   6.559
 6192SOL     OW19474   3.016   2.265   5.750
 6192SOL    HW119475   3.062   2.176   5.743
 6192SOL    HW219476   2.950   2.275   5.676
 6193SOL     OW19477   4.504   6.062   1.750
 6193SOL    HW119478   4.472   5.978   1.706
 6193SOL    HW219479   4.426   6.111   1.789
 6194SOL     OW19480   0.109   0.798   6.709
 6194SOL    HW119481   0.138   0.882   6.756
 6194SOL    HW219482   0.181   0.769   6.646
 6195SOL     OW19483   4.259   6.103   4.519
 6195SOL    HW119484   4.264   6.018   4.572
 6195SOL    HW219485   4.254   6.081   4.422
 6196SOL     OW19486   5.584   3.793   1.650
 6196SOL    HW119487   5.655   3.753   1.708
 6196SOL    HW219488   5.608   3.780   1.554
 6197SOL     OW19489   3.867   5.294   0.769
 6197SOL    HW119490   3.883   5.205   0.727
 6197SOL    HW219491   3.913   5.297   0.858
 6198SOL     OW19492   3.996   6.802   0.927
 6198SOL    HW119493   3.981   6.751   1.011
 6198SOL    HW219494   4.084   6.850   0.932
 6199SOL     OW19495   0.643   0.916   0.431
 6199SOL    HW119496   0.663   0.866   0.515
 6199SOL    HW219497   0.582   0.862   0.373
 6200SOL     OW19498   1.099   1.421   5.694
 6200SOL    HW119499   1.021   1.473   5.661
 6200SOL    HW219500   1.183   1.474   5.679
 6201SOL     OW19501   0.962   4.246   5.820
 6201SOL    HW119502   0.910   4.295   5.889
 6201SOL    HW219503   1.053   4.224   5.856
 6202SOL     OW19504   5.038   1.323   1.141
 6202SOL    HW119505   4.966   1.257   1.159
 6202SOL    HW219506   5.056   1.328   1.043
 6203SOL     OW19507   6.557   5.567   2.516
 6203SOL    HW119508   6.504   5.613   2.446
 6203SOL    HW219509   6.596   5.483   2.479
 6204SOL     OW19510   0.203   5.789   4.500
 6204SOL    HW119511   0.170   5.720   4.435
 6204SOL    HW219512   0.134   5.804   4.571
 6205SOL     OW19513   6.765   5.386   1.723
 6205SOL    HW119514   6.747   5.316   1.792
 6205SOL    HW219515   6.812   5.463   1.766
 6206SOL     OW19516   5.971   2.123   2.893
 6206SOL    HW119517   5.992   2.109   2.797
 6206SOL    HW219518   5.947   2.219   2.909
 6207SOL     OW19519   1.873   5.533   5.140
 6207SOL    HW119520   1.785   5.485   5.138
 6207SOL    HW219521   1.861   5.622   5.183
 6208SOL     OW19522   3.849   2.687   5.569
 6208SOL    HW119523   3.820   2.630   5.492
 6208SOL    HW219524   3.872   2.778   5.536
 6209SOL     OW19525   3.470   6.042   0.002
 6209SOL    HW119526   3.417   6.126   0.015
 6209SOL    HW219527   3.418   5.964   0.036
 6210SOL     OW19528   4.822   3.808   3.366
 6210SOL    HW119529   4.750   3.767   3.423
 6210SOL    HW219530   4.820   3.766   3.275
 6211SOL     OW19531   2.764   6.365   6.249
 6211SOL    HW119532   2.816   6.279   6.248
 6211SOL    HW219533   2.669   6.346   6.224
 6212SOL     OW19534   2.768   4.711   4.669
 6212SOL    HW119535   2.768   4.780   4.742
 6212SOL    HW219536   2.824   4.633   4.697
 6213SOL     OW19537   5.753   0.662   0.294
 6213SOL    HW119538   5.768   0.566   0.318
 6213SOL    HW219539   5.696   0.705   0.363
 6214SOL     OW19540   5.507   5.703   5.095
 6214SOL    HW119541   5.414   5.689   5.130
 6214SOL    HW219542   5.518   5.652   5.010
 6215SOL     OW19543   3.536   2.099   6.905
 6215SOL    HW119544   3.590   2.015   6.896
 6215SOL    HW219545   3.595   2.178   6.890
 6216SOL     OW19546   6.236   2.128   3.008
 6216SOL    HW119547   6.159   2.104   2.949
 6216SOL    HW219548   6.204   2.183   3.085
 6217SOL     OW19549   1.108   3.409   2.047
 6217SOL    HW119550   1.111   3.481   2.116
 6217SOL    HW219551   1.048   3.437   1.972
 6218SOL     OW19552   3.467   6.495   6.555
 6218SOL    HW119553   3.517   6.546   6.625
 6218SOL    HW219554   3.531   6.465   6.484
 6219SOL     OW19555   0.430   1.637   4.850
 6219SOL    HW119556   0.469   1.689   4.926
 6219SOL    HW219557   0.452   1.540   4.861
 6220SOL     OW19558   2.617   1.497   5.445
 6220SOL    HW119559   2.702   1.476   5.492
 6220SOL    HW219560   2.634   1.508   5.347
 6221SOL     OW19561   5.674   6.674   0.275
 6221SOL    HW119562   5.680   6.714   0.183
 6221SOL    HW219563   5.756   6.621   0.294
 6222SOL     OW19564   1.356   6.890   1.692
 6222SOL    HW119565   1.258   6.882   1.709
 6222SOL    HW219566   1.403   6.913   1.777
 6223SOL     OW19567   1.614   5.161   3.257
 6223SOL    HW119568   1.583   5.229   3.191
 6223SOL    HW219569   1.541   5.144   3.324
 6224SOL     OW19570   3.773   1.452   5.922
 6224SOL    HW119571   3.867   1.444   5.956
 6224SOL    HW219572   3.771   1.433   5.823
 6225SOL     OW19573   3.884   2.655   6.226
 6225SOL    HW119574   3.857   2.737   6.175
 6225SOL    HW219575   3.926   2.683   6.313
 6226SOL     OW19576   0.979   1.268   4.451
 6226SOL    HW119577   0.904   1.241   4.510
 6226SOL    HW219578   1.025   1.349   4.488
 6227SOL     OW19579   3.402   4.985   5.442
 6227SOL    HW119580   3.464   4.977   5.365
 6227SOL    HW219581   3.367   4.894   5.465
 6228SOL     OW19582   0.557   2.966   2.318
 6228SOL    HW119583   0.630   2.901   2.337
 6228SOL    HW219584   0.557   3.038   2.388
 6229SOL     OW19585   0.460   2.328   4.989
 6229SOL    HW119586   0.525   2.350   5.061
 6229SOL    HW219587   0.453   2.228   4.980
 6230SOL     OW19588   0.755   2.065   4.224
 6230SOL    HW119589   0.837   2.021   4.186
 6230SOL    HW219590   0.677   2.004   4.214
 6231SOL     OW19591   6.409   5.670   0.337
 6231SOL    HW119592   6.426   5.604   0.263
 6231SOL    HW219593   6.311   5.693   0.339
 6232SOL     OW19594   6.668   1.190   1.008
 6232SOL    HW119595   6.721   1.203   1.092
 6232SOL    HW219596   6.583   1.243   1.014
 6233SOL     OW19597   6.513   3.061   1.372
 6233SOL    HW119598   6.602   3.038   1.333
 6233SOL    HW219599   6.523   3.078   1.470
 6234SOL     OW19600   0.014   6.924   5.660
 6234SOL    HW119601   0.050   6.896   5.749
 6234SOL    HW219602   0.033   0.002   5.645
 6235SOL     OW19603   6.950   0.382   1.374
 6235SOL    HW119604   6.873   0.416   1.427
 6235SOL    HW219605   0.014   0.386   1.429
 6236SOL     OW19606   0.574   4.296   0.852
 6236SOL    HW119607   0.548   4.239   0.931
 6236SOL    HW219608   0.646   4.359   0.878
 6237SOL     OW19609   3.534   6.952   6.625
 6237SOL    HW119610   3.539   7.019   6.550
 6237SOL    HW219611   3.444   6.908   6.623
 6238SOL     OW19612   5.184   5.737   2.997
 6238SOL    HW119613   5.135   5.783   2.924
 6238SOL    HW219614   5.282   5.757   2.990
 6239SOL     OW19615   3.844   1.632   1.286
 6239SOL    HW119616   3.801   1.643   1.376
 6239SOL    HW219617   3.834   1.538   1.255
 6240SOL     OW19618   2.748   3.485   5.348
 6240SOL    HW119619   2.789   3.492   5.257
 6240SOL    HW219620   2.691   3.403   5.353
 6241SOL     OW19621   3.730   0.708   2.172
 6241SOL    HW119622   3.695   0.633   2.228
 6241SOL    HW219623   3.805   0.754   2.220
 6242SOL     OW19624   4.219   6.934   2.900
 6242SOL    HW119625   4.301   6.987   2.922
 6242SOL    HW219626   4.243   6.837   2.895
 6243SOL     OW19627   0.170   6.705   5.429
 6243SOL    HW119628   0.132   6.626   5.477
 6243SOL    HW219629   0.202   6.676   5.339
 6244SOL     OW19630   5.348   3.163   3.560
 6244SOL    HW119631   5.426   3.118   3.605
 6244SOL    HW219632   5.337   3.255   3.598
 6245SOL     OW19633   1.559   3.874   1.907
 6245SOL    HW119634   1.655   3.870   1.935
 6245SOL    HW219635   1.553   3.871   1.807
 6246SOL     OW19636   0.800   1.653   4.997
 6246SOL    HW119637   0.889   1.656   5.043
 6246SOL    HW219638   0.787   1.738   4.945
 6247SOL     OW19639   1.324   5.648   3.643
 6247SOL    HW119640   1.388   5.711   3.687
 6247SOL    HW219641   1.339   5.555   3.677
 6248SOL     OW19642   3.476   3.473   0.289
 6248SOL    HW119643   3.575   3.457   0.298
 6248SOL    HW219644   3.450   3.551   0.346
 6249SOL     OW19645   6.985   3.289   0.484
 6249SOL    HW119646   6.891   3.298   0.517
 6249SOL    HW219647   0.029   3.301   0.560
 6250SOL     OW19648   6.239   6.367   1.325
 6250SOL    HW119649   6.265   6.463   1.321
 6250SOL    HW219650   6.140   6.359   1.312
 6251SOL     OW19651   4.297   5.826   5.455
 6251SOL    HW119652   4.296   5.822   5.555
 6251SOL    HW219653   4.280   5.920   5.426
 6252SOL     OW19654   2.809   5.441   6.639
 6252SOL    HW119655   2.760   5.481   6.716
 6252SOL    HW219656   2.842   5.515   6.579
 6253SOL     OW19657   2.791   5.179   4.232
 6253SOL    HW119658   2.781   5.130   4.146
 6253SOL    HW219659   2.706   5.226   4.255
 6254SOL     OW19660   5.924   1.014   1.028
 6254SOL    HW119661   5.937   1.055   0.937
 6254SOL    HW219662   5.989   1.055   1.092
 6255SOL     OW19663   2.388   1.676   1.337
 6255SOL    HW119664   2.295   1.648   1.363
 6255SOL    HW219665   2.414   1.757   1.391
 6256SOL     OW19666   3.869   5.336   2.176
 6256SOL    HW119667   3.906   5.354   2.267
 6256SOL    HW219668   3.901   5.407   2.113
 6257SOL     OW19669   4.478   3.046   0.263
 6257SOL    HW119670   4.576   3.062   0.267
 6257SOL    HW219671   4.445   3.016   0.352
 6258SOL     OW19672   3.137   6.963   4.028
 6258SOL    HW119673   3.125   0.043   4.022
 6258SOL    HW219674   3.052   6.918   4.002
 6259SOL     OW19675   2.128   0.544   6.601
 6259SOL    HW119676   2.180   0.503   6.525
 6259SOL    HW219677   2.126   0.481   6.678
 6260SOL     OW19678   3.631   6.392   6.910
 6260SOL    HW119679   3.616   6.340   6.994
 6260SOL    HW219680   3.663   6.484   6.934
 6261SOL     OW19681   5.379   0.471   6.760
 6261SOL    HW119682   5.341   0.488   6.851
 6261SOL    HW219683   5.466   0.423   6.769
 6262SOL     OW19684   1.841   5.840   1.934
 6262SOL    HW119685   1.890   5.793   2.007
 6262SOL    HW219686   1.897   5.842   1.852
 6263SOL     OW19687   0.893   6.591   4.834
 6263SOL    HW119688   0.965   6.525   4.855
 6263SOL    HW219689   0.864   6.579   4.739
 6264SOL     OW19690   1.990   0.210   1.858
 6264SOL    HW119691   2.073   0.257   1.888
 6264SOL    HW219692   1.912   0.273   1.862
 6265SOL     OW19693   3.897   3.252   0.409
 6265SOL    HW119694   3.913   3.341   0.452
 6265SOL    HW219695   3.980   3.223   0.361
 6266SOL     OW19696   4.703   0.280   3.486
 6266SOL    HW119697   4.755   0.302   3.568
 6266SOL    HW219698   4.759   0.223   3.425
 6267SOL     OW19699   2.211   7.004   4.919
 6267SOL    HW119700   2.179   0.080   4.923
 6267SOL    HW219701   2.308   7.003   4.897
 6268SOL     OW19702   2.582   0.878   1.957
 6268SOL    HW119703   2.514   0.929   1.904
 6268SOL    HW219704   2.621   0.938   2.027
 6269SOL     OW19705   6.885   0.273   2.601
 6269SOL    HW119706   6.966   0.217   2.615
 6269SOL    HW219707   6.846   0.255   2.510
 6270SOL     OW19708   0.362   0.110   6.756
 6270SOL    HW119709   0.287   0.153   6.807
 6270SOL    HW219710   0.368   0.151   6.665
 6271SOL     OW19711   5.547   2.538   5.731
 6271SOL    HW119712   5.527   2.613   5.794
 6271SOL    HW219713   5.626   2.563   5.675
 6272SOL     OW19714   0.785   2.202   0.775
 6272SOL    HW119715   0.811   2.115   0.732
 6272SOL    HW219716   0.840   2.275   0.736
 6273SOL     OW19717   0.550   6.399   2.474
 6273SOL    HW119718   0.557   6.472   2.543
 6273SOL    HW219719   0.537   6.440   2.384
 6274SOL     OW19720   3.640   6.966   4.399
 6274SOL    HW119721   3.589   6.884   4.374
 6274SOL    HW219722   3.702   6.945   4.475
 6275SOL     OW19723   2.160   6.336   0.215
 6275SOL    HW119724   2.088   6.357   0.148
 6275SOL    HW219725   2.186   6.240   0.205
 6276SOL     OW19726   1.864   5.619   3.216
 6276SOL    HW119727   1.832   5.713   3.206
 6276SOL    HW219728   1.811   5.573   3.287
 6277SOL     OW19729   4.341   3.502   0.941
 6277SOL    HW119730   4.417   3.477   1.002
 6277SOL    HW219731   4.261   3.524   0.996
 6278SOL     OW19732   4.418   0.046   4.926
 6278SOL    HW119733   4.463   6.980   4.901
 6278SOL    HW219734   4.319   0.035   4.919
 6279SOL     OW19735   3.331   6.483   0.481
 6279SOL    HW119736   3.345   6.550   0.554
 6279SOL    HW219737   3.287   6.401   0.518
 6280SOL     OW19738   0.474   0.995   6.561
 6280SOL    HW119739   0.453   1.064   6.630
 6280SOL    HW219740   0.571   1.002   6.536
 6281SOL     OW19741   6.914   4.822   4.350
 6281SOL    HW119742   6.930   4.903   4.407
 6281SOL    HW219743   6.983   4.753   4.370
 6282SOL     OW19744   6.511   4.824   5.551
 6282SOL    HW119745   6.444   4.856   5.617
 6282SOL    HW219746   6.523   4.725   5.561
 6283SOL     OW19747   0.209   4.007   3.925
 6283SOL    HW119748   0.222   3.908   3.931
 6283SOL    HW219749   0.180   4.042   4.014
 6284SOL     OW19750   2.215   4.841   5.453
 6284SOL    HW119751   2.308   4.866   5.480
 6284SOL    HW219752   2.212   4.820   5.356
 6285SOL     OW19753   1.143   3.302   3.219
 6285SOL    HW119754   1.235   3.271   3.242
 6285SOL    HW219755   1.116   3.262   3.131
 6286SOL     OW19756   0.070   2.232   4.138
 6286SOL    HW119757   0.003   2.159   4.154
 6286SOL    HW219758   0.143   2.197   4.080
 6287SOL     OW19759   3.290   4.936   5.070
 6287SOL    HW119760   3.242   4.882   5.139
 6287SOL    HW219761   3.251   4.916   4.980
 6288SOL     OW19762   5.352   4.802   2.009
 6288SOL    HW119763   5.294   4.747   2.070
 6288SOL    HW219764   5.426   4.745   1.975
 6289SOL     OW19765   2.123   5.025   6.863
 6289SOL    HW119766   2.053   4.962   6.896
 6289SOL    HW219767   2.121   5.029   6.763
 6290SOL     OW19768   6.081   5.297   6.071
 6290SOL    HW119769   6.017   5.343   6.010
 6290SOL    HW219770   6.039   5.214   6.108
 6291SOL     OW19771   3.834   4.014   3.538
 6291SOL    HW119772   3.837   4.012   3.638
 6291SOL    HW219773   3.758   4.072   3.508
 6292SOL     OW19774   2.347   2.520   5.483
 6292SOL    HW119775   2.293   2.463   5.545
 6292SOL    HW219776   2.331   2.616   5.504
 6293SOL     OW19777   4.322   1.808   0.760
 6293SOL    HW119778   4.279   1.718   0.769
 6293SOL    HW219779   4.265   1.876   0.806
 6294SOL     OW19780   4.100   0.612   3.251
 6294SOL    HW119781   4.083   0.706   3.224
 6294SOL    HW219782   4.098   0.605   3.351
 6295SOL     OW19783   5.734   4.589   4.577
 6295SOL    HW119784   5.732   4.685   4.548
 6295SOL    HW219785   5.686   4.580   4.664
 6296SOL     OW19786   6.764   4.955   5.782
 6296SOL    HW119787   6.681   4.943   5.727
 6296SOL    HW219788   6.777   5.052   5.802
 6297SOL     OW19789   6.190   0.369   5.416
 6297SOL    HW119790   6.161   0.332   5.327
 6297SOL    HW219791   6.158   0.309   5.489
 6298SOL     OW19792   0.931   3.591   6.407
 6298SOL    HW119793   1.022   3.630   6.416
 6298SOL    HW219794   0.934   3.511   6.347
 6299SOL     OW19795   5.945   2.639   1.975
 6299SOL    HW119796   5.977   2.724   2.016
 6299SOL    HW219797   6.012   2.606   1.909
 6300SOL     OW19798   6.050   0.824   0.031
 6300SOL    HW119799   5.984   0.884   7.005
 6300SOL    HW219800   6.069   0.858   0.123
 6301SOL     OW19801   2.886   6.711   0.151
 6301SOL    HW119802   2.932   6.628   0.183
 6301SOL    HW219803   2.798   6.721   0.197
 6302SOL     OW19804   1.625   2.515   4.792
 6302SOL    HW119805   1.577   2.598   4.763
 6302SOL    HW219806   1.656   2.525   4.887
 6303SOL     OW19807   0.289   0.672   5.779
 6303SOL    HW119808   0.347   0.599   5.813
 6303SOL    HW219809   0.197   0.637   5.761
 6304SOL     OW19810   3.906   1.156   1.862
 6304SOL    HW119811   3.868   1.064   1.873
 6304SOL    HW219812   3.836   1.223   1.886
 6305SOL     OW19813   5.974   6.453   0.539
 6305SOL    HW119814   5.951   6.537   0.588
 6305SOL    HW219815   5.983   6.377   0.604
 6306SOL     OW19816   6.988   3.756   4.305
 6306SOL    HW119817   6.889   3.767   4.312
 6306SOL    HW219818   7.009   3.684   4.239
 6307SOL     OW19819   3.373   3.727   3.530
 6307SOL    HW119820   3.443   3.660   3.505
 6307SOL    HW219821   3.282   3.686   3.521
 6308SOL     OW19822   1.709   2.489   4.385
 6308SOL    HW119823   1.686   2.570   4.438
 6308SOL    HW219824   1.807   2.486   4.370
 6309SOL     OW19825   6.882   6.296   4.494
 6309SOL    HW119826   6.783   6.299   4.512
 6309SOL    HW219827   6.928   6.363   4.551
 6310SOL     OW19828   1.388   6.745   2.792
 6310SOL    HW119829   1.488   6.749   2.794
 6310SOL    HW219830   1.352   6.742   2.886
 6311SOL     OW19831   4.633   2.004   5.534
 6311SOL    HW119832   4.719   2.048   5.509
 6311SOL    HW219833   4.645   1.905   5.540
 6312SOL     OW19834   0.571   0.298   5.189
 6312SOL    HW119835   0.541   0.230   5.123
 6312SOL    HW219836   0.493   0.353   5.218
 6313SOL     OW19837   6.374   5.991   4.134
 6313SOL    HW119838   6.449   6.042   4.177
 6313SOL    HW219839   6.373   5.898   4.170
 6314SOL     OW19840   3.556   6.425   1.693
 6314SOL    HW119841   3.571   6.507   1.638
 6314SOL    HW219842   3.642   6.375   1.702
 6315SOL     OW19843   3.274   1.691   6.093
 6315SOL    HW119844   3.319   1.736   6.170
 6315SOL    HW219845   3.310   1.728   6.007
 6316SOL     OW19846   5.215   2.165   5.618
 6316SOL    HW119847   5.204   2.264   5.605
 6316SOL    HW219848   5.126   2.121   5.607
 6317SOL     OW19849   4.754   4.658   1.834
 6317SOL    HW119850   4.813   4.728   1.793
 6317SOL    HW219851   4.770   4.570   1.790
 6318SOL     OW19852   4.427   0.310   6.321
 6318SOL    HW119853   4.454   0.349   6.233
 6318SOL    HW219854   4.344   0.255   6.309
 6319SOL     OW19855   5.967   2.553   5.485
 6319SOL    HW119856   6.057   2.583   5.516
 6319SOL    HW219857   5.974   2.513   5.394
 6320SOL     OW19858   0.256   6.850   4.817
 6320SOL    HW119859   0.194   6.914   4.771
 6320SOL    HW219860   0.257   6.869   4.915
 6321SOL     OW19861   4.085   3.245   0.688
 6321SOL    HW119862   4.180   3.214   0.693
 6321SOL    HW219863   4.075   3.308   0.611
 6322SOL     OW19864   2.343   2.446   0.726
 6322SOL    HW119865   2.375   2.381   0.657
 6322SOL    HW219866   2.420   2.473   0.784
 6323SOL     OW19867   1.258   2.411   2.435
 6323SOL    HW119868   1.259   2.380   2.340
 6323SOL    HW219869   1.185   2.478   2.447
 6324SOL     OW19870   4.099   0.586   0.762
 6324SOL    HW119871   4.070   0.637   0.842
 6324SOL    HW219872   4.183   0.627   0.725
 6325SOL     OW19873   2.136   3.367   2.707
 6325SOL    HW119874   2.068   3.295   2.719
 6325SOL    HW219875   2.139   3.425   2.788
 6326SOL     OW19876   5.256   5.599   0.332
 6326SOL    HW119877   5.219   5.513   0.368
 6326SOL    HW219878   5.302   5.580   0.245
 6327SOL     OW19879   0.138   1.794   4.294
 6327SOL    HW119880   0.075   1.779   4.371
 6327SOL    HW219881   0.209   1.859   4.320
 6328SOL     OW19882   4.537   3.343   0.272
 6328SOL    HW119883   4.472   3.376   0.203
 6328SOL    HW219884   4.538   3.243   0.272
 6329SOL     OW19885   1.540   2.978   4.478
 6329SOL    HW119886   1.581   3.035   4.406
 6329SOL    HW219887   1.442   2.997   4.483
 6330SOL     OW19888   6.091   6.785   2.160
 6330SOL    HW119889   6.003   6.804   2.204
 6330SOL    HW219890   6.097   6.688   2.138
 6331SOL     OW19891   0.075   3.592   4.817
 6331SOL    HW119892   6.996   3.613   4.819
 6331SOL    HW219893   0.088   3.496   4.796
 6332SOL     OW19894   0.526   2.813   1.650
 6332SOL    HW119895   0.431   2.825   1.620
 6332SOL    HW219896   0.588   2.842   1.577
 6333SOL     OW19897   4.847   0.265   5.583
 6333SOL    HW119898   4.863   0.320   5.665
 6333SOL    HW219899   4.765   0.210   5.596
 6334SOL     OW19900   3.259   1.004   2.227
 6334SOL    HW119901   3.323   1.080   2.233
 6334SOL    HW219902   3.286   0.943   2.153
 6335SOL     OW19903   3.628   0.481   0.360
 6335SOL    HW119904   3.696   0.445   0.297
 6335SOL    HW219905   3.672   0.503   0.448
 6336SOL     OW19906   0.469   2.182   6.331
 6336SOL    HW119907   0.553   2.167   6.383
 6336SOL    HW219908   0.432   2.094   6.300
 6337SOL     OW19909   3.804   5.151   4.817
 6337SOL    HW119910   3.895   5.133   4.781
 6337SOL    HW219911   3.737   5.100   4.763
 6338SOL     OW19912   2.748   2.253   4.400
 6338SOL    HW119913   2.716   2.317   4.330
 6338SOL    HW219914   2.835   2.214   4.371
 6339SOL     OW19915   0.599   3.285   4.233
 6339SOL    HW119916   0.585   3.291   4.332
 6339SOL    HW219917   0.513   3.265   4.187
 6340SOL     OW19918   2.141   4.797   0.939
 6340SOL    HW119919   2.160   4.842   1.026
 6340SOL    HW219920   2.048   4.758   0.941
 6341SOL     OW19921   6.585   3.162   4.419
 6341SOL    HW119922   6.564   3.216   4.500
 6341SOL    HW219923   6.676   3.123   4.428
 6342SOL     OW19924   2.573   1.707   1.125
 6342SOL    HW119925   2.593   1.642   1.052
 6342SOL    HW219926   2.506   1.668   1.188
 6343SOL     OW19927   3.804   0.660   6.363
 6343SOL    HW119928   3.719   0.619   6.398
 6343SOL    HW219929   3.786   0.754   6.334
 6344SOL     OW19930   4.806   2.350   4.054
 6344SOL    HW119931   4.850   2.266   4.085
 6344SOL    HW219932   4.709   2.331   4.038
 6345SOL     OW19933   5.235   2.843   1.693
 6345SOL    HW119934   5.174   2.766   1.707
 6345SOL    HW219935   5.320   2.829   1.745
 6346SOL     OW19936   6.942   5.350   4.548
 6346SOL    HW119937   6.851   5.331   4.585
 6346SOL    HW219938   6.963   5.286   4.475
 6347SOL     OW19939   1.641   1.356   0.744
 6347SOL    HW119940   1.725   1.306   0.724
 6347SOL    HW219941   1.632   1.432   0.680
 6348SOL     OW19942   1.495   2.643   6.831
 6348SOL    HW119943   1.405   2.599   6.838
 6348SOL    HW219944   1.546   2.628   6.915
 6349SOL     OW19945   1.460   1.122   0.711
 6349SOL    HW119946   1.523   1.199   0.716
 6349SOL    HW219947   1.438   1.091   0.804
 6350SOL     OW19948   0.549   4.981   4.276
 6350SOL    HW119949   0.628   4.957   4.332
 6350SOL    HW219950   0.487   4.902   4.271
 6351SOL     OW19951   5.987   3.489   3.834
 6351SOL    HW119952   6.020   3.457   3.745
 6351SOL    HW219953   6.060   3.537   3.882
 6352SOL     OW19954   3.254   0.134   4.987
 6352SOL    HW119955   3.216   0.183   4.908
 6352SOL    HW219956   3.181   0.116   5.053
 6353SOL     OW19957   0.862   5.943   5.602
 6353SOL    HW119958   0.862   6.029   5.652
 6353SOL    HW219959   0.955   5.919   5.575
 6354SOL     OW19960   3.776   5.934   2.890
 6354SOL    HW119961   3.705   5.869   2.861
 6354SOL    HW219962   3.784   5.932   2.990
 6355SOL     OW19963   2.494   5.740   7.009
 6355SOL    HW119964   2.435   5.661   0.007
 6355SOL    HW219965   2.567   5.744   0.058
 6356SOL     OW19966   5.348   5.005   0.707
 6356SOL    HW119967   5.413   5.066   0.662
 6356SOL    HW219968   5.255   5.039   0.694
 6357SOL     OW19969   6.015   3.502   2.813
 6357SOL    HW119970   5.990   3.475   2.906
 6357SOL    HW219971   5.981   3.435   2.748
 6358SOL     OW19972   0.519   1.772   6.049
 6358SOL    HW119973   0.587   1.755   6.120
 6358SOL    HW219974   0.436   1.721   6.069
 6359SOL     OW19975   6.318   6.899   0.107
 6359SOL    HW119976   6.374   6.955   0.047
 6359SOL    HW219977   6.294   6.814   0.060
 6360SOL     OW19978   1.363   3.743   5.092
 6360SOL    HW119979   1.289   3.756   5.159
 6360SOL    HW219980   1.362   3.818   5.026
 6361SOL     OW19981   0.894   0.376   0.987
 6361SOL    HW119982   0.864   0.287   1.021
 6361SOL    HW219983   0.989   0.392   1.016
 6362SOL     OW19984   0.261   5.617   5.865
 6362SOL    HW119985   0.224   5.686   5.928
 6362SOL    HW219986   0.251   5.650   5.771
 6363SOL     OW19987   2.378   5.732   3.192
 6363SOL    HW119988   2.294   5.724   3.245
 6363SOL    HW219989   2.369   5.807   3.127
 6364SOL     OW19990   2.808   2.079   5.282
 6364SOL    HW119991   2.746   2.069   5.360
 6364SOL    HW219992   2.851   2.169   5.286
 6365SOL     OW19993   4.846   6.359   4.045
 6365SOL    HW119994   4.924   6.406   4.004
 6365SOL    HW219995   4.812   6.289   3.982
 6366SOL     OW19996   1.188   5.722   5.285
 6366SOL    HW119997   1.287   5.727   5.268
 6366SOL    HW219998   1.149   5.646   5.233
 6367SOL     OW19999   3.498   1.613   3.427
 6367SOL    HW120000   3.517   1.540   3.493
 6367SOL    HW220001   3.549   1.695   3.452
 6368SOL     OW20002   3.677   4.977   4.213
 6368SOL    HW120003   3.726   4.978   4.126
 6368SOL    HW220004   3.742   4.984   4.288
 6369SOL     OW20005   1.572   0.772   4.994
 6369SOL    HW120006   1.583   0.684   5.040
 6369SOL    HW220007   1.652   0.790   4.937
 6370SOL     OW20008   5.134   3.611   3.598
 6370SOL    HW120009   5.065   3.540   3.615
 6370SOL    HW220010   5.120   3.650   3.507
 6371SOL     OW20011   5.556   4.577   3.147
 6371SOL    HW120012   5.638   4.621   3.183
 6371SOL    HW220013   5.490   4.646   3.118
 6372SOL     OW20014   1.416   1.223   1.899
 6372SOL    HW120015   1.428   1.126   1.918
 6372SOL    HW220016   1.394   1.236   1.802
 6373SOL     OW20017   4.909   4.458   2.771
 6373SOL    HW120018   4.884   4.472   2.867
 6373SOL    HW220019   4.984   4.392   2.765
 6374SOL     OW20020   4.118   3.011   1.484
 6374SOL    HW120021   4.143   2.917   1.508
 6374SOL    HW220022   4.075   3.055   1.563
 6375SOL     OW20023   0.019   2.076   2.554
 6375SOL    HW120024   6.950   2.037   2.578
 6375SOL    HW220025   0.027   2.168   2.593
 6376SOL     OW20026   4.764   1.950   6.650
 6376SOL    HW120027   4.810   2.029   6.611
 6376SOL    HW220028   4.776   1.871   6.589
 6377SOL     OW20029   6.565   1.152   5.088
 6377SOL    HW120030   6.571   1.052   5.091
 6377SOL    HW220031   6.586   1.189   5.179
 6378SOL     OW20032   5.197   4.885   3.598
 6378SOL    HW120033   5.160   4.978   3.592
 6378SOL    HW220034   5.234   4.870   3.689
 6379SOL     OW20035   0.318   4.035   4.880
 6379SOL    HW120036   0.282   3.957   4.829
 6379SOL    HW220037   0.371   4.093   4.818
 6380SOL     OW20038   6.859   1.624   5.019
 6380SOL    HW120039   6.825   1.572   4.941
 6380SOL    HW220040   6.889   1.561   5.091
 6381SOL     OW20041   4.285   2.761   1.169
 6381SOL    HW120042   4.296   2.666   1.137
 6381SOL    HW220043   4.373   2.808   1.164
 6382SOL     OW20044   3.590   1.524   0.416
 6382SOL    HW120045   3.557   1.610   0.456
 6382SOL    HW220046   3.625   1.541   0.324
 6383SOL     OW20047   2.391   2.304   2.752
 6383SOL    HW120048   2.439   2.287   2.838
 6383SOL    HW220049   2.394   2.401   2.730
 6384SOL     OW20050   5.714   3.989   3.168
 6384SOL    HW120051   5.718   3.985   3.267
 6384SOL    HW220052   5.664   3.910   3.133
 6385SOL     OW20053   6.597   3.399   3.553
 6385SOL    HW120054   6.635   3.308   3.541
 6385SOL    HW220055   6.619   3.433   3.645
 6386SOL     OW20056   3.196   3.166   6.537
 6386SOL    HW120057   3.158   3.256   6.556
 6386SOL    HW220058   3.123   3.103   6.512
 6387SOL     OW20059   6.852   1.810   6.853
 6387SOL    HW120060   6.799   1.868   6.915
 6387SOL    HW220061   6.949   1.823   6.869
 6388SOL     OW20062   4.816   6.265   1.152
 6388SOL    HW120063   4.812   6.293   1.248
 6388SOL    HW220064   4.884   6.320   1.104
 6389SOL     OW20065   0.692   6.647   0.610
 6389SOL    HW120066   0.657   6.582   0.543
 6389SOL    HW220067   0.667   6.740   0.583
 6390SOL     OW20068   6.599   0.186   5.301
 6390SOL    HW120069   6.674   0.146   5.353
 6390SOL    HW220070   6.634   0.258   5.241
 6391SOL     OW20071   1.898   0.529   6.451
 6391SOL    HW120072   1.930   0.585   6.375
 6391SOL    HW220073   1.975   0.507   6.512
 6392SOL     OW20074   2.998   5.059   2.856
 6392SOL    HW120075   3.034   4.978   2.904
 6392SOL    HW220076   2.902   5.045   2.835
 6393SOL     OW20077   0.447   6.284   2.063
 6393SOL    HW120078   0.418   6.218   2.133
 6393SOL    HW220079   0.483   6.234   1.984
 6394SOL     OW20080   1.789   5.732   1.032
 6394SOL    HW120081   1.746   5.680   1.106
 6394SOL    HW220082   1.726   5.736   0.954
 6395SOL     OW20083   0.232   3.202   1.737
 6395SOL    HW120084   0.182   3.178   1.654
 6395SOL    HW220085   0.304   3.134   1.753
 6396SOL     OW20086   6.604   3.289   6.554
 6396SOL    HW120087   6.630   3.296   6.650
 6396SOL    HW220088   6.640   3.368   6.504
 6397SOL     OW20089   5.826   1.081   1.670
 6397SOL    HW120090   5.789   1.130   1.748
 6397SOL    HW220091   5.754   1.062   1.604
 6398SOL     OW20092   2.810   6.716   2.010
 6398SOL    HW120093   2.751   6.664   1.948
 6398SOL    HW220094   2.841   6.800   1.964
 6399SOL     OW20095   1.510   0.564   6.849
 6399SOL    HW120096   1.527   0.564   6.948
 6399SOL    HW220097   1.501   0.470   6.816
 6400SOL     OW20098   1.795   5.073   2.611
 6400SOL    HW120099   1.854   5.037   2.684
 6400SOL    HW220100   1.844   5.144   2.561
 6401SOL     OW20101   5.580   5.611   3.129
 6401SOL    HW120102   5.534   5.676   3.190
 6401SOL    HW220103   5.679   5.617   3.141
 6402SOL     OW20104   2.100   3.406   3.900
 6402SOL    HW120105   2.035   3.347   3.946
 6402SOL    HW220106   2.191   3.393   3.940
 6403SOL     OW20107   5.708   6.022   5.583
 6403SOL    HW120108   5.671   6.074   5.506
 6403SOL    HW220109   5.633   5.984   5.637
 6404SOL     OW20110   4.234   1.161   2.718
 6404SOL    HW120111   4.169   1.183   2.645
 6404SOL    HW220112   4.310   1.225   2.715
 6405SOL     OW20113   4.022   0.838   4.166
 6405SOL    HW120114   4.073   0.895   4.101
 6405SOL    HW220115   3.961   0.777   4.115
 6406SOL     OW20116   0.603   2.745   3.030
 6406SOL    HW120117   0.533   2.789   3.086
 6406SOL    HW220118   0.687   2.799   3.032
 6407SOL     OW20119   2.641   0.326   4.264
 6407SOL    HW120120   2.696   0.245   4.285
 6407SOL    HW220121   2.688   0.383   4.197
 6408SOL     OW20122   5.120   1.418   0.897
 6408SOL    HW120123   5.194   1.417   0.830
 6408SOL    HW220124   5.105   1.511   0.929
 6409SOL     OW20125   6.659   4.129   3.825
 6409SOL    HW120126   6.709   4.184   3.759
 6409SOL    HW220127   6.596   4.068   3.777
 6410SOL     OW20128   1.625   1.297   6.105
 6410SOL    HW120129   1.608   1.395   6.115
 6410SOL    HW220130   1.626   1.273   6.008
 6411SOL     OW20131   0.224   2.635   2.978
 6411SOL    HW120132   0.185   2.717   2.935
 6411SOL    HW220133   0.256   2.658   3.070
 6412SOL     OW20134   1.899   1.073   5.632
 6412SOL    HW120135   1.934   1.150   5.685
 6412SOL    HW220136   1.975   1.021   5.593
 6413SOL     OW20137   3.793   5.024   3.976
 6413SOL    HW120138   3.714   5.004   3.918
 6413SOL    HW220139   3.866   4.960   3.957
 6414SOL     OW20140   5.036   1.063   6.832
 6414SOL    HW120141   5.116   1.123   6.829
 6414SOL    HW220142   5.066   0.970   6.854
 6415SOL     OW20143   1.438   3.189   4.085
 6415SOL    HW120144   1.457   3.226   4.176
 6415SOL    HW220145   1.493   3.108   4.069
 6416SOL     OW20146   2.218   0.045   6.418
 6416SOL    HW120147   2.256   6.976   6.444
 6416SOL    HW220148   2.171   0.086   6.496
 6417SOL     OW20149   5.730   4.167   0.426
 6417SOL    HW120150   5.818   4.120   0.432
 6417SOL    HW220151   5.745   4.262   0.398
 6418SOL     OW20152   4.763   4.187   3.226
 6418SOL    HW120153   4.722   4.212   3.139
 6418SOL    HW220154   4.740   4.256   3.295
 6419SOL     OW20155   1.215   5.343   3.089
 6419SOL    HW120156   1.174   5.278   3.025
 6419SOL    HW220157   1.174   5.331   3.180
 6420SOL     OW20158   2.267   0.636   4.435
 6420SOL    HW120159   2.326   0.555   4.433
 6420SOL    HW220160   2.190   0.623   4.374
 6421SOL     OW20161   4.788   0.447   1.739
 6421SOL    HW120162   4.751   0.457   1.646
 6421SOL    HW220163   4.803   0.538   1.779
 6422SOL     OW20164   6.659   0.907   4.802
 6422SOL    HW120165   6.694   0.989   4.847
 6422SOL    HW220166   6.736   0.846   4.780
 6423SOL     OW20167   4.772   5.224   4.018
 6423SOL    HW120168   4.868   5.199   4.032
 6423SOL    HW220169   4.766   5.318   3.985
 6424SOL     OW20170   0.485   3.999   4.548
 6424SOL    HW120171   0.512   4.088   4.585
 6424SOL    HW220172   0.399   4.009   4.499
 6425SOL     OW20173   6.620   6.143   3.148
 6425SOL    HW120174   6.600   6.221   3.089
 6425SOL    HW220175   6.719   6.132   3.156
 6426SOL     OW20176   0.326   5.533   2.850
 6426SOL    HW120177   0.260   5.464   2.880
 6426SOL    HW220178   0.383   5.560   2.928
 6427SOL     OW20179   3.545   4.091   3.524
 6427SOL    HW120180   3.526   3.993   3.523
 6427SOL    HW220181   3.470   4.141   3.481
 6428SOL     OW20182   5.917   3.273   6.985
 6428SOL    HW120183   5.903   3.241   0.060
 6428SOL    HW220184   5.895   3.198   6.922
 6429SOL     OW20185   0.090   1.012   6.031
 6429SOL    HW120186   0.115   1.084   6.097
 6429SOL    HW220187   0.152   0.934   6.043
 6430SOL     OW20188   6.124   1.341   3.955
 6430SOL    HW120189   6.220   1.367   3.965
 6430SOL    HW220190   6.108   1.252   3.998
 6431SOL     OW20191   4.134   6.029   3.810
 6431SOL    HW120192   4.034   6.034   3.806
 6431SOL    HW220193   4.171   6.048   3.719
 6432SOL     OW20194   4.646   4.754   5.767
 6432SOL    HW120195   4.644   4.694   5.847
 6432SOL    HW220196   4.731   4.807   5.767
 6433SOL     OW20197   2.667   5.239   6.538
 6433SOL    HW120198   2.734   5.286   6.595
 6433SOL    HW220199   2.652   5.292   6.454
 6434SOL     OW20200   3.064   6.707   6.281
 6434SOL    HW120201   2.985   6.682   6.225
 6434SOL    HW220202   3.054   6.668   6.372
 6435SOL     OW20203   5.937   6.910   0.232
 6435SOL    HW120204   5.898   6.917   0.324
 6435SOL    HW220205   5.931   6.816   0.200
 6436SOL     OW20206   1.289   3.368   2.692
 6436SOL    HW120207   1.285   3.268   2.695
 6436SOL    HW220208   1.211   3.402   2.640
 6437SOL     OW20209   1.281   2.436   0.312
 6437SOL    HW120210   1.343   2.482   0.249
 6437SOL    HW220211   1.279   2.339   0.292
 6438SOL     OW20212   0.557   4.304   5.355
 6438SOL    HW120213   0.636   4.344   5.400
 6438SOL    HW220214   0.586   4.229   5.296
 6439SOL     OW20215   5.055   0.883   2.271
 6439SOL    HW120216   5.115   0.833   2.209
 6439SOL    HW220217   5.086   0.977   2.279
 6440SOL     OW20218   2.744   1.435   5.815
 6440SOL    HW120219   2.828   1.406   5.862
 6440SOL    HW220220   2.665   1.411   5.871
 6441SOL     OW20221   0.499   0.519   1.233
 6441SOL    HW120222   0.490   0.479   1.142
 6441SOL    HW220223   0.591   0.499   1.269
 6442SOL     OW20224   2.591   1.811   5.201
 6442SOL    HW120225   2.653   1.890   5.206
 6442SOL    HW220226   2.605   1.763   5.115
 6443SOL     OW20227   3.448   2.759   5.677
 6443SOL    HW120228   3.477   2.847   5.638
 6443SOL    HW220229   3.359   2.770   5.720
 6444SOL     OW20230   5.470   3.048   4.807
 6444SOL    HW120231   5.529   3.022   4.884
 6444SOL    HW220232   5.437   3.141   4.820
 6445SOL     OW20233   4.047   3.793   3.796
 6445SOL    HW120234   4.066   3.750   3.885
 6445SOL    HW220235   4.022   3.889   3.810
 6446SOL     OW20236   0.758   1.689   0.251
 6446SOL    HW120237   0.700   1.626   0.199
 6446SOL    HW220238   0.702   1.763   0.287
 6447SOL     OW20239   6.699   4.427   2.754
 6447SOL    HW120240   6.745   4.345   2.719
 6447SOL    HW220241   6.765   4.501   2.763
 6448SOL     OW20242   5.098   5.093   1.291
 6448SOL    HW120243   5.069   5.188   1.301
 6448SOL    HW220244   5.105   5.051   1.382
 6449SOL     OW20245   3.540   5.795   1.448
 6449SOL    HW120246   3.494   5.881   1.426
 6449SOL    HW220247   3.527   5.730   1.374
 6450SOL     OW20248   1.687   2.745   0.814
 6450SOL    HW120249   1.662   2.815   0.882
 6450SOL    HW220250   1.779   2.712   0.833
 6451SOL     OW20251   2.610   0.580   5.976
 6451SOL    HW120252   2.663   0.613   5.898
 6451SOL    HW220253   2.587   0.483   5.964
 6452SOL     OW20254   4.651   4.299   2.996
 6452SOL    HW120255   4.568   4.355   2.997
 6452SOL    HW220256   4.708   4.325   2.918
 6453SOL     OW20257   2.169   0.018   1.498
 6453SOL    HW120258   2.089   0.064   1.537
 6453SOL    HW220259   2.240   0.008   1.567
 6454SOL     OW20260   0.967   1.569   2.847
 6454SOL    HW120261   0.997   1.518   2.928
 6454SOL    HW220262   0.877   1.609   2.864
 6455SOL     OW20263   6.936   3.011   4.097
 6455SOL    HW120264   6.865   3.005   4.028
 6455SOL    HW220265   6.958   2.920   4.131
 6456SOL     OW20266   1.342   1.550   3.699
 6456SOL    HW120267   1.416   1.483   3.698
 6456SOL    HW220268   1.305   1.561   3.607
 6457SOL     OW20269   4.890   0.718   1.760
 6457SOL    HW120270   4.871   0.800   1.814
 6457SOL    HW220271   4.918   0.745   1.668
 6458SOL     OW20272   0.906   5.596   4.424
 6458SOL    HW120273   0.825   5.540   4.409
 6458SOL    HW220274   0.953   5.566   4.506
 6459SOL     OW20275   6.483   3.102   1.926
 6459SOL    HW120276   6.540   3.161   1.984
 6459SOL    HW220277   6.515   3.008   1.933
 6460SOL     OW20278   5.849   5.835   6.460
 6460SOL    HW120279   5.906   5.778   6.400
 6460SOL    HW220280   5.899   5.855   6.544
 6461SOL     OW20281   2.570   4.419   0.065
 6461SOL    HW120282   2.490   4.459   0.021
 6461SOL    HW220283   2.577   4.323   0.040
 6462SOL     OW20284   1.544   3.133   4.805
 6462SOL    HW120285   1.500   3.214   4.767
 6462SOL    HW220286   1.500   3.051   4.767
 6463SOL     OW20287   5.551   1.262   0.581
 6463SOL    HW120288   5.484   1.198   0.618
 6463SOL    HW220289   5.642   1.236   0.612
 6464SOL     OW20290   1.729   5.241   5.343
 6464SOL    HW120291   1.668   5.213   5.269
 6464SOL    HW220292   1.748   5.163   5.402
 6465SOL     OW20293   6.825   3.119   2.674
 6465SOL    HW120294   6.834   3.128   2.773
 6465SOL    HW220295   6.915   3.105   2.633
 6466SOL     OW20296   6.232   1.678   6.440
 6466SOL    HW120297   6.165   1.674   6.514
 6466SOL    HW220298   6.310   1.733   6.468
 6467SOL     OW20299   3.576   0.295   0.788
 6467SOL    HW120300   3.641   0.346   0.732
 6467SOL    HW220301   3.549   0.212   0.739
 6468SOL     OW20302   3.066   6.049   1.403
 6468SOL    HW120303   3.138   6.058   1.334
 6468SOL    HW220304   2.978   6.074   1.363
 6469SOL     OW20305   4.148   2.204   3.377
 6469SOL    HW120306   4.094   2.240   3.301
 6469SOL    HW220307   4.207   2.276   3.412
 6470SOL     OW20308   5.391   3.013   0.838
 6470SOL    HW120309   5.453   2.935   0.846
 6470SOL    HW220310   5.441   3.092   0.804
 6471SOL     OW20311   0.247   6.147   5.452
 6471SOL    HW120312   0.325   6.175   5.396
 6471SOL    HW220313   0.180   6.221   5.457
 6472SOL     OW20314   6.819   5.918   1.974
 6472SOL    HW120315   6.791   6.014   1.984
 6472SOL    HW220316   6.885   5.910   1.900
 6473SOL     OW20317   2.850   1.893   4.835
 6473SOL    HW120318   2.880   1.971   4.890
 6473SOL    HW220319   2.924   1.864   4.775
 6474SOL     OW20320   4.044   5.679   6.143
 6474SOL    HW120321   4.054   5.766   6.192
 6474SOL    HW220322   4.043   5.696   6.045
 6475SOL     OW20323   6.359   4.463   3.709
 6475SOL    HW120324   6.323   4.544   3.756
 6475SOL    HW220325   6.433   4.491   3.647
 6476SOL     OW20326   5.177   3.113   0.487
 6476SOL    HW120327   5.274   3.116   0.510
 6476SOL    HW220328   5.144   3.019   0.494
 6477SOL     OW20329   6.423   5.263   0.488
 6477SOL    HW120330   6.329   5.292   0.508
 6477SOL    HW220331   6.421   5.179   0.434
 6478SOL     OW20332   3.767   6.591   2.356
 6478SOL    HW120333   3.720   6.566   2.271
 6478SOL    HW220334   3.807   6.682   2.347
 6479SOL     OW20335   3.988   5.688   3.863
 6479SOL    HW120336   4.056   5.680   3.790
 6479SOL    HW220337   3.962   5.596   3.895
 6480SOL     OW20338   2.535   1.182   0.220
 6480SOL    HW120339   2.454   1.216   0.267
 6480SOL    HW220340   2.565   1.249   0.152
 6481SOL     OW20341   3.348   1.866   2.043
 6481SOL    HW120342   3.355   1.784   2.099
 6481SOL    HW220343   3.353   1.947   2.101
 6482SOL     OW20344   6.447   1.974   6.361
 6482SOL    HW120345   6.383   2.050   6.346
 6482SOL    HW220346   6.463   1.927   6.274
 6483SOL     OW20347   0.355   0.221   3.404
 6483SOL    HW120348   0.381   0.125   3.395
 6483SOL    HW220349   0.279   0.229   3.469
 6484SOL     OW20350   3.548   0.318   1.960
 6484SOL    HW120351   3.507   0.297   2.050
 6484SOL    HW220352   3.505   0.400   1.923
 6485SOL     OW20353   1.920   5.324   3.512
 6485SOL    HW120354   1.866   5.241   3.529
 6485SOL    HW220355   2.017   5.304   3.524
 6486SOL     OW20356   0.561   4.856   2.434
 6486SOL    HW120357   0.475   4.833   2.479
 6486SOL    HW220358   0.543   4.916   2.356
 6487SOL     OW20359   0.966   6.628   5.295
 6487SOL    HW120360   0.970   6.727   5.308
 6487SOL    HW220361   0.872   6.597   5.306
 6488SOL     OW20362   3.808   6.199   4.459
 6488SOL    HW120363   3.753   6.278   4.431
 6488SOL    HW220364   3.828   6.143   4.378
 6489SOL     OW20365   3.166   3.639   6.116
 6489SOL    HW120366   3.146   3.618   6.021
 6489SOL    HW220367   3.177   3.553   6.167
 6490SOL     OW20368   3.998   1.783   6.371
 6490SOL    HW120369   4.048   1.863   6.403
 6490SOL    HW220370   3.908   1.811   6.336
 6491SOL     OW20371   2.833   0.498   1.051
 6491SOL    HW120372   2.884   0.486   0.966
 6491SOL    HW220373   2.735   0.496   1.032
 6492SOL     OW20374   3.787   4.091   5.742
 6492SOL    HW120375   3.692   4.119   5.732
 6492SOL    HW220376   3.841   4.128   5.667
 6493SOL     OW20377   1.659   4.314   6.451
 6493SOL    HW120378   1.735   4.309   6.387
 6493SOL    HW220379   1.620   4.223   6.466
 6494SOL     OW20380   6.848   0.388   2.970
 6494SOL    HW120381   6.876   0.299   2.934
 6494SOL    HW220382   6.759   0.412   2.930
 6495SOL     OW20383   6.819   0.716   4.671
 6495SOL    HW120384   6.874   0.737   4.590
 6495SOL    HW220385   6.750   0.647   4.648
 6496SOL     OW20386   6.018   0.719   3.086
 6496SOL    HW120387   5.996   0.621   3.084
 6496SOL    HW220388   6.116   0.730   3.096
 6497SOL     OW20389   1.146   0.643   1.442
 6497SOL    HW120390   1.069   0.701   1.416
 6497SOL    HW220391   1.151   0.564   1.381
 6498SOL     OW20392   1.438   2.823   4.747
 6498SOL    HW120393   1.354   2.862   4.786
 6498SOL    HW220394   1.461   2.871   4.663
 6499SOL     OW20395   5.318   4.152   5.369
 6499SOL    HW120396   5.249   4.195   5.312
 6499SOL    HW220397   5.288   4.151   5.464
 6500SOL     OW20398   6.717   3.611   4.249
 6500SOL    HW120399   6.751   3.568   4.165
 6500SOL    HW220400   6.624   3.645   4.234
 6501SOL     OW20401   6.458   0.974   0.204
 6501SOL    HW120402   6.550   0.935   0.212
 6501SOL    HW220403   6.413   0.936   0.123
 6502SOL     OW20404   6.962   3.729   2.413
 6502SOL    HW120405   0.024   3.717   2.470
 6502SOL    HW220406   6.927   3.640   2.385
 6503SOL     OW20407   5.479   1.063   3.461
 6503SOL    HW120408   5.382   1.074   3.483
 6503SOL    HW220409   5.527   1.147   3.483
 6504SOL     OW20410   3.850   6.715   5.910
 6504SOL    HW120411   3.857   6.654   5.989
 6504SOL    HW220412   3.938   6.760   5.895
 6505SOL     OW20413   5.329   5.980   6.210
 6505SOL    HW120414   5.354   5.884   6.216
 6505SOL    HW220415   5.377   6.032   6.281
 6506SOL     OW20416   0.298   3.184   3.062
 6506SOL    HW120417   0.241   3.212   2.985
 6506SOL    HW220418   0.243   3.182   3.146
 6507SOL     OW20419   2.527   5.533   6.540
 6507SOL    HW120420   2.505   5.630   6.540
 6507SOL    HW220421   2.556   5.505   6.632
 6508SOL     OW20422   1.689   0.771   2.603
 6508SOL    HW120423   1.672   0.692   2.663
 6508SOL    HW220424   1.781   0.807   2.621
 6509SOL     OW20425   4.290   1.851   4.925
 6509SOL    HW120426   4.229   1.909   4.872
 6509SOL    HW220427   4.363   1.906   4.966
 6510SOL     OW20428   6.167   5.123   0.268
 6510SOL    HW120429   6.261   5.095   0.247
 6510SOL    HW220430   6.165   5.168   0.356
 6511SOL     OW20431   3.759   0.660   4.465
 6511SOL    HW120432   3.767   0.634   4.561
 6511SOL    HW220433   3.850   0.678   4.428
 6512SOL     OW20434   3.781   6.081   2.234
 6512SOL    HW120435   3.775   6.179   2.254
 6512SOL    HW220436   3.795   6.068   2.136
 6513SOL     OW20437   2.323   5.164   3.083
 6513SOL    HW120438   2.296   5.248   3.130
 6513SOL    HW220439   2.276   5.158   2.995
 6514SOL     OW20440   5.755   1.519   4.162
 6514SOL    HW120441   5.697   1.454   4.211
 6514SOL    HW220442   5.697   1.583   4.111
 6515SOL     OW20443   1.064   3.968   3.538
 6515SOL    HW120444   1.056   3.918   3.625
 6515SOL    HW220445   1.026   3.913   3.464
 6516SOL     OW20446   0.792   3.162   1.888
 6516SOL    HW120447   0.832   3.071   1.879
 6516SOL    HW220448   0.849   3.228   1.840
 6517SOL     OW20449   0.017   1.316   1.962
 6517SOL    HW120450   7.009   1.221   1.945
 6517SOL    HW220451   6.982   1.354   2.036
 6518SOL     OW20452   0.034   0.013   0.961
 6518SOL    HW120453   0.052   0.109   0.983
 6518SOL    HW220454   6.965   7.005   0.999
 6519SOL     OW20455   1.009   1.999   2.817
 6519SOL    HW120456   1.106   1.977   2.828
 6519SOL    HW220457   0.980   1.973   2.725
 6520SOL     OW20458   0.073   5.276   0.381
 6520SOL    HW120459   0.041   5.359   0.427
 6520SOL    HW220460   0.172   5.281   0.368
 6521SOL     OW20461   2.070   2.735   3.878
 6521SOL    HW120462   2.142   2.787   3.831
 6521SOL    HW220463   2.058   2.646   3.833
 6522SOL     OW20464   3.049   4.882   5.482
 6522SOL    HW120465   3.099   4.887   5.395
 6522SOL    HW220466   3.101   4.931   5.552
 6523SOL     OW20467   3.410   1.072   6.852
 6523SOL    HW120468   3.403   1.140   6.925
 6523SOL    HW220469   3.318   1.048   6.821
 6524SOL     OW20470   2.429   3.589   1.298
 6524SOL    HW120471   2.336   3.601   1.332
 6524SOL    HW220472   2.494   3.614   1.371
 6525SOL     OW20473   1.893   5.155   3.288
 6525SOL    HW120474   1.918   5.197   3.375
 6525SOL    HW220475   1.793   5.153   3.279
 6526SOL     OW20476   1.939   0.929   1.868
 6526SOL    HW120477   1.845   0.917   1.898
 6526SOL    HW220478   1.953   1.023   1.836
 6527SOL     OW20479   6.887   1.529   5.852
 6527SOL    HW120480   6.883   1.607   5.789
 6527SOL    HW220481   6.908   1.446   5.801
 6528SOL     OW20482   5.382   1.519   5.077
 6528SOL    HW120483   5.405   1.519   4.980
 6528SOL    HW220484   5.302   1.460   5.092
 6529SOL     OW20485   1.998   0.589   2.461
 6529SOL    HW120486   1.900   0.568   2.461
 6529SOL    HW220487   2.049   0.508   2.430
 6530SOL     OW20488   6.304   1.945   0.786
 6530SOL    HW120489   6.399   1.934   0.755
 6530SOL    HW220490   6.285   1.880   0.859
 6531SOL     OW20491   4.873   3.387   4.801
 6531SOL    HW120492   4.862   3.426   4.710
 6531SOL    HW220493   4.847   3.454   4.870
 6532SOL     OW20494   0.311   0.946   1.592
 6532SOL    HW120495   0.385   1.012   1.577
 6532SOL    HW220496   0.345   0.854   1.575
 6533SOL     OW20497   4.443   6.657   0.176
 6533SOL    HW120498   4.398   6.569   0.195
 6533SOL    HW220499   4.464   6.663   0.078
 6534SOL     OW20500   4.869   4.603   1.590
 6534SOL    HW120501   4.902   4.508   1.590
 6534SOL    HW220502   4.925   4.657   1.527
 6535SOL     OW20503   6.889   4.322   3.688
 6535SOL    HW120504   6.904   4.304   3.591
 6535SOL    HW220505   6.882   4.421   3.702
 6536SOL     OW20506   0.370   1.855   5.563
 6536SOL    HW120507   0.406   1.773   5.518
 6536SOL    HW220508   0.413   1.864   5.653
 6537SOL     OW20509   6.819   4.766   0.261
 6537SOL    HW120510   6.879   4.697   0.299
 6537SOL    HW220511   6.765   4.726   0.187
 6538SOL     OW20512   2.103   3.365   6.100
 6538SOL    HW120513   2.167   3.389   6.027
 6538SOL    HW220514   2.035   3.438   6.110
 6539SOL     OW20515   5.132   0.822   6.945
 6539SOL    HW120516   5.202   0.800   6.878
 6539SOL    HW220517   5.045   0.780   6.917
 6540SOL     OW20518   4.155   2.177   6.996
 6540SOL    HW120519   4.122   2.257   0.027
 6540SOL    HW220520   4.132   2.094   0.028
 6541SOL     OW20521   5.081   1.466   5.242
 6541SOL    HW120522   4.995   1.430   5.277
 6541SOL    HW220523   5.092   1.561   5.273
 6542SOL     OW20524   6.859   2.556   3.894
 6542SOL    HW120525   6.804   2.630   3.856
 6542SOL    HW220526   6.823   2.530   3.984
 6543SOL     OW20527   4.174   2.928   5.394
 6543SOL    HW120528   4.174   2.828   5.406
 6543SOL    HW220529   4.088   2.957   5.352
 6544SOL     OW20530   1.154   6.455   3.155
 6544SOL    HW120531   1.136   6.468   3.252
 6544SOL    HW220532   1.252   6.457   3.138
 6545SOL     OW20533   4.372   0.208   0.966
 6545SOL    HW120534   4.441   0.137   0.952
 6545SOL    HW220535   4.392   0.286   0.907
 6546SOL     OW20536   2.692   4.672   6.603
 6546SOL    HW120537   2.624   4.742   6.580
 6546SOL    HW220538   2.758   4.710   6.668
 6547SOL     OW20539   4.694   0.866   6.738
 6547SOL    HW120540   4.620   0.894   6.799
 6547SOL    HW220541   4.661   0.795   6.675
 6548SOL     OW20542   0.860   3.937   0.867
 6548SOL    HW120543   0.834   3.854   0.816
 6548SOL    HW220544   0.948   3.922   0.911
 6549SOL     OW20545   4.603   1.117   1.744
 6549SOL    HW120546   4.599   1.022   1.776
 6549SOL    HW220547   4.642   1.119   1.652
 6550SOL     OW20548   0.064   6.877   3.778
 6550SOL    HW120549   0.086   6.820   3.698
 6550SOL    HW220550   0.147   6.923   3.809
 6551SOL     OW20551   1.665   4.062   1.537
 6551SOL    HW120552   1.621   4.095   1.620
 6551SOL    HW220553   1.765   4.063   1.549
 6552SOL     OW20554   1.328   0.438   0.398
 6552SOL    HW120555   1.278   0.390   0.470
 6552SOL    HW220556   1.420   0.401   0.391
 6553SOL     OW20557   7.019   1.961   3.535
 6553SOL    HW120558   7.014   1.953   3.435
 6553SOL    HW220559   0.040   2.048   3.560
 6554SOL     OW20560   0.871   0.338   4.358
 6554SOL    HW120561   0.846   0.397   4.280
 6554SOL    HW220562   0.958   0.292   4.338
 6555SOL     OW20563   4.984   2.033   3.087
 6555SOL    HW120564   4.916   2.019   3.016
 6555SOL    HW220565   5.070   1.988   3.062
 6556SOL     OW20566   5.697   4.455   3.941
 6556SOL    HW120567   5.731   4.523   3.877
 6556SOL    HW220568   5.773   4.399   3.973
 6557SOL     OW20569   3.352   7.006   2.537
 6557SOL    HW120570   3.353   6.906   2.528
 6557SOL    HW220571   3.264   0.023   2.506
 6558SOL     OW20572   0.272   4.970   0.288
 6558SOL    HW120573   0.233   4.896   0.233
 6558SOL    HW220574   0.203   5.004   0.352
 6559SOL     OW20575   1.240   4.605   0.086
 6559SOL    HW120576   1.301   4.684   0.079
 6559SOL    HW220577   1.277   4.530   0.031
 6560SOL     OW20578   4.498   4.861   1.513
 6560SOL    HW120579   4.486   4.867   1.612
 6560SOL    HW220580   4.432   4.796   1.475
 6561SOL     OW20581   3.257   4.306   1.485
 6561SOL    HW120582   3.272   4.217   1.528
 6561SOL    HW220583   3.195   4.361   1.542
 6562SOL     OW20584   6.677   2.781   0.787
 6562SOL    HW120585   6.739   2.746   0.858
 6562SOL    HW220586   6.728   2.794   0.702
 6563SOL     OW20587   4.986   5.400   6.480
 6563SOL    HW120588   5.060   5.350   6.525
 6563SOL    HW220589   4.930   5.336   6.427
 6564SOL     OW20590   6.904   3.405   3.014
 6564SOL    HW120591   6.866   3.450   2.933
 6564SOL    HW220592   6.968   3.467   3.059
 6565SOL     OW20593   5.463   1.829   2.537
 6565SOL    HW120594   5.527   1.868   2.470
 6565SOL    HW220595   5.488   1.733   2.554
 6566SOL     OW20596   3.871   6.034   1.985
 6566SOL    HW120597   3.912   6.114   1.941
 6566SOL    HW220598   3.936   5.958   1.983
 6567SOL     OW20599   4.608   0.945   2.337
 6567SOL    HW120600   4.552   1.024   2.361
 6567SOL    HW220601   4.668   0.969   2.260
 6568SOL     OW20602   3.377   1.480   4.322
 6568SOL    HW120603   3.341   1.394   4.287
 6568SOL    HW220604   3.302   1.545   4.333
 6569SOL     OW20605   2.496   3.267   0.361
 6569SOL    HW120606   2.456   3.253   0.270
 6569SOL    HW220607   2.583   3.315   0.352
 6570SOL     OW20608   3.382   0.604   2.216
 6570SOL    HW120609   3.404   0.668   2.290
 6570SOL    HW220610   3.291   0.565   2.231
 6571SOL     OW20611   3.130   4.908   1.684
 6571SOL    HW120612   3.220   4.883   1.719
 6571SOL    HW220613   3.139   4.983   1.619
 6572SOL     OW20614   6.781   4.534   4.599
 6572SOL    HW120615   6.859   4.509   4.543
 6572SOL    HW220616   6.707   4.468   4.586
 6573SOL     OW20617   0.896   1.649   2.216
 6573SOL    HW120618   0.909   1.635   2.314
 6573SOL    HW220619   0.967   1.600   2.166
 6574SOL     OW20620   2.647   5.916   2.327
 6574SOL    HW120621   2.744   5.907   2.352
 6574SOL    HW220622   2.639   5.921   2.228
 6575SOL     OW20623   0.341   6.943   3.415
 6575SOL    HW120624   0.251   6.902   3.425
 6575SOL    HW220625   0.403   6.904   3.483
 6576SOL     OW20626   1.956   6.024   6.850
 6576SOL    HW120627   1.887   5.984   6.790
 6576SOL    HW220628   1.927   6.015   6.945
 6577SOL     OW20629   0.589   2.031   3.766
 6577SOL    HW120630   0.633   1.949   3.802
 6577SOL    HW220631   0.630   2.054   3.677
 6578SOL     OW20632   1.030   6.167   2.796
 6578SOL    HW120633   0.973   6.223   2.856
 6578SOL    HW220634   0.972   6.113   2.735
 6579SOL     OW20635   0.283   3.153   3.952
 6579SOL    HW120636   0.218   3.178   4.024
 6579SOL    HW220637   0.339   3.232   3.929
 6580SOL     OW20638   0.694   1.559   0.861
 6580SOL    HW120639   0.638   1.619   0.918
 6580SOL    HW220640   0.787   1.596   0.854
 6581SOL     OW20641   2.602   0.560   0.343
 6581SOL    HW120642   2.627   0.465   0.329
 6581SOL    HW220643   2.549   0.593   0.264
 6582SOL     OW20644   0.151   1.101   2.956
 6582SOL    HW120645   0.079   1.034   2.974
 6582SOL    HW220646   0.217   1.063   2.891
 6583SOL     OW20647   4.609   0.520   5.855
 6583SOL    HW120648   4.549   0.577   5.799
 6583SOL    HW220649   4.697   0.508   5.808
 6584SOL     OW20650   4.303   2.549   0.981
 6584SOL    HW120651   4.382   2.608   0.962
 6584SOL    HW220652   4.219   2.593   0.949
 6585SOL     OW20653   6.019   6.184   0.367
 6585SOL    HW120654   6.016   6.279   0.337
 6585SOL    HW220655   5.970   6.174   0.453
 6586SOL     OW20656   5.582   0.959   5.887
 6586SOL    HW120657   5.539   1.049   5.884
 6586SOL    HW220658   5.523   0.893   5.840
 6587SOL     OW20659   2.048   5.217   5.517
 6587SOL    HW120660   2.063   5.309   5.554
 6587SOL    HW220661   2.135   5.177   5.491
 6588SOL     OW20662   0.385   2.930   2.103
 6588SOL    HW120663   0.452   2.950   2.175
 6588SOL    HW220664   0.317   2.866   2.139
 6589SOL     OW20665   4.647   0.454   1.191
 6589SOL    HW120666   4.712   0.507   1.135
 6589SOL    HW220667   4.580   0.515   1.232
 6590SOL     OW20668   0.354   1.199   6.396
 6590SOL    HW120669   0.393   1.130   6.457
 6590SOL    HW220670   0.329   1.280   6.449
 6591SOL     OW20671   6.229   5.723   3.206
 6591SOL    HW120672   6.255   5.647   3.146
 6591SOL    HW220673   6.281   5.719   3.291
 6592SOL     OW20674   5.054   0.529   3.197
 6592SOL    HW120675   5.057   0.435   3.164
 6592SOL    HW220676   4.959   0.555   3.213
 6593SOL     OW20677   2.115   2.422   2.670
 6593SOL    HW120678   2.203   2.395   2.708
 6593SOL    HW220679   2.071   2.342   2.627
 6594SOL     OW20680   3.943   1.501   6.478
 6594SOL    HW120681   3.893   1.507   6.565
 6594SOL    HW220682   3.974   1.592   6.452
 6595SOL     OW20683   1.374   4.886   6.863
 6595SOL    HW120684   1.413   4.970   6.899
 6595SOL    HW220685   1.275   4.897   6.855
 6596SOL     OW20686   3.330   0.049   4.219
 6596SOL    HW120687   3.273   0.027   4.140
 6596SOL    HW220688   3.426   0.037   4.195
 6597SOL     OW20689   1.117   5.133   1.437
 6597SOL    HW120690   1.072   5.051   1.401
 6597SOL    HW220691   1.212   5.111   1.460
 6598SOL     OW20692   1.668   5.186   4.575
 6598SOL    HW120693   1.740   5.243   4.614
 6598SOL    HW220694   1.707   5.099   4.546
 6599SOL     OW20695   4.113   6.221   6.501
 6599SOL    HW120696   4.142   6.141   6.553
 6599SOL    HW220697   4.067   6.192   6.418
 6600SOL     OW20698   4.039   5.870   5.616
 6600SOL    HW120699   4.002   5.783   5.584
 6600SOL    HW220700   4.017   5.942   5.549
 6601SOL     OW20701   1.590   2.113   4.566
 6601SOL    HW120702   1.572   2.131   4.663
 6601SOL    HW220703   1.632   2.022   4.556
 6602SOL     OW20704   1.863   1.360   2.256
 6602SOL    HW120705   1.933   1.324   2.194
 6602SOL    HW220706   1.837   1.290   2.323
 6603SOL     OW20707   0.004   2.593   3.540
 6603SOL    HW120708   6.999   2.516   3.599
 6603SOL    HW220709   0.042   2.559   3.454
 6604SOL     OW20710   1.146   0.339   1.043
 6604SOL    HW120711   1.164   0.338   0.945
 6604SOL    HW220712   1.202   0.269   1.088
 6605SOL     OW20713   5.902   5.322   1.620
 6605SOL    HW120714   5.853   5.390   1.675
 6605SOL    HW220715   5.847   5.300   1.539
 6606SOL     OW20716   0.847   5.553   2.002
 6606SOL    HW120717   0.940   5.520   2.017
 6606SOL    HW220718   0.810   5.514   1.918
 6607SOL     OW20719   1.855   3.873   2.212
 6607SOL    HW120720   1.951   3.869   2.239
 6607SOL    HW220721   1.849   3.881   2.112
 6608SOL     OW20722   6.606   6.432   0.595
 6608SOL    HW120723   6.640   6.378   0.518
 6608SOL    HW220724   6.506   6.422   0.600
 6609SOL     OW20725   5.067   0.894   0.378
 6609SOL    HW120726   5.063   0.954   0.298
 6609SOL    HW220727   5.008   0.814   0.363
 6610SOL     OW20728   2.406   6.141   0.346
 6610SOL    HW120729   2.337   6.116   0.414
 6610SOL    HW220730   2.383   6.100   0.258
 6611SOL     OW20731   4.800   3.073   3.184
 6611SOL    HW120732   4.800   3.173   3.175
 6611SOL    HW220733   4.830   3.031   3.099
 6612SOL     OW20734   6.280   1.845   6.870
 6612SOL    HW120735   6.280   1.940   6.839
 6612SOL    HW220736   6.330   1.789   6.804
 6613SOL     OW20737   6.974   6.126   5.350
 6613SOL    HW120738   6.914   6.116   5.271
 6613SOL    HW220739   0.050   6.113   5.322
 6614SOL     OW20740   4.433   5.516   0.054
 6614SOL    HW120741   4.450   5.592   7.011
 6614SOL    HW220742   4.468   5.431   0.013
 6615SOL     OW20743   1.689   5.581   1.252
 6615SOL    HW120744   1.623   5.518   1.211
 6615SOL    HW220745   1.640   5.646   1.311
 6616SOL     OW20746   4.735   0.528   6.272
 6616SOL    HW120747   4.736   0.463   6.348
 6616SOL    HW220748   4.648   0.579   6.274
 6617SOL     OW20749   4.627   5.283   3.020
 6617SOL    HW120750   4.712   5.231   3.017
 6617SOL    HW220751   4.629   5.346   3.097
 6618SOL     OW20752   1.657   2.105   2.530
 6618SOL    HW120753   1.651   2.039   2.604
 6618SOL    HW220754   1.631   2.196   2.563
 6619SOL     OW20755   5.225   0.586   4.031
 6619SOL    HW120756   5.284   0.506   4.028
 6619SOL    HW220757   5.232   0.635   3.944
 6620SOL     OW20758   1.395   3.084   5.427
 6620SOL    HW120759   1.352   3.120   5.344
 6620SOL    HW220760   1.454   3.154   5.466
 6621SOL     OW20761   3.428   3.227   6.144
 6621SOL    HW120762   3.449   3.233   6.241
 6621SOL    HW220763   3.508   3.255   6.091
 6622SOL     OW20764   5.952   6.547   2.011
 6622SOL    HW120765   5.867   6.539   2.064
 6622SOL    HW220766   5.937   6.512   1.919
 6623SOL     OW20767   3.491   3.276   5.439
 6623SOL    HW120768   3.447   3.261   5.351
 6623SOL    HW220769   3.439   3.343   5.492
 6624SOL     OW20770   0.296   4.293   5.831
 6624SOL    HW120771   0.300   4.357   5.754
 6624SOL    HW220772   0.260   4.340   5.912
 6625SOL     OW20773   5.339   2.080   5.176
 6625SOL    HW120774   5.313   1.984   5.162
 6625SOL    HW220775   5.257   2.137   5.176
 6626SOL     OW20776   3.733   5.720   5.509
 6626SOL    HW120777   3.736   5.745   5.606
 6626SOL    HW220778   3.638   5.713   5.479
 6627SOL     OW20779   2.217   6.798   5.834
 6627SOL    HW120780   2.206   6.871   5.901
 6627SOL    HW220781   2.232   6.711   5.881
 6628SOL     OW20782   5.811   5.421   4.151
 6628SOL    HW120783   5.829   5.517   4.134
 6628SOL    HW220784   5.825   5.368   4.067
 6629SOL     OW20785   4.723   6.703   6.579
 6629SOL    HW120786   4.694   6.725   6.672
 6629SOL    HW220787   4.790   6.629   6.582
 6630SOL     OW20788   3.695   1.338   0.943
 6630SOL    HW120789   3.716   1.361   1.038
 6630SOL    HW220790   3.608   1.288   0.939
 6631SOL     OW20791   2.173   5.630   3.984
 6631SOL    HW120792   2.271   5.609   3.981
 6631SOL    HW220793   2.139   5.612   4.076
 6632SOL     OW20794   0.854   0.101   1.058
 6632SOL    HW120795   0.857   0.090   1.157
 6632SOL    HW220796   0.775   0.053   1.021
 6633SOL     OW20797   1.646   4.475   6.660
 6633SOL    HW120798   1.664   4.431   6.572
 6633SOL    HW220799   1.572   4.542   6.649
 6634SOL     OW20800   4.818   1.843   4.827
 6634SOL    HW120801   4.770   1.914   4.776
 6634SOL    HW220802   4.846   1.770   4.765
 6635SOL     OW20803   4.452   4.447   3.086
 6635SOL    HW120804   4.494   4.468   3.174
 6635SOL    HW220805   4.364   4.404   3.100
 6636SOL     OW20806   4.665   1.826   6.913
 6636SOL    HW120807   4.621   1.915   6.916
 6636SOL    HW220808   4.625   1.771   6.839
 6637SOL     OW20809   0.200   6.908   6.705
 6637SOL    HW120810   0.108   6.945   6.718
 6637SOL    HW220811   0.268   6.979   6.727
 6638SOL     OW20812   2.927   3.756   2.860
 6638SOL    HW120813   2.973   3.842   2.881
 6638SOL    HW220814   2.992   3.693   2.818
 6639SOL     OW20815   4.933   4.625   6.547
 6639SOL    HW120816   5.027   4.611   6.577
 6639SOL    HW220817   4.898   4.712   6.583
 6640SOL     OW20818   0.044   1.848   4.828
 6640SOL    HW120819   0.043   1.770   4.891
 6640SOL    HW220820   0.112   1.914   4.859
 6641SOL     OW20821   2.191   1.045   6.477
 6641SOL    HW120822   2.282   1.084   6.488
 6641SOL    HW220823   2.186   0.958   6.526
 6642SOL     OW20824   1.796   5.860   6.701
 6642SOL    HW120825   1.762   5.779   6.748
 6642SOL    HW220826   1.725   5.930   6.700
 6643SOL     OW20827   5.850   6.043   0.220
 6643SOL    HW120828   5.786   6.012   0.290
 6643SOL    HW220829   5.918   6.104   0.262
 6644SOL     OW20830   2.202   4.944   1.466
 6644SOL    HW120831   2.156   5.025   1.432
 6644SOL    HW220832   2.245   4.895   1.390
 6645SOL     OW20833   6.076   4.057   0.316
 6645SOL    HW120834   6.053   3.999   0.394
 6645SOL    HW220835   6.105   3.999   0.239
 6646SOL     OW20836   4.371   0.484   5.058
 6646SOL    HW120837   4.306   0.411   5.077
 6646SOL    HW220838   4.440   0.451   4.993
 6647SOL     OW20839   5.259   1.010   1.172
 6647SOL    HW120840   5.304   0.923   1.192
 6647SOL    HW220841   5.234   1.013   1.075
 6648SOL     OW20842   3.216   6.445   3.835
 6648SOL    HW120843   3.203   6.544   3.829
 6648SOL    HW220844   3.146   6.398   3.782
 6649SOL     OW20845   5.462   1.600   6.648
 6649SOL    HW120846   5.426   1.678   6.699
 6649SOL    HW220847   5.426   1.601   6.555
 6650SOL     OW20848   3.852   1.369   5.648
 6650SOL    HW120849   3.931   1.313   5.674
 6650SOL    HW220850   3.883   1.454   5.606
 6651SOL     OW20851   2.949   0.803   6.075
 6651SOL    HW120852   3.018   0.786   6.145
 6651SOL    HW220853   2.969   0.749   5.994
 6652SOL     OW20854   0.402   4.282   6.628
 6652SOL    HW120855   0.341   4.206   6.606
 6652SOL    HW220856   0.389   4.309   6.723
 6653SOL     OW20857   4.014   3.938   1.229
 6653SOL    HW120858   3.964   3.856   1.256
 6653SOL    HW220859   4.072   3.968   1.305
 6654SOL     OW20860   1.627   5.413   0.577
 6654SOL    HW120861   1.538   5.454   0.556
 6654SOL    HW220862   1.627   5.380   0.672
 6655SOL     OW20863   0.898   6.637   3.853
 6655SOL    HW120864   0.911   6.572   3.928
 6655SOL    HW220865   0.827   6.602   3.792
 6656SOL     OW20866   4.838   2.017   3.919
 6656SOL    HW120867   4.892   2.100   3.900
 6656SOL    HW220868   4.793   1.986   3.835
 6657SOL     OW20869   5.974   4.552   6.066
 6657SOL    HW120870   5.994   4.545   5.968
 6657SOL    HW220871   6.059   4.549   6.118
 6658SOL     OW20872   6.020   0.896   4.622
 6658SOL    HW120873   6.033   0.995   4.617
 6658SOL    HW220874   6.038   0.864   4.715
 6659SOL     OW20875   1.935   3.266   0.188
 6659SOL    HW120876   1.959   3.266   0.285
 6659SOL    HW220877   1.915   3.359   0.158
 6660SOL     OW20878   1.335   4.693   1.208
 6660SOL    HW120879   1.273   4.694   1.286
 6660SOL    HW220880   1.319   4.774   1.151
 6661SOL     OW20881   1.733   0.148   5.270
 6661SOL    HW120882   1.782   0.223   5.315
 6661SOL    HW220883   1.753   0.148   5.172
 6662SOL     OW20884   0.918   6.950   6.903
 6662SOL    HW120885   0.842   6.910   6.955
 6662SOL    HW220886   0.969   7.012   6.962
 6663SOL     OW20887   6.442   5.788   4.626
 6663SOL    HW120888   6.362   5.793   4.686
 6663SOL    HW220889   6.456   5.694   4.596
 6664SOL     OW20890   2.253   6.786   0.424
 6664SOL    HW120891   2.216   6.813   0.513
 6664SOL    HW220892   2.242   6.687   0.413
 6665SOL     OW20893   1.563   6.195   4.395
 6665SOL    HW120894   1.568   6.184   4.494
 6665SOL    HW220895   1.652   6.179   4.355
 6666SOL     OW20896   6.033   6.071   6.280
 6666SOL    HW120897   5.962   6.066   6.351
 6666SOL    HW220898   6.075   5.981   6.269
 6667SOL     OW20899   5.935   6.651   6.383
 6667SOL    HW120900   6.015   6.693   6.338
 6667SOL    HW220901   5.953   6.554   6.399
 6668SOL     OW20902   6.780   5.650   0.479
 6668SOL    HW120903   6.835   5.589   0.536
 6668SOL    HW220904   6.841   5.711   0.428
 6669SOL     OW20905   2.242   2.081   2.618
 6669SOL    HW120906   2.165   2.129   2.576
 6669SOL    HW220907   2.313   2.147   2.643
 6670SOL     OW20908   3.113   1.845   5.022
 6670SOL    HW120909   3.130   1.915   5.090
 6670SOL    HW220910   3.017   1.817   5.026
 6671SOL     OW20911   4.792   6.808   0.473
 6671SOL    HW120912   4.808   6.774   0.381
 6671SOL    HW220913   4.695   6.829   0.484
 6672SOL     OW20914   6.732   2.869   6.588
 6672SOL    HW120915   6.648   2.877   6.534
 6672SOL    HW220916   6.727   2.931   6.666
 6673SOL     OW20917   4.541   4.406   4.382
 6673SOL    HW120918   4.458   4.351   4.378
 6673SOL    HW220919   4.557   4.436   4.476
 6674SOL     OW20920   0.623   3.964   6.599
 6674SOL    HW120921   0.530   3.993   6.578
 6674SOL    HW220922   0.639   3.872   6.565
 6675SOL     OW20923   5.926   3.519   0.073
 6675SOL    HW120924   5.907   3.429   0.035
 6675SOL    HW220925   5.955   3.582   0.000
 6676SOL     OW20926   1.012   4.349   5.552
 6676SOL    HW120927   1.002   4.329   5.650
 6676SOL    HW220928   1.092   4.300   5.517
 6677SOL     OW20929   1.127   1.799   6.214
 6677SOL    HW120930   1.047   1.825   6.269
 6677SOL    HW220931   1.099   1.786   6.119
 6678SOL     OW20932   3.156   3.298   0.001
 6678SOL    HW120933   3.091   3.223   0.005
 6678SOL    HW220934   3.194   3.315   0.091
 6679SOL     OW20935   3.404   0.995   3.894
 6679SOL    HW120936   3.402   1.026   3.799
 6679SOL    HW220937   3.350   1.058   3.951
 6680SOL     OW20938   5.125   6.772   6.561
 6680SOL    HW120939   5.072   6.841   6.611
 6680SOL    HW220940   5.134   6.690   6.617
 6681SOL     OW20941   4.133   5.065   1.467
 6681SOL    HW120942   4.200   5.040   1.396
 6681SOL    HW220943   4.172   5.132   1.529
 6682SOL     OW20944   1.461   4.339   1.493
 6682SOL    HW120945   1.527   4.308   1.562
 6682SOL    HW220946   1.495   4.422   1.449
 6683SOL     OW20947   5.986   3.739   4.962
 6683SOL    HW120948   5.899   3.757   5.007
 6683SOL    HW220949   6.018   3.647   4.985
 6684SOL     OW20950   2.898   6.523   1.695
 6684SOL    HW120951   2.942   6.582   1.628
 6684SOL    HW220952   2.816   6.569   1.731
 6685SOL     OW20953   5.777   2.671   5.636
 6685SOL    HW120954   5.855   2.619   5.601
 6685SOL    HW220955   5.810   2.748   5.691
 6686SOL     OW20956   4.931   5.867   3.874
 6686SOL    HW120957   4.983   5.904   3.798
 6686SOL    HW220958   4.940   5.767   3.875
 6687SOL     OW20959   0.971   3.463   1.226
 6687SOL    HW120960   1.067   3.438   1.235
 6687SOL    HW220961   0.923   3.395   1.170
 6688SOL     OW20962   6.156   4.513   2.386
 6688SOL    HW120963   6.172   4.466   2.300
 6688SOL    HW220964   6.197   4.461   2.461
 6689SOL     OW20965   3.734   3.489   6.618
 6689SOL    HW120966   3.647   3.449   6.643
 6689SOL    HW220967   3.776   3.436   6.544
 6690SOL     OW20968   0.640   1.057   0.973
 6690SOL    HW120969   0.632   1.007   0.887
 6690SOL    HW220970   0.553   1.051   1.023
 6691SOL     OW20971   2.707   6.583   2.443
 6691SOL    HW120972   2.727   6.553   2.350
 6691SOL    HW220973   2.616   6.625   2.446
 6692SOL     OW20974   3.237   3.274   3.907
 6692SOL    HW120975   3.208   3.349   3.967
 6692SOL    HW220976   3.170   3.200   3.910
 6693SOL     OW20977   3.534   2.515   5.356
 6693SOL    HW120978   3.575   2.598   5.317
 6693SOL    HW220979   3.436   2.528   5.369
 6694SOL     OW20980   4.524   5.434   1.184
 6694SOL    HW120981   4.490   5.498   1.254
 6694SOL    HW220982   4.450   5.372   1.158
 6695SOL     OW20983   3.113   2.117   6.976
 6695SOL    HW120984   3.160   2.185   6.921
 6695SOL    HW220985   3.050   2.162   0.020
 6696SOL     OW20986   3.072   3.202   5.015
 6696SOL    HW120987   3.158   3.252   5.023
 6696SOL    HW220988   3.080   3.116   5.066
 6697SOL     OW20989   4.914   2.118   2.815
 6697SOL    HW120990   4.894   2.052   2.742
 6697SOL    HW220991   4.835   2.177   2.829
 6698SOL     OW20992   2.659   2.078   0.649
 6698SOL    HW120993   2.694   2.057   0.558
 6698SOL    HW220994   2.735   2.105   0.708
 6699SOL     OW20995   2.553   5.692   5.656
 6699SOL    HW120996   2.625   5.708   5.724
 6699SOL    HW220997   2.579   5.735   5.570
 6700SOL     OW20998   0.916   0.762   1.395
 6700SOL    HW120999   0.900   0.800   1.486
 6700SOL    HW221000   0.885   0.828   1.326
 6701SOL     OW21001   5.748   4.777   2.567
 6701SOL    HW121002   5.822   4.839   2.595
 6701SOL    HW221003   5.739   4.778   2.468
 6702SOL     OW21004   2.806   2.176   1.640
 6702SOL    HW121005   2.766   2.267   1.638
 6702SOL    HW221006   2.752   2.114   1.582
 6703SOL     OW21007   6.053   1.204   0.017
 6703SOL    HW121008   6.017   1.287   6.993
 6703SOL    HW221009   6.083   1.224   0.110
 6704SOL     OW21010   3.975   1.692   3.552
 6704SOL    HW121011   3.952   1.620   3.618
 6704SOL    HW221012   4.074   1.698   3.541
 6705SOL     OW21013   6.418   3.687   1.437
 6705SOL    HW121014   6.417   3.742   1.521
 6705SOL    HW221015   6.379   3.597   1.456
 6706SOL     OW21016   1.194   4.426   1.400
 6706SOL    HW121017   1.161   4.351   1.343
 6706SOL    HW221018   1.289   4.409   1.427
 6707SOL     OW21019   6.216   6.648   3.967
 6707SOL    HW121020   6.196   6.629   3.870
 6707SOL    HW221021   6.286   6.585   3.999
 6708SOL     OW21022   0.297   4.772   0.517
 6708SOL    HW121023   0.277   4.790   0.613
 6708SOL    HW221024   0.270   4.850   0.462
 6709SOL     OW21025   2.446   6.007   2.726
 6709SOL    HW121026   2.357   5.966   2.704
 6709SOL    HW221027   2.483   5.964   2.809
 6710SOL     OW21028   3.644   1.698   5.961
 6710SOL    HW121029   3.707   1.730   6.031
 6710SOL    HW221030   3.676   1.610   5.925
 6711SOL     OW21031   4.676   5.906   5.697
 6711SOL    HW121032   4.731   5.861   5.767
 6711SOL    HW221033   4.652   5.839   5.626
 6712SOL     OW21034   5.363   4.129   0.678
 6712SOL    HW121035   5.374   4.071   0.598
 6712SOL    HW221036   5.266   4.144   0.695
 6713SOL     OW21037   2.215   0.239   2.525
 6713SOL    HW121038   2.245   0.300   2.451
 6713SOL    HW221039   2.206   0.146   2.490
 6714SOL     OW21040   6.961   0.853   5.859
 6714SOL    HW121041   6.993   0.877   5.768
 6714SOL    HW221042   6.990   0.923   5.925
 6715SOL     OW21043   0.384   0.126   0.183
 6715SOL    HW121044   0.464   0.067   0.174
 6715SOL    HW221045   0.358   0.161   0.093
 6716SOL     OW21046   0.233   5.625   1.916
 6716SOL    HW121047   0.148   5.584   1.948
 6716SOL    HW221048   0.220   5.724   1.905
 6717SOL     OW21049   3.868   2.288   6.679
 6717SOL    HW121050   3.824   2.293   6.769
 6717SOL    HW221051   3.957   2.245   6.689
 6718SOL     OW21052   5.701   0.762   1.209
 6718SOL    HW121053   5.602   0.755   1.220
 6718SOL    HW221054   5.745   0.745   1.297
 6719SOL     OW21055   2.317   6.564   6.247
 6719SOL    HW121056   2.302   6.536   6.342
 6719SOL    HW221057   2.402   6.616   6.240
 6720SOL     OW21058   1.583   0.534   4.366
 6720SOL    HW121059   1.588   0.624   4.323
 6720SOL    HW221060   1.493   0.494   4.349
 6721SOL     OW21061   6.572   0.091   0.299
 6721SOL    HW121062   6.504   0.134   0.241
 6721SOL    HW221063   6.546   0.103   0.395
 6722SOL     OW21064   0.261   2.888   1.871
 6722SOL    HW121065   0.178   2.853   1.915
 6722SOL    HW221066   0.321   2.928   1.941
 6723SOL     OW21067   1.677   6.538   3.744
 6723SOL    HW121068   1.723   6.603   3.683
 6723SOL    HW221069   1.670   6.577   3.836
 6724SOL     OW21070   1.754   3.101   6.295
 6724SOL    HW121071   1.671   3.065   6.336
 6724SOL    HW221072   1.746   3.200   6.283
 6725SOL     OW21073   0.290   3.726   1.554
 6725SOL    HW121074   0.381   3.696   1.585
 6725SOL    HW221075   0.234   3.748   1.634
 6726SOL     OW21076   1.022   2.477   5.200
 6726SOL    HW121077   0.996   2.487   5.296
 6726SOL    HW221078   0.970   2.541   5.144
 6727SOL     OW21079   0.381   4.631   5.320
 6727SOL    HW121080   0.414   4.547   5.363
 6727SOL    HW221081   0.288   4.651   5.351
 6728SOL     OW21082   3.460   2.063   2.196
 6728SOL    HW121083   3.497   2.154   2.176
 6728SOL    HW221084   3.428   2.060   2.291
 6729SOL     OW21085   6.581   0.718   2.879
 6729SOL    HW121086   6.673   0.740   2.910
 6729SOL    HW221087   6.552   0.784   2.810
 6730SOL     OW21088   2.029   6.865   1.147
 6730SOL    HW121089   2.073   6.841   1.234
 6730SOL    HW221090   1.985   6.955   1.155
 6731SOL     OW21091   0.786   6.246   1.006
 6731SOL    HW121092   0.776   6.146   1.000
 6731SOL    HW221093   0.745   6.288   0.925
 6732SOL     OW21094   5.599   5.021   4.781
 6732SOL    HW121095   5.565   5.110   4.812
 6732SOL    HW221096   5.521   4.962   4.759
 6733SOL     OW21097   3.742   5.284   6.589
 6733SOL    HW121098   3.786   5.356   6.536
 6733SOL    HW221099   3.812   5.221   6.623
 6734SOL     OW21100   5.949   2.620   4.250
 6734SOL    HW121101   5.931   2.686   4.323
 6734SOL    HW221102   5.980   2.668   4.168
 6735SOL     OW21103   6.590   4.085   4.992
 6735SOL    HW121104   6.560   4.180   5.006
 6735SOL    HW221105   6.624   4.048   5.079
 6736SOL     OW21106   3.504   3.708   0.413
 6736SOL    HW121107   3.461   3.797   0.403
 6736SOL    HW221108   3.602   3.719   0.433
 6737SOL     OW21109   1.503   2.517   0.871
 6737SOL    HW121110   1.533   2.566   0.953
 6737SOL    HW221111   1.551   2.429   0.865
 6738SOL     OW21112   1.614   6.029   3.042
 6738SOL    HW121113   1.538   5.975   3.006
 6738SOL    HW221114   1.679   6.048   2.969
 6739SOL     OW21115   3.888   5.898   4.915
 6739SOL    HW121116   3.806   5.950   4.894
 6739SOL    HW221117   3.919   5.850   4.833
 6740SOL     OW21118   0.962   0.795   4.894
 6740SOL    HW121119   0.914   0.806   4.807
 6740SOL    HW221120   1.052   0.838   4.888
 6741SOL     OW21121   4.236   1.601   5.179
 6741SOL    HW121122   4.180   1.587   5.261
 6741SOL    HW221123   4.241   1.515   5.127
 6742SOL     OW21124   5.681   6.301   2.543
 6742SOL    HW121125   5.765   6.258   2.577
 6742SOL    HW221126   5.656   6.377   2.602
 6743SOL     OW21127   3.985   5.281   6.755
 6743SOL    HW121128   4.001   5.327   6.842
 6743SOL    HW221129   3.990   5.349   6.681
 6744SOL     OW21130   5.824   4.155   6.190
 6744SOL    HW121131   5.867   4.183   6.104
 6744SOL    HW221132   5.737   4.111   6.170
 6745SOL     OW21133   6.829   6.684   3.566
 6745SOL    HW121134   6.812   6.613   3.634
 6745SOL    HW221135   6.819   6.645   3.474
 6746SOL     OW21136   1.013   1.378   3.480
 6746SOL    HW121137   1.021   1.427   3.567
 6746SOL    HW221138   0.919   1.381   3.448
 6747SOL     OW21139   5.418   1.363   4.844
 6747SOL    HW121140   5.343   1.301   4.864
 6747SOL    HW221141   5.382   1.450   4.810
 6748SOL     OW21142   3.138   1.301   4.273
 6748SOL    HW121143   3.132   1.306   4.372
 6748SOL    HW221144   3.061   1.249   4.237
 6749SOL     OW21145   3.241   5.036   0.489
 6749SOL    HW121146   3.310   4.997   0.550
 6749SOL    HW221147   3.170   4.968   0.471
 6750SOL     OW21148   4.011   1.709   5.033
 6750SOL    HW121149   4.025   1.801   5.068
 6750SOL    HW221150   4.075   1.646   5.079
 6751SOL     OW21151   4.543   6.647   3.714
 6751SOL    HW121152   4.497   6.706   3.648
 6751SOL    HW221153   4.621   6.696   3.754
 6752SOL     OW21154   0.991   1.424   3.180
 6752SOL    HW121155   0.950   1.513   3.161
 6752SOL    HW221156   1.025   1.422   3.274
 6753SOL     OW21157   2.884   0.244   6.600
 6753SOL    HW121158   2.831   0.327   6.619
 6753SOL    HW221159   2.956   0.234   6.669
 6754SOL     OW21160   6.939   1.700   0.648
 6754SOL    HW121161   6.962   1.632   0.578
 6754SOL    HW221162   7.014   1.708   0.713
 6755SOL     OW21163   4.376   0.704   2.718
 6755SOL    HW121164   4.398   0.667   2.808
 6755SOL    HW221165   4.310   0.643   2.673
 6756SOL     OW21166   3.785   5.485   5.070
 6756SOL    HW121167   3.789   5.477   5.169
 6756SOL    HW221168   3.713   5.426   5.034
 6757SOL     OW21169   4.383   2.319   1.075
 6757SOL    HW121170   4.440   2.278   1.004
 6757SOL    HW221171   4.346   2.406   1.041
 6758SOL     OW21172   6.334   1.633   1.731
 6758SOL    HW121173   6.305   1.700   1.799
 6758SOL    HW221174   6.432   1.641   1.715
 6759SOL     OW21175   0.889   3.872   4.656
 6759SOL    HW121176   0.947   3.885   4.736
 6759SOL    HW221177   0.816   3.807   4.678
 6760SOL     OW21178   6.766   3.955   2.386
 6760SOL    HW121179   6.695   3.897   2.347
 6760SOL    HW221180   6.853   3.905   2.387
 6761SOL     OW21181   6.482   2.617   5.713
 6761SOL    HW121182   6.545   2.571   5.776
 6761SOL    HW221183   6.497   2.583   5.620
 6762SOL     OW21184   1.007   5.245   4.870
 6762SOL    HW121185   1.091   5.287   4.837
 6762SOL    HW221186   0.969   5.300   4.945
 6763SOL     OW21187   0.880   5.198   3.217
 6763SOL    HW121188   0.934   5.277   3.248
 6763SOL    HW221189   0.793   5.197   3.267
 6764SOL     OW21190   1.476   5.417   1.190
 6764SOL    HW121191   1.402   5.411   1.123
 6764SOL    HW221192   1.438   5.410   1.282
 6765SOL     OW21193   5.944   4.221   3.749
 6765SOL    HW121194   5.968   4.313   3.780
 6765SOL    HW221195   6.002   4.195   3.673
 6766SOL     OW21196   4.939   0.100   5.982
 6766SOL    HW121197   4.918   0.177   6.043
 6766SOL    HW221198   5.006   0.040   6.026
 6767SOL     OW21199   1.596   2.000   1.125
 6767SOL    HW121200   1.613   2.096   1.105
 6767SOL    HW221201   1.551   1.991   1.214
 6768SOL     OW21202   1.434   6.725   3.865
 6768SOL    HW121203   1.365   6.653   3.857
 6768SOL    HW221204   1.436   6.758   3.960
 6769SOL     OW21205   3.049   0.912   5.582
 6769SOL    HW121206   3.141   0.874   5.594
 6769SOL    HW221207   3.056   1.006   5.549
 6770SOL     OW21208   5.294   2.114   3.399
 6770SOL    HW121209   5.332   2.133   3.309
 6770SOL    HW221210   5.354   2.152   3.470
 6771SOL     OW21211   3.670   1.618   2.175
 6771SOL    HW121212   3.762   1.608   2.138
 6771SOL    HW221213   3.661   1.709   2.216
 6772SOL     OW21214   4.705   2.774   2.120
 6772SOL    HW121215   4.688   2.872   2.105
 6772SOL    HW221216   4.718   2.729   2.032
 6773SOL     OW21217   0.550   6.035   1.604
 6773SOL    HW121218   0.510   5.970   1.539
 6773SOL    HW221219   0.640   6.064   1.571
 6774SOL     OW21220   1.652   4.199   5.463
 6774SOL    HW121221   1.690   4.131   5.525
 6774SOL    HW221222   1.557   4.219   5.489
 6775SOL     OW21223   2.087   2.391   3.055
 6775SOL    HW121224   2.009   2.408   3.114
 6775SOL    HW221225   2.109   2.474   3.003
 6776SOL     OW21226   4.738   3.045   0.260
 6776SOL    HW121227   4.796   3.061   0.180
 6776SOL    HW221228   4.736   3.128   0.316
 6777SOL     OW21229   5.035   4.751   0.644
 6777SOL    HW121230   5.035   4.850   0.630
 6777SOL    HW221231   5.032   4.705   0.556
 6778SOL     OW21232   0.199   5.644   1.461
 6778SOL    HW121233   0.254   5.728   1.468
 6778SOL    HW221234   0.250   5.575   1.410
 6779SOL     OW21235   5.479   5.417   6.098
 6779SOL    HW121236   5.525   5.499   6.063
 6779SOL    HW221237   5.464   5.426   6.197
 6780SOL     OW21238   1.597   3.121   2.566
 6780SOL    HW121239   1.656   3.077   2.499
 6780SOL    HW221240   1.545   3.051   2.616
 6781SOL     OW21241   6.080   1.883   4.936
 6781SOL    HW121242   6.081   1.953   4.865
 6781SOL    HW221243   6.134   1.913   5.014
 6782SOL     OW21244   0.790   1.227   3.255
 6782SOL    HW121245   0.843   1.303   3.217
 6782SOL    HW221246   0.758   1.167   3.181
 6783SOL     OW21247   0.018   1.593   6.106
 6783SOL    HW121248   7.014   1.523   6.173
 6783SOL    HW221249   6.987   1.575   6.021
 6784SOL     OW21250   1.779   3.729   0.689
 6784SOL    HW121251   1.842   3.801   0.658
 6784SOL    HW221252   1.726   3.763   0.767
 6785SOL     OW21253   6.094   6.038   5.012
 6785SOL    HW121254   6.095   5.992   5.102
 6785SOL    HW221255   6.068   5.971   4.942
 6786SOL     OW21256   1.500   2.262   0.785
 6786SOL    HW121257   1.471   2.328   0.716
 6786SOL    HW221258   1.419   2.222   0.830
 6787SOL     OW21259   2.975   2.707   0.333
 6787SOL    HW121260   2.970   2.724   0.234
 6787SOL    HW221261   2.889   2.736   0.376
 6788SOL     OW21262   0.946   4.563   1.485
 6788SOL    HW121263   0.879   4.508   1.536
 6788SOL    HW221264   1.010   4.502   1.438
 6789SOL     OW21265   0.881   4.864   4.080
 6789SOL    HW121266   0.928   4.940   4.125
 6789SOL    HW221267   0.911   4.858   3.984
 6790SOL     OW21268   1.056   3.839   0.076
 6790SOL    HW121269   1.073   3.762   0.015
 6790SOL    HW221270   1.071   3.925   0.027
 6791SOL     OW21271   3.842   2.122   2.175
 6791SOL    HW121272   3.765   2.163   2.125
 6791SOL    HW221273   3.924   2.123   2.118
 6792SOL     OW21274   5.144   6.947   5.293
 6792SOL    HW121275   5.222   7.000   5.326
 6792SOL    HW221276   5.060   6.996   5.313
 6793SOL     OW21277   1.753   1.357   0.254
 6793SOL    HW121278   1.707   1.410   0.182
 6793SOL    HW221279   1.684   1.311   0.310
 6794SOL     OW21280   5.301   1.319   5.340
 6794SOL    HW121281   5.317   1.241   5.279
 6794SOL    HW221282   5.220   1.369   5.310
 6795SOL     OW21283   1.449   6.876   1.316
 6795SOL    HW121284   1.465   6.912   1.224
 6795SOL    HW221285   1.488   6.784   1.323
 6796SOL     OW21286   5.933   0.761   3.335
 6796SOL    HW121287   5.924   0.732   3.240
 6796SOL    HW221288   5.976   0.851   3.339
 6797SOL     OW21289   6.950   2.187   1.925
 6797SOL    HW121290   6.880   2.257   1.913
 6797SOL    HW221291   7.000   2.175   1.839
 6798SOL     OW21292   6.034   6.117   1.858
 6798SOL    HW121293   6.098   6.161   1.922
 6798SOL    HW221294   5.940   6.137   1.886
 6799SOL     OW21295   6.620   0.942   2.155
 6799SOL    HW121296   6.699   0.902   2.202
 6799SOL    HW221297   6.592   0.882   2.081
 6800SOL     OW21298   2.373   2.622   2.123
 6800SOL    HW121299   2.295   2.562   2.141
 6800SOL    HW221300   2.380   2.639   2.025
 6801SOL     OW21301   1.365   0.729   3.120
 6801SOL    HW121302   1.340   0.769   3.032
 6801SOL    HW221303   1.341   0.792   3.194
 6802SOL     OW21304   3.961   5.628   1.377
 6802SOL    HW121305   3.944   5.572   1.295
 6802SOL    HW221306   3.874   5.648   1.422
 6803SOL     OW21307   4.578   3.762   5.913
 6803SOL    HW121308   4.487   3.723   5.900
 6803SOL    HW221309   4.595   3.831   5.843
 6804SOL     OW21310   3.756   4.875   3.562
 6804SOL    HW121311   3.781   4.946   3.497
 6804SOL    HW221312   3.826   4.803   3.561
 6805SOL     OW21313   0.111   4.912   6.292
 6805SOL    HW121314   0.098   4.822   6.250
 6805SOL    HW221315   0.153   4.902   6.382
 6806SOL     OW21316   6.269   1.360   3.452
 6806SOL    HW121317   6.234   1.395   3.365
 6806SOL    HW221318   6.352   1.308   3.435
 6807SOL     OW21319   3.205   3.067   1.158
 6807SOL    HW121320   3.234   2.988   1.213
 6807SOL    HW221321   3.202   3.040   1.061
 6808SOL     OW21322   6.854   1.873   6.083
 6808SOL    HW121323   6.886   1.784   6.113
 6808SOL    HW221324   6.818   1.924   6.161
 6809SOL     OW21325   0.322   3.470   1.162
 6809SOL    HW121326   0.329   3.434   1.255
 6809SOL    HW221327   0.331   3.570   1.165
 6810SOL     OW21328   2.720   0.579   2.288
 6810SOL    HW121329   2.710   0.676   2.311
 6810SOL    HW221330   2.740   0.569   2.190
 6811SOL     OW21331   5.654   4.250   1.648
 6811SOL    HW121332   5.653   4.286   1.555
 6811SOL    HW221333   5.645   4.150   1.645
 6812SOL     OW21334   3.435   3.952   4.556
 6812SOL    HW121335   3.487   4.034   4.532
 6812SOL    HW221336   3.477   3.872   4.512
 6813SOL     OW21337   5.533   3.619   3.360
 6813SOL    HW121338   5.519   3.662   3.449
 6813SOL    HW221339   5.453   3.562   3.337
 6814SOL     OW21340   4.187   2.264   6.179
 6814SOL    HW121341   4.192   2.214   6.265
 6814SOL    HW221342   4.268   2.244   6.124
 6815SOL     OW21343   2.735   5.764   0.167
 6815SOL    HW121344   2.690   5.688   0.215
 6815SOL    HW221345   2.810   5.728   0.111
 6816SOL     OW21346   6.558   0.802   6.080
 6816SOL    HW121347   6.589   0.722   6.028
 6816SOL    HW221348   6.484   0.847   6.030
 6817SOL     OW21349   2.508   2.601   3.080
 6817SOL    HW121350   2.591   2.657   3.088
 6817SOL    HW221351   2.427   2.658   3.092
 6818SOL     OW21352   2.217   6.456   0.898
 6818SOL    HW121353   2.257   6.511   0.972
 6818SOL    HW221354   2.140   6.403   0.933
 6819SOL     OW21355   4.122   1.572   3.014
 6819SOL    HW121356   4.053   1.522   2.961
 6819SOL    HW221357   4.138   1.525   3.100
 6820SOL     OW21358   1.996   6.229   1.226
 6820SOL    HW121359   1.988   6.234   1.127
 6820SOL    HW221360   2.092   6.240   1.252
 6821SOL     OW21361   3.975   2.238   5.174
 6821SOL    HW121362   4.004   2.328   5.140
 6821SOL    HW221363   3.884   2.246   5.214
 6822SOL     OW21364   5.537   1.932   5.787
 6822SOL    HW121365   5.447   1.932   5.829
 6822SOL    HW221366   5.542   2.006   5.719
 6823SOL     OW21367   5.599   4.004   5.840
 6823SOL    HW121368   5.596   4.087   5.785
 6823SOL    HW221369   5.674   3.946   5.808
 6824SOL     OW21370   1.392   1.950   0.517
 6824SOL    HW121371   1.304   1.967   0.561
 6824SOL    HW221372   1.411   2.023   0.452
 6825SOL     OW21373   6.269   0.037   0.507
 6825SOL    HW121374   6.332   0.096   0.556
 6825SOL    HW221375   6.265   0.065   0.411
 6826SOL     OW21376   1.876   3.458   3.605
 6826SOL    HW121377   1.969   3.493   3.612
 6826SOL    HW221378   1.824   3.513   3.540
 6827SOL     OW21379   4.735   5.159   6.065
 6827SOL    HW121380   4.708   5.152   5.969
 6827SOL    HW221381   4.742   5.068   6.106
 6828SOL     OW21382   3.410   1.317   1.364
 6828SOL    HW121383   3.390   1.360   1.452
 6828SOL    HW221384   3.360   1.365   1.292
 6829SOL     OW21385   5.122   5.795   5.654
 6829SOL    HW121386   5.218   5.819   5.637
 6829SOL    HW221387   5.108   5.699   5.634
 6830SOL     OW21388   5.295   0.623   3.044
 6830SOL    HW121389   5.209   0.573   3.055
 6830SOL    HW221390   5.353   0.575   2.979
 6831SOL     OW21391   1.425   0.946   6.668
 6831SOL    HW121392   1.345   0.888   6.681
 6831SOL    HW221393   1.502   0.889   6.639
 6832SOL     OW21394   2.144   4.218   0.887
 6832SOL    HW121395   2.219   4.152   0.885
 6832SOL    HW221396   2.064   4.178   0.842
 6833SOL     OW21397   3.357   4.688   6.818
 6833SOL    HW121398   3.346   4.607   6.761
 6833SOL    HW221399   3.268   4.733   6.829
 6834SOL     OW21400   6.027   0.604   0.381
 6834SOL    HW121401   6.000   0.513   0.348
 6834SOL    HW221402   5.982   0.674   0.325
 6835SOL     OW21403   4.190   0.747   4.790
 6835SOL    HW121404   4.243   0.793   4.861
 6835SOL    HW221405   4.250   0.686   4.738
 6836SOL     OW21406   3.545   4.242   0.200
 6836SOL    HW121407   3.484   4.322   0.204
 6836SOL    HW221408   3.506   4.168   0.255
 6837SOL     OW21409   1.196   2.302   2.906
 6837SOL    HW121410   1.204   2.213   2.951
 6837SOL    HW221411   1.270   2.313   2.839
 6838SOL     OW21412   3.328   6.228   6.269
 6838SOL    HW121413   3.413   6.193   6.232
 6838SOL    HW221414   3.293   6.166   6.339
 6839SOL     OW21415   5.467   1.150   5.716
 6839SOL    HW121416   5.421   1.238   5.712
 6839SOL    HW221417   5.437   1.093   5.639
 6840SOL     OW21418   3.433   0.297   4.160
 6840SOL    HW121419   3.381   0.214   4.138
 6840SOL    HW221420   3.445   0.351   4.078
 6841SOL     OW21421   3.907   4.394   0.308
 6841SOL    HW121422   3.958   4.474   0.276
 6841SOL    HW221423   3.870   4.344   0.229
 6842SOL     OW21424   2.584   3.508   0.822
 6842SOL    HW121425   2.565   3.539   0.729
 6842SOL    HW221426   2.633   3.580   0.872
 6843SOL     OW21427   6.188   6.901   1.957
 6843SOL    HW121428   6.197   6.846   1.874
 6843SOL    HW221429   6.138   6.848   2.026
 6844SOL     OW21430   4.875   0.353   3.708
 6844SOL    HW121431   4.972   0.350   3.730
 6844SOL    HW221432   4.822   0.351   3.793
 6845SOL     OW21433   6.264   5.166   3.058
 6845SOL    HW121434   6.205   5.089   3.083
 6845SOL    HW221435   6.258   5.182   2.960
 6846SOL     OW21436   4.233   2.963   0.438
 6846SOL    HW121437   4.178   2.953   0.521
 6846SOL    HW221438   4.234   3.059   0.411
 6847SOL     OW21439   6.810   4.711   3.292
 6847SOL    HW121440   6.735   4.723   3.227
 6847SOL    HW221441   6.803   4.779   3.365
 6848SOL     OW21442   3.767   6.747   3.773
 6848SOL    HW121443   3.708   6.667   3.787
 6848SOL    HW221444   3.861   6.722   3.795
 6849SOL     OW21445   3.807   5.196   5.249
 6849SOL    HW121446   3.750   5.161   5.175
 6849SOL    HW221447   3.901   5.166   5.236
 6850SOL     OW21448   6.023   3.637   2.366
 6850SOL    HW121449   5.959   3.660   2.440
 6850SOL    HW221450   6.068   3.720   2.334
 6851SOL     OW21451   0.799   2.772   3.505
 6851SOL    HW121452   0.718   2.732   3.464
 6851SOL    HW221453   0.792   2.871   3.503
 6852SOL     OW21454   2.603   5.091   0.502
 6852SOL    HW121455   2.559   5.002   0.511
 6852SOL    HW221456   2.540   5.155   0.458
 6853SOL     OW21457   6.739   3.988   0.471
 6853SOL    HW121458   6.746   3.898   0.428
 6853SOL    HW221459   6.823   4.007   0.521
 6854SOL     OW21460   4.714   1.605   6.269
 6854SOL    HW121461   4.696   1.683   6.208
 6854SOL    HW221462   4.630   1.551   6.279
 6855SOL     OW21463   3.247   5.610   3.367
 6855SOL    HW121464   3.261   5.539   3.298
 6855SOL    HW221465   3.149   5.621   3.384
 6856SOL     OW21466   5.225   3.581   5.160
 6856SOL    HW121467   5.224   3.542   5.252
 6856SOL    HW221468   5.182   3.517   5.097
 6857SOL     OW21469   2.616   2.406   6.869
 6857SOL    HW121470   2.632   2.324   6.923
 6857SOL    HW221471   2.703   2.444   6.839
 6858SOL     OW21472   3.630   3.837   3.712
 6858SOL    HW121473   3.606   3.758   3.656
 6858SOL    HW221474   3.594   3.826   3.804
 6859SOL     OW21475   0.804   0.666   0.974
 6859SOL    HW121476   0.802   0.643   0.877
 6859SOL    HW221477   0.853   0.595   1.024
 6860SOL     OW21478   6.640   5.221   0.826
 6860SOL    HW121479   6.647   5.130   0.868
 6860SOL    HW221480   6.718   5.277   0.855
 6861SOL     OW21481   4.548   4.688   0.195
 6861SOL    HW121482   4.542   4.749   0.274
 6861SOL    HW221483   4.481   4.614   0.206
 6862SOL     OW21484   1.921   4.435   5.629
 6862SOL    HW121485   1.885   4.403   5.541
 6862SOL    HW221486   2.019   4.414   5.634
 6863SOL     OW21487   5.325   6.892   5.985
 6863SOL    HW121488   5.380   6.815   6.018
 6863SOL    HW221489   5.378   6.977   5.995
 6864SOL     OW21490   3.109   6.043   3.852
 6864SOL    HW121491   3.195   6.006   3.815
 6864SOL    HW221492   3.052   5.968   3.885
 6865SOL     OW21493   1.064   5.911   3.082
 6865SOL    HW121494   1.132   5.979   3.109
 6865SOL    HW221495   1.110   5.825   3.060
 6866SOL     OW21496   6.138   4.931   3.090
 6866SOL    HW121497   6.186   4.843   3.090
 6866SOL    HW221498   6.045   4.918   3.055
 6867SOL     OW21499   2.340   4.299   1.376
 6867SOL    HW121500   2.427   4.251   1.362
 6867SOL    HW221501   2.358   4.392   1.407
 6868SOL     OW21502   1.070   5.552   6.163
 6868SOL    HW121503   1.094   5.510   6.250
 6868SOL    HW221504   1.068   5.482   6.092
 6869SOL     OW21505   5.754   1.259   5.699
 6869SOL    HW121506   5.722   1.354   5.711
 6869SOL    HW221507   5.691   1.197   5.745
 6870SOL     OW21508   7.002   4.858   2.213
 6870SOL    HW121509   6.974   4.790   2.145
 6870SOL    HW221510   6.984   4.950   2.178
 6871SOL     OW21511   6.361   4.554   3.251
 6871SOL    HW121512   6.300   4.565   3.329
 6871SOL    HW221513   6.362   4.459   3.222
 6872SOL     OW21514   0.236   3.158   1.093
 6872SOL    HW121515   0.151   3.208   1.074
 6872SOL    HW221516   0.284   3.140   1.007
 6873SOL     OW21517   0.051   3.458   5.328
 6873SOL    HW121518   0.124   3.482   5.392
 6873SOL    HW221519   0.076   3.376   5.277
 6874SOL     OW21520   0.557   6.112   1.860
 6874SOL    HW121521   0.535   6.048   1.933
 6874SOL    HW221522   0.524   6.077   1.773
 6875SOL     OW21523   2.512   2.541   3.361
 6875SOL    HW121524   2.604   2.505   3.379
 6875SOL    HW221525   2.502   2.556   3.262
 6876SOL     OW21526   3.461   6.555   3.725
 6876SOL    HW121527   3.380   6.613   3.739
 6876SOL    HW221528   3.528   6.572   3.797
 6877SOL     OW21529   2.631   3.925   1.449
 6877SOL    HW121530   2.625   3.982   1.530
 6877SOL    HW221531   2.559   3.950   1.385
 6878SOL     OW21532   3.355   0.970   5.317
 6878SOL    HW121533   3.422   0.897   5.329
 6878SOL    HW221534   3.404   1.058   5.311
 6879SOL     OW21535   0.880   1.982   0.619
 6879SOL    HW121536   0.825   1.982   0.535
 6879SOL    HW221537   0.870   1.894   0.665
 6880SOL     OW21538   1.541   4.473   4.904
 6880SOL    HW121539   1.616   4.408   4.905
 6880SOL    HW221540   1.559   4.547   4.969
 6881SOL     OW21541   1.486   4.362   1.060
 6881SOL    HW121542   1.428   4.442   1.044
 6881SOL    HW221543   1.444   4.303   1.129
 6882SOL     OW21544   3.021   0.287   6.848
 6882SOL    HW121545   3.048   0.378   6.816
 6882SOL    HW221546   2.945   0.295   6.911
 6883SOL     OW21547   4.283   0.836   0.644
 6883SOL    HW121548   4.232   0.902   0.590
 6883SOL    HW221549   4.364   0.880   0.683
 6884SOL     OW21550   2.630   4.619   4.381
 6884SOL    HW121551   2.621   4.708   4.425
 6884SOL    HW221552   2.587   4.549   4.438
 6885SOL     OW21553   3.834   5.151   3.477
 6885SOL    HW121554   3.861   5.247   3.464
 6885SOL    HW221555   3.789   5.141   3.566
 6886SOL     OW21556   6.918   0.725   4.356
 6886SOL    HW121557   6.820   0.714   4.345
 6886SOL    HW221558   6.962   0.730   4.266
 6887SOL     OW21559   5.266   5.506   6.421
 6887SOL    HW121560   5.338   5.443   6.448
 6887SOL    HW221561   5.184   5.488   6.475
 6888SOL     OW21562   5.354   6.097   0.051
 6888SOL    HW121563   5.320   6.123   0.141
 6888SOL    HW221564   5.351   5.997   0.041
 6889SOL     OW21565   1.712   2.065   5.095
 6889SOL    HW121566   1.670   2.142   5.046
 6889SOL    HW221567   1.801   2.094   5.131
 6890SOL     OW21568   4.206   6.417   1.409
 6890SOL    HW121569   4.194   6.500   1.464
 6890SOL    HW221570   4.149   6.422   1.327
 6891SOL     OW21571   2.402   4.503   3.687
 6891SOL    HW121572   2.371   4.435   3.753
 6891SOL    HW221573   2.373   4.477   3.595
 6892SOL     OW21574   3.196   2.069   3.631
 6892SOL    HW121575   3.115   2.015   3.657
 6892SOL    HW221576   3.205   2.147   3.693
 6893SOL     OW21577   4.126   4.142   6.970
 6893SOL    HW121578   4.169   4.136   6.880
 6893SOL    HW221579   4.084   4.054   6.993
 6894SOL     OW21580   6.191   5.092   0.895
 6894SOL    HW121581   6.273   5.069   0.947
 6894SOL    HW221582   6.119   5.026   0.917
 6895SOL     OW21583   2.612   5.267   0.198
 6895SOL    HW121584   2.553   5.248   0.277
 6895SOL    HW221585   2.697   5.215   0.205
 6896SOL     OW21586   2.002   7.014   3.739
 6896SOL    HW121587   2.054   7.007   3.654
 6896SOL    HW221588   1.953   0.082   3.741
 6897SOL     OW21589   4.256   4.018   5.815
 6897SOL    HW121590   4.189   3.971   5.874
 6897SOL    HW221591   4.309   4.082   5.869
 6898SOL     OW21592   3.973   1.596   1.618
 6898SOL    HW121593   4.043   1.640   1.561
 6898SOL    HW221594   3.883   1.626   1.589
 6899SOL     OW21595   5.320   6.415   1.482
 6899SOL    HW121596   5.355   6.327   1.516
 6899SOL    HW221597   5.337   6.421   1.384
 6900SOL     OW21598   6.436   6.686   5.846
 6900SOL    HW121599   6.444   6.778   5.810
 6900SOL    HW221600   6.515   6.632   5.818
 6901SOL     OW21601   6.956   5.973   6.387
 6901SOL    HW121602   0.004   5.991   6.458
 6901SOL    HW221603   6.960   5.877   6.360
 6902SOL     OW21604   5.537   5.903   6.839
 6902SOL    HW121605   5.574   5.810   6.827
 6902SOL    HW221606   5.607   5.961   6.880
 6903SOL     OW21607   3.056   5.738   4.344
 6903SOL    HW121608   3.056   5.638   4.333
 6903SOL    HW221609   3.112   5.779   4.272
 6904SOL     OW21610   5.842   0.428   4.645
 6904SOL    HW121611   5.869   0.366   4.572
 6904SOL    HW221612   5.855   0.523   4.614
 6905SOL     OW21613   5.755   6.592   6.079
 6905SOL    HW121614   5.737   6.504   6.035
 6905SOL    HW221615   5.814   6.578   6.159
 6906SOL     OW21616   4.668   1.350   3.702
 6906SOL    HW121617   4.636   1.412   3.773
 6906SOL    HW221618   4.768   1.350   3.701
 6907SOL     OW21619   5.544   2.792   1.349
 6907SOL    HW121620   5.493   2.769   1.432
 6907SOL    HW221621   5.639   2.765   1.361
 6908SOL     OW21622   0.493   5.277   6.103
 6908SOL    HW121623   0.516   5.366   6.142
 6908SOL    HW221624   0.440   5.289   6.019
 6909SOL     OW21625   5.880   4.498   1.334
 6909SOL    HW121626   5.911   4.590   1.361
 6909SOL    HW221627   5.850   4.500   1.239
 6910SOL     OW21628   6.581   2.156   3.369
 6910SOL    HW121629   6.498   2.150   3.425
 6910SOL    HW221630   6.644   2.222   3.410
 6911SOL     OW21631   4.209   5.813   3.977
 6911SOL    HW121632   4.221   5.880   3.904
 6911SOL    HW221633   4.142   5.744   3.948
 6912SOL     OW21634   3.479   4.613   0.043
 6912SOL    HW121635   3.476   4.626   6.963
 6912SOL    HW221636   3.501   4.700   0.087
 6913SOL     OW21637   4.765   5.149   4.663
 6913SOL    HW121638   4.790   5.119   4.571
 6913SOL    HW221639   4.753   5.248   4.665
 6914SOL     OW21640   5.945   3.810   5.314
 6914SOL    HW121641   5.886   3.771   5.244
 6914SOL    HW221642   6.018   3.863   5.271
 6915SOL     OW21643   6.042   3.292   1.419
 6915SOL    HW121644   5.956   3.326   1.382
 6915SOL    HW221645   6.024   3.219   1.485
 6916SOL     OW21646   6.959   2.692   6.866
 6916SOL    HW121647   6.976   2.791   6.868
 6916SOL    HW221648   6.875   2.674   6.814
 6917SOL     OW21649   2.681   5.592   1.552
 6917SOL    HW121650   2.678   5.526   1.477
 6917SOL    HW221651   2.645   5.680   1.521
 6918SOL     OW21652   6.943   2.712   4.167
 6918SOL    HW121653   6.850   2.746   4.183
 6918SOL    HW221654   6.947   2.615   4.190
 6919SOL     OW21655   0.224   6.278   2.737
 6919SOL    HW121656   0.222   6.285   2.637
 6919SOL    HW221657   0.273   6.195   2.764
 6920SOL     OW21658   4.428   5.438   5.236
 6920SOL    HW121659   4.375   5.437   5.321
 6920SOL    HW221660   4.520   5.471   5.256
 6921SOL     OW21661   5.320   5.369   3.549
 6921SOL    HW121662   5.293   5.448   3.494
 6921SOL    HW221663   5.270   5.371   3.636
 6922SOL     OW21664   2.294   5.745   5.773
 6922SOL    HW121665   2.380   5.711   5.733
 6922SOL    HW221666   2.244   5.669   5.813
 6923SOL     OW21667   4.726   5.605   3.426
 6923SOL    HW121668   4.663   5.626   3.351
 6923SOL    HW221669   4.773   5.688   3.455
 6924SOL     OW21670   2.785   4.024   6.505
 6924SOL    HW121671   2.804   4.117   6.476
 6924SOL    HW221672   2.871   3.973   6.514
 6925SOL     OW21673   4.561   6.108   4.796
 6925SOL    HW121674   4.488   6.098   4.864
 6925SOL    HW221675   4.647   6.125   4.843
 6926SOL     OW21676   3.416   2.512   1.026
 6926SOL    HW121677   3.493   2.487   1.085
 6926SOL    HW221678   3.414   2.450   0.947
 6927SOL     OW21679   4.693   2.742   6.217
 6927SOL    HW121680   4.753   2.819   6.197
 6927SOL    HW221681   4.603   2.776   6.244
 6928SOL     OW21682   6.312   5.901   0.728
 6928SOL    HW121683   6.338   5.977   0.667
 6928SOL    HW221684   6.305   5.817   0.674
 6929SOL     OW21685   5.812   5.405   0.906
 6929SOL    HW121686   5.778   5.311   0.898
 6929SOL    HW221687   5.735   5.468   0.906
 6930SOL     OW21688   0.232   6.634   2.662
 6930SOL    HW121689   0.326   6.620   2.692
 6930SOL    HW221690   0.231   6.656   2.565
 6931SOL     OW21691   2.319   0.451   2.173
 6931SOL    HW121692   2.340   0.549   2.164
 6931SOL    HW221693   2.389   0.407   2.227
 6932SOL     OW21694   4.249   6.669   0.513
 6932SOL    HW121695   4.344   6.700   0.519
 6932SOL    HW221696   4.238   6.586   0.569
 6933SOL     OW21697   3.113   6.564   4.570
 6933SOL    HW121698   3.073   6.654   4.589
 6933SOL    HW221699   3.203   6.577   4.528
 6934SOL     OW21700   5.128   3.460   5.933
 6934SOL    HW121701   5.136   3.559   5.922
 6934SOL    HW221702   5.039   3.430   5.897
 6935SOL     OW21703   4.285   4.753   3.488
 6935SOL    HW121704   4.339   4.835   3.469
 6935SOL    HW221705   4.283   4.694   3.407
 6936SOL     OW21706   6.496   2.041   3.757
 6936SOL    HW121707   6.473   2.117   3.818
 6936SOL    HW221708   6.542   1.969   3.809
 6937SOL     OW21709   0.052   6.172   0.131
 6937SOL    HW121710   0.091   6.203   0.044
 6937SOL    HW221711   6.971   6.166   0.122
 6938SOL     OW21712   5.203   3.454   5.400
 6938SOL    HW121713   5.137   3.486   5.468
 6938SOL    HW221714   5.179   3.361   5.371
 6939SOL     OW21715   0.847   4.816   2.108
 6939SOL    HW121716   0.761   4.865   2.095
 6939SOL    HW221717   0.917   4.880   2.142
 6940SOL     OW21718   4.034   1.084   6.798
 6940SOL    HW121719   4.121   1.058   6.839
 6940SOL    HW221720   4.022   1.183   6.804
 6941SOL     OW21721   3.567   3.782   1.776
 6941SOL    HW121722   3.483   3.816   1.818
 6941SOL    HW221723   3.548   3.700   1.723
 6942SOL     OW21724   5.225   0.445   1.758
 6942SOL    HW121725   5.169   0.509   1.810
 6942SOL    HW221726   5.194   0.441   1.663
 6943SOL     OW21727   4.237   6.133   0.223
 6943SOL    HW121728   4.321   6.141   0.276
 6943SOL    HW221729   4.217   6.037   0.206
 6944SOL     OW21730   0.408   4.408   6.385
 6944SOL    HW121731   0.417   4.329   6.325
 6944SOL    HW221732   0.393   4.377   6.479
 6945SOL     OW21733   6.361   1.452   6.363
 6945SOL    HW121734   6.322   1.387   6.297
 6945SOL    HW221735   6.295   1.526   6.378
 6946SOL     OW21736   6.014   6.129   1.364
 6946SOL    HW121737   6.073   6.048   1.362
 6946SOL    HW221738   5.953   6.124   1.443
 6947SOL     OW21739   3.606   6.429   6.301
 6947SOL    HW121740   3.639   6.335   6.308
 6947SOL    HW221741   3.548   6.437   6.219
 6948SOL     OW21742   6.901   0.374   0.626
 6948SOL    HW121743   6.809   0.379   0.588
 6948SOL    HW221744   6.918   0.454   0.682
 6949SOL     OW21745   4.902   0.061   2.563
 6949SOL    HW121746   4.910   0.098   2.656
 6949SOL    HW221747   4.989   0.073   2.515
 6950SOL     OW21748   2.128   1.502   4.699
 6950SOL    HW121749   2.052   1.567   4.692
 6950SOL    HW221750   2.158   1.496   4.795
 6951SOL     OW21751   6.789   5.949   5.617
 6951SOL    HW121752   6.875   5.999   5.609
 6951SOL    HW221753   6.734   5.989   5.690
 6952SOL     OW21754   0.692   6.486   3.571
 6952SOL    HW121755   0.716   6.572   3.525
 6952SOL    HW221756   0.739   6.410   3.527
 6953SOL     OW21757   4.912   6.245   0.477
 6953SOL    HW121758   4.973   6.295   0.539
 6953SOL    HW221759   4.894   6.302   0.396
 6954SOL     OW21760   0.303   3.447   3.200
 6954SOL    HW121761   0.364   3.368   3.194
 6954SOL    HW221762   0.337   3.510   3.270
 6955SOL     OW21763   6.174   0.078   2.525
 6955SOL    HW121764   6.164   0.100   2.622
 6955SOL    HW221765   6.146   7.002   2.510
 6956SOL     OW21766   5.533   5.231   3.656
 6956SOL    HW121767   5.599   5.224   3.582
 6956SOL    HW221768   5.444   5.258   3.620
 6957SOL     OW21769   6.710   4.967   0.916
 6957SOL    HW121770   6.735   4.950   0.821
 6957SOL    HW221771   6.752   4.898   0.975
 6958SOL     OW21772   3.090   3.124   4.160
 6958SOL    HW121773   3.167   3.090   4.214
 6958SOL    HW221774   3.112   3.114   4.063
 6959SOL     OW21775   2.102   1.789   3.929
 6959SOL    HW121776   2.132   1.714   3.869
 6959SOL    HW221777   2.165   1.866   3.920
 6960SOL     OW21778   2.408   4.556   1.502
 6960SOL    HW121779   2.330   4.605   1.539
 6960SOL    HW221780   2.490   4.576   1.557
 6961SOL     OW21781   5.574   2.073   3.461
 6961SOL    HW121782   5.524   2.097   3.544
 6961SOL    HW221783   5.624   1.988   3.475
 6962SOL     OW21784   4.698   5.886   1.862
 6962SOL    HW121785   4.735   5.833   1.785
 6962SOL    HW221786   4.631   5.952   1.827
 6963SOL     OW21787   5.538   6.034   1.102
 6963SOL    HW121788   5.498   6.125   1.116
 6963SOL    HW221789   5.547   6.016   1.004
 6964SOL     OW21790   3.587   0.591   5.257
 6964SOL    HW121791   3.674   0.552   5.287
 6964SOL    HW221792   3.569   0.564   5.163
 6965SOL     OW21793   1.057   2.691   1.615
 6965SOL    HW121794   0.973   2.735   1.583
 6965SOL    HW221795   1.034   2.607   1.665
 6966SOL     OW21796   0.233   2.069   3.145
 6966SOL    HW121797   0.312   2.007   3.141
 6966SOL    HW221798   0.191   2.074   3.054
 6967SOL     OW21799   2.557   6.946   5.132
 6967SOL    HW121800   2.503   6.959   5.216
 6967SOL    HW221801   2.649   6.981   5.145
 6968SOL     OW21802   4.747   6.682   2.636
 6968SOL    HW121803   4.657   6.640   2.631
 6968SOL    HW221804   4.770   6.701   2.732
 6969SOL     OW21805   2.998   2.516   1.183
 6969SOL    HW121806   2.999   2.461   1.267
 6969SOL    HW221807   3.042   2.465   1.109
 6970SOL     OW21808   3.755   3.827   6.302
 6970SOL    HW121809   3.667   3.873   6.287
 6970SOL    HW221810   3.779   3.829   6.399
 6971SOL     OW21811   6.460   4.048   2.116
 6971SOL    HW121812   6.454   4.035   2.215
 6971SOL    HW221813   6.556   4.058   2.090
 6972SOL     OW21814   4.696   4.174   3.559
 6972SOL    HW121815   4.778   4.117   3.572
 6972SOL    HW221816   4.616   4.125   3.593
 6973SOL     OW21817   0.728   3.020   4.610
 6973SOL    HW121818   0.759   3.075   4.533
 6973SOL    HW221819   0.629   3.032   4.623
 6974SOL     OW21820   3.267   3.942   2.705
 6974SOL    HW121821   3.349   3.884   2.706
 6974SOL    HW221822   3.293   4.035   2.680
 6975SOL     OW21823   2.283   6.556   5.956
 6975SOL    HW121824   2.296   6.502   6.040
 6975SOL    HW221825   2.250   6.496   5.883
 6976SOL     OW21826   5.334   5.403   4.417
 6976SOL    HW121827   5.259   5.372   4.359
 6976SOL    HW221828   5.327   5.502   4.430
 6977SOL     OW21829   3.965   2.800   1.712
 6977SOL    HW121830   3.898   2.818   1.640
 6977SOL    HW221831   3.982   2.702   1.718
 6978SOL     OW21832   5.375   1.159   2.197
 6978SOL    HW121833   5.390   1.134   2.101
 6978SOL    HW221834   5.427   1.242   2.218
 6979SOL     OW21835   0.823   4.127   1.419
 6979SOL    HW121836   0.821   4.105   1.322
 6979SOL    HW221837   0.917   4.120   1.453
 6980SOL     OW21838   1.726   0.769   3.980
 6980SOL    HW121839   1.668   0.843   3.945
 6980SOL    HW221840   1.750   0.708   3.904
 6981SOL     OW21841   3.600   2.427   5.621
 6981SOL    HW121842   3.563   2.454   5.532
 6981SOL    HW221843   3.644   2.506   5.664
 6982SOL     OW21844   1.372   0.464   4.849
 6982SOL    HW121845   1.400   0.375   4.813
 6982SOL    HW221846   1.419   0.480   4.936
 6983SOL     OW21847   3.876   2.135   3.543
 6983SOL    HW121848   3.927   2.214   3.508
 6983SOL    HW221849   3.933   2.053   3.535
 6984SOL     OW21850   2.594   1.861   3.308
 6984SOL    HW121851   2.634   1.889   3.221
 6984SOL    HW221852   2.494   1.859   3.299
 6985SOL     OW21853   5.221   5.031   1.927
 6985SOL    HW121854   5.279   4.952   1.946
 6985SOL    HW221855   5.126   5.010   1.952
 6986SOL     OW21856   1.878   6.738   5.589
 6986SOL    HW121857   1.844   6.739   5.495
 6986SOL    HW221858   1.917   6.828   5.610
 6987SOL     OW21859   5.909   1.504   5.905
 6987SOL    HW121860   5.822   1.505   5.856
 6987SOL    HW221861   5.983   1.485   5.841
 6988SOL     OW21862   0.330   0.773   5.368
 6988SOL    HW121863   0.264   0.703   5.394
 6988SOL    HW221864   0.422   0.744   5.396
 6989SOL     OW21865   0.759   3.913   3.030
 6989SOL    HW121866   0.785   3.933   3.125
 6989SOL    HW221867   0.731   3.998   2.985
 6990SOL     OW21868   4.520   2.553   1.245
 6990SOL    HW121869   4.587   2.504   1.301
 6990SOL    HW221870   4.559   2.571   1.155
 6991SOL     OW21871   3.854   4.799   3.071
 6991SOL    HW121872   3.779   4.737   3.096
 6991SOL    HW221873   3.836   4.836   2.979
 6992SOL     OW21874   5.158   6.376   6.288
 6992SOL    HW121875   5.090   6.425   6.343
 6992SOL    HW221876   5.216   6.443   6.242
 6993SOL     OW21877   5.858   0.971   2.763
 6993SOL    HW121878   5.901   1.032   2.697
 6993SOL    HW221879   5.809   1.024   2.832
 6994SOL     OW21880   0.709   2.193   4.449
 6994SOL    HW121881   0.662   2.125   4.505
 6994SOL    HW221882   0.767   2.147   4.382
 6995SOL     OW21883   6.655   4.510   6.129
 6995SOL    HW121884   6.695   4.497   6.038
 6995SOL    HW221885   6.672   4.603   6.161
 6996SOL     OW21886   1.875   6.936   6.974
 6996SOL    HW121887   1.851   6.849   7.017
 6996SOL    HW221888   1.792   6.990   6.958
 6997SOL     OW21889   0.088   6.132   4.884
 6997SOL    HW121890   0.175   6.082   4.880
 6997SOL    HW221891   0.021   6.086   4.825
 6998SOL     OW21892   2.087   0.576   1.773
 6998SOL    HW121893   2.074   0.674   1.759
 6998SOL    HW221894   2.074   0.554   1.870
 6999SOL     OW21895   2.541   2.130   6.430
 6999SOL    HW121896   2.562   2.211   6.484
 6999SOL    HW221897   2.488   2.156   6.350
 7000SOL     OW21898   5.081   6.412   1.157
 7000SOL    HW121899   5.047   6.448   1.244
 7000SOL    HW221900   5.116   6.486   1.101
 7001SOL     OW21901   1.842   2.861   5.503
 7001SOL    HW121902   1.885   2.873   5.413
 7001SOL    HW221903   1.911   2.873   5.575
 7002SOL     OW21904   2.029   5.464   4.422
 7002SOL    HW121905   2.050   5.392   4.488
 7002SOL    HW221906   1.930   5.469   4.408
 7003SOL     OW21907   4.286   5.047   0.452
 7003SOL    HW121908   4.242   5.120   0.504
 7003SOL    HW221909   4.260   5.055   0.355
 7004SOL     OW21910   1.116   4.876   2.641
 7004SOL    HW121911   1.178   4.935   2.590
 7004SOL    HW221912   1.064   4.819   2.576
 7005SOL     OW21913   1.553   0.473   0.570
 7005SOL    HW121914   1.495   0.480   0.651
 7005SOL    HW221915   1.608   0.389   0.576
 7006SOL     OW21916   4.776   4.967   3.639
 7006SOL    HW121917   4.716   4.986   3.717
 7006SOL    HW221918   4.865   4.937   3.672
 7007SOL     OW21919   4.785   0.532   3.342
 7007SOL    HW121920   4.776   0.433   3.332
 7007SOL    HW221921   4.861   0.552   3.405
 7008SOL     OW21922   0.686   3.693   4.716
 7008SOL    HW121923   0.639   3.729   4.636
 7008SOL    HW221924   0.660   3.598   4.731
 7009SOL     OW21925   5.744   6.212   1.949
 7009SOL    HW121926   5.676   6.140   1.955
 7009SOL    HW221927   5.707   6.289   1.897
 7010SOL     OW21928   5.532   3.982   3.984
 7010SOL    HW121929   5.494   4.046   4.051
 7010SOL    HW221930   5.592   4.032   3.921
 7011SOL     OW21931   3.175   7.016   6.119
 7011SOL    HW121932   3.228   6.934   6.139
 7011SOL    HW221933   3.079   6.992   6.108
 7012SOL     OW21934   0.737   1.924   1.486
 7012SOL    HW121935   0.760   1.943   1.581
 7012SOL    HW221936   0.702   2.007   1.443
 7013SOL     OW21937   0.329   0.465   6.996
 7013SOL    HW121938   0.389   0.473   6.916
 7013SOL    HW221939   0.309   0.556   0.013
 7014SOL     OW21940   4.104   3.681   1.014
 7014SOL    HW121941   4.017   3.668   0.967
 7014SOL    HW221942   4.094   3.658   1.111
 7015SOL     OW21943   6.192   5.033   2.647
 7015SOL    HW121944   6.236   4.969   2.711
 7015SOL    HW221945   6.262   5.074   2.589
 7016SOL     OW21946   3.433   4.894   1.686
 7016SOL    HW121947   3.469   4.807   1.721
 7016SOL    HW221948   3.418   4.957   1.762
 7017SOL     OW21949   2.029   5.057   2.375
 7017SOL    HW121950   1.982   5.051   2.287
 7017SOL    HW221951   1.989   4.992   2.439
 7018SOL     OW21952   5.240   3.663   4.538
 7018SOL    HW121953   5.332   3.663   4.500
 7018SOL    HW221954   5.245   3.673   4.637
 7019SOL     OW21955   3.825   4.155   0.178
 7019SOL    HW121956   3.761   4.144   0.101
 7019SOL    HW221957   3.779   4.130   0.263
 7020SOL     OW21958   6.912   5.232   6.655
 7020SOL    HW121959   6.861   5.203   6.736
 7020SOL    HW221960   6.928   5.154   6.595
 7021SOL     OW21961   1.061   1.762   5.423
 7021SOL    HW121962   1.118   1.700   5.478
 7021SOL    HW221963   1.107   1.850   5.415
 7022SOL     OW21964   4.760   6.959   5.828
 7022SOL    HW121965   4.838   7.007   5.867
 7022SOL    HW221966   4.777   6.861   5.830
 7023SOL     OW21967   0.363   2.125   4.033
 7023SOL    HW121968   0.423   2.200   4.060
 7023SOL    HW221969   0.378   2.047   4.093
 7024SOL     OW21970   2.629   3.947   5.308
 7024SOL    HW121971   2.549   3.969   5.252
 7024SOL    HW221972   2.712   3.956   5.253
 7025SOL     OW21973   2.923   1.134   0.566
 7025SOL    HW121974   2.998   1.184   0.522
 7025SOL    HW221975   2.946   1.037   0.570
 7026SOL     OW21976   3.366   1.663   2.226
 7026SOL    HW121977   3.422   1.710   2.294
 7026SOL    HW221978   3.400   1.569   2.214
 7027SOL     OW21979   2.795   5.426   4.421
 7027SOL    HW121980   2.715   5.418   4.361
 7027SOL    HW221981   2.800   5.520   4.457
 7028SOL     OW21982   3.211   1.956   4.251
 7028SOL    HW121983   3.158   1.882   4.210
 7028SOL    HW221984   3.178   1.974   4.344
 7029SOL     OW21985   4.871   4.966   5.741
 7029SOL    HW121986   4.926   4.886   5.718
 7029SOL    HW221987   4.841   5.011   5.657
 7030SOL     OW21988   1.084   0.904   5.153
 7030SOL    HW121989   1.021   0.888   5.230
 7030SOL    HW221990   1.040   0.964   5.086
 7031SOL     OW21991   2.997   5.811   5.048
 7031SOL    HW121992   3.052   5.802   4.965
 7031SOL    HW221993   2.900   5.801   5.025
 7032SOL     OW21994   3.874   0.743   3.116
 7032SOL    HW121995   3.895   0.698   3.202
 7032SOL    HW221996   3.956   0.744   3.058
 7033SOL     OW21997   1.663   2.563   3.625
 7033SOL    HW121998   1.728   2.510   3.679
 7033SOL    HW221999   1.648   2.652   3.669
 7034SOL     OW22000   6.561   0.448   3.780
 7034SOL    HW122001   6.504   0.401   3.847
 7034SOL    HW222002   6.557   0.400   3.693
 7035SOL     OW22003   1.577   6.310   0.914
 7035SOL    HW122004   1.490   6.305   0.964
 7035SOL    HW222005   1.634   6.381   0.954
 7036SOL     OW22006   0.541   0.436   2.872
 7036SOL    HW122007   0.595   0.495   2.932
 7036SOL    HW222008   0.457   0.483   2.846
 7037SOL     OW22009   1.471   1.328   6.973
 7037SOL    HW122010   1.548   1.352   6.914
 7037SOL    HW222011   1.419   1.252   6.932
 7038SOL     OW22012   2.612   3.239   5.329
 7038SOL    HW122013   2.563   3.241   5.416
 7038SOL    HW222014   2.557   3.189   5.262
 7039SOL     OW22015   2.251   5.225   1.875
 7039SOL    HW122016   2.199   5.225   1.789
 7039SOL    HW222017   2.220   5.302   1.931
 7040SOL     OW22018   6.285   1.798   5.913
 7040SOL    HW122019   6.216   1.777   5.844
 7040SOL    HW222020   6.250   1.869   5.974
 7041SOL     OW22021   6.758   1.892   1.859
 7041SOL    HW122022   6.790   1.966   1.918
 7041SOL    HW222023   6.681   1.924   1.804
 7042SOL     OW22024   4.334   5.020   4.989
 7042SOL    HW122025   4.379   4.979   5.069
 7042SOL    HW222026   4.283   4.949   4.940
 7043SOL     OW22027   2.211   4.033   3.011
 7043SOL    HW122028   2.198   3.962   2.942
 7043SOL    HW222029   2.122   4.058   3.050
 7044SOL     OW22030   4.987   4.681   3.888
 7044SOL    HW122031   4.993   4.764   3.942
 7044SOL    HW222032   4.996   4.601   3.949
 7045SOL     OW22033   5.214   5.571   3.403
 7045SOL    HW122034   5.273   5.649   3.382
 7045SOL    HW222035   5.122   5.589   3.366
 7046SOL     OW22036   3.120   0.997   3.158
 7046SOL    HW122037   3.075   0.912   3.185
 7046SOL    HW222038   3.058   1.053   3.104
 7047SOL     OW22039   6.310   1.379   2.149
 7047SOL    HW122040   6.350   1.308   2.091
 7047SOL    HW222041   6.308   1.348   2.244
 7048SOL     OW22042   5.221   6.875   3.383
 7048SOL    HW122043   5.166   6.792   3.375
 7048SOL    HW222044   5.301   6.857   3.441
 7049SOL     OW22045   3.355   1.374   0.461
 7049SOL    HW122046   3.426   1.438   0.433
 7049SOL    HW222047   3.397   1.295   0.505
 7050SOL     OW22048   4.337   3.495   1.330
 7050SOL    HW122049   4.371   3.578   1.373
 7050SOL    HW222050   4.396   3.469   1.254
 7051SOL     OW22051   6.026   6.805   1.205
 7051SOL    HW122052   6.013   6.869   1.129
 7051SOL    HW222053   6.069   6.853   1.282
 7052SOL     OW22054   5.773   2.342   3.216
 7052SOL    HW122055   5.830   2.405   3.164
 7052SOL    HW222056   5.681   2.340   3.176
 7053SOL     OW22057   1.143   3.399   5.533
 7053SOL    HW122058   1.084   3.388   5.453
 7053SOL    HW222059   1.222   3.454   5.508
 7054SOL     OW22060   0.325   6.496   0.086
 7054SOL    HW122061   0.248   6.453   0.041
 7054SOL    HW222062   0.306   6.594   0.098
 7055SOL     OW22063   2.741   0.006   5.886
 7055SOL    HW122064   2.803   0.012   5.808
 7055SOL    HW222065   2.667   6.962   5.865
 7056SOL     OW22066   6.625   4.429   2.190
 7056SOL    HW122067   6.551   4.439   2.123
 7056SOL    HW222068   6.687   4.507   2.181
 7057SOL     OW22069   2.357   5.376   4.495
 7057SOL    HW122070   2.298   5.295   4.498
 7057SOL    HW222071   2.351   5.424   4.582
 7058SOL     OW22072   5.740   4.740   5.317
 7058SOL    HW122073   5.839   4.743   5.329
 7058SOL    HW222074   5.695   4.736   5.406
 7059SOL     OW22075   0.048   1.412   3.712
 7059SOL    HW122076   0.035   1.344   3.785
 7059SOL    HW222077   0.106   1.486   3.745
 7060SOL     OW22078   3.365   0.274   1.220
 7060SOL    HW122079   3.403   0.255   1.311
 7060SOL    HW222080   3.381   0.196   1.160
 7061SOL     OW22081   0.488   3.326   3.884
 7061SOL    HW122082   0.586   3.310   3.872
 7061SOL    HW222083   0.471   3.423   3.900
 7062SOL     OW22084   4.583   0.541   5.331
 7062SOL    HW122085   4.550   0.631   5.303
 7062SOL    HW222086   4.517   0.498   5.393
 7063SOL     OW22087   1.384   0.427   1.780
 7063SOL    HW122088   1.311   0.479   1.735
 7063SOL    HW222089   1.360   0.329   1.778
 7064SOL     OW22090   3.400   2.081   0.397
 7064SOL    HW122091   3.422   2.120   0.308
 7064SOL    HW222092   3.318   2.024   0.389
 7065SOL     OW22093   5.041   3.692   5.660
 7065SOL    HW122094   5.014   3.772   5.713
 7065SOL    HW222095   5.092   3.721   5.580
 7066SOL     OW22096   4.785   0.256   6.871
 7066SOL    HW122097   4.882   0.264   6.894
 7066SOL    HW222098   4.739   0.342   6.892
 7067SOL     OW22099   1.555   2.836   5.509
 7067SOL    HW122100   1.521   2.901   5.441
 7067SOL    HW222101   1.654   2.846   5.518
 7068SOL     OW22102   6.473   4.334   5.043
 7068SOL    HW122103   6.389   4.344   4.990
 7068SOL    HW222104   6.532   4.413   5.025
 7069SOL     OW22105   5.337   1.913   4.544
 7069SOL    HW122106   5.360   1.829   4.495
 7069SOL    HW222107   5.238   1.923   4.548
 7070SOL     OW22108   0.231   0.267   5.044
 7070SOL    HW122109   0.304   0.209   5.007
 7070SOL    HW222110   0.241   0.275   5.143
 7071SOL     OW22111   3.143   6.192   5.557
 7071SOL    HW122112   3.133   6.100   5.518
 7071SOL    HW222113   3.219   6.239   5.512
 7072SOL     OW22114   1.494   6.482   0.140
 7072SOL    HW122115   1.526   6.543   0.068
 7072SOL    HW222116   1.441   6.534   0.207
 7073SOL     OW22117   5.329   0.002   4.268
 7073SOL    HW122118   5.333   6.948   4.201
 7073SOL    HW222119   5.398   7.005   4.339
 7074SOL     OW22120   5.636   2.734   1.684
 7074SOL    HW122121   5.672   2.670   1.752
 7074SOL    HW222122   5.568   2.687   1.628
 7075SOL     OW22123   2.064   4.346   5.173
 7075SOL    HW122124   2.125   4.406   5.120
 7075SOL    HW222125   2.082   4.251   5.149
 7076SOL     OW22126   5.567   2.599   6.239
 7076SOL    HW122127   5.563   2.689   6.283
 7076SOL    HW222128   5.493   2.592   6.172
 7077SOL     OW22129   2.562   4.675   3.838
 7077SOL    HW122130   2.521   4.633   3.919
 7077SOL    HW222131   2.659   4.691   3.854
 7078SOL     OW22132   6.667   6.836   1.634
 7078SOL    HW122133   6.632   6.748   1.603
 7078SOL    HW222134   6.744   6.821   1.695
 7079SOL     OW22135   0.019   5.782   4.753
 7079SOL    HW122136   0.078   5.750   4.827
 7079SOL    HW222137   6.990   5.864   4.782
 7080SOL     OW22138   3.477   1.091   4.913
 7080SOL    HW122139   3.568   1.132   4.924
 7080SOL    HW222140   3.411   1.162   4.891
 7081SOL     OW22141   2.297   6.450   6.754
 7081SOL    HW122142   2.302   6.520   6.825
 7081SOL    HW222143   2.231   6.380   6.780
 7082SOL     OW22144   6.632   4.348   0.104
 7082SOL    HW122145   6.613   4.270   0.163
 7082SOL    HW222146   6.730   4.368   0.106
 7083SOL     OW22147   1.950   6.635   1.019
 7083SOL    HW122148   1.861   6.607   1.056
 7083SOL    HW222149   1.973   6.726   1.053
 7084SOL     OW22150   0.341   5.242   5.159
 7084SOL    HW122151   0.370   5.146   5.156
 7084SOL    HW222152   0.253   5.249   5.207
 7085SOL     OW22153   0.960   1.307   1.946
 7085SOL    HW122154   1.046   1.306   1.997
 7085SOL    HW222155   0.884   1.302   2.010
 7086SOL     OW22156   5.724   6.961   6.015
 7086SOL    HW122157   5.812   7.006   6.006
 7086SOL    HW222158   5.725   6.900   6.094
 7087SOL     OW22159   6.210   4.014   4.415
 7087SOL    HW122160   6.231   4.098   4.465
 7087SOL    HW222161   6.275   3.942   4.441
 7088SOL     OW22162   4.843   2.843   4.014
 7088SOL    HW122163   4.804   2.869   3.925
 7088SOL    HW222164   4.883   2.752   4.007
 7089SOL     OW22165   2.541   2.046   4.425
 7089SOL    HW122166   2.549   2.010   4.518
 7089SOL    HW222167   2.621   2.101   4.403
 7090SOL     OW22168   1.811   0.487   0.100
 7090SOL    HW122169   1.810   0.393   0.134
 7090SOL    HW222170   1.722   0.510   0.061
 7091SOL     OW22171   0.310   2.391   0.708
 7091SOL    HW122172   0.283   2.485   0.685
 7091SOL    HW222173   0.409   2.387   0.724
 7092SOL     OW22174   3.839   3.210   6.202
 7092SOL    HW122175   3.923   3.181   6.155
 7092SOL    HW222176   3.768   3.226   6.134
 7093SOL     OW22177   3.299   3.901   2.075
 7093SOL    HW122178   3.285   3.882   2.172
 7093SOL    HW222179   3.296   3.999   2.059
 7094SOL     OW22180   0.206   5.659   5.573
 7094SOL    HW122181   0.235   5.752   5.549
 7094SOL    HW222182   0.166   5.615   5.492
 7095SOL     OW22183   3.769   4.525   5.619
 7095SOL    HW122184   3.798   4.458   5.551
 7095SOL    HW222185   3.670   4.532   5.620
 7096SOL     OW22186   6.846   1.244   3.270
 7096SOL    HW122187   6.874   1.175   3.337
 7096SOL    HW222188   6.926   1.298   3.244
 7097SOL     OW22189   4.776   1.716   1.528
 7097SOL    HW122190   4.766   1.692   1.625
 7097SOL    HW222191   4.872   1.705   1.501
 7098SOL     OW22192   1.774   5.301   5.848
 7098SOL    HW122193   1.766   5.372   5.778
 7098SOL    HW222194   1.837   5.230   5.818
 7099SOL     OW22195   3.717   1.629   5.188
 7099SOL    HW122196   3.659   1.703   5.222
 7099SOL    HW222197   3.664   1.571   5.126
 7100SOL     OW22198   6.718   3.896   0.031
 7100SOL    HW122199   6.696   3.991   0.013
 7100SOL    HW222200   6.805   3.873   7.007
 7101SOL     OW22201   2.028   1.884   5.358
 7101SOL    HW122202   2.024   1.956   5.288
 7101SOL    HW222203   2.117   1.885   5.402
 7102SOL     OW22204   5.017   6.876   1.225
 7102SOL    HW122205   5.092   6.827   1.271
 7102SOL    HW222206   4.990   6.955   1.280
 7103SOL     OW22207   5.316   5.032   2.920
 7103SOL    HW122208   5.233   5.069   2.878
 7103SOL    HW222209   5.395   5.052   2.861
 7104SOL     OW22210   6.968   3.196   3.552
 7104SOL    HW122211   6.879   3.196   3.506
 7104SOL    HW222212   6.986   3.106   3.590
 7105SOL     OW22213   3.257   3.469   5.441
 7105SOL    HW122214   3.257   3.536   5.515
 7105SOL    HW222215   3.242   3.516   5.353
 7106SOL     OW22216   3.656   3.546   1.975
 7106SOL    HW122217   3.714   3.541   1.894
 7106SOL    HW222218   3.652   3.641   2.007
 7107SOL     OW22219   4.521   0.845   0.432
 7107SOL    HW122220   4.560   0.924   0.480
 7107SOL    HW222221   4.594   0.799   0.380
 7108SOL     OW22222   2.839   6.242   2.961
 7108SOL    HW122223   2.928   6.209   2.993
 7108SOL    HW222224   2.847   6.274   2.867
 7109SOL     OW22225   2.545   0.011   6.093
 7109SOL    HW122226   2.629   0.062   6.109
 7109SOL    HW222227   2.531   0.001   5.994
 7110SOL     OW22228   3.006   5.827   3.985
 7110SOL    HW122229   2.910   5.800   3.990
 7110SOL    HW222230   3.064   5.746   3.976
 7111SOL     OW22231   1.324   2.659   5.330
 7111SOL    HW122232   1.246   2.713   5.360
 7111SOL    HW222233   1.347   2.683   5.235
 7112SOL     OW22234   2.042   5.016   4.650
 7112SOL    HW122235   2.013   5.070   4.728
 7112SOL    HW222236   2.036   4.919   4.672
 7113SOL     OW22237   3.902   4.066   4.463
 7113SOL    HW122238   3.803   4.079   4.469
 7113SOL    HW222239   3.927   4.042   4.369
 7114SOL     OW22240   5.701   5.742   0.996
 7114SOL    HW122241   5.763   5.769   1.070
 7114SOL    HW222242   5.614   5.791   1.006
 7115SOL     OW22243   5.381   2.880   0.365
 7115SOL    HW122244   5.414   2.972   0.344
 7115SOL    HW222245   5.283   2.884   0.387
 7116SOL     OW22246   5.842   4.272   2.536
 7116SOL    HW122247   5.837   4.335   2.459
 7116SOL    HW222248   5.776   4.299   2.606
 7117SOL     OW22249   0.584   6.905   5.059
 7117SOL    HW122250   0.670   6.925   5.011
 7117SOL    HW222251   0.566   6.807   5.056
 7118SOL     OW22252   3.181   4.768   0.798
 7118SOL    HW122253   3.247   4.734   0.866
 7118SOL    HW222254   3.089   4.738   0.823
 7119SOL     OW22255   4.905   1.558   3.992
 7119SOL    HW122256   4.808   1.580   3.977
 7119SOL    HW222257   4.962   1.629   3.952
 7120SOL     OW22258   3.108   2.012   2.286
 7120SOL    HW122259   3.150   2.036   2.198
 7120SOL    HW222260   3.114   1.914   2.300
 7121SOL     OW22261   0.859   6.967   3.195
 7121SOL    HW122262   0.958   6.979   3.190
 7121SOL    HW222263   0.821   6.966   3.102
 7122SOL     OW22264   1.386   0.807   5.887
 7122SOL    HW122265   1.469   0.811   5.942
 7122SOL    HW222266   1.306   0.798   5.947
 7123SOL     OW22267   1.383   4.730   3.375
 7123SOL    HW122268   1.436   4.662   3.427
 7123SOL    HW222269   1.363   4.695   3.284
 7124SOL     OW22270   6.448   2.087   1.433
 7124SOL    HW122271   6.423   1.990   1.421
 7124SOL    HW222272   6.505   2.116   1.356
 7125SOL     OW22273   0.468   6.887   0.762
 7125SOL    HW122274   0.392   6.849   0.815
 7125SOL    HW222275   0.536   6.927   0.825
 7126SOL     OW22276   3.880   5.159   0.228
 7126SOL    HW122277   3.867   5.062   0.248
 7126SOL    HW222278   3.793   5.200   0.204
 7127SOL     OW22279   1.857   5.253   6.154
 7127SOL    HW122280   1.872   5.267   6.056
 7127SOL    HW222281   1.941   5.217   6.195
 7128SOL     OW22282   3.075   4.495   6.607
 7128SOL    HW122283   3.022   4.568   6.564
 7128SOL    HW222284   3.169   4.498   6.572
 7129SOL     OW22285   2.055   1.525   0.220
 7129SOL    HW122286   2.021   1.503   0.129
 7129SOL    HW222287   2.020   1.459   0.286
 7130SOL     OW22288   4.000   5.866   4.449
 7130SOL    HW122289   4.013   5.959   4.414
 7130SOL    HW222290   4.062   5.803   4.402
 7131SOL     OW22291   2.356   0.921   1.454
 7131SOL    HW122292   2.453   0.947   1.456
 7131SOL    HW222293   2.300   1.003   1.440
 7132SOL     OW22294   4.090   3.491   0.541
 7132SOL    HW122295   4.161   3.533   0.597
 7132SOL    HW222296   4.050   3.560   0.480
 7133SOL     OW22297   4.918   5.292   5.843
 7133SOL    HW122298   4.845   5.249   5.789
 7133SOL    HW222299   4.893   5.289   5.940
 7134SOL     OW22300   4.864   6.720   1.496
 7134SOL    HW122301   4.814   6.672   1.424
 7134SOL    HW222302   4.894   6.809   1.463
 7135SOL     OW22303   2.171   2.547   3.270
 7135SOL    HW122304   2.149   2.462   3.222
 7135SOL    HW222305   2.202   2.527   3.363
 7136SOL     OW22306   1.972   1.775   0.204
 7136SOL    HW122307   2.032   1.812   0.132
 7136SOL    HW222308   2.007   1.685   0.233
 7137SOL     OW22309   3.041   0.480   6.432
 7137SOL    HW122310   3.057   0.458   6.335
 7137SOL    HW222311   2.947   0.457   6.456
 7138SOL     OW22312   2.672   2.152   0.003
 7138SOL    HW122313   2.661   2.106   6.934
 7138SOL    HW222314   2.638   2.093   0.076
 7139SOL     OW22315   6.087   4.050   1.819
 7139SOL    HW122316   6.012   4.114   1.807
 7139SOL    HW222317   6.141   4.045   1.734
 7140SOL     OW22318   6.565   3.754   2.351
 7140SOL    HW122319   6.588   3.709   2.437
 7140SOL    HW222320   6.561   3.686   2.278
 7141SOL     OW22321   3.701   6.130   0.479
 7141SOL    HW122322   3.746   6.082   0.404
 7141SOL    HW222323   3.686   6.226   0.453
 7142SOL     OW22324   3.854   6.973   2.895
 7142SOL    HW122325   3.925   0.019   2.924
 7142SOL    HW222326   3.806   7.010   2.815
 7143SOL     OW22327   1.915   2.640   6.147
 7143SOL    HW122328   1.887   2.735   6.131
 7143SOL    HW222329   1.864   2.580   6.085
 7144SOL     OW22330   1.953   2.151   2.521
 7144SOL    HW122331   1.856   2.176   2.523
 7144SOL    HW222332   1.965   2.060   2.561
 7145SOL     OW22333   4.215   0.230   6.559
 7145SOL    HW122334   4.120   0.221   6.529
 7145SOL    HW222335   4.242   0.326   6.556
 7146SOL     OW22336   1.974   6.468   0.019
 7146SOL    HW122337   1.970   6.451   6.939
 7146SOL    HW222338   2.037   6.544   0.037
 7147SOL     OW22339   6.995   6.620   3.210
 7147SOL    HW122340   6.919   6.591   3.151
 7147SOL    HW222341   0.062   6.602   3.164
 7148SOL     OW22342   0.116   6.905   1.438
 7148SOL    HW122343   0.183   6.839   1.405
 7148SOL    HW222344   0.024   6.869   1.421
 7149SOL     OW22345   6.761   6.957   3.560
 7149SOL    HW122346   6.788   6.861   3.556
 7149SOL    HW222347   6.814   7.010   3.494
 7150SOL     OW22348   3.652   2.745   1.107
 7150SOL    HW122349   3.601   2.753   1.021
 7150SOL    HW222350   3.628   2.658   1.151
 7151SOL     OW22351   2.961   6.826   0.666
 7151SOL    HW122352   3.043   6.795   0.619
 7151SOL    HW222353   2.986   6.890   0.738
 7152SOL     OW22354   6.875   0.496   5.506
 7152SOL    HW122355   6.882   0.426   5.435
 7152SOL    HW222356   6.790   0.482   5.558
 7153SOL     OW22357   4.222   5.248   1.644
 7153SOL    HW122358   4.187   5.238   1.737
 7153SOL    HW222359   4.237   5.345   1.625
 7154SOL     OW22360   4.892   0.052   3.161
 7154SOL    HW122361   4.873   7.000   3.094
 7154SOL    HW222362   4.969   0.108   3.130
 7155SOL     OW22363   2.040   3.331   0.900
 7155SOL    HW122364   2.102   3.266   0.855
 7155SOL    HW222365   2.028   3.304   0.995
 7156SOL     OW22366   6.776   3.031   3.863
 7156SOL    HW122367   6.689   3.068   3.833
 7156SOL    HW222368   6.832   3.007   3.784
 7157SOL     OW22369   0.579   3.851   1.244
 7157SOL    HW122370   0.649   3.921   1.230
 7157SOL    HW222371   0.498   3.875   1.192
 7158SOL     OW22372   0.745   0.495   4.154
 7158SOL    HW122373   0.656   0.449   4.145
 7158SOL    HW222374   0.742   0.582   4.106
 7159SOL     OW22375   0.687   4.455   3.257
 7159SOL    HW122376   0.606   4.485   3.308
 7159SOL    HW222377   0.767   4.454   3.317
 7160SOL     OW22378   5.459   0.432   2.891
 7160SOL    HW122379   5.556   0.454   2.887
 7160SOL    HW222380   5.446   0.346   2.940
 7161SOL     OW22381   3.345   4.116   3.035
 7161SOL    HW122382   3.337   4.025   2.995
 7161SOL    HW222383   3.299   4.118   3.124
 7162SOL     OW22384   1.039   5.329   6.334
 7162SOL    HW122385   1.040   5.312   6.235
 7162SOL    HW222386   0.995   5.252   6.381
 7163SOL     OW22387   2.735   6.922   2.533
 7163SOL    HW122388   2.720   6.908   2.631
 7163SOL    HW222389   2.660   6.976   2.495
 7164SOL     OW22390   2.850   0.502   4.150
 7164SOL    HW122391   2.896   0.472   4.067
 7164SOL    HW222392   2.901   0.472   4.230
 7165SOL     OW22393   6.370   0.112   2.746
 7165SOL    HW122394   6.420   0.070   2.670
 7165SOL    HW222395   6.435   0.140   2.817
 7166SOL     OW22396   5.097   1.735   0.914
 7166SOL    HW122397   5.005   1.772   0.901
 7166SOL    HW222398   5.140   1.719   0.825
 7167SOL     OW22399   5.110   3.152   4.530
 7167SOL    HW122400   5.017   3.186   4.517
 7167SOL    HW222401   5.109   3.075   4.594
 7168SOL     OW22402   1.984   2.866   2.738
 7168SOL    HW122403   1.945   2.781   2.773
 7168SOL    HW222404   1.943   2.944   2.786
 7169SOL     OW22405   0.005   3.587   5.677
 7169SOL    HW122406   0.069   3.662   5.691
 7169SOL    HW222407   0.055   3.504   5.653
 7170SOL     OW22408   5.119   0.235   3.148
 7170SOL    HW122409   5.173   0.199   3.224
 7170SOL    HW222410   5.172   0.227   3.063
 7171SOL     OW22411   6.147   3.978   6.906
 7171SOL    HW122412   6.245   3.962   6.893
 7171SOL    HW222413   6.109   4.018   6.823
 7172SOL     OW22414   1.472   0.049   5.017
 7172SOL    HW122415   1.544   7.003   5.041
 7172SOL    HW222416   1.496   0.095   4.932
 7173SOL     OW22417   6.582   4.500   6.863
 7173SOL    HW122418   6.569   4.429   6.933
 7173SOL    HW222419   6.500   4.557   6.858
 7174SOL     OW22420   1.380   3.592   0.590
 7174SOL    HW122421   1.371   3.507   0.538
 7174SOL    HW222422   1.334   3.666   0.541
 7175SOL     OW22423   5.817   3.159   6.136
 7175SOL    HW122424   5.747   3.175   6.065
 7175SOL    HW222425   5.907   3.158   6.093
 7176SOL     OW22426   6.536   1.307   3.608
 7176SOL    HW122427   6.561   1.377   3.541
 7176SOL    HW222428   6.612   1.243   3.620
 7177SOL     OW22429   1.086   4.726   5.116
 7177SOL    HW122430   1.148   4.802   5.131
 7177SOL    HW222431   1.019   4.722   5.190
 7178SOL     OW22432   6.880   1.243   5.740
 7178SOL    HW122433   6.965   1.197   5.712
 7178SOL    HW222434   6.849   1.205   5.827
 7179SOL     OW22435   2.166   3.242   4.190
 7179SOL    HW122436   2.198   3.187   4.113
 7179SOL    HW222437   2.237   3.246   4.260
 7180SOL     OW22438   1.842   5.313   6.817
 7180SOL    HW122439   1.916   5.377   6.796
 7180SOL    HW222440   1.860   5.269   6.905
 7181SOL     OW22441   1.854   0.288   0.414
 7181SOL    HW122442   1.852   0.381   0.451
 7181SOL    HW222443   1.887   0.290   0.320
 7182SOL     OW22444   0.296   3.091   4.403
 7182SOL    HW122445   0.259   3.183   4.391
 7182SOL    HW222446   0.361   3.072   4.329
 7183SOL     OW22447   1.481   5.445   1.485
 7183SOL    HW122448   1.461   5.427   1.582
 7183SOL    HW222449   1.429   5.526   1.455
 7184SOL     OW22450   6.409   1.077   3.553
 7184SOL    HW122451   6.400   1.004   3.621
 7184SOL    HW222452   6.455   1.155   3.595
 7185SOL     OW22453   6.003   0.523   5.075
 7185SOL    HW122454   6.072   0.532   5.003
 7185SOL    HW222455   5.968   0.614   5.099
 7186SOL     OW22456   6.636   2.131   1.660
 7186SOL    HW122457   6.727   2.091   1.645
 7186SOL    HW222458   6.605   2.174   1.575
 7187SOL     OW22459   3.225   4.406   5.563
 7187SOL    HW122460   3.194   4.312   5.552
 7187SOL    HW222461   3.167   4.452   5.630
 7188SOL     OW22462   5.680   6.915   6.891
 7188SOL    HW122463   5.646   6.908   6.798
 7188SOL    HW222464   5.779   6.901   6.892
 7189SOL     OW22465   5.960   1.319   5.086
 7189SOL    HW122466   6.011   1.240   5.050
 7189SOL    HW222467   5.890   1.346   5.020
 7190SOL     OW22468   6.468   4.425   1.858
 7190SOL    HW122469   6.547   4.364   1.870
 7190SOL    HW222470   6.384   4.372   1.856
 7191SOL     OW22471   1.683   4.971   2.403
 7191SOL    HW122472   1.739   4.998   2.482
 7191SOL    HW222473   1.591   4.948   2.434
 7192SOL     OW22474   2.540   4.213   6.232
 7192SOL    HW122475   2.567   4.122   6.266
 7192SOL    HW222476   2.586   4.231   6.145
 7193SOL     OW22477   1.303   3.102   2.701
 7193SOL    HW122478   1.370   3.027   2.699
 7193SOL    HW222479   1.211   3.064   2.704
 7194SOL     OW22480   2.211   2.684   0.761
 7194SOL    HW122481   2.277   2.618   0.723
 7194SOL    HW222482   2.209   2.766   0.704
 7195SOL     OW22483   1.163   4.134   6.979
 7195SOL    HW122484   1.234   4.196   7.013
 7195SOL    HW222485   1.141   4.157   6.884
 7196SOL     OW22486   2.396   3.815   1.718
 7196SOL    HW122487   2.475   3.754   1.729
 7196SOL    HW222488   2.313   3.761   1.710
 7197SOL     OW22489   0.515   2.644   5.844
 7197SOL    HW122490   0.559   2.733   5.848
 7197SOL    HW222491   0.497   2.620   5.748
 7198SOL     OW22492   0.453   0.657   0.719
 7198SOL    HW122493   0.507   0.601   0.656
 7198SOL    HW222494   0.362   0.617   0.728
 7199SOL     OW22495   2.039   0.519   2.029
 7199SOL    HW122496   2.090   0.464   2.095
 7199SOL    HW222497   1.975   0.578   2.078
 7200SOL     OW22498   2.296   2.741   6.878
 7200SOL    HW122499   2.229   2.795   6.826
 7200SOL    HW222500   2.307   2.781   6.969
 7201SOL     OW22501   0.731   6.279   4.400
 7201SOL    HW122502   0.715   6.291   4.498
 7201SOL    HW222503   0.697   6.189   4.371
 7202SOL     OW22504   5.551   6.907   0.350
 7202SOL    HW122505   5.580   6.813   0.332
 7202SOL    HW222506   5.597   6.940   0.433
 7203SOL     OW22507   0.088   1.142   0.595
 7203SOL    HW122508   0.137   1.228   0.604
 7203SOL    HW222509   0.020   1.134   0.668
 7204SOL     OW22510   0.560   0.252   5.723
 7204SOL    HW122511   0.559   0.239   5.624
 7204SOL    HW222512   0.637   0.202   5.762
 7205SOL     OW22513   1.439   3.847   4.461
 7205SOL    HW122514   1.477   3.773   4.516
 7205SOL    HW222515   1.435   3.819   4.365
 7206SOL     OW22516   1.556   0.533   1.993
 7206SOL    HW122517   1.501   0.497   1.918
 7206SOL    HW222518   1.635   0.473   2.008
 7207SOL     OW22519   3.558   0.091   2.361
 7207SOL    HW122520   3.487   0.039   2.408
 7207SOL    HW222521   3.535   0.188   2.363
 7208SOL     OW22522   4.094   0.152   3.371
 7208SOL    HW122523   4.179   0.100   3.380
 7208SOL    HW222524   4.053   0.164   3.462
 7209SOL     OW22525   2.409   3.383   1.650
 7209SOL    HW122526   2.366   3.437   1.723
 7209SOL    HW222527   2.492   3.429   1.620
 7210SOL     OW22528   4.449   0.970   2.818
 7210SOL    HW122529   4.430   0.878   2.785
 7210SOL    HW222530   4.388   1.035   2.772
 7211SOL     OW22531   2.347   0.008   4.557
 7211SOL    HW122532   2.378   0.060   4.477
 7211SOL    HW222533   2.379   0.053   4.641
 7212SOL     OW22534   0.355   6.674   5.203
 7212SOL    HW122535   0.431   6.628   5.248
 7212SOL    HW222536   0.338   6.633   5.114
 7213SOL     OW22537   4.387   5.734   6.678
 7213SOL    HW122538   4.464   5.793   6.653
 7213SOL    HW222539   4.350   5.763   6.766
 7214SOL     OW22540   6.514   0.269   4.915
 7214SOL    HW122541   6.577   0.253   4.839
 7214SOL    HW222542   6.522   0.195   4.981
 7215SOL     OW22543   0.061   3.266   4.074
 7215SOL    HW122544   0.006   3.185   4.096
 7215SOL    HW222545   0.083   3.265   3.977
 7216SOL     OW22546   2.843   0.275   0.049
 7216SOL    HW122547   2.810   0.369   0.055
 7216SOL    HW222548   2.767   0.212   0.064
 7217SOL     OW22549   2.136   4.032   3.794
 7217SOL    HW122550   2.056   4.085   3.764
 7217SOL    HW222551   2.142   3.948   3.741
 7218SOL     OW22552   5.581   2.704   5.193
 7218SOL    HW122553   5.584   2.748   5.282
 7218SOL    HW222554   5.606   2.770   5.122
 7219SOL     OW22555   4.481   0.405   2.932
 7219SOL    HW122556   4.396   0.359   2.957
 7219SOL    HW222557   4.481   0.498   2.970
 7220SOL     OW22558   0.564   4.341   4.986
 7220SOL    HW122559   0.610   4.429   4.999
 7220SOL    HW222560   0.479   4.355   4.936
 7221SOL     OW22561   3.443   5.950   4.113
 7221SOL    HW122562   3.344   5.949   4.120
 7221SOL    HW222563   3.483   5.997   4.192
 7222SOL     OW22564   5.911   7.000   3.626
 7222SOL    HW122565   5.967   6.994   3.544
 7222SOL    HW222566   5.951   6.944   3.698
 7223SOL     OW22567   2.752   1.488   0.707
 7223SOL    HW122568   2.713   1.446   0.625
 7223SOL    HW222569   2.839   1.445   0.729
 7224SOL     OW22570   5.215   1.712   4.113
 7224SOL    HW122571   5.148   1.744   4.046
 7224SOL    HW222572   5.284   1.657   4.067
 7225SOL     OW22573   1.083   5.593   0.528
 7225SOL    HW122574   1.049   5.566   0.439
 7225SOL    HW222575   1.007   5.624   0.586
 7226SOL     OW22576   6.061   1.467   2.007
 7226SOL    HW122577   6.076   1.468   1.908
 7226SOL    HW222578   6.146   1.444   2.053
 7227SOL     OW22579   2.781   2.354   0.992
 7227SOL    HW122580   2.702   2.293   0.998
 7227SOL    HW222581   2.804   2.387   1.084
 7228SOL     OW22582   1.269   2.404   3.309
 7228SOL    HW122583   1.204   2.373   3.240
 7228SOL    HW222584   1.257   2.502   3.326
 7229SOL     OW22585   1.444   6.319   5.227
 7229SOL    HW122586   1.380   6.362   5.163
 7229SOL    HW222587   1.526   6.376   5.235
 7230SOL     OW22588   3.260   5.215   4.206
 7230SOL    HW122589   3.345   5.162   4.199
 7230SOL    HW222590   3.271   5.302   4.158
 7231SOL     OW22591   3.857   0.960   6.505
 7231SOL    HW122592   3.759   0.967   6.523
 7231SOL    HW222593   3.899   1.051   6.511
 7232SOL     OW22594   5.036   6.681   3.252
 7232SOL    HW122595   4.943   6.676   3.216
 7232SOL    HW222596   5.102   6.671   3.177
 7233SOL     OW22597   0.915   1.709   3.127
 7233SOL    HW122598   0.971   1.767   3.186
 7233SOL    HW222599   0.890   1.760   3.044
 7234SOL     OW22600   4.893   2.581   4.169
 7234SOL    HW122601   4.860   2.491   4.141
 7234SOL    HW222602   4.993   2.584   4.157
 7235SOL     OW22603   6.894   5.243   2.505
 7235SOL    HW122604   6.969   5.304   2.476
 7235SOL    HW222605   6.912   5.151   2.471
 7236SOL     OW22606   2.404   2.101   1.812
 7236SOL    HW122607   2.460   2.018   1.820
 7236SOL    HW222608   2.427   2.164   1.886
 7237SOL     OW22609   4.211   6.946   5.210
 7237SOL    HW122610   4.230   6.959   5.307
 7237SOL    HW222611   4.278   6.883   5.171
 7238SOL     OW22612   3.751   1.523   0.174
 7238SOL    HW122613   3.679   1.581   0.135
 7238SOL    HW222614   3.751   1.434   0.129
 7239SOL     OW22615   1.381   2.314   2.673
 7239SOL    HW122616   1.353   2.228   2.716
 7239SOL    HW222617   1.357   2.313   2.576
 7240SOL     OW22618   1.389   0.500   5.875
 7240SOL    HW122619   1.309   0.443   5.893
 7240SOL    HW222620   1.370   0.594   5.905
 7241SOL     OW22621   1.282   0.657   0.983
 7241SOL    HW122622   1.299   0.563   1.013
 7241SOL    HW222623   1.262   0.714   1.063
 7242SOL     OW22624   6.520   5.886   0.153
 7242SOL    HW122625   6.562   5.970   0.188
 7242SOL    HW222626   6.505   5.822   0.228
 7243SOL     OW22627   6.227   4.211   6.024
 7243SOL    HW122628   6.128   4.216   6.008
 7243SOL    HW222629   6.261   4.300   6.052
 7244SOL     OW22630   6.187   1.176   1.724
 7244SOL    HW122631   6.144   1.138   1.642
 7244SOL    HW222632   6.151   1.268   1.741
 7245SOL     OW22633   1.055   2.656   5.987
 7245SOL    HW122634   1.130   2.722   5.991
 7245SOL    HW222635   0.994   2.680   5.911
 7246SOL     OW22636   0.523   6.929   4.281
 7246SOL    HW122637   0.445   6.933   4.220
 7246SOL    HW222638   0.558   0.003   4.297
 7247SOL     OW22639   2.622   1.036   4.416
 7247SOL    HW122640   2.644   0.938   4.420
 7247SOL    HW222641   2.536   1.048   4.367
 7248SOL     OW22642   2.557   1.437   3.298
 7248SOL    HW122643   2.547   1.523   3.248
 7248SOL    HW222644   2.612   1.374   3.244
 7249SOL     OW22645   6.882   4.631   2.668
 7249SOL    HW122646   6.843   4.723   2.666
 7249SOL    HW222647   6.888   4.595   2.575
 7250SOL     OW22648   4.803   6.839   6.111
 7250SOL    HW122649   4.744   6.842   6.192
 7250SOL    HW222650   4.827   6.932   6.084
 7251SOL     OW22651   0.433   6.506   5.580
 7251SOL    HW122652   0.392   6.597   5.575
 7251SOL    HW222653   0.452   6.472   5.488
 7252SOL     OW22654   3.756   3.423   2.380
 7252SOL    HW122655   3.792   3.517   2.382
 7252SOL    HW222656   3.678   3.420   2.317
 7253SOL     OW22657   1.407   6.394   6.592
 7253SOL    HW122658   1.371   6.476   6.636
 7253SOL    HW222659   1.418   6.410   6.494
 7254SOL     OW22660   4.288   5.045   4.047
 7254SOL    HW122661   4.361   5.109   4.070
 7254SOL    HW222662   4.202   5.079   4.086
 7255SOL     OW22663   2.902   4.279   1.382
 7255SOL    HW122664   2.802   4.287   1.371
 7255SOL    HW222665   2.942   4.250   1.295
 7256SOL     OW22666   3.049   5.448   4.208
 7256SOL    HW122667   3.024   5.414   4.298
 7256SOL    HW222668   3.042   5.374   4.141
 7257SOL     OW22669   5.879   2.590   3.605
 7257SOL    HW122670   5.811   2.533   3.559
 7257SOL    HW222671   5.942   2.628   3.537
 7258SOL     OW22672   4.477   1.655   3.589
 7258SOL    HW122673   4.495   1.680   3.493
 7258SOL    HW222674   4.381   1.675   3.610
 7259SOL     OW22675   2.218   3.802   1.048
 7259SOL    HW122676   2.255   3.886   1.089
 7259SOL    HW222677   2.159   3.756   1.114
 7260SOL     OW22678   3.941   2.051   1.524
 7260SOL    HW122679   4.008   2.046   1.597
 7260SOL    HW222680   3.958   2.132   1.467
 7261SOL     OW22681   1.342   2.448   1.556
 7261SOL    HW122682   1.272   2.400   1.503
 7261SOL    HW222683   1.313   2.455   1.651
 7262SOL     OW22684   5.218   1.793   5.604
 7262SOL    HW122685   5.281   1.722   5.635
 7262SOL    HW222686   5.269   1.861   5.551
 7263SOL     OW22687   0.465   0.770   0.276
 7263SOL    HW122688   0.539   0.749   0.213
 7263SOL    HW222689   0.379   0.780   0.225
 7264SOL     OW22690   5.672   2.303   6.568
 7264SOL    HW122691   5.603   2.314   6.497
 7264SOL    HW222692   5.759   2.277   6.525
 7265SOL     OW22693   5.569   5.682   5.491
 7265SOL    HW122694   5.570   5.624   5.572
 7265SOL    HW222695   5.608   5.633   5.414
 7266SOL     OW22696   5.432   6.775   1.739
 7266SOL    HW122697   5.467   6.743   1.827
 7266SOL    HW222698   5.359   6.714   1.708
 7267SOL     OW22699   6.359   6.067   5.206
 7267SOL    HW122700   6.401   6.025   5.287
 7267SOL    HW222701   6.264   6.091   5.227
 7268SOL     OW22702   5.675   5.214   3.423
 7268SOL    HW122703   5.672   5.115   3.407
 7268SOL    HW222704   5.770   5.244   3.427
 7269SOL     OW22705   6.881   6.674   6.536
 7269SOL    HW122706   6.977   6.698   6.521
 7269SOL    HW222707   6.830   6.688   6.451
 7270SOL     OW22708   1.330   3.612   5.503
 7270SOL    HW122709   1.266   3.663   5.445
 7270SOL    HW222710   1.389   3.676   5.552
 7271SOL     OW22711   0.840   6.070   3.037
 7271SOL    HW122712   0.931   6.030   3.025
 7271SOL    HW222713   0.845   6.144   3.104
 7272SOL     OW22714   5.567   5.762   1.973
 7272SOL    HW122715   5.597   5.825   1.901
 7272SOL    HW222716   5.643   5.745   2.035
 7273SOL     OW22717   6.164   4.747   2.587
 7273SOL    HW122718   6.073   4.784   2.606
 7273SOL    HW222719   6.157   4.675   2.518
 7274SOL     OW22720   0.885   5.558   6.370
 7274SOL    HW122721   0.961   5.493   6.379
 7274SOL    HW222722   0.896   5.611   6.286
 7275SOL     OW22723   6.901   6.442   2.991
 7275SOL    HW122724   6.920   6.346   3.010
 7275SOL    HW222725   6.955   6.472   2.913
 7276SOL     OW22726   3.921   1.552   2.720
 7276SOL    HW122727   3.923   1.479   2.652
 7276SOL    HW222728   3.828   1.587   2.728
 7277SOL     OW22729   4.483   0.697   3.004
 7277SOL    HW122730   4.448   0.771   3.061
 7277SOL    HW222731   4.580   0.683   3.023
 7278SOL     OW22732   3.268   2.622   1.233
 7278SOL    HW122733   3.173   2.597   1.212
 7278SOL    HW222734   3.329   2.580   1.165
 7279SOL     OW22735   3.912   4.052   5.438
 7279SOL    HW122736   3.914   4.035   5.339
 7279SOL    HW222737   4.004   4.046   5.475
 7280SOL     OW22738   0.329   2.073   3.771
 7280SOL    HW122739   0.308   2.085   3.868
 7280SOL    HW222740   0.427   2.055   3.761
 7281SOL     OW22741   1.299   0.926   0.619
 7281SOL    HW122742   1.368   0.995   0.640
 7281SOL    HW222743   1.336   0.860   0.553
 7282SOL     OW22744   6.350   6.031   1.634
 7282SOL    HW122745   6.446   6.013   1.656
 7282SOL    HW222746   6.340   6.128   1.610
 7283SOL     OW22747   4.651   0.734   1.998
 7283SOL    HW122748   4.656   0.799   1.922
 7283SOL    HW222749   4.724   0.754   2.063
 7284SOL     OW22750   6.859   2.234   5.954
 7284SOL    HW122751   6.802   2.207   6.031
 7284SOL    HW222752   6.924   2.160   5.933
 7285SOL     OW22753   5.676   3.075   2.260
 7285SOL    HW122754   5.725   2.990   2.278
 7285SOL    HW222755   5.682   3.097   2.162
 7286SOL     OW22756   1.273   1.182   1.262
 7286SOL    HW122757   1.343   1.119   1.295
 7286SOL    HW222758   1.219   1.138   1.190
 7287SOL     OW22759   6.936   2.649   5.667
 7287SOL    HW122760   6.933   2.560   5.712
 7287SOL    HW222761   6.961   2.636   5.571
 7288SOL     OW22762   1.725   2.179   1.653
 7288SOL    HW122763   1.677   2.187   1.741
 7288SOL    HW222764   1.704   2.259   1.597
 7289SOL     OW22765   5.281   2.708   3.886
 7289SOL    HW122766   5.365   2.653   3.888
 7289SOL    HW222767   5.207   2.656   3.930
 7290SOL     OW22768   2.682   1.440   5.172
 7290SOL    HW122769   2.702   1.501   5.095
 7290SOL    HW222770   2.745   1.362   5.169
 7291SOL     OW22771   1.311   0.100   0.040
 7291SOL    HW122772   1.295   0.014   0.088
 7291SOL    HW222773   1.272   0.175   0.094
 7292SOL     OW22774   3.323   6.918   2.995
 7292SOL    HW122775   3.405   6.873   3.032
 7292SOL    HW222776   3.266   6.850   2.950
 7293SOL     OW22777   1.071   1.496   4.895
 7293SOL    HW122778   1.044   1.456   4.983
 7293SOL    HW222779   1.098   1.423   4.832
 7294SOL     OW22780   2.986   4.382   6.829
 7294SOL    HW122781   3.030   4.428   6.753
 7294SOL    HW222782   2.910   4.439   6.862
 7295SOL     OW22783   6.052   4.552   0.892
 7295SOL    HW122784   6.018   4.512   0.977
 7295SOL    HW222785   6.114   4.488   0.847
 7296SOL     OW22786   3.606   6.040   1.149
 7296SOL    HW122787   3.660   5.959   1.126
 7296SOL    HW222788   3.581   6.036   1.246
 7297SOL     OW22789   3.498   6.373   1.371
 7297SOL    HW122790   3.542   6.438   1.433
 7297SOL    HW222791   3.472   6.420   1.287
 7298SOL     OW22792   4.936   5.536   6.065
 7298SOL    HW122793   4.952   5.459   6.126
 7298SOL    HW222794   4.838   5.545   6.047
 7299SOL     OW22795   1.019   2.170   1.427
 7299SOL    HW122796   0.938   2.170   1.485
 7299SOL    HW222797   1.054   2.077   1.419
 7300SOL     OW22798   0.466   0.009   2.141
 7300SOL    HW122799   0.368   7.009   2.146
 7300SOL    HW222800   0.515   6.968   2.204
 7301SOL     OW22801   5.808   2.012   4.990
 7301SOL    HW122802   5.866   1.933   4.974
 7301SOL    HW222803   5.860   2.082   5.039
 7302SOL     OW22804   0.007   2.424   6.046
 7302SOL    HW122805   7.009   2.504   5.988
 7302SOL    HW222806   6.966   2.349   6.017
 7303SOL     OW22807   3.780   1.044   6.897
 7303SOL    HW122808   3.746   0.950   6.889
 7303SOL    HW222809   3.867   1.053   6.848
 7304SOL     OW22810   2.922   5.136   1.401
 7304SOL    HW122811   2.941   5.193   1.481
 7304SOL    HW222812   2.879   5.051   1.431
 7305SOL     OW22813   4.720   1.762   1.026
 7305SOL    HW122814   4.732   1.860   1.010
 7305SOL    HW222815   4.629   1.745   1.065
 7306SOL     OW22816   3.952   1.902   1.292
 7306SOL    HW122817   3.930   1.806   1.310
 7306SOL    HW222818   3.918   1.959   1.367
 7307SOL     OW22819   3.621   6.252   2.579
 7307SOL    HW122820   3.631   6.164   2.625
 7307SOL    HW222821   3.535   6.295   2.606
 7308SOL     OW22822   6.647   1.764   4.712
 7308SOL    HW122823   6.716   1.834   4.731
 7308SOL    HW222824   6.559   1.793   4.750
 7309SOL     OW22825   3.639   5.760   0.770
 7309SOL    HW122826   3.627   5.858   0.755
 7309SOL    HW222827   3.691   5.745   0.854
 7310SOL     OW22828   1.946   3.789   6.729
 7310SOL    HW122829   1.903   3.809   6.817
 7310SOL    HW222830   1.931   3.865   6.666
 7311SOL     OW22831   1.777   1.704   1.296
 7311SOL    HW122832   1.846   1.684   1.226
 7311SOL    HW222833   1.780   1.801   1.319
 7312SOL     OW22834   0.750   2.773   4.746
 7312SOL    HW122835   0.727   2.868   4.725
 7312SOL    HW222836   0.671   2.715   4.728
 7313SOL     OW22837   1.913   1.071   0.912
 7313SOL    HW122838   1.935   1.072   1.010
 7313SOL    HW222839   1.897   0.978   0.883
 7314SOL     OW22840   0.069   3.972   6.005
 7314SOL    HW122841   0.014   3.961   5.922
 7314SOL    HW222842   0.013   3.951   6.085
 7315SOL     OW22843   5.053   5.337   2.030
 7315SOL    HW122844   4.990   5.307   1.958
 7315SOL    HW222845   5.001   5.359   2.112
 7316SOL     OW22846   3.521   3.321   6.657
 7316SOL    HW122847   3.433   3.367   6.667
 7316SOL    HW222848   3.522   3.238   6.714
 7317SOL     OW22849   4.161   1.757   1.483
 7317SOL    HW122850   4.167   1.850   1.446
 7317SOL    HW222851   4.235   1.701   1.446
 7318SOL     OW22852   3.273   0.426   1.966
 7318SOL    HW122853   3.198   0.428   2.033
 7318SOL    HW222854   3.243   0.468   1.881
 7319SOL     OW22855   6.412   3.932   6.865
 7319SOL    HW122856   6.458   3.862   6.919
 7319SOL    HW222857   6.468   3.952   6.784
 7320SOL     OW22858   0.738   3.877   2.176
 7320SOL    HW122859   0.673   3.802   2.163
 7320SOL    HW222860   0.754   3.922   2.088
 7321SOL     OW22861   2.087   6.425   5.798
 7321SOL    HW122862   2.009   6.452   5.855
 7321SOL    HW222863   2.090   6.483   5.717
 7322SOL     OW22864   6.408   3.031   3.122
 7322SOL    HW122865   6.408   2.957   3.054
 7322SOL    HW222866   6.432   2.993   3.211
 7323SOL     OW22867   2.283   2.947   1.590
 7323SOL    HW122868   2.360   2.939   1.526
 7323SOL    HW222869   2.265   3.043   1.610
 7324SOL     OW22870   5.397   5.477   1.516
 7324SOL    HW122871   5.445   5.401   1.559
 7324SOL    HW222872   5.346   5.445   1.437
 7325SOL     OW22873   2.365   0.205   6.239
 7325SOL    HW122874   2.335   0.136   6.305
 7325SOL    HW222875   2.432   0.165   6.177
 7326SOL     OW22876   3.369   5.924   6.553
 7326SOL    HW122877   3.406   5.860   6.486
 7326SOL    HW222878   3.281   5.959   6.522
 7327SOL     OW22879   6.146   2.082   5.980
 7327SOL    HW122880   6.120   2.029   6.060
 7327SOL    HW222881   6.082   2.064   5.905
 7328SOL     OW22882   4.732   0.037   6.661
 7328SOL    HW122883   4.656   6.992   6.652
 7328SOL    HW222884   4.712   0.103   6.734
 7329SOL     OW22885   0.863   4.373   0.443
 7329SOL    HW122886   0.936   4.441   0.434
 7329SOL    HW222887   0.903   4.282   0.437
 7330SOL     OW22888   1.652   3.346   0.232
 7330SOL    HW122889   1.649   3.262   0.286
 7330SOL    HW222890   1.626   3.326   0.137
 7331SOL     OW22891   5.760   6.501   1.048
 7331SOL    HW122892   5.803   6.424   1.096
 7331SOL    HW222893   5.725   6.469   0.960
 7332SOL     OW22894   3.326   5.499   6.956
 7332SOL    HW122895   3.319   5.584   6.905
 7332SOL    HW222896   3.274   5.506   0.022
 7333SOL     OW22897   6.175   3.142   3.722
 7333SOL    HW122898   6.152   3.194   3.640
 7333SOL    HW222899   6.112   3.168   3.796
 7334SOL     OW22900   1.775   6.177   6.197
 7334SOL    HW122901   1.853   6.240   6.203
 7334SOL    HW222902   1.796   6.093   6.247
 7335SOL     OW22903   0.310   2.379   2.889
 7335SOL    HW122904   0.268   2.346   2.804
 7335SOL    HW222905   0.297   2.478   2.896
 7336SOL     OW22906   2.276   6.718   2.517
 7336SOL    HW122907   2.275   6.644   2.448
 7336SOL    HW222908   2.196   6.776   2.504
 7337SOL     OW22909   1.096   2.579   2.122
 7337SOL    HW122910   1.047   2.573   2.208
 7337SOL    HW222911   1.164   2.505   2.117
 7338SOL     OW22912   5.026   1.774   1.921
 7338SOL    HW122913   4.935   1.769   1.880
 7338SOL    HW222914   5.095   1.784   1.849
 7339SOL     OW22915   6.202   0.580   4.889
 7339SOL    HW122916   6.184   0.499   4.833
 7339SOL    HW222917   6.297   0.577   4.921
 7340SOL     OW22918   2.923   1.358   0.087
 7340SOL    HW122919   2.939   1.401   7.018
 7340SOL    HW222920   2.961   1.415   0.160
 7341SOL     OW22921   0.705   4.161   5.144
 7341SOL    HW122922   0.803   4.179   5.156
 7341SOL    HW222923   0.666   4.229   5.083
 7342SOL     OW22924   0.358   6.955   6.163
 7342SOL    HW122925   0.263   6.983   6.178
 7342SOL    HW222926   0.397   6.924   6.249
 7343SOL     OW22927   5.879   4.210   1.804
 7343SOL    HW122928   5.829   4.264   1.737
 7343SOL    HW222929   5.852   4.237   1.896
 7344SOL     OW22930   0.931   0.756   5.951
 7344SOL    HW122931   0.875   0.759   6.034
 7344SOL    HW222932   0.876   0.782   5.872
 7345SOL     OW22933   4.903   5.816   5.472
 7345SOL    HW122934   4.875   5.726   5.440
 7345SOL    HW222935   4.967   5.806   5.548
 7346SOL     OW22936   4.974   4.481   1.269
 7346SOL    HW122937   5.033   4.558   1.294
 7346SOL    HW222938   4.995   4.403   1.328
 7347SOL     OW22939   0.542   3.290   1.001
 7347SOL    HW122940   0.593   3.227   1.059
 7347SOL    HW222941   0.481   3.346   1.059
 7348SOL     OW22942   1.305   4.049   3.699
 7348SOL    HW122943   1.329   4.140   3.734
 7348SOL    HW222944   1.208   4.048   3.674
 7349SOL     OW22945   5.115   1.961   0.683
 7349SOL    HW122946   5.022   1.989   0.660
 7349SOL    HW222947   5.123   1.862   0.679
 7350SOL     OW22948   1.596   3.254   5.518
 7350SOL    HW122949   1.572   3.329   5.456
 7350SOL    HW222950   1.686   3.219   5.494
 7351SOL     OW22951   4.900   6.455   5.134
 7351SOL    HW122952   4.807   6.491   5.142
 7351SOL    HW222953   4.913   6.382   5.201
 7352SOL     OW22954   2.296   2.442   3.550
 7352SOL    HW122955   2.306   2.356   3.500
 7352SOL    HW222956   2.376   2.500   3.532
 7353SOL     OW22957   1.183   0.318   5.919
 7353SOL    HW122958   1.085   0.311   5.937
 7353SOL    HW222959   1.210   0.246   5.855
 7354SOL     OW22960   0.287   1.677   6.157
 7354SOL    HW122961   0.306   1.650   6.251
 7354SOL    HW222962   0.189   1.667   6.138
 7355SOL     OW22963   1.841   1.196   0.674
 7355SOL    HW122964   1.835   1.131   0.599
 7355SOL    HW222965   1.889   1.154   0.751
 7356SOL     OW22966   3.966   3.600   5.938
 7356SOL    HW122967   4.000   3.595   6.032
 7356SOL    HW222968   3.867   3.593   5.938
 7357SOL     OW22969   4.584   6.280   1.617
 7357SOL    HW122970   4.682   6.290   1.632
 7357SOL    HW222971   4.550   6.202   1.669
 7358SOL     OW22972   6.432   3.484   3.085
 7358SOL    HW122973   6.381   3.402   3.061
 7358SOL    HW222974   6.384   3.534   3.156
 7359SOL     OW22975   2.410   1.986   6.149
 7359SOL    HW122976   2.502   1.952   6.169
 7359SOL    HW222977   2.402   2.081   6.181
 7360SOL     OW22978   3.646   4.181   5.461
 7360SOL    HW122979   3.733   4.136   5.444
 7360SOL    HW222980   3.643   4.268   5.412
 7361SOL     OW22981   4.599   0.142   1.439
 7361SOL    HW122982   4.681   0.144   1.497
 7361SOL    HW222983   4.581   0.048   1.410
 7362SOL     OW22984   1.509   4.899   4.676
 7362SOL    HW122985   1.438   4.829   4.683
 7362SOL    HW222986   1.515   4.931   4.581
 7363SOL     OW22987   4.067   1.791   1.058
 7363SOL    HW122988   4.067   1.870   0.996
 7363SOL    HW222989   4.038   1.821   1.149
 7364SOL     OW22990   4.623   1.271   1.360
 7364SOL    HW122991   4.538   1.220   1.373
 7364SOL    HW222992   4.625   1.349   1.423
 7365SOL     OW22993   1.314   6.388   1.895
 7365SOL    HW122994   1.353   6.343   1.976
 7365SOL    HW222995   1.340   6.484   1.895
 7366SOL     OW22996   2.130   5.828   6.845
 7366SOL    HW122997   2.074   5.751   6.876
 7366SOL    HW222998   2.073   5.910   6.839
 7367SOL     OW22999   5.020   3.259   1.076
 7367SOL    HW123000   4.931   3.225   1.046
 7367SOL    HW223001   5.023   3.262   1.176
 7368SOL     OW23002   3.818   2.984   3.109
 7368SOL    HW123003   3.884   3.056   3.128
 7368SOL    HW223004   3.820   2.918   3.184
 7369SOL     OW23005   4.060   3.105   6.571
 7369SOL    HW123006   3.971   3.081   6.609
 7369SOL    HW223007   4.084   3.040   6.499
 7370SOL     OW23008   2.274   0.910   4.342
 7370SOL    HW123009   2.323   0.907   4.255
 7370SOL    HW223010   2.296   0.828   4.395
 7371SOL     OW23011   2.080   6.153   3.643
 7371SOL    HW123012   2.143   6.126   3.570
 7371SOL    HW223013   2.131   6.179   3.724
 7372SOL     OW23014   4.010   0.953   5.020
 7372SOL    HW123015   3.921   0.943   5.065
 7372SOL    HW223016   3.995   0.970   4.922
 7373SOL     OW23017   5.981   1.774   4.615
 7373SOL    HW123018   5.927   1.692   4.601
 7373SOL    HW223019   5.920   1.853   4.625
 7374SOL     OW23020   2.686   1.723   4.962
 7374SOL    HW123021   2.750   1.785   4.917
 7374SOL    HW223022   2.619   1.691   4.896
 7375SOL     OW23023   2.152   3.792   3.659
 7375SOL    HW123024   2.116   3.798   3.566
 7375SOL    HW223025   2.137   3.700   3.695
 7376SOL     OW23026   3.031   1.536   0.270
 7376SOL    HW123027   2.993   1.627   0.286
 7376SOL    HW223028   3.086   1.509   0.348
 7377SOL     OW23029   5.723   4.611   0.844
 7377SOL    HW123030   5.626   4.606   0.822
 7377SOL    HW223031   5.776   4.554   0.781
 7378SOL     OW23032   0.201   1.183   5.846
 7378SOL    HW123033   0.153   1.108   5.890
 7378SOL    HW223034   0.229   1.250   5.915
 7379SOL     OW23035   3.527   1.293   3.163
 7379SOL    HW123036   3.451   1.251   3.213
 7379SOL    HW223037   3.605   1.303   3.224
 7380SOL     OW23038   6.868   4.052   4.948
 7380SOL    HW123039   6.770   4.071   4.940
 7380SOL    HW223040   6.908   4.048   4.857
 7381SOL     OW23041   4.434   3.978   1.665
 7381SOL    HW123042   4.512   4.002   1.606
 7381SOL    HW223043   4.416   4.053   1.729
 7382SOL     OW23044   6.941   5.698   6.341
 7382SOL    HW123045   6.881   5.699   6.261
 7382SOL    HW223046   6.900   5.643   6.413
 7383SOL     OW23047   1.157   0.161   1.430
 7383SOL    HW123048   1.252   0.137   1.451
 7383SOL    HW223049   1.114   0.202   1.511
 7384SOL     OW23050   5.515   0.526   3.624
 7384SOL    HW123051   5.449   0.522   3.549
 7384SOL    HW223052   5.546   0.620   3.637
 7385SOL     OW23053   3.997   5.746   1.684
 7385SOL    HW123054   4.043   5.791   1.761
 7385SOL    HW223055   4.058   5.746   1.604
 7386SOL     OW23056   0.372   2.116   5.738
 7386SOL    HW123057   0.429   2.082   5.813
 7386SOL    HW223058   0.277   2.122   5.768
 7387SOL     OW23059   4.958   6.289   4.429
 7387SOL    HW123060   4.954   6.196   4.465
 7387SOL    HW223061   4.987   6.352   4.501
 7388SOL     OW23062   0.232   5.063   2.499
 7388SOL    HW123063   0.328   5.086   2.478
 7388SOL    HW223064   0.188   5.143   2.540
 7389SOL     OW23065   0.196   3.513   6.698
 7389SOL    HW123066   0.289   3.520   6.661
 7389SOL    HW223067   0.201   3.492   6.796
 7390SOL     OW23068   1.370   1.712   0.003
 7390SOL    HW123069   1.448   1.733   6.963
 7390SOL    HW223070   1.317   1.795   0.017
 7391SOL     OW23071   3.947   3.253   4.729
 7391SOL    HW123072   3.997   3.339   4.728
 7391SOL    HW223073   3.969   3.200   4.647
 7392SOL     OW23074   2.823   6.060   0.144
 7392SOL    HW123075   2.772   5.974   0.141
 7392SOL    HW223076   2.921   6.040   0.153
 7393SOL     OW23077   5.923   4.944   2.676
 7393SOL    HW123078   5.873   4.992   2.749
 7393SOL    HW223079   6.018   4.974   2.677
 7394SOL     OW23080   2.592   2.432   5.627
 7394SOL    HW123081   2.657   2.361   5.600
 7394SOL    HW223082   2.508   2.422   5.574
 7395SOL     OW23083   1.443   2.319   6.947
 7395SOL    HW123084   1.404   2.227   6.941
 7395SOL    HW223085   1.492   2.340   6.863
 7396SOL     OW23086   1.088   7.007   0.423
 7396SOL    HW123087   0.993   0.016   0.409
 7396SOL    HW223088   1.126   6.974   0.337
 7397SOL     OW23089   4.313   5.437   4.701
 7397SOL    HW123090   4.278   5.343   4.706
 7397SOL    HW223091   4.372   5.454   4.781
 7398SOL     OW23092   2.366   4.865   4.239
 7398SOL    HW123093   2.333   4.796   4.304
 7398SOL    HW223094   2.443   4.915   4.279
 7399SOL     OW23095   1.151   2.243   5.278
 7399SOL    HW123096   1.228   2.256   5.341
 7399SOL    HW223097   1.108   2.332   5.260
 7400SOL     OW23098   4.177   2.464   5.843
 7400SOL    HW123099   4.143   2.375   5.813
 7400SOL    HW223100   4.150   2.480   5.938
 7401SOL     OW23101   1.449   1.299   5.095
 7401SOL    HW123102   1.421   1.213   5.053
 7401SOL    HW223103   1.408   1.375   5.044
 7402SOL     OW23104   2.855   6.081   6.187
 7402SOL    HW123105   2.915   6.013   6.228
 7402SOL    HW223106   2.771   6.037   6.154
 7403SOL     OW23107   2.169   4.131   2.280
 7403SOL    HW123108   2.180   4.033   2.264
 7403SOL    HW223109   2.164   4.180   2.193
 7404SOL     OW23110   2.572   5.277   1.578
 7404SOL    HW123111   2.665   5.288   1.543
 7404SOL    HW223112   2.569   5.302   1.675
 7405SOL     OW23113   3.417   4.926   4.288
 7405SOL    HW123114   3.411   4.932   4.388
 7405SOL    HW223115   3.511   4.940   4.259
 7406SOL     OW23116   0.267   2.746   3.206
 7406SOL    HW123117   0.335   2.813   3.176
 7406SOL    HW223118   0.216   2.782   3.285
 7407SOL     OW23119   0.939   6.691   4.237
 7407SOL    HW123120   0.960   6.600   4.271
 7407SOL    HW223121   0.991   6.709   4.154
 7408SOL     OW23122   3.059   4.145   6.671
 7408SOL    HW123123   3.018   4.219   6.723
 7408SOL    HW223124   3.058   4.167   6.573
 7409SOL     OW23125   6.749   1.963   6.325
 7409SOL    HW123126   6.710   1.878   6.287
 7409SOL    HW223127   6.793   1.943   6.412
 7410SOL     OW23128   0.337   6.754   0.389
 7410SOL    HW123129   0.399   6.807   0.446
 7410SOL    HW223130   0.245   6.755   0.428
 7411SOL     OW23131   2.404   0.265   5.368
 7411SOL    HW123132   2.464   0.323   5.313
 7411SOL    HW223133   2.329   0.320   5.405
 7412SOL     OW23134   4.840   6.799   2.073
 7412SOL    HW123135   4.851   6.772   1.977
 7412SOL    HW223136   4.743   6.807   2.095
 7413SOL     OW23137   4.986   5.929   4.372
 7413SOL    HW123138   4.915   5.870   4.333
 7413SOL    HW223139   4.992   6.014   4.319
 7414SOL     OW23140   6.989   0.609   3.890
 7414SOL    HW123141   6.927   0.681   3.859
 7414SOL    HW223142   6.945   0.520   3.880
 7415SOL     OW23143   2.041   4.527   4.584
 7415SOL    HW123144   1.956   4.544   4.534
 7415SOL    HW223145   2.055   4.601   4.650
 7416SOL     OW23146   2.230   1.172   3.161
 7416SOL    HW123147   2.220   1.157   3.259
 7416SOL    HW223148   2.211   1.268   3.140
 7417SOL     OW23149   1.516   0.500   0.108
 7417SOL    HW123150   1.446   0.531   0.173
 7417SOL    HW223151   1.545   0.407   0.131
 7418SOL     OW23152   3.252   5.606   1.099
 7418SOL    HW123153   3.165   5.621   1.145
 7418SOL    HW223154   3.236   5.592   1.001
 7419SOL     OW23155   5.737   2.847   4.827
 7419SOL    HW123156   5.659   2.810   4.777
 7419SOL    HW223157   5.710   2.931   4.874
 7420SOL     OW23158   0.453   6.816   1.821
 7420SOL    HW123159   0.441   6.719   1.799
 7420SOL    HW223160   0.509   6.859   1.751
 7421SOL     OW23161   3.859   4.178   0.630
 7421SOL    HW123162   3.942   4.226   0.602
 7421SOL    HW223163   3.806   4.152   0.548
 7422SOL     OW23164   6.916   3.146   2.957
 7422SOL    HW123165   6.948   3.239   2.969
 7422SOL    HW223166   6.827   3.135   3.001
 7423SOL     OW23167   5.643   4.279   5.357
 7423SOL    HW123168   5.680   4.188   5.376
 7423SOL    HW223169   5.587   4.275   5.274
 7424SOL     OW23170   0.046   6.919   5.945
 7424SOL    HW123171   0.029   6.823   5.923
 7424SOL    HW223172   6.977   6.965   5.959
 7425SOL     OW23173   4.087   5.635   6.737
 7425SOL    HW123174   4.021   5.679   6.798
 7425SOL    HW223175   4.143   5.571   6.789
 7426SOL     OW23176   2.834   1.393   5.569
 7426SOL    HW123177   2.786   1.394   5.657
 7426SOL    HW223178   2.875   1.303   5.555
 7427SOL     OW23179   4.183   0.311   3.813
 7427SOL    HW123180   4.143   0.341   3.900
 7427SOL    HW223181   4.242   0.383   3.777
 7428SOL     OW23182   4.069   1.506   6.044
 7428SOL    HW123183   4.136   1.487   6.115
 7428SOL    HW223184   4.067   1.604   6.025
 7429SOL     OW23185   0.673   6.692   4.228
 7429SOL    HW123186   0.770   6.709   4.240
 7429SOL    HW223187   0.621   6.775   4.247
 7430SOL     OW23188   0.957   2.747   0.122
 7430SOL    HW123189   1.024   2.728   0.194
 7430SOL    HW223190   0.912   2.834   0.142
 7431SOL     OW23191   1.638   2.928   3.214
 7431SOL    HW123192   1.648   2.851   3.276
 7431SOL    HW223193   1.600   2.896   3.127
 7432SOL     OW23194   1.083   0.795   2.851
 7432SOL    HW123195   1.018   0.847   2.907
 7432SOL    HW223196   1.075   0.698   2.874
 7433SOL     OW23197   4.811   5.846   6.087
 7433SOL    HW123198   4.841   5.834   6.182
 7433SOL    HW223199   4.891   5.841   6.026
 7434SOL     OW23200   5.451   6.207   6.008
 7434SOL    HW123201   5.363   6.182   6.048
 7434SOL    HW223202   5.436   6.249   5.919
 7435SOL     OW23203   4.185   5.260   0.592
 7435SOL    HW123204   4.128   5.342   0.584
 7435SOL    HW223205   4.269   5.282   0.642
 7436SOL     OW23206   5.662   3.653   5.893
 7436SOL    HW123207   5.741   3.714   5.895
 7436SOL    HW223208   5.644   3.625   5.798
 7437SOL     OW23209   1.241   6.186   6.692
 7437SOL    HW123210   1.331   6.207   6.654
 7437SOL    HW223211   1.204   6.105   6.648
 7438SOL     OW23212   1.539   5.964   6.741
 7438SOL    HW123213   1.558   6.044   6.684
 7438SOL    HW223214   1.517   5.994   6.834
 7439SOL     OW23215   1.883   5.610   5.961
 7439SOL    HW123216   1.915   5.608   5.866
 7439SOL    HW223217   1.814   5.682   5.971
 7440SOL     OW23218   0.035   3.555   4.132
 7440SOL    HW123219   0.062   3.598   4.046
 7440SOL    HW223220   0.013   3.459   4.115
 7441SOL     OW23221   5.658   6.126   3.883
 7441SOL    HW123222   5.607   6.110   3.799
 7441SOL    HW223223   5.612   6.080   3.959
 7442SOL     OW23224   6.330   1.096   6.002
 7442SOL    HW123225   6.243   1.143   5.989
 7442SOL    HW223226   6.314   1.001   6.030
 7443SOL     OW23227   7.015   6.505   1.898
 7443SOL    HW123228   0.090   6.534   1.919
 7443SOL    HW223229   7.016   6.409   1.871
 7444SOL     OW23230   5.305   2.461   5.599
 7444SOL    HW123231   5.242   2.536   5.619
 7444SOL    HW223232   5.393   2.478   5.644
 7445SOL     OW23233   3.788   0.819   1.216
 7445SOL    HW123234   3.724   0.757   1.262
 7445SOL    HW223235   3.746   0.852   1.131
 7446SOL     OW23236   5.783   3.279   0.607
 7446SOL    HW123237   5.881   3.264   0.594
 7446SOL    HW223238   5.758   3.368   0.571
 7447SOL     OW23239   0.474   3.393   6.612
 7447SOL    HW123240   0.508   3.483   6.586
 7447SOL    HW223241   0.542   3.347   6.669
 7448SOL     OW23242   6.521   5.999   5.446
 7448SOL    HW123243   6.457   5.994   5.523
 7448SOL    HW223244   6.580   6.079   5.457
 7449SOL     OW23245   0.247   3.817   1.852
 7449SOL    HW123246   0.260   3.718   1.860
 7449SOL    HW223247   0.233   3.856   1.943
 7450SOL     OW23248   5.263   2.300   4.515
 7450SOL    HW123249   5.193   2.311   4.445
 7450SOL    HW223250   5.275   2.203   4.536
 7451SOL     OW23251   6.894   6.871   2.957
 7451SOL    HW123252   6.827   6.849   3.028
 7451SOL    HW223253   6.971   6.920   2.999
 7452SOL     OW23254   0.546   6.544   4.674
 7452SOL    HW123255   0.485   6.524   4.597
 7452SOL    HW223256   0.596   6.628   4.656
 7453SOL     OW23257   4.762   0.326   6.083
 7453SOL    HW123258   4.705   0.389   6.031
 7453SOL    HW223259   4.803   0.373   6.161
 7454SOL     OW23260   0.316   2.044   2.522
 7454SOL    HW123261   0.226   2.010   2.494
 7454SOL    HW223262   0.305   2.113   2.594
 7455SOL     OW23263   6.778   1.563   2.611
 7455SOL    HW123264   6.737   1.610   2.532
 7455SOL    HW223265   6.741   1.602   2.695
 7456SOL     OW23266   1.059   1.428   4.194
 7456SOL    HW123267   1.097   1.353   4.249
 7456SOL    HW223268   1.096   1.515   4.226
 7457SOL     OW23269   3.788   0.153   6.095
 7457SOL    HW123270   3.871   0.207   6.078
 7457SOL    HW223271   3.709   0.202   6.060
 7458SOL     OW23272   1.744   6.409   5.520
 7458SOL    HW123273   1.814   6.468   5.479
 7458SOL    HW223274   1.654   6.441   5.492
 7459SOL     OW23275   4.484   0.409   1.845
 7459SOL    HW123276   4.574   0.422   1.805
 7459SOL    HW223277   4.432   0.495   1.838
 7460SOL     OW23278   1.085   5.442   1.026
 7460SOL    HW123279   1.104   5.462   1.122
 7460SOL    HW223280   1.010   5.500   0.993
 7461SOL     OW23281   5.858   1.250   6.020
 7461SOL    HW123282   5.918   1.279   6.095
 7461SOL    HW223283   5.829   1.330   5.968
 7462SOL     OW23284   2.142   3.997   2.721
 7462SOL    HW123285   2.159   4.091   2.693
 7462SOL    HW223286   2.139   3.938   2.640
 7463SOL     OW23287   2.178   4.479   1.017
 7463SOL    HW123288   2.110   4.546   0.989
 7463SOL    HW223289   2.175   4.400   0.955
 7464SOL     OW23290   5.059   0.526   6.627
 7464SOL    HW123291   4.993   0.567   6.689
 7464SOL    HW223292   5.040   0.429   6.617
 7465SOL     OW23293   1.152   5.816   6.887
 7465SOL    HW123294   1.193   5.850   6.803
 7465SOL    HW223295   1.073   5.874   6.911
 7466SOL     OW23296   6.804   0.762   5.590
 7466SOL    HW123297   6.882   0.703   5.569
 7466SOL    HW223298   6.790   0.765   5.689
 7467SOL     OW23299   0.295   1.477   1.099
 7467SOL    HW123300   0.354   1.554   1.124
 7467SOL    HW223301   0.242   1.448   1.179
 7468SOL     OW23302   5.635   2.805   3.515
 7468SOL    HW123303   5.733   2.820   3.529
 7468SOL    HW223304   5.613   2.813   3.418
 7469SOL     OW23305   0.078   1.160   0.886
 7469SOL    HW123306   0.082   1.259   0.898
 7469SOL    HW223307   7.003   1.133   0.864
 7470SOL     OW23308   6.332   3.375   3.920
 7470SOL    HW123309   6.374   3.287   3.941
 7470SOL    HW223310   6.288   3.411   4.003
 7471SOL     OW23311   5.760   6.371   6.279
 7471SOL    HW123312   5.718   6.290   6.319
 7471SOL    HW223313   5.860   6.363   6.283
 7472SOL     OW23314   7.002   6.859   4.928
 7472SOL    HW123315   0.046   6.791   4.966
 7472SOL    HW223316   6.910   6.820   4.924
 7473SOL     OW23317   5.868   5.002   3.500
 7473SOL    HW123318   5.941   4.971   3.440
 7473SOL    HW223319   5.902   5.076   3.558
 7474SOL     OW23320   0.997   1.688   5.165
 7474SOL    HW123321   0.991   1.778   5.121
 7474SOL    HW223322   1.002   1.701   5.264
 7475SOL     OW23323   4.893   2.149   2.455
 7475SOL    HW123324   4.801   2.180   2.429
 7475SOL    HW223325   4.924   2.080   2.389
 7476SOL     OW23326   3.643   0.381   3.884
 7476SOL    HW123327   3.662   0.471   3.845
 7476SOL    HW223328   3.579   0.332   3.826
 7477SOL     OW23329   0.185   0.863   5.167
 7477SOL    HW123330   0.257   0.817   5.219
 7477SOL    HW223331   0.187   0.831   5.072
 7478SOL     OW23332   4.957   5.246   6.169
 7478SOL    HW123333   5.001   5.173   6.222
 7478SOL    HW223334   4.867   5.215   6.138
 7479SOL     OW23335   4.469   2.464   2.014
 7479SOL    HW123336   4.472   2.562   1.996
 7479SOL    HW223337   4.388   2.424   1.971
 7480SOL     OW23338   0.489   4.204   2.213
 7480SOL    HW123339   0.405   4.170   2.169
 7480SOL    HW223340   0.469   4.289   2.261
 7481SOL     OW23341   6.364   5.575   1.482
 7481SOL    HW123342   6.309   5.519   1.420
 7481SOL    HW223343   6.414   5.644   1.429
 7482SOL     OW23344   4.833   2.700   3.025
 7482SOL    HW123345   4.781   2.670   3.105
 7482SOL    HW223346   4.780   2.683   2.942
 7483SOL     OW23347   4.486   2.537   4.548
 7483SOL    HW123348   4.496   2.609   4.616
 7483SOL    HW223349   4.528   2.567   4.462
 7484SOL     OW23350   1.484   6.812   4.139
 7484SOL    HW123351   1.552   6.766   4.196
 7484SOL    HW223352   1.512   6.906   4.122
 7485SOL     OW23353   3.485   6.903   4.704
 7485SOL    HW123354   3.547   6.858   4.769
 7485SOL    HW223355   3.527   6.989   4.673
 7486SOL     OW23356   1.959   6.692   0.551
 7486SOL    HW123357   1.985   6.688   0.454
 7486SOL    HW223358   2.029   6.647   0.606
 7487SOL     OW23359   2.257   6.688   3.281
 7487SOL    HW123360   2.336   6.696   3.342
 7487SOL    HW223361   2.237   6.592   3.265
 7488SOL     OW23362   2.809   0.030   3.490
 7488SOL    HW123363   2.769   0.102   3.433
 7488SOL    HW223364   2.856   6.983   3.432
 7489SOL     OW23365   5.129   2.708   5.345
 7489SOL    HW123366   5.141   2.698   5.444
 7489SOL    HW223367   5.110   2.618   5.305
 7490SOL     OW23368   1.370   0.961   2.279
 7490SOL    HW123369   1.314   0.932   2.201
 7490SOL    HW223370   1.376   0.886   2.345
 7491SOL     OW23371   5.185   2.439   6.290
 7491SOL    HW123372   5.229   2.482   6.369
 7491SOL    HW223373   5.161   2.509   6.223
 7492SOL     OW23374   1.899   0.326   3.130
 7492SOL    HW123375   1.896   0.379   3.045
 7492SOL    HW223376   1.952   0.243   3.115
 7493SOL     OW23377   0.536   3.685   6.560
 7493SOL    HW123378   0.476   3.706   6.483
 7493SOL    HW223379   0.496   3.721   6.644
 7494SOL     OW23380   5.574   1.078   2.568
 7494SOL    HW123381   5.575   0.998   2.628
 7494SOL    HW223382   5.563   1.049   2.473
 7495SOL     OW23383   1.924   2.034   6.965
 7495SOL    HW123384   1.978   2.109   7.003
 7495SOL    HW223385   1.835   2.031   7.010
 7496SOL     OW23386   6.324   3.543   5.056
 7496SOL    HW123387   6.331   3.446   5.035
 7496SOL    HW223388   6.268   3.556   5.138
 7497SOL     OW23389   2.735   4.308   6.430
 7497SOL    HW123390   2.663   4.313   6.361
 7497SOL    HW223391   2.804   4.377   6.411
 7498SOL     OW23392   3.373   0.579   5.425
 7498SOL    HW123393   3.444   0.590   5.356
 7498SOL    HW223394   3.293   0.534   5.384
 7499SOL     OW23395   3.326   1.361   2.805
 7499SOL    HW123396   3.355   1.266   2.795
 7499SOL    HW223397   3.297   1.397   2.717
 7500SOL     OW23398   3.204   5.451   3.044
 7500SOL    HW123399   3.302   5.436   3.034
 7500SOL    HW223400   3.165   5.379   3.102
 7501SOL     OW23401   5.237   4.183   4.871
 7501SOL    HW123402   5.157   4.135   4.908
 7501SOL    HW223403   5.245   4.273   4.913
 7502SOL     OW23404   2.597   0.612   4.204
 7502SOL    HW123405   2.604   0.685   4.271
 7502SOL    HW223406   2.687   0.572   4.189
 7503SOL     OW23407   2.084   0.238   1.314
 7503SOL    HW123408   2.088   0.333   1.344
 7503SOL    HW223409   2.118   0.178   1.386
 7504SOL     OW23410   1.422   6.958   3.009
 7504SOL    HW123411   1.365   7.017   2.952
 7504SOL    HW223412   1.477   7.014   3.070
 7505SOL     OW23413   1.584   2.274   5.644
 7505SOL    HW123414   1.603   2.372   5.645
 7505SOL    HW223415   1.627   2.232   5.564
 7506SOL     OW23416   5.542   0.715   3.228
 7506SOL    HW123417   5.468   0.701   3.162
 7506SOL    HW223418   5.626   0.740   3.180
 7507SOL     OW23419   0.520   1.265   2.394
 7507SOL    HW123420   0.579   1.284   2.316
 7507SOL    HW223421   0.470   1.348   2.420
 7508SOL     OW23422   1.081   6.979   1.693
 7508SOL    HW123423   1.064   6.886   1.660
 7508SOL    HW223424   1.002   0.017   1.675
 7509SOL     OW23425   5.966   4.568   0.631
 7509SOL    HW123426   5.998   4.591   0.722
 7509SOL    HW223427   5.922   4.648   0.589
 7510SOL     OW23428   4.138   3.499   5.756
 7510SOL    HW123429   4.150   3.548   5.670
 7510SOL    HW223430   4.065   3.541   5.809
 7511SOL     OW23431   2.303   6.330   3.357
 7511SOL    HW123432   2.217   6.282   3.336
 7511SOL    HW223433   2.352   6.349   3.272
 7512SOL     OW23434   2.972   6.651   6.884
 7512SOL    HW123435   3.063   6.616   6.862
 7512SOL    HW223436   2.948   6.625   6.978
 7513SOL     OW23437   2.300   0.649   1.446
 7513SOL    HW123438   2.378   0.624   1.388
 7513SOL    HW223439   2.292   0.749   1.450
 7514SOL     OW23440   2.567   5.932   2.016
 7514SOL    HW123441   2.614   5.934   1.927
 7514SOL    HW223442   2.468   5.939   2.001
 7515SOL     OW23443   6.971   5.321   3.372
 7515SOL    HW123444   0.041   5.360   3.397
 7515SOL    HW223445   6.905   5.394   3.361
 7516SOL     OW23446   0.082   6.481   5.590
 7516SOL    HW123447   0.051   6.388   5.609
 7516SOL    HW223448   0.135   6.515   5.667
 7517SOL     OW23449   0.258   2.906   0.905
 7517SOL    HW123450   0.306   2.987   0.873
 7517SOL    HW223451   0.323   2.833   0.924
 7518SOL     OW23452   4.404   4.836   3.961
 7518SOL    HW123453   4.369   4.926   3.985
 7518SOL    HW223454   4.394   4.822   3.863
 7519SOL     OW23455   0.370   6.177   3.621
 7519SOL    HW123456   0.280   6.221   3.626
 7519SOL    HW223457   0.359   6.078   3.634
 7520SOL     OW23458   2.505   0.017   2.218
 7520SOL    HW123459   2.509   6.984   2.303
 7520SOL    HW223460   2.503   0.115   2.239
 7521SOL     OW23461   4.790   4.328   5.998
 7521SOL    HW123462   4.730   4.305   6.075
 7521SOL    HW223463   4.877   4.279   6.008
 7522SOL     OW23464   1.576   1.187   6.347
 7522SOL    HW123465   1.610   1.260   6.406
 7522SOL    HW223466   1.586   1.215   6.251
 7523SOL     OW23467   5.735   0.344   5.952
 7523SOL    HW123468   5.798   0.420   5.962
 7523SOL    HW223469   5.714   0.330   5.855
 7524SOL     OW23470   1.372   2.439   5.460
 7524SOL    HW123471   1.322   2.505   5.403
 7524SOL    HW223472   1.328   2.434   5.550
 7525SOL     OW23473   3.695   1.055   6.237
 7525SOL    HW123474   3.624   1.120   6.209
 7525SOL    HW223475   3.782   1.103   6.246
 7526SOL     OW23476   3.161   3.090   1.929
 7526SOL    HW123477   3.105   3.035   1.868
 7526SOL    HW223478   3.213   3.030   1.990
 7527SOL     OW23479   2.803   5.905   3.162
 7527SOL    HW123480   2.901   5.893   3.153
 7527SOL    HW223481   2.774   5.877   3.254
 7528SOL     OW23482   5.903   2.710   0.383
 7528SOL    HW123483   5.869   2.741   0.472
 7528SOL    HW223484   5.990   2.663   0.395
 7529SOL     OW23485   4.698   1.289   4.838
 7529SOL    HW123486   4.680   1.304   4.741
 7529SOL    HW223487   4.778   1.231   4.849
 7530SOL     OW23488   7.017   2.934   2.785
 7530SOL    HW123489   7.010   3.009   2.852
 7530SOL    HW223490   0.094   2.906   2.776
 7531SOL     OW23491   5.289   3.412   4.644
 7531SOL    HW123492   5.219   3.345   4.621
 7531SOL    HW223493   5.283   3.489   4.580
 7532SOL     OW23494   4.594   5.895   6.706
 7532SOL    HW123495   4.552   5.963   6.765
 7532SOL    HW223496   4.694   5.904   6.710
 7533SOL     OW23497   3.068   1.199   1.456
 7533SOL    HW123498   3.125   1.272   1.494
 7533SOL    HW223499   3.025   1.230   1.372
 7534SOL     OW23500   4.487   6.459   5.394
 7534SOL    HW123501   4.418   6.527   5.417
 7534SOL    HW223502   4.578   6.494   5.417
 7535SOL     OW23503   1.927   0.770   5.169
 7535SOL    HW123504   1.917   0.862   5.130
 7535SOL    HW223505   1.872   0.705   5.117
 7536SOL     OW23506   4.714   4.723   4.560
 7536SOL    HW123507   4.751   4.630   4.567
 7536SOL    HW223508   4.632   4.730   4.616
 7537SOL     OW23509   3.092   5.416   1.938
 7537SOL    HW123510   3.038   5.332   1.942
 7537SOL    HW223511   3.183   5.399   1.975
 7538SOL     OW23512   1.737   2.867   1.672
 7538SOL    HW123513   1.785   2.855   1.758
 7538SOL    HW223514   1.641   2.842   1.683
 7539SOL     OW23515   1.695   4.057   3.856
 7539SOL    HW123516   1.607   4.012   3.843
 7539SOL    HW223517   1.761   3.992   3.895
 7540SOL     OW23518   4.197   0.605   4.479
 7540SOL    HW123519   4.135   0.527   4.491
 7540SOL    HW223520   4.264   0.606   4.553
 7541SOL     OW23521   0.353   4.640   5.053
 7541SOL    HW123522   0.362   4.630   5.152
 7541SOL    HW223523   0.416   4.711   5.022
 7542SOL     OW23524   1.355   5.049   6.617
 7542SOL    HW123525   1.433   4.986   6.619
 7542SOL    HW223526   1.332   5.070   6.522
 7543SOL     OW23527   4.143   2.078   6.382
 7543SOL    HW123528   4.058   2.130   6.370
 7543SOL    HW223529   4.168   2.079   6.479
 7544SOL     OW23530   6.987   2.214   2.854
 7544SOL    HW123531   6.981   2.202   2.953
 7544SOL    HW223532   6.990   2.311   2.832
 7545SOL     OW23533   0.555   5.736   0.298
 7545SOL    HW123534   0.502   5.784   0.228
 7545SOL    HW223535   0.574   5.643   0.267
 7546SOL     OW23536   3.567   2.277   1.595
 7546SOL    HW123537   3.472   2.244   1.598
 7546SOL    HW223538   3.600   2.291   1.688
 7547SOL     OW23539   5.267   1.884   0.345
 7547SOL    HW123540   5.231   1.791   0.341
 7547SOL    HW223541   5.192   1.950   0.340
 7548SOL     OW23542   4.581   1.287   6.612
 7548SOL    HW123543   4.655   1.233   6.652
 7548SOL    HW223544   4.585   1.280   6.512
 7549SOL     OW23545   4.188   2.999   0.144
 7549SOL    HW123546   4.214   2.934   0.073
 7549SOL    HW223547   4.263   3.007   0.211
 7550SOL     OW23548   2.285   5.096   2.767
 7550SOL    HW123549   2.256   5.002   2.750
 7550SOL    HW223550   2.381   5.106   2.742
 7551SOL     OW23551   5.075   3.607   6.447
 7551SOL    HW123552   5.154   3.667   6.460
 7551SOL    HW223553   4.992   3.658   6.471
 7552SOL     OW23554   1.408   6.326   2.823
 7552SOL    HW123555   1.409   6.382   2.740
 7552SOL    HW223556   1.396   6.230   2.798
 7553SOL     OW23557   4.514   6.308   5.755
 7553SOL    HW123558   4.496   6.250   5.676
 7553SOL    HW223559   4.548   6.397   5.724
 7554SOL     OW23560   4.347   0.973   0.237
 7554SOL    HW123561   4.404   0.910   0.290
 7554SOL    HW223562   4.360   1.066   0.271
 7555SOL     OW23563   2.357   4.809   5.856
 7555SOL    HW123564   2.446   4.838   5.892
 7555SOL    HW223565   2.290   4.807   5.930
 7556SOL     OW23566   1.984   3.290   0.482
 7556SOL    HW123567   2.049   3.357   0.519
 7556SOL    HW223568   1.939   3.242   0.557
 7557SOL     OW23569   5.108   0.998   5.414
 7557SOL    HW123570   5.080   0.979   5.508
 7557SOL    HW223571   5.027   1.020   5.359
 7558SOL     OW23572   1.495   2.404   3.866
 7558SOL    HW123573   1.548   2.489   3.872
 7558SOL    HW223574   1.410   2.421   3.817
 7559SOL     OW23575   5.393   3.642   0.634
 7559SOL    HW123576   5.295   3.663   0.636
 7559SOL    HW223577   5.430   3.668   0.545
 7560SOL     OW23578   5.571   0.131   0.850
 7560SOL    HW123579   5.565   0.032   0.863
 7560SOL    HW223580   5.493   0.175   0.894
 7561SOL     OW23581   0.971   3.281   6.799
 7561SOL    HW123582   1.010   3.251   6.712
 7561SOL    HW223583   0.878   3.314   6.783
 7562SOL     OW23584   0.148   5.782   4.158
 7562SOL    HW123585   0.049   5.789   4.171
 7562SOL    HW223586   0.184   5.706   4.213
 7563SOL     OW23587   3.021   0.107   1.669
 7563SOL    HW123588   2.939   0.161   1.688
 7563SOL    HW223589   3.099   0.147   1.717
 7564SOL     OW23590   4.282   0.234   2.929
 7564SOL    HW123591   4.275   0.236   2.830
 7564SOL    HW223592   4.193   0.213   2.969
 7565SOL     OW23593   5.473   3.128   0.490
 7565SOL    HW123594   5.554   3.088   0.531
 7565SOL    HW223595   5.498   3.210   0.438
 7566SOL     OW23596   6.594   4.484   3.017
 7566SOL    HW123597   6.616   4.472   2.920
 7566SOL    HW223598   6.501   4.453   3.034
 7567SOL     OW23599   1.825   2.386   4.658
 7567SOL    HW123600   1.728   2.403   4.676
 7567SOL    HW223601   1.836   2.347   4.567
 7568SOL     OW23602   5.083   6.161   3.441
 7568SOL    HW123603   5.011   6.153   3.372
 7568SOL    HW223604   5.150   6.228   3.411
 7569SOL     OW23605   3.888   5.023   5.830
 7569SOL    HW123606   3.838   4.971   5.760
 7569SOL    HW223607   3.825   5.085   5.876
 7570SOL     OW23608   5.553   3.951   5.423
 7570SOL    HW123609   5.472   3.969   5.479
 7570SOL    HW223610   5.530   3.961   5.327
 7571SOL     OW23611   4.071   4.900   3.223
 7571SOL    HW123612   4.124   4.952   3.156
 7571SOL    HW223613   3.989   4.863   3.180
 7572SOL     OW23614   4.541   1.442   1.146
 7572SOL    HW123615   4.609   1.405   1.209
 7572SOL    HW223616   4.500   1.524   1.187
 7573SOL     OW23617   0.067   0.474   5.724
 7573SOL    HW123618   0.020   0.480   5.636
 7573SOL    HW223619   0.115   0.387   5.730
 7574SOL     OW23620   5.132   0.470   5.297
 7574SOL    HW123621   5.058   0.403   5.297
 7574SOL    HW223622   5.179   0.468   5.209
 7575SOL     OW23623   5.412   0.543   6.028
 7575SOL    HW123624   5.355   0.546   5.946
 7575SOL    HW223625   5.361   0.500   6.102
 7576SOL     OW23626   4.462   3.782   0.494
 7576SOL    HW123627   4.507   3.730   0.422
 7576SOL    HW223628   4.399   3.722   0.544
 7577SOL     OW23629   0.787   0.232   6.703
 7577SOL    HW123630   0.747   0.203   6.616
 7577SOL    HW223631   0.885   0.245   6.692
 7578SOL     OW23632   1.835   4.892   1.432
 7578SOL    HW123633   1.897   4.930   1.363
 7578SOL    HW223634   1.742   4.893   1.397
 7579SOL     OW23635   0.486   0.889   2.158
 7579SOL    HW123636   0.442   0.930   2.238
 7579SOL    HW223637   0.463   0.942   2.076
 7580SOL     OW23638   0.782   4.041   4.418
 7580SOL    HW123639   0.811   4.008   4.328
 7580SOL    HW223640   0.731   3.969   4.465
 7581SOL     OW23641   6.690   1.570   2.025
 7581SOL    HW123642   6.686   1.658   1.978
 7581SOL    HW223643   6.615   1.565   2.092
 7582SOL     OW23644   3.908   1.176   1.328
 7582SOL    HW123645   3.910   1.227   1.414
 7582SOL    HW223646   3.943   1.084   1.342
 7583SOL     OW23647   5.924   3.046   1.852
 7583SOL    HW123648   6.003   3.098   1.822
 7583SOL    HW223649   5.886   2.996   1.774
 7584SOL     OW23650   3.454   7.002   1.804
 7584SOL    HW123651   3.412   6.913   1.788
 7584SOL    HW223652   3.488   7.006   1.898
 7585SOL     OW23653   1.678   2.746   0.002
 7585SOL    HW123654   1.665   2.845   7.014
 7585SOL    HW223655   1.686   2.721   0.098
 7586SOL     OW23656   3.366   0.420   3.748
 7586SOL    HW123657   3.398   0.510   3.779
 7586SOL    HW223658   3.403   0.401   3.657
 7587SOL     OW23659   2.259   2.849   0.158
 7587SOL    HW123660   2.292   2.784   0.226
 7587SOL    HW223661   2.172   2.818   0.121
 7588SOL     OW23662   1.372   3.185   3.600
 7588SOL    HW123663   1.279   3.154   3.580
 7588SOL    HW223664   1.381   3.201   3.698
 7589SOL     OW23665   0.693   0.446   2.625
 7589SOL    HW123666   0.668   0.538   2.594
 7589SOL    HW223667   0.647   0.427   2.711
 7590SOL     OW23668   3.923   2.219   6.415
 7590SOL    HW123669   3.895   2.244   6.508
 7590SOL    HW223670   3.887   2.285   6.350
 7591SOL     OW23671   6.817   3.615   0.668
 7591SOL    HW123672   6.782   3.537   0.615
 7591SOL    HW223673   6.744   3.650   0.727
 7592SOL     OW23674   6.463   5.012   4.607
 7592SOL    HW123675   6.507   4.923   4.610
 7592SOL    HW223676   6.507   5.069   4.538
 7593SOL     OW23677   6.431   3.207   0.350
 7593SOL    HW123678   6.418   3.122   0.400
 7593SOL    HW223679   6.505   3.196   0.284
 7594SOL     OW23680   1.043   4.985   2.189
 7594SOL    HW123681   1.124   4.969   2.134
 7594SOL    HW223682   1.070   5.005   2.283
 7595SOL     OW23683   6.366   2.732   6.039
 7595SOL    HW123684   6.434   2.785   5.987
 7595SOL    HW223685   6.274   2.757   6.009
 7596SOL     OW23686   3.810   6.051   3.821
 7596SOL    HW123687   3.855   6.116   3.760
 7596SOL    HW223688   3.737   6.098   3.871
 7597SOL     OW23689   2.282   6.578   2.981
 7597SOL    HW123690   2.293   6.674   3.007
 7597SOL    HW223691   2.355   6.553   2.916
 7598SOL     OW23692   0.240   0.804   3.073
 7598SOL    HW123693   0.332   0.793   3.111
 7598SOL    HW223694   0.215   0.722   3.023
 7599SOL     OW23695   5.975   2.188   2.159
 7599SOL    HW123696   5.966   2.256   2.087
 7599SOL    HW223697   5.884   2.156   2.186
 7600SOL     OW23698   1.674   1.682   3.224
 7600SOL    HW123699   1.710   1.763   3.269
 7600SOL    HW223700   1.737   1.606   3.235
 7601SOL     OW23701   1.800   4.585   2.360
 7601SOL    HW123702   1.719   4.633   2.393
 7601SOL    HW223703   1.779   4.488   2.349
 7602SOL     OW23704   2.447   4.005   6.438
 7602SOL    HW123705   2.350   3.980   6.438
 7602SOL    HW223706   2.492   3.962   6.359
 7603SOL     OW23707   1.368   5.475   6.027
 7603SOL    HW123708   1.459   5.488   6.068
 7603SOL    HW223709   1.347   5.553   5.968
 7604SOL     OW23710   2.131   3.913   4.772
 7604SOL    HW123711   2.050   3.970   4.756
 7604SOL    HW223712   2.159   3.921   4.867
 7605SOL     OW23713   1.698   0.766   1.703
 7605SOL    HW123714   1.612   0.817   1.701
 7605SOL    HW223715   1.722   0.746   1.798
 7606SOL     OW23716   6.041   4.237   4.968
 7606SOL    HW123717   6.052   4.163   4.902
 7606SOL    HW223718   5.945   4.260   4.977
 7607SOL     OW23719   3.609   5.646   0.067
 7607SOL    HW123720   3.621   5.685   6.995
 7607SOL    HW223721   3.556   5.562   0.061
 7608SOL     OW23722   3.848   4.134   1.384
 7608SOL    HW123723   3.849   4.061   1.316
 7608SOL    HW223724   3.942   4.161   1.406
 7609SOL     OW23725   1.189   3.181   4.329
 7609SOL    HW123726   1.215   3.266   4.284
 7609SOL    HW223727   1.111   3.140   4.282
 7610SOL     OW23728   4.578   4.604   6.237
 7610SOL    HW123729   4.559   4.526   6.297
 7610SOL    HW223730   4.664   4.647   6.263
 7611SOL     OW23731   5.975   3.381   1.947
 7611SOL    HW123732   5.909   3.352   1.878
 7611SOL    HW223733   6.019   3.466   1.918
 7612SOL     OW23734   4.857   3.108   2.472
 7612SOL    HW123735   4.829   3.063   2.557
 7612SOL    HW223736   4.870   3.039   2.401
 7613SOL     OW23737   7.011   2.922   0.832
 7613SOL    HW123738   0.086   2.922   0.865
 7613SOL    HW223739   7.000   2.856   0.758
 7614SOL     OW23740   4.955   3.747   0.894
 7614SOL    HW123741   4.985   3.780   0.984
 7614SOL    HW223742   4.913   3.656   0.905
 7615SOL     OW23743   4.068   5.326   0.143
 7615SOL    HW123744   4.009   5.389   0.092
 7615SOL    HW223745   4.011   5.256   0.186
 7616SOL     OW23746   5.773   6.253   4.398
 7616SOL    HW123747   5.738   6.317   4.330
 7616SOL    HW223748   5.854   6.293   4.442
 7617SOL     OW23749   4.296   5.974   2.377
 7617SOL    HW123750   4.236   5.964   2.456
 7617SOL    HW223751   4.338   5.886   2.355
 7618SOL     OW23752   6.740   1.726   5.404
 7618SOL    HW123753   6.751   1.632   5.372
 7618SOL    HW223754   6.643   1.750   5.406
 7619SOL     OW23755   6.010   2.729   5.240
 7619SOL    HW123756   6.018   2.634   5.268
 7619SOL    HW223757   6.082   2.751   5.174
 7620SOL     OW23758   4.357   5.891   1.007
 7620SOL    HW123759   4.356   5.933   0.916
 7620SOL    HW223760   4.270   5.845   1.023
 7621SOL     OW23761   6.688   1.548   1.149
 7621SOL    HW123762   6.634   1.571   1.229
 7621SOL    HW223763   6.642   1.582   1.067
 7622SOL     OW23764   4.551   5.330   6.942
 7622SOL    HW123765   4.497   5.264   6.889
 7622SOL    HW223766   4.647   5.301   6.943
 7623SOL     OW23767   5.181   3.826   6.997
 7623SOL    HW123768   5.268   3.818   6.950
 7623SOL    HW223769   5.141   3.916   6.980
 7624SOL     OW23770   0.128   3.346   4.716
 7624SOL    HW123771   0.217   3.354   4.763
 7624SOL    HW223772   0.130   3.402   4.633
 7625SOL     OW23773   5.017   0.712   1.519
 7625SOL    HW123774   5.039   0.616   1.509
 7625SOL    HW223775   4.965   0.743   1.439
 7626SOL     OW23776   6.330   0.039   4.458
 7626SOL    HW123777   6.273   0.088   4.392
 7626SOL    HW223778   6.345   6.965   4.426
 7627SOL     OW23779   4.699   3.277   6.949
 7627SOL    HW123780   4.720   3.190   6.904
 7627SOL    HW223781   4.602   3.299   6.935
 7628SOL     OW23782   3.505   2.029   1.845
 7628SOL    HW123783   3.566   2.102   1.876
 7628SOL    HW223784   3.466   1.983   1.925
 7629SOL     OW23785   0.133   5.772   3.232
 7629SOL    HW123786   0.098   5.800   3.321
 7629SOL    HW223787   0.115   5.674   3.218
 7630SOL     OW23788   0.739   6.830   1.326
 7630SOL    HW123789   0.820   6.784   1.289
 7630SOL    HW223790   0.758   6.927   1.339
 7631SOL     OW23791   1.006   1.406   6.047
 7631SOL    HW123792   1.002   1.322   5.993
 7631SOL    HW223793   1.086   1.459   6.020
 7632SOL     OW23794   4.665   4.064   1.533
 7632SOL    HW123795   4.723   4.112   1.598
 7632SOL    HW223796   4.667   4.110   1.445
 7633SOL     OW23797   5.233   0.463   1.162
 7633SOL    HW123798   5.197   0.379   1.122
 7633SOL    HW223799   5.233   0.535   1.093
 7634SOL     OW23800   2.000   1.871   2.527
 7634SOL    HW123801   1.995   1.883   2.428
 7634SOL    HW223802   2.089   1.833   2.552
 7635SOL     OW23803   3.314   5.366   5.170
 7635SOL    HW123804   3.268   5.454   5.178
 7635SOL    HW223805   3.280   5.303   5.240
 7636SOL     OW23806   1.559   2.671   3.948
 7636SOL    HW123807   1.594   2.651   4.040
 7636SOL    HW223808   1.459   2.679   3.952
 7637SOL     OW23809   2.493   5.494   2.603
 7637SOL    HW123810   2.493   5.592   2.582
 7637SOL    HW223811   2.405   5.455   2.577
 7638SOL     OW23812   2.759   5.929   1.192
 7638SOL    HW123813   2.697   5.920   1.114
 7638SOL    HW223814   2.771   6.025   1.215
 7639SOL     OW23815   0.462   1.744   0.892
 7639SOL    HW123816   0.421   1.749   0.801
 7639SOL    HW223817   0.398   1.702   0.955
 7640SOL     OW23818   2.798   1.037   5.972
 7640SOL    HW123819   2.714   1.071   6.015
 7640SOL    HW223820   2.834   0.960   6.026
 7641SOL     OW23821   2.104   3.569   2.517
 7641SOL    HW123822   2.105   3.555   2.419
 7641SOL    HW223823   2.107   3.481   2.564
 7642SOL     OW23824   3.531   1.812   3.147
 7642SOL    HW123825   3.564   1.895   3.191
 7642SOL    HW223826   3.513   1.829   3.051
 7643SOL     OW23827   4.672   2.651   2.813
 7643SOL    HW123828   4.575   2.652   2.839
 7643SOL    HW223829   4.679   2.649   2.713
 7644SOL     OW23830   5.197   1.797   1.694
 7644SOL    HW123831   5.147   1.751   1.620
 7644SOL    HW223832   5.272   1.851   1.654
 7645SOL     OW23833   4.978   3.997   5.480
 7645SOL    HW123834   4.957   4.091   5.454
 7645SOL    HW223835   4.894   3.943   5.478
 7646SOL     OW23836   1.532   3.607   3.587
 7646SOL    HW123837   1.471   3.619   3.665
 7646SOL    HW223838   1.521   3.516   3.548
 7647SOL     OW23839   6.182   2.760   3.587
 7647SOL    HW123840   6.181   2.806   3.498
 7647SOL    HW223841   6.237   2.813   3.651
 7648SOL     OW23842   3.387   1.524   3.058
 7648SOL    HW123843   3.385   1.467   2.976
 7648SOL    HW223844   3.448   1.482   3.126
 7649SOL     OW23845   0.887   0.873   3.398
 7649SOL    HW123846   0.790   0.899   3.395
 7649SOL    HW223847   0.942   0.953   3.420
 7650SOL     OW23848   5.464   1.569   0.434
 7650SOL    HW123849   5.449   1.490   0.374
 7650SOL    HW223850   5.476   1.651   0.378
 7651SOL     OW23851   1.730   0.812   3.482
 7651SOL    HW123852   1.671   0.732   3.486
 7651SOL    HW223853   1.824   0.786   3.507
 7652SOL     OW23854   5.475   3.462   5.370
 7652SOL    HW123855   5.377   3.477   5.387
 7652SOL    HW223856   5.506   3.383   5.424
 7653SOL     OW23857   1.118   2.044   6.902
 7653SOL    HW123858   1.170   2.090   6.830
 7653SOL    HW223859   1.041   1.995   6.862
 7654SOL     OW23860   4.717   2.865   4.478
 7654SOL    HW123861   4.646   2.817   4.530
 7654SOL    HW223862   4.743   2.949   4.526
 7655SOL     OW23863   4.578   6.496   3.339
 7655SOL    HW123864   4.639   6.435   3.391
 7655SOL    HW223865   4.632   6.549   3.274
 7656SOL     OW23866   3.502   3.970   6.246
 7656SOL    HW123867   3.453   4.014   6.170
 7656SOL    HW223868   3.439   3.912   6.297
 7657SOL     OW23869   1.513   2.097   3.716
 7657SOL    HW123870   1.460   2.015   3.694
 7657SOL    HW223871   1.451   2.173   3.736
 7658SOL     OW23872   3.258   6.835   6.622
 7658SOL    HW123873   3.272   6.849   6.720
 7658SOL    HW223874   3.165   6.864   6.598
 7659SOL     OW23875   5.808   4.877   6.643
 7659SOL    HW123876   5.854   4.965   6.631
 7659SOL    HW223877   5.743   4.884   6.718
 7660SOL     OW23878   0.393   5.894   3.589
 7660SOL    HW123879   0.430   5.832   3.520
 7660SOL    HW223880   0.371   5.842   3.672
 7661SOL     OW23881   5.905   2.662   4.936
 7661SOL    HW123882   5.898   2.654   5.036
 7661SOL    HW223883   5.838   2.729   4.904
 7662SOL     OW23884   1.233   3.246   3.922
 7662SOL    HW123885   1.312   3.213   3.974
 7662SOL    HW223886   1.168   3.171   3.910
 7663SOL     OW23887   6.697   5.692   5.709
 7663SOL    HW123888   6.762   5.762   5.682
 7663SOL    HW223889   6.681   5.630   5.633
 7664SOL     OW23890   4.057   0.270   1.282
 7664SOL    HW123891   4.018   0.250   1.192
 7664SOL    HW223892   4.152   0.240   1.284
 7665SOL     OW23893   6.351   0.523   4.593
 7665SOL    HW123894   6.377   0.614   4.626
 7665SOL    HW223895   6.313   0.530   4.501
 7666SOL     OW23896   0.709   5.393   1.797
 7666SOL    HW123897   0.765   5.448   1.735
 7666SOL    HW223898   0.617   5.431   1.801
 7667SOL     OW23899   4.276   6.829   2.125
 7667SOL    HW123900   4.264   6.919   2.083
 7667SOL    HW223901   4.373   6.817   2.149
 7668SOL     OW23902   3.503   4.668   0.746
 7668SOL    HW123903   3.548   4.595   0.695
 7668SOL    HW223904   3.433   4.629   0.806
 7669SOL     OW23905   4.465   1.435   4.856
 7669SOL    HW123906   4.453   1.508   4.924
 7669SOL    HW223907   4.559   1.401   4.861
 7670SOL     OW23908   0.752   4.652   0.325
 7670SOL    HW123909   0.782   4.678   0.416
 7670SOL    HW223910   0.671   4.705   0.299
 7671SOL     OW23911   3.987   1.329   1.531
 7671SOL    HW123912   3.969   1.420   1.568
 7671SOL    HW223913   4.035   1.274   1.600
 7672SOL     OW23914   0.235   6.634   2.385
 7672SOL    HW123915   0.174   6.558   2.362
 7672SOL    HW223916   0.327   6.615   2.348
 7673SOL     OW23917   1.284   6.606   1.132
 7673SOL    HW123918   1.295   6.547   1.052
 7673SOL    HW223919   1.224   6.561   1.198
 7674SOL     OW23920   5.325   0.868   3.294
 7674SOL    HW123921   5.366   0.924   3.222
 7674SOL    HW223922   5.395   0.839   3.358
 7675SOL     OW23923   6.245   6.607   2.666
 7675SOL    HW123924   6.277   6.577   2.576
 7675SOL    HW223925   6.283   6.548   2.737
 7676SOL     OW23926   2.764   2.040   0.356
 7676SOL    HW123927   2.841   2.098   0.328
 7676SOL    HW223928   2.680   2.093   0.354
 7677SOL     OW23929   0.684   5.040   1.253
 7677SOL    HW123930   0.761   5.101   1.234
 7677SOL    HW223931   0.707   4.947   1.224
 7678SOL     OW23932   2.161   3.195   5.115
 7678SOL    HW123933   2.247   3.156   5.083
 7678SOL    HW223934   2.177   3.249   5.198
 7679SOL     OW23935   3.462   6.173   5.837
 7679SOL    HW123936   3.518   6.250   5.867
 7679SOL    HW223937   3.365   6.200   5.838
 7680SOL     OW23938   0.844   1.059   0.265
 7680SOL    HW123939   0.794   0.992   0.320
 7680SOL    HW223940   0.941   1.057   0.289
 7681SOL     OW23941   2.590   0.916   0.980
 7681SOL    HW123942   2.659   0.943   0.913
 7681SOL    HW223943   2.517   0.865   0.934
 7682SOL     OW23944   3.551   0.543   1.668
 7682SOL    HW123945   3.595   0.618   1.718
 7682SOL    HW223946   3.605   0.460   1.678
 7683SOL     OW23947   5.983   2.302   4.582
 7683SOL    HW123948   5.903   2.261   4.538
 7683SOL    HW223949   5.965   2.398   4.599
 7684SOL     OW23950   3.408   1.718   1.763
 7684SOL    HW123951   3.318   1.740   1.801
 7684SOL    HW223952   3.447   1.799   1.721
 7685SOL     OW23953   2.566   1.899   5.696
 7685SOL    HW123954   2.516   1.942   5.771
 7685SOL    HW223955   2.546   1.801   5.694
 7686SOL     OW23956   6.698   6.576   3.210
 7686SOL    HW123957   6.677   6.502   3.147
 7686SOL    HW223958   6.727   6.539   3.298
 7687SOL     OW23959   6.191   4.870   3.893
 7687SOL    HW123960   6.272   4.916   3.856
 7687SOL    HW223961   6.135   4.936   3.944
 7688SOL     OW23962   1.082   6.004   5.157
 7688SOL    HW123963   1.037   5.984   5.244
 7688SOL    HW223964   1.176   6.036   5.175
 7689SOL     OW23965   5.717   6.527   2.140
 7689SOL    HW123966   5.638   6.574   2.100
 7689SOL    HW223967   5.691   6.435   2.168
 7690SOL     OW23968   5.497   4.807   0.360
 7690SOL    HW123969   5.526   4.901   0.341
 7690SOL    HW223970   5.527   4.782   0.452
 7691SOL     OW23971   5.160   3.916   4.512
 7691SOL    HW123972   5.232   3.962   4.564
 7691SOL    HW223973   5.169   3.817   4.523
 7692SOL     OW23974   0.940   6.177   1.520
 7692SOL    HW123975   0.928   6.207   1.614
 7692SOL    HW223976   0.890   6.238   1.459
 7693SOL     OW23977   3.139   6.676   1.916
 7693SOL    HW123978   3.117   6.579   1.915
 7693SOL    HW223979   3.159   6.704   2.010
 7694SOL     OW23980   5.506   3.673   4.511
 7694SOL    HW123981   5.495   3.588   4.461
 7694SOL    HW223982   5.518   3.749   4.446
 7695SOL     OW23983   5.025   7.013   0.700
 7695SOL    HW123984   5.118   7.010   0.665
 7695SOL    HW223985   4.962   0.021   0.627
 7696SOL     OW23986   0.551   0.595   6.287
 7696SOL    HW123987   0.644   0.631   6.271
 7696SOL    HW223988   0.485   0.669   6.277
 7697SOL     OW23989   2.430   6.704   2.744
 7697SOL    HW123990   2.386   6.695   2.655
 7697SOL    HW223991   2.408   6.793   2.784
 7698SOL     OW23992   6.111   1.813   4.371
 7698SOL    HW123993   6.065   1.803   4.459
 7698SOL    HW223994   6.082   1.740   4.310
 7699SOL     OW23995   3.393   5.439   6.387
 7699SOL    HW123996   3.430   5.380   6.315
 7699SOL    HW223997   3.302   5.472   6.360
 7700SOL     OW23998   4.696   6.103   2.947
 7700SOL    HW123999   4.685   6.110   2.848
 7700SOL    HW224000   4.770   6.163   2.977
 7701SOL     OW24001   6.286   2.214   0.418
 7701SOL    HW124002   6.346   2.275   0.366
 7701SOL    HW224003   6.193   2.220   0.382
 7702SOL     OW24004   3.288   6.679   5.019
 7702SOL    HW124005   3.291   6.760   4.961
 7702SOL    HW224006   3.321   6.702   5.111
 7703SOL     OW24007   6.530   5.753   6.763
 7703SOL    HW124008   6.570   5.796   6.682
 7703SOL    HW224009   6.537   5.654   6.754
 7704SOL     OW24010   6.309   0.231   4.635
 7704SOL    HW124011   6.321   0.168   4.558
 7704SOL    HW224012   6.356   0.317   4.616
 7705SOL     OW24013   2.655   6.139   0.470
 7705SOL    HW124014   2.731   6.165   0.409
 7705SOL    HW224015   2.570   6.138   0.417
 7706SOL     OW24016   3.823   3.592   4.770
 7706SOL    HW124017   3.803   3.542   4.687
 7706SOL    HW224018   3.777   3.681   4.768
 7707SOL     OW24019   0.127   5.068   5.541
 7707SOL    HW124020   0.159   5.006   5.612
 7707SOL    HW224021   0.035   5.099   5.563
 7708SOL     OW24022   0.914   6.489   5.868
 7708SOL    HW124023   0.918   6.398   5.911
 7708SOL    HW224024   0.830   6.497   5.814
 7709SOL     OW24025   6.378   4.077   2.411
 7709SOL    HW124026   6.459   4.134   2.423
 7709SOL    HW224027   6.364   4.022   2.493
 7710SOL     OW24028   3.192   1.921   0.108
 7710SOL    HW124029   3.181   1.948   0.204
 7710SOL    HW224030   3.169   1.997   0.048
 7711SOL     OW24031   5.641   6.098   6.185
 7711SOL    HW124032   5.570   6.133   6.124
 7711SOL    HW224033   5.709   6.048   6.131
 7712SOL     OW24034   0.222   5.150   1.627
 7712SOL    HW124035   0.215   5.217   1.701
 7712SOL    HW224036   0.291   5.081   1.652
 7713SOL     OW24037   1.381   4.015   1.099
 7713SOL    HW124038   1.400   4.076   1.022
 7713SOL    HW224039   1.449   4.030   1.171
 7714SOL     OW24040   0.004   4.125   5.308
 7714SOL    HW124041   0.034   4.086   5.395
 7714SOL    HW224042   0.033   4.065   5.233
 7715SOL     OW24043   2.916   2.259   0.070
 7715SOL    HW124044   2.907   2.351   0.032
 7715SOL    HW224045   2.831   2.209   0.059
 7716SOL     OW24046   0.019   4.815   1.833
 7716SOL    HW124047   0.059   4.728   1.863
 7716SOL    HW224048   0.037   4.828   1.736
 7717SOL     OW24049   1.876   0.712   5.762
 7717SOL    HW124050   1.975   0.719   5.755
 7717SOL    HW224051   1.851   0.666   5.847
 7718SOL     OW24052   6.857   3.575   3.595
 7718SOL    HW124053   6.819   3.552   3.505
 7718SOL    HW224054   6.880   3.491   3.644
 7719SOL     OW24055   0.144   4.434   5.600
 7719SOL    HW124056   0.163   4.411   5.504
 7719SOL    HW224057   0.209   4.503   5.631
 7720SOL     OW24058   6.985   1.408   6.287
 7720SOL    HW124059   6.979   1.436   6.383
 7720SOL    HW224060   0.010   1.319   6.280
 7721SOL     OW24061   0.439   5.479   1.823
 7721SOL    HW124062   0.362   5.536   1.852
 7721SOL    HW224063   0.411   5.420   1.747
 7722SOL     OW24064   1.408   4.270   3.401
 7722SOL    HW124065   1.488   4.328   3.386
 7722SOL    HW224066   1.437   4.175   3.412
 7723SOL     OW24067   4.689   3.877   6.160
 7723SOL    HW124068   4.612   3.858   6.100
 7723SOL    HW224069   4.760   3.807   6.147
 7724SOL     OW24070   2.964   3.751   1.133
 7724SOL    HW124071   2.908   3.668   1.125
 7724SOL    HW224072   2.937   3.802   1.214
 7725SOL     OW24073   6.403   1.611   2.661
 7725SOL    HW124074   6.324   1.617   2.723
 7725SOL    HW224075   6.393   1.678   2.588
 7726SOL     OW24076   1.629   5.116   5.984
 7726SOL    HW124077   1.595   5.060   5.909
 7726SOL    HW224078   1.679   5.194   5.947
 7727SOL     OW24079   0.258   2.310   2.609
 7727SOL    HW124080   0.213   2.375   2.549
 7727SOL    HW224081   0.357   2.322   2.602
 7728SOL     OW24082   2.091   3.526   5.039
 7728SOL    HW124083   2.042   3.605   5.002
 7728SOL    HW224084   2.092   3.532   5.139
 7729SOL     OW24085   6.167   2.116   1.197
 7729SOL    HW124086   6.237   2.183   1.173
 7729SOL    HW224087   6.100   2.158   1.258
 7730SOL     OW24088   6.986   5.486   0.586
 7730SOL    HW124089   0.055   5.528   0.609
 7730SOL    HW224090   6.982   5.395   0.626
 7731SOL     OW24091   6.429   1.234   0.209
 7731SOL    HW124092   6.331   1.242   0.226
 7731SOL    HW224093   6.456   1.138   0.213
 7732SOL     OW24094   5.276   6.959   0.276
 7732SOL    HW124095   5.266   6.915   0.187
 7732SOL    HW224096   5.362   6.930   0.318
 7733SOL     OW24097   5.114   6.045   2.454
 7733SOL    HW124098   5.074   6.106   2.386
 7733SOL    HW224099   5.202   6.083   2.484
 7734SOL     OW24100   1.582   5.081   4.134
 7734SOL    HW124101   1.664   5.078   4.077
 7734SOL    HW224102   1.554   5.176   4.146
 7735SOL     OW24103   4.905   6.506   6.619
 7735SOL    HW124104   4.995   6.496   6.662
 7735SOL    HW224105   4.916   6.508   6.519
 7736SOL     OW24106   2.960   2.904   6.733
 7736SOL    HW124107   2.924   2.947   6.650
 7736SOL    HW224108   3.054   2.933   6.748
 7737SOL     OW24109   2.806   6.326   2.703
 7737SOL    HW124110   2.713   6.305   2.674
 7737SOL    HW224111   2.854   6.375   2.630
 7738SOL     OW24112   3.247   5.437   0.324
 7738SOL    HW124113   3.259   5.433   0.423
 7738SOL    HW224114   3.276   5.351   0.283
 7739SOL     OW24115   0.061   2.360   1.036
 7739SOL    HW124116   0.062   2.310   0.949
 7739SOL    HW224117   0.020   2.302   1.106
 7740SOL     OW24118   2.542   1.296   2.982
 7740SOL    HW124119   2.608   1.359   2.941
 7740SOL    HW224120   2.588   1.239   3.050
 7741SOL     OW24121   6.920   4.956   6.066
 7741SOL    HW124122   6.962   5.015   5.998
 7741SOL    HW224123   6.987   4.890   6.100
 7742SOL     OW24124   3.868   2.058   2.931
 7742SOL    HW124125   3.929   2.135   2.917
 7742SOL    HW224126   3.915   1.985   2.981
 7743SOL     OW24127   5.484   1.774   6.899
 7743SOL    HW124128   5.457   1.677   6.901
 7743SOL    HW224129   5.410   1.830   6.936
 7744SOL     OW24130   0.323   0.168   4.275
 7744SOL    HW124131   0.292   0.124   4.359
 7744SOL    HW224132   0.247   0.218   4.233
 7745SOL     OW24133   4.016   1.338   6.878
 7745SOL    HW124134   3.938   1.387   6.838
 7745SOL    HW224135   3.988   1.294   6.963
 7746SOL     OW24136   1.088   0.243   0.503
 7746SOL    HW124137   1.054   0.150   0.488
 7746SOL    HW224138   1.051   0.304   0.433
 7747SOL     OW24139   5.551   5.715   1.562
 7747SOL    HW124140   5.650   5.702   1.562
 7747SOL    HW224141   5.505   5.626   1.558
 7748SOL     OW24142   2.879   3.747   4.796
 7748SOL    HW124143   2.779   3.744   4.794
 7748SOL    HW224144   2.915   3.660   4.829
 7749SOL     OW24145   3.351   3.661   5.708
 7749SOL    HW124146   3.351   3.694   5.614
 7749SOL    HW224147   3.258   3.662   5.745
 7750SOL     OW24148   6.856   5.988   1.175
 7750SOL    HW124149   6.767   5.999   1.130
 7750SOL    HW224150   6.929   6.004   1.109
 7751SOL     OW24151   1.915   2.957   2.486
 7751SOL    HW124152   1.976   2.931   2.411
 7751SOL    HW224153   1.949   2.917   2.571
 7752SOL     OW24154   5.773   6.661   5.580
 7752SOL    HW124155   5.819   6.572   5.573
 7752SOL    HW224156   5.781   6.694   5.674
 7753SOL     OW24157   1.842   0.415   4.400
 7753SOL    HW124158   1.826   0.411   4.498
 7753SOL    HW224159   1.760   0.450   4.354
 7754SOL     OW24160   4.474   6.455   2.348
 7754SOL    HW124161   4.468   6.540   2.401
 7754SOL    HW224162   4.428   6.382   2.397
 7755SOL     OW24163   1.228   2.013   5.861
 7755SOL    HW124164   1.145   2.063   5.885
 7755SOL    HW224165   1.277   2.063   5.789
 7756SOL     OW24166   2.486   5.776   2.557
 7756SOL    HW124167   2.574   5.784   2.605
 7756SOL    HW224168   2.461   5.865   2.519
 7757SOL     OW24169   5.890   5.396   5.901
 7757SOL    HW124170   5.882   5.442   5.989
 7757SOL    HW224171   5.925   5.460   5.833
 7758SOL     OW24172   1.603   1.284   5.812
 7758SOL    HW124173   1.515   1.316   5.847
 7758SOL    HW224174   1.666   1.361   5.805
 7759SOL     OW24175   0.845   1.925   5.458
 7759SOL    HW124176   0.925   1.889   5.411
 7759SOL    HW224177   0.772   1.943   5.392
 7760SOL     OW24178   5.321   3.308   3.014
 7760SOL    HW124179   5.353   3.247   2.942
 7760SOL    HW224180   5.347   3.272   3.103
 7761SOL     OW24181   0.719   0.537   5.772
 7761SOL    HW124182   0.736   0.491   5.684
 7761SOL    HW224183   0.625   0.517   5.802
 7762SOL     OW24184   4.382   0.326   4.121
 7762SOL    HW124185   4.376   0.412   4.070
 7762SOL    HW224186   4.302   0.317   4.180
 7763SOL     OW24187   1.098   1.051   6.776
 7763SOL    HW124188   1.008   1.091   6.759
 7763SOL    HW224189   1.143   1.032   6.689
 7764SOL     OW24190   3.591   3.153   3.334
 7764SOL    HW124191   3.571   3.055   3.329
 7764SOL    HW224192   3.652   3.178   3.258
 7765SOL     OW24193   6.256   2.761   5.108
 7765SOL    HW124194   6.343   2.783   5.152
 7765SOL    HW224195   6.240   2.823   5.032
 7766SOL     OW24196   6.834   3.313   0.024
 7766SOL    HW124197   6.925   3.277   0.003
 7766SOL    HW224198   6.842   3.407   0.057
 7767SOL     OW24199   5.025   5.860   2.788
 7767SOL    HW124200   4.972   5.909   2.719
 7767SOL    HW224201   5.049   5.769   2.753
 7768SOL     OW24202   4.663   4.426   2.474
 7768SOL    HW124203   4.609   4.349   2.508
 7768SOL    HW224204   4.670   4.421   2.375
 7769SOL     OW24205   4.689   2.802   3.315
 7769SOL    HW124206   4.709   2.883   3.260
 7769SOL    HW224207   4.594   2.775   3.300
 7770SOL     OW24208   1.651   4.345   2.555
 7770SOL    HW124209   1.685   4.348   2.649
 7770SOL    HW224210   1.557   4.309   2.555
 7771SOL     OW24211   3.329   2.228   5.418
 7771SOL    HW124212   3.284   2.279   5.344
 7771SOL    HW224213   3.320   2.280   5.503
 7772SOL     OW24214   5.118   0.397   2.042
 7772SOL    HW124215   5.055   0.411   2.119
 7772SOL    HW224216   5.120   0.480   1.986
 7773SOL     OW24217   2.722   6.123   4.909
 7773SOL    HW124218   2.713   6.032   4.950
 7773SOL    HW224219   2.760   6.186   4.976
 7774SOL     OW24220   5.386   1.940   5.465
 7774SOL    HW124221   5.477   1.900   5.453
 7774SOL    HW224222   5.389   2.037   5.442
 7775SOL     OW24223   5.030   5.621   1.257
 7775SOL    HW124224   4.956   5.625   1.190
 7775SOL    HW224225   5.082   5.706   1.253
 7776SOL     OW24226   1.923   4.980   6.427
 7776SOL    HW124227   1.882   4.899   6.386
 7776SOL    HW224228   1.852   5.035   6.470
 7777SOL     OW24229   6.960   6.496   4.659
 7777SOL    HW124230   6.983   6.472   4.753
 7777SOL    HW224231   0.010   6.557   4.621
 7778SOL     OW24232   5.497   4.135   0.911
 7778SOL    HW124233   5.438   4.125   0.830
 7778SOL    HW224234   5.593   4.135   0.882
 7779SOL     OW24235   2.502   2.676   1.776
 7779SOL    HW124236   2.462   2.649   1.688
 7779SOL    HW224237   2.555   2.601   1.814
 7780SOL     OW24238   0.783   4.558   5.001
 7780SOL    HW124239   0.775   4.648   5.044
 7780SOL    HW224240   0.811   4.491   5.070
 7781SOL     OW24241   1.176   5.325   0.374
 7781SOL    HW124242   1.150   5.393   0.306
 7781SOL    HW224243   1.101   5.310   0.438
 7782SOL     OW24244   6.069   5.062   4.269
 7782SOL    HW124245   6.067   5.159   4.294
 7782SOL    HW224246   6.084   5.054   4.170
 7783SOL     OW24247   1.188   5.844   5.517
 7783SOL    HW124248   1.201   5.788   5.435
 7783SOL    HW224249   1.223   5.936   5.500
 7784SOL     OW24250   3.304   1.879   1.540
 7784SOL    HW124251   3.347   1.864   1.451
 7784SOL    HW224252   3.297   1.977   1.558
 7785SOL     OW24253   2.492   6.534   4.370
 7785SOL    HW124254   2.430   6.610   4.391
 7785SOL    HW224255   2.552   6.517   4.448
 7786SOL     OW24256   2.921   6.321   0.275
 7786SOL    HW124257   3.003   6.350   0.225
 7786SOL    HW224258   2.848   6.300   0.210
 7787SOL     OW24259   2.121   2.349   5.958
 7787SOL    HW124260   2.039   2.393   5.920
 7787SOL    HW224261   2.188   2.419   5.983
 7788SOL     OW24262   2.450   5.283   1.275
 7788SOL    HW124263   2.426   5.278   1.178
 7788SOL    HW224264   2.448   5.191   1.315
 7789SOL     OW24265   1.925   6.519   6.742
 7789SOL    HW124266   1.937   6.618   6.751
 7789SOL    HW224267   1.936   6.493   6.646
 7790SOL     OW24268   5.750   5.683   3.471
 7790SOL    HW124269   5.690   5.603   3.457
 7790SOL    HW224270   5.809   5.695   3.391
 7791SOL     OW24271   2.362   4.897   3.152
 7791SOL    HW124272   2.375   4.977   3.094
 7791SOL    HW224273   2.391   4.919   3.246
 7792SOL     OW24274   2.048   5.436   4.929
 7792SOL    HW124275   2.122   5.503   4.921
 7792SOL    HW224276   1.979   5.471   4.993
 7793SOL     OW24277   2.857   0.927   0.865
 7793SOL    HW124278   2.954   0.943   0.848
 7793SOL    HW224279   2.832   0.835   0.837
 7794SOL     OW24280   6.009   3.982   3.213
 7794SOL    HW124281   5.930   4.000   3.271
 7794SOL    HW224282   5.995   3.896   3.163
 7795SOL     OW24283   2.040   4.136   5.569
 7795SOL    HW124284   2.085   4.225   5.568
 7795SOL    HW224285   2.047   4.095   5.478
 7796SOL     OW24286   3.926   3.235   3.545
 7796SOL    HW124287   3.830   3.254   3.565
 7796SOL    HW224288   3.947   3.268   3.452
 7797SOL     OW24289   1.482   0.004   2.171
 7797SOL    HW124290   1.502   6.948   2.233
 7797SOL    HW224291   1.427   0.073   2.219
 7798SOL     OW24292   2.050   3.957   5.367
 7798SOL    HW124293   1.983   3.889   5.399
 7798SOL    HW224294   2.138   3.912   5.353
 7799SOL     OW24295   1.134   6.378   2.177
 7799SOL    HW124296   1.106   6.348   2.268
 7799SOL    HW224297   1.228   6.350   2.159
 7800SOL     OW24298   0.861   5.252   1.195
 7800SOL    HW124299   0.912   5.256   1.109
 7800SOL    HW224300   0.799   5.330   1.201
 7801SOL     OW24301   2.197   2.059   2.161
 7801SOL    HW124302   2.179   2.152   2.191
 7801SOL    HW224303   2.288   2.031   2.190
 7802SOL     OW24304   6.117   2.853   0.767
 7802SOL    HW124305   6.029   2.895   0.785
 7802SOL    HW224306   6.148   2.802   0.848
 7803SOL     OW24307   4.823   1.992   5.869
 7803SOL    HW124308   4.903   1.939   5.841
 7803SOL    HW224309   4.853   2.082   5.902
 7804SOL     OW24310   4.304   2.061   4.256
 7804SOL    HW124311   4.205   2.044   4.264
 7804SOL    HW224312   4.351   1.975   4.234
 7805SOL     OW24313   5.827   2.683   1.310
 7805SOL    HW124314   5.854   2.701   1.216
 7805SOL    HW224315   5.901   2.708   1.372
 7806SOL     OW24316   6.245   1.823   0.373
 7806SOL    HW124317   6.264   1.885   0.297
 7806SOL    HW224318   6.191   1.871   0.442
 7807SOL     OW24319   0.962   5.190   5.500
 7807SOL    HW124320   1.016   5.274   5.488
 7807SOL    HW224321   0.870   5.204   5.463
 7808SOL     OW24322   6.234   3.459   4.193
 7808SOL    HW124323   6.175   3.387   4.229
 7808SOL    HW224324   6.178   3.536   4.162
 7809SOL     OW24325   3.023   4.799   4.250
 7809SOL    HW124326   3.122   4.793   4.256
 7809SOL    HW224327   2.996   4.895   4.238
 7810SOL     OW24328   3.750   0.367   4.133
 7810SOL    HW124329   3.730   0.294   4.198
 7810SOL    HW224330   3.728   0.336   4.041
 7811SOL     OW24331   1.690   5.574   1.920
 7811SOL    HW124332   1.650   5.641   1.982
 7811SOL    HW224333   1.663   5.482   1.949
 7812SOL     OW24334   6.988   1.743   3.972
 7812SOL    HW124335   0.034   1.680   3.931
 7812SOL    HW224336   6.964   1.814   3.907
 7813SOL     OW24337   5.076   2.317   0.155
 7813SOL    HW124338   5.038   2.408   0.140
 7813SOL    HW224339   5.101   2.306   0.251
 7814SOL     OW24340   0.597   3.580   3.597
 7814SOL    HW124341   0.539   3.561   3.518
 7814SOL    HW224342   0.661   3.654   3.576
 7815SOL     OW24343   5.620   1.492   5.207
 7815SOL    HW124344   5.576   1.475   5.295
 7815SOL    HW224345   5.551   1.492   5.134
 7816SOL     OW24346   1.754   2.348   6.362
 7816SOL    HW124347   1.759   2.301   6.273
 7816SOL    HW224348   1.781   2.284   6.434
 7817SOL     OW24349   4.968   4.436   3.228
 7817SOL    HW124350   5.064   4.462   3.220
 7817SOL    HW224351   4.921   4.499   3.289
 7818SOL     OW24352   4.389   1.304   1.782
 7818SOL    HW124353   4.450   1.226   1.799
 7818SOL    HW224354   4.302   1.270   1.745
 7819SOL     OW24355   0.325   3.942   2.694
 7819SOL    HW124356   0.282   4.030   2.671
 7819SOL    HW224357   0.417   3.940   2.656
 7820SOL     OW24358   0.802   1.626   5.555
 7820SOL    HW124359   0.874   1.691   5.530
 7820SOL    HW224360   0.735   1.671   5.614
 7821SOL     OW24361   5.703   5.853   0.397
 7821SOL    HW124362   5.646   5.893   0.468
 7821SOL    HW224363   5.655   5.778   0.352
 7822SOL     OW24364   1.771   2.045   6.389
 7822SOL    HW124365   1.857   2.080   6.352
 7822SOL    HW224366   1.773   1.945   6.388
 7823SOL     OW24367   2.891   3.637   5.150
 7823SOL    HW124368   2.906   3.538   5.147
 7823SOL    HW224369   2.819   3.662   5.086
 7824SOL     OW24370   6.044   0.658   3.998
 7824SOL    HW124371   5.945   0.672   3.996
 7824SOL    HW224372   6.072   0.629   4.089
 7825SOL     OW24373   1.263   2.869   1.005
 7825SOL    HW124374   1.333   2.940   0.996
 7825SOL    HW224375   1.237   2.835   0.915
 7826SOL     OW24376   5.813   1.195   0.532
 7826SOL    HW124377   5.856   1.190   0.442
 7826SOL    HW224378   5.820   1.289   0.567
 7827SOL     OW24379   3.199   4.839   1.266
 7827SOL    HW124380   3.296   4.858   1.285
 7827SOL    HW224381   3.155   4.921   1.231
 7828SOL     OW24382   1.043   4.798   6.690
 7828SOL    HW124383   0.983   4.718   6.697
 7828SOL    HW224384   1.034   4.838   6.598
 7829SOL     OW24385   2.096   3.315   1.361
 7829SOL    HW124386   2.058   3.333   1.452
 7829SOL    HW224387   2.185   3.359   1.352
 7830SOL     OW24388   2.662   4.066   5.695
 7830SOL    HW124389   2.612   4.124   5.631
 7830SOL    HW224390   2.755   4.051   5.661
 7831SOL     OW24391   1.490   5.846   1.328
 7831SOL    HW124392   1.434   5.766   1.350
 7831SOL    HW224393   1.431   5.925   1.312
 7832SOL     OW24394   5.009   1.221   3.251
 7832SOL    HW124395   5.025   1.196   3.156
 7832SOL    HW224396   4.996   1.138   3.306
 7833SOL     OW24397   0.985   0.643   6.273
 7833SOL    HW124398   1.081   0.660   6.293
 7833SOL    HW224399   0.961   0.549   6.300
 7834SOL     OW24400   6.713   1.404   3.935
 7834SOL    HW124401   6.735   1.467   4.010
 7834SOL    HW224402   6.712   1.453   3.848
 7835SOL     OW24403   2.913   1.673   5.107
 7835SOL    HW124404   2.889   1.670   5.204
 7835SOL    HW224405   2.831   1.693   5.053
 7836SOL     OW24406   3.373   3.147   4.727
 7836SOL    HW124407   3.335   3.054   4.734
 7836SOL    HW224408   3.301   3.214   4.747
 7837SOL     OW24409   6.491   5.783   0.940
 7837SOL    HW124410   6.463   5.831   0.857
 7837SOL    HW224411   6.497   5.848   1.015
 7838SOL     OW24412   4.337   6.369   0.023
 7838SOL    HW124413   4.319   6.311   0.103
 7838SOL    HW224414   4.252   6.414   7.015
 7839SOL     OW24415   6.051   4.624   4.887
 7839SOL    HW124416   5.992   4.631   4.967
 7839SOL    HW224417   6.048   4.710   4.835
 7840SOL     OW24418   5.992   2.757   4.019
 7840SOL    HW124419   5.935   2.830   3.981
 7840SOL    HW224420   5.987   2.677   3.960
 7841SOL     OW24421   3.725   1.861   6.730
 7841SOL    HW124422   3.700   1.933   6.665
 7841SOL    HW224423   3.655   1.790   6.729
 7842SOL     OW24424   2.203   1.991   2.872
 7842SOL    HW124425   2.110   1.958   2.884
 7842SOL    HW224426   2.218   2.016   2.776
 7843SOL     OW24427   6.121   5.484   2.688
 7843SOL    HW124428   6.023   5.475   2.667
 7843SOL    HW224429   6.151   5.404   2.740
 7844SOL     OW24430   4.064   6.295   2.247
 7844SOL    HW124431   3.972   6.318   2.279
 7844SOL    HW224432   4.128   6.368   2.273
 7845SOL     OW24433   5.151   1.695   3.644
 7845SOL    HW124434   5.093   1.713   3.565
 7845SOL    HW224435   5.101   1.718   3.728
 7846SOL     OW24436   1.082   0.969   2.640
 7846SOL    HW124437   1.075   0.897   2.709
 7846SOL    HW224438   0.997   1.022   2.640
 7847SOL     OW24439   0.085   1.793   2.757
 7847SOL    HW124440   0.018   1.731   2.798
 7847SOL    HW224441   0.143   1.742   2.693
 7848SOL     OW24442   3.322   3.153   0.417
 7848SOL    HW124443   3.278   3.226   0.364
 7848SOL    HW224444   3.253   3.084   0.441
 7849SOL     OW24445   5.622   4.300   3.516
 7849SOL    HW124446   5.656   4.386   3.554
 7849SOL    HW224447   5.537   4.274   3.561
 7850SOL     OW24448   0.139   2.265   5.304
 7850SOL    HW124449   0.063   2.271   5.369
 7850SOL    HW224450   0.217   2.219   5.347
 7851SOL     OW24451   6.653   1.191   2.193
 7851SOL    HW124452   6.572   1.236   2.155
 7851SOL    HW224453   6.645   1.092   2.181
 7852SOL     OW24454   2.554   1.636   5.690
 7852SOL    HW124455   2.621   1.572   5.727
 7852SOL    HW224456   2.537   1.616   5.594
 7853SOL     OW24457   4.688   2.236   1.036
 7853SOL    HW124458   4.744   2.159   1.069
 7853SOL    HW224459   4.633   2.271   1.111
 7854SOL     OW24460   3.791   3.524   0.222
 7854SOL    HW124461   3.784   3.620   0.249
 7854SOL    HW224462   3.847   3.516   0.139
 7855SOL     OW24463   4.562   5.248   4.912
 7855SOL    HW124464   4.527   5.337   4.940
 7855SOL    HW224465   4.578   5.192   4.993
 7856SOL     OW24466   6.191   4.604   5.181
 7856SOL    HW124467   6.169   4.522   5.128
 7856SOL    HW224468   6.267   4.584   5.243
 7857SOL     OW24469   5.614   1.770   5.405
 7857SOL    HW124470   5.565   1.682   5.404
 7857SOL    HW224471   5.615   1.808   5.313
 7858SOL     OW24472   5.246   6.032   3.796
 7858SOL    HW124473   5.156   6.071   3.777
 7858SOL    HW224474   5.257   6.021   3.895
 7859SOL     OW24475   4.995   2.701   6.477
 7859SOL    HW124476   4.906   2.666   6.449
 7859SOL    HW224477   5.060   2.625   6.487
 7860SOL     OW24478   3.814   0.456   2.409
 7860SOL    HW124479   3.885   0.391   2.436
 7860SOL    HW224480   3.780   0.504   2.490
 7861SOL     OW24481   3.652   5.051   1.888
 7861SOL    HW124482   3.668   5.058   1.790
 7861SOL    HW224483   3.609   4.963   1.909
 7862SOL     OW24484   2.628   3.666   1.475
 7862SOL    HW124485   2.642   3.765   1.474
 7862SOL    HW224486   2.663   3.628   1.561
 7863SOL     OW24487   0.804   5.270   4.139
 7863SOL    HW124488   0.760   5.294   4.226
 7863SOL    HW224489   0.752   5.197   4.094
 7864SOL     OW24490   0.533   5.620   4.972
 7864SOL    HW124491   0.558   5.629   4.876
 7864SOL    HW224492   0.508   5.710   5.010
 7865SOL     OW24493   5.980   6.560   4.153
 7865SOL    HW124494   6.048   6.488   4.140
 7865SOL    HW224495   5.894   6.519   4.181
 7866SOL     OW24496   1.362   1.676   6.292
 7866SOL    HW124497   1.364   1.647   6.196
 7866SOL    HW224498   1.274   1.720   6.311
 7867SOL     OW24499   5.691   6.558   3.326
 7867SOL    HW124500   5.705   6.466   3.361
 7867SOL    HW224501   5.779   6.599   3.303
 7868SOL     OW24502   5.670   6.796   1.614
 7868SOL    HW124503   5.582   6.780   1.658
 7868SOL    HW224504   5.732   6.842   1.678
 7869SOL     OW24505   6.373   3.668   0.176
 7869SOL    HW124506   6.343   3.575   0.197
 7869SOL    HW224507   6.408   3.671   0.082
 7870SOL     OW24508   3.967   4.810   3.880
 7870SOL    HW124509   3.894   4.773   3.823
 7870SOL    HW224510   4.055   4.801   3.833
 7871SOL     OW24511   5.065   2.897   2.535
 7871SOL    HW124512   5.007   2.891   2.454
 7871SOL    HW224513   5.092   2.993   2.549
 7872SOL     OW24514   2.510   4.534   3.288
 7872SOL    HW124515   2.574   4.533   3.364
 7872SOL    HW224516   2.550   4.583   3.211
 7873SOL     OW24517   5.394   0.357   5.715
 7873SOL    HW124518   5.380   0.424   5.642
 7873SOL    HW224519   5.491   0.333   5.719
 7874SOL     OW24520   5.645   1.963   0.209
 7874SOL    HW124521   5.619   2.023   0.285
 7874SOL    HW224522   5.720   2.005   0.158
 7875SOL     OW24523   5.218   2.339   6.676
 7875SOL    HW124524   5.257   2.424   6.641
 7875SOL    HW224525   5.292   2.278   6.704
 7876SOL     OW24526   1.129   0.235   4.726
 7876SOL    HW124527   1.197   0.164   4.708
 7876SOL    HW224528   1.046   0.194   4.762
 7877SOL     OW24529   1.062   2.377   3.150
 7877SOL    HW124530   1.097   2.354   3.060
 7877SOL    HW224531   1.003   2.458   3.143
 7878SOL     OW24532   6.014   5.028   4.013
 7878SOL    HW124533   5.940   4.981   4.061
 7878SOL    HW224534   5.975   5.100   3.954
 7879SOL     OW24535   4.561   4.908   4.351
 7879SOL    HW124536   4.601   4.821   4.378
 7879SOL    HW224537   4.462   4.904   4.359
 7880SOL     OW24538   1.999   5.105   0.899
 7880SOL    HW124539   2.032   5.048   0.824
 7880SOL    HW224540   2.017   5.201   0.879
 7881SOL     OW24541   5.995   4.473   4.661
 7881SOL    HW124542   6.004   4.489   4.759
 7881SOL    HW224543   5.955   4.553   4.617
 7882SOL     OW24544   0.949   3.253   2.529
 7882SOL    HW124545   0.925   3.215   2.440
 7882SOL    HW224546   0.966   3.351   2.519
 7883SOL     OW24547   0.819   0.461   0.738
 7883SOL    HW124548   0.832   0.432   0.833
 7883SOL    HW224549   0.740   0.414   0.699
 7884SOL     OW24550   2.153   3.951   4.057
 7884SOL    HW124551   2.198   3.950   3.968
 7884SOL    HW224552   2.055   3.936   4.045
 7885SOL     OW24553   6.328   4.992   1.849
 7885SOL    HW124554   6.315   5.034   1.939
 7885SOL    HW224555   6.326   5.062   1.779
 7886SOL     OW24556   3.632   5.249   0.173
 7886SOL    HW124557   3.556   5.198   0.214
 7886SOL    HW224558   3.598   5.306   0.099
 7887SOL     OW24559   3.250   2.518   5.360
 7887SOL    HW124560   3.239   2.487   5.454
 7887SOL    HW224561   3.213   2.450   5.297
 7888SOL     OW24562   6.569   6.958   4.795
 7888SOL    HW124563   6.473   6.979   4.813
 7888SOL    HW224564   6.605   6.903   4.870
 7889SOL     OW24565   1.812   5.267   0.392
 7889SOL    HW124566   1.759   5.338   0.438
 7889SOL    HW224567   1.901   5.257   0.436
 7890SOL     OW24568   0.801   3.046   3.466
 7890SOL    HW124569   0.818   3.120   3.531
 7890SOL    HW224570   0.879   3.037   3.405
 7891SOL     OW24571   2.488   4.614   4.128
 7891SOL    HW124572   2.527   4.607   4.220
 7891SOL    HW224573   2.420   4.542   4.116
 7892SOL     OW24574   2.257   1.020   3.733
 7892SOL    HW124575   2.181   0.980   3.785
 7892SOL    HW224576   2.340   0.965   3.748
 7893SOL     OW24577   6.693   6.159   1.901
 7893SOL    HW124578   6.645   6.241   1.870
 7893SOL    HW224579   6.656   6.079   1.854
 7894SOL     OW24580   3.853   6.355   0.143
 7894SOL    HW124581   3.859   6.446   0.103
 7894SOL    HW224582   3.759   6.338   0.173
 7895SOL     OW24583   5.902   0.442   5.596
 7895SOL    HW124584   5.855   0.526   5.621
 7895SOL    HW224585   5.898   0.431   5.497
 7896SOL     OW24586   4.067   3.526   1.272
 7896SOL    HW124587   4.163   3.525   1.299
 7896SOL    HW224588   4.042   3.437   1.234
 7897SOL     OW24589   2.982   3.358   0.640
 7897SOL    HW124590   2.910   3.316   0.695
 7897SOL    HW224591   2.974   3.327   0.545
 7898SOL     OW24592   4.260   1.903   3.131
 7898SOL    HW124593   4.308   1.847   3.063
 7898SOL    HW224594   4.164   1.913   3.104
 7899SOL     OW24595   5.613   6.987   1.436
 7899SOL    HW124596   5.655   6.946   1.517
 7899SOL    HW224597   5.601   0.066   1.451
 7900SOL     OW24598   1.354   5.073   2.274
 7900SOL    HW124599   1.364   5.153   2.215
 7900SOL    HW224600   1.415   5.000   2.242
 7901SOL     OW24601   4.956   1.523   6.233
 7901SOL    HW124602   4.858   1.541   6.243
 7901SOL    HW224603   5.002   1.541   6.319
 7902SOL     OW24604   6.003   6.537   1.301
 7902SOL    HW124605   5.941   6.556   1.377
 7902SOL    HW224606   6.031   6.624   1.259
 7903SOL     OW24607   5.400   1.245   1.085
 7903SOL    HW124608   5.340   1.166   1.100
 7903SOL    HW224609   5.390   1.308   1.162
 7904SOL     OW24610   5.494   6.970   3.706
 7904SOL    HW124611   5.522   7.016   3.791
 7904SOL    HW224612   5.402   6.932   3.718
 7905SOL     OW24613   5.588   2.176   0.396
 7905SOL    HW124614   5.660   2.201   0.461
 7905SOL    HW224615   5.499   2.180   0.442
 7906SOL     OW24616   0.839   5.787   0.576
 7906SOL    HW124617   0.885   5.855   0.519
 7906SOL    HW224618   0.788   5.833   0.648
 7907SOL     OW24619   5.317   2.071   2.572
 7907SOL    HW124620   5.233   2.074   2.627
 7907SOL    HW224621   5.354   1.978   2.572
 7908SOL     OW24622   1.658   0.990   5.815
 7908SOL    HW124623   1.673   0.968   5.912
 7908SOL    HW224624   1.611   1.078   5.807
 7909SOL     OW24625   5.241   4.749   4.505
 7909SOL    HW124626   5.240   4.722   4.409
 7909SOL    HW224627   5.148   4.760   4.537
 7910SOL     OW24628   3.111   3.609   5.848
 7910SOL    HW124629   3.061   3.692   5.824
 7910SOL    HW224630   3.047   3.534   5.865
 7911SOL     OW24631   1.975   4.105   6.979
 7911SOL    HW124632   2.070   4.135   6.984
 7911SOL    HW224633   1.915   4.182   7.001
 7912SOL     OW24634   6.912   5.071   1.209
 7912SOL    HW124635   6.898   4.997   1.275
 7912SOL    HW224636   6.943   5.153   1.256
 7913SOL     OW24637   1.521   4.774   0.671
 7913SOL    HW124638   1.615   4.757   0.699
 7913SOL    HW224639   1.465   4.694   0.693
 7914SOL     OW24640   0.330   4.217   0.062
 7914SOL    HW124641   0.425   4.193   0.042
 7914SOL    HW224642   0.292   4.271   7.005
 7915SOL     OW24643   4.973   2.525   1.556
 7915SOL    HW124644   5.026   2.552   1.637
 7915SOL    HW224645   4.993   2.430   1.532
 7916SOL     OW24646   1.152   4.649   4.861
 7916SOL    HW124647   1.072   4.661   4.802
 7916SOL    HW224648   1.126   4.666   4.956
 7917SOL     OW24649   3.740   3.464   4.532
 7917SOL    HW124650   3.688   3.378   4.530
 7917SOL    HW224651   3.821   3.456   4.474
 7918SOL     OW24652   0.005   1.403   5.554
 7918SOL    HW124653   6.950   1.358   5.604
 7918SOL    HW224654   6.985   1.461   5.483
 7919SOL     OW24655   2.343   4.374   3.168
 7919SOL    HW124656   2.330   4.291   3.223
 7919SOL    HW224657   2.414   4.431   3.211
 7920SOL     OW24658   6.975   6.436   0.243
 7920SOL    HW124659   6.998   6.349   0.201
 7920SOL    HW224660   6.991   6.510   0.177
 7921SOL     OW24661   5.309   6.270   1.208
 7921SOL    HW124662   5.230   6.330   1.193
 7921SOL    HW224663   5.284   6.197   1.272
 7922SOL     OW24664   6.838   6.608   0.591
 7922SOL    HW124665   6.875   6.646   0.676
 7922SOL    HW224666   6.777   6.532   0.613
 7923SOL     OW24667   3.439   0.027   1.529
 7923SOL    HW124668   3.454   6.987   1.608
 7923SOL    HW224669   3.346   0.065   1.533
 7924SOL     OW24670   4.607   6.744   1.819
 7924SOL    HW124671   4.590   6.836   1.855
 7924SOL    HW224672   4.701   6.738   1.788
 7925SOL     OW24673   1.421   1.070   6.054
 7925SOL    HW124674   1.329   1.047   6.020
 7925SOL    HW224675   1.470   0.985   6.076
 7926SOL     OW24676   4.791   1.647   5.417
 7926SOL    HW124677   4.872   1.695   5.384
 7926SOL    HW224678   4.748   1.598   5.340
 7927SOL     OW24679   4.567   5.564   2.490
 7927SOL    HW124680   4.654   5.602   2.521
 7927SOL    HW224681   4.581   5.472   2.453
 7928SOL     OW24682   1.274   1.886   4.999
 7928SOL    HW124683   1.368   1.887   5.032
 7928SOL    HW224684   1.212   1.876   5.076
 7929SOL     OW24685   4.323   4.560   5.716
 7929SOL    HW124686   4.342   4.608   5.802
 7929SOL    HW224687   4.280   4.472   5.735
 7930SOL     OW24688   4.262   5.877   4.673
 7930SOL    HW124689   4.169   5.875   4.636
 7930SOL    HW224690   4.259   5.864   4.772
 7931SOL     OW24691   2.442   3.052   0.155
 7931SOL    HW124692   2.492   3.048   0.241
 7931SOL    HW224693   2.372   2.980   0.153
 7932SOL     OW24694   1.544   6.412   6.338
 7932SOL    HW124695   1.564   6.376   6.247
 7932SOL    HW224696   1.595   6.360   6.407
 7933SOL     OW24697   0.421   5.990   5.894
 7933SOL    HW124698   0.486   6.055   5.935
 7933SOL    HW224699   0.468   5.937   5.823
 7934SOL     OW24700   2.390   4.950   6.903
 7934SOL    HW124701   2.296   4.985   6.894
 7934SOL    HW224702   2.413   4.942   7.000
 7935SOL     OW24703   6.171   5.764   0.399
 7935SOL    HW124704   6.078   5.768   0.434
 7935SOL    HW224705   6.200   5.854   0.367
 7936SOL     OW24706   4.056   6.112   2.579
 7936SOL    HW124707   3.975   6.054   2.571
 7936SOL    HW224708   4.038   6.202   2.539
 7937SOL     OW24709   6.730   6.426   3.456
 7937SOL    HW124710   6.666   6.461   3.525
 7937SOL    HW224711   6.727   6.326   3.457
 7938SOL     OW24712   6.534   5.262   3.883
 7938SOL    HW124713   6.586   5.323   3.824
 7938SOL    HW224714   6.459   5.313   3.927
 7939SOL     OW24715   1.714   2.575   5.048
 7939SOL    HW124716   1.736   2.668   5.077
 7939SOL    HW224717   1.798   2.520   5.046
 7940SOL     OW24718   1.741   3.669   1.732
 7940SOL    HW124719   1.694   3.655   1.644
 7940SOL    HW224720   1.721   3.591   1.792
 7941SOL     OW24721   5.632   1.163   0.952
 7941SOL    HW124722   5.551   1.193   1.002
 7941SOL    HW224723   5.698   1.239   0.948
 7942SOL     OW24724   6.548   5.957   2.609
 7942SOL    HW124725   6.523   5.999   2.697
 7942SOL    HW224726   6.602   6.022   2.556
 7943SOL     OW24727   6.311   3.415   0.203
 7943SOL    HW124728   6.354   3.346   0.262
 7943SOL    HW224729   6.274   3.370   0.121
 7944SOL     OW24730   0.345   2.402   1.566
 7944SOL    HW124731   0.325   2.448   1.479
 7944SOL    HW224732   0.404   2.323   1.549
 7945SOL     OW24733   5.705   5.231   1.418
 7945SOL    HW124734   5.690   5.293   1.340
 7945SOL    HW224735   5.720   5.138   1.384
 7946SOL     OW24736   2.455   1.069   5.691
 7946SOL    HW124737   2.454   1.143   5.623
 7946SOL    HW224738   2.549   1.051   5.719
 7947SOL     OW24739   3.866   1.922   5.907
 7947SOL    HW124740   3.929   1.856   5.948
 7947SOL    HW224741   3.861   2.003   5.965
 7948SOL     OW24742   1.033   0.033   0.887
 7948SOL    HW124743   0.968   0.067   0.955
 7948SOL    HW224744   1.091   6.982   0.929
 7949SOL     OW24745   4.554   4.653   4.837
 7949SOL    HW124746   4.619   4.672   4.911
 7949SOL    HW224747   4.462   4.647   4.874
 7950SOL     OW24748   5.318   5.110   4.013
 7950SOL    HW124749   5.317   5.092   3.915
 7950SOL    HW224750   5.412   5.108   4.046
 7951SOL     OW24751   2.152   4.128   2.006
 7951SOL    HW124752   2.153   4.032   1.978
 7951SOL    HW224753   2.209   4.182   1.945
 7952SOL     OW24754   0.771   3.420   0.222
 7952SOL    HW124755   0.765   3.504   0.276
 7952SOL    HW224756   0.860   3.416   0.176
 7953SOL     OW24757   2.306   2.389   4.071
 7953SOL    HW124758   2.313   2.372   4.169
 7953SOL    HW224759   2.377   2.454   4.044
 7954SOL     OW24760   3.964   3.972   6.194
 7954SOL    HW124761   3.959   4.052   6.253
 7954SOL    HW224762   3.917   3.895   6.237
 7955SOL     OW24763   1.486   6.683   6.963
 7955SOL    HW124764   1.453   6.726   6.879
 7955SOL    HW224765   1.534   6.751   7.018
 7956SOL     OW24766   3.829   5.972   2.635
 7956SOL    HW124767   3.746   5.979   2.580
 7956SOL    HW224768   3.805   5.960   2.731
 7957SOL     OW24769   1.194   0.885   1.603
 7957SOL    HW124770   1.169   0.789   1.616
 7957SOL    HW224771   1.111   0.940   1.593
 7958SOL     OW24772   3.350   4.903   4.595
 7958SOL    HW124773   3.283   4.964   4.552
 7958SOL    HW224774   3.323   4.884   4.689
 7959SOL     OW24775   4.311   6.027   0.765
 7959SOL    HW124776   4.337   6.123   0.770
 7959SOL    HW224777   4.287   6.003   0.671
 7960SOL     OW24778   2.573   0.926   6.580
 7960SOL    HW124779   2.550   0.997   6.515
 7960SOL    HW224780   2.512   0.930   6.659
 7961SOL     OW24781   0.184   0.969   1.088
 7961SOL    HW124782   0.107   0.952   1.149
 7961SOL    HW224783   0.158   1.036   1.018
 7962SOL     OW24784   1.027   0.905   6.999
 7962SOL    HW124785   1.062   0.964   6.927
 7962SOL    HW224786   1.102   0.882   0.043
 7963SOL     OW24787   6.644   6.652   4.093
 7963SOL    HW124788   6.650   6.700   4.181
 7963SOL    HW224789   6.717   6.585   4.085
 7964SOL     OW24790   0.598   4.859   3.158
 7964SOL    HW124791   0.526   4.814   3.106
 7964SOL    HW224792   0.630   4.940   3.109
 7965SOL     OW24793   3.832   2.334   5.886
 7965SOL    HW124794   3.751   2.285   5.856
 7965SOL    HW224795   3.875   2.284   5.962
 7966SOL     OW24796   1.227   2.918   5.933
 7966SOL    HW124797   1.136   2.946   5.905
 7966SOL    HW224798   1.272   2.868   5.859
 7967SOL     OW24799   2.864   6.556   3.391
 7967SOL    HW124800   2.787   6.617   3.410
 7967SOL    HW224801   2.946   6.590   3.437
 7968SOL     OW24802   1.874   2.940   3.898
 7968SOL    HW124803   1.878   2.953   3.799
 7968SOL    HW224804   1.931   2.861   3.923
 7969SOL     OW24805   4.136   6.098   0.504
 7969SOL    HW124806   4.201   6.174   0.499
 7969SOL    HW224807   4.184   6.012   0.487
 7970SOL     OW24808   6.599   2.738   2.670
 7970SOL    HW124809   6.693   2.744   2.702
 7970SOL    HW224810   6.572   2.642   2.663
 7971SOL     OW24811   3.619   2.384   0.392
 7971SOL    HW124812   3.622   2.379   0.292
 7971SOL    HW224813   3.639   2.478   0.421
 7972SOL     OW24814   1.655   3.443   0.690
 7972SOL    HW124815   1.570   3.495   0.699
 7972SOL    HW224816   1.725   3.501   0.649
 7973SOL     OW24817   4.037   4.841   4.137
 7973SOL    HW124818   4.014   4.829   4.040
 7973SOL    HW224819   4.054   4.938   4.155
 7974SOL     OW24820   5.987   1.498   5.486
 7974SOL    HW124821   5.939   1.570   5.536
 7974SOL    HW224822   6.026   1.433   5.551
 7975SOL     OW24823   6.122   1.825   2.412
 7975SOL    HW124824   6.110   1.871   2.324
 7975SOL    HW224825   6.196   1.870   2.463
 7976SOL     OW24826   0.708   0.199   6.057
 7976SOL    HW124827   0.764   0.167   6.133
 7976SOL    HW224828   0.618   0.226   6.091
 7977SOL     OW24829   4.820   6.131   2.195
 7977SOL    HW124830   4.769   6.148   2.110
 7977SOL    HW224831   4.868   6.044   2.188
 7978SOL     OW24832   6.007   3.714   6.896
 7978SOL    HW124833   6.042   3.807   6.887
 7978SOL    HW224834   6.013   3.668   6.807
 7979SOL     OW24835   4.402   5.950   5.720
 7979SOL    HW124836   4.499   5.926   5.713
 7979SOL    HW224837   4.382   6.024   5.655
 7980SOL     OW24838   2.713   5.310   6.943
 7980SOL    HW124839   2.639   5.286   6.880
 7980SOL    HW224840   2.674   5.334   0.013
 7981SOL     OW24841   0.875   5.588   1.677
 7981SOL    HW124842   0.950   5.535   1.639
 7981SOL    HW224843   0.910   5.675   1.712
 7982SOL     OW24844   0.301   1.396   6.936
 7982SOL    HW124845   0.334   1.483   6.970
 7982SOL    HW224846   0.266   1.341   7.011
 7983SOL     OW24847   6.146   2.146   1.736
 7983SOL    HW124848   6.192   2.186   1.657
 7983SOL    HW224849   6.094   2.217   1.784
 7984SOL     OW24850   1.670   1.248   1.062
 7984SOL    HW124851   1.572   1.256   1.047
 7984SOL    HW224852   1.718   1.256   0.974
 7985SOL     OW24853   2.906   1.234   4.147
 7985SOL    HW124854   2.863   1.242   4.058
 7985SOL    HW224855   2.874   1.308   4.207
 7986SOL     OW24856   3.181   1.508   6.673
 7986SOL    HW124857   3.107   1.513   6.606
 7986SOL    HW224858   3.143   1.514   6.765
 7987SOL     OW24859   1.698   2.573   6.496
 7987SOL    HW124860   1.630   2.644   6.477
 7987SOL    HW224861   1.690   2.500   6.428
 7988SOL     OW24862   1.025   2.263   3.908
 7988SOL    HW124863   1.092   2.282   3.981
 7988SOL    HW224864   0.938   2.238   3.949
 7989SOL     OW24865   3.507   3.063   5.597
 7989SOL    HW124866   3.495   3.152   5.551
 7989SOL    HW224867   3.503   3.076   5.696
 7990SOL     OW24868   6.889   3.348   4.356
 7990SOL    HW124869   6.862   3.258   4.390
 7990SOL    HW224870   6.830   3.374   4.280
 7991SOL     OW24871   5.695   6.615   3.733
 7991SOL    HW124872   5.709   6.681   3.659
 7991SOL    HW224873   5.783   6.576   3.760
 7992SOL     OW24874   1.719   6.445   1.540
 7992SOL    HW124875   1.660   6.525   1.550
 7992SOL    HW224876   1.791   6.465   1.474
 7993SOL     OW24877   0.129   6.758   6.465
 7993SOL    HW124878   0.217   6.727   6.428
 7993SOL    HW224879   0.143   6.793   6.558
 7994SOL     OW24880   4.581   6.374   3.735
 7994SOL    HW124881   4.503   6.326   3.694
 7994SOL    HW224882   4.564   6.473   3.732
 7995SOL     OW24883   4.727   5.419   3.624
 7995SOL    HW124884   4.745   5.333   3.578
 7995SOL    HW224885   4.702   5.489   3.556
 7996SOL     OW24886   3.547   0.138   4.614
 7996SOL    HW124887   3.448   0.152   4.613
 7996SOL    HW224888   3.588   0.179   4.532
 7997SOL     OW24889   0.338   1.242   1.640
 7997SOL    HW124890   0.246   1.206   1.629
 7997SOL    HW224891   0.352   1.318   1.575
 7998SOL     OW24892   3.277   5.799   1.620
 7998SOL    HW124893   3.247   5.883   1.665
 7998SOL    HW224894   3.377   5.800   1.610
 7999SOL     OW24895   0.514   0.026   5.940
 7999SOL    HW124896   0.448   0.025   6.015
 7999SOL    HW224897   0.597   0.074   5.968
 8000SOL     OW24898   5.208   0.212   6.740
 8000SOL    HW124899   5.131   0.188   6.681
 8000SOL    HW224900   5.250   0.297   6.707
 8001SOL     OW24901   3.848   6.325   0.901
 8001SOL    HW124902   3.921   6.264   0.872
 8001SOL    HW224903   3.844   6.329   1.001
 8002SOL     OW24904   0.887   2.297   6.141
 8002SOL    HW124905   0.919   2.270   6.232
 8002SOL    HW224906   0.966   2.312   6.081
 8003SOL     OW24907   3.089   5.356   2.788
 8003SOL    HW124908   3.023   5.283   2.808
 8003SOL    HW224909   3.123   5.394   2.874
 8004SOL     OW24910   2.140   3.517   3.658
 8004SOL    HW124911   2.154   3.480   3.750
 8004SOL    HW224912   2.169   3.449   3.591
 8005SOL     OW24913   3.270   0.828   1.682
 8005SOL    HW124914   3.224   0.740   1.691
 8005SOL    HW224915   3.284   0.849   1.585
 8006SOL     OW24916   1.655   0.410   6.425
 8006SOL    HW124917   1.584   0.472   6.392
 8006SOL    HW224918   1.718   0.459   6.484
 8007SOL     OW24919   6.636   0.739   4.332
 8007SOL    HW124920   6.600   0.825   4.368
 8007SOL    HW224921   6.650   0.748   4.233
 8008SOL     OW24922   4.343   5.622   6.146
 8008SOL    HW124923   4.251   5.590   6.125
 8008SOL    HW224924   4.394   5.636   6.061
 8009SOL     OW24925   5.729   1.098   2.990
 8009SOL    HW124926   5.679   1.063   3.069
 8009SOL    HW224927   5.693   1.187   2.963
 8010SOL     OW24928   0.883   1.150   6.671
 8010SOL    HW124929   0.830   1.084   6.724
 8010SOL    HW224930   0.822   1.219   6.633
 8011SOL     OW24931   3.426   2.351   0.822
 8011SOL    HW124932   3.370   2.379   0.743
 8011SOL    HW224933   3.503   2.295   0.791
 8012SOL     OW24934   1.503   3.846   1.612
 8012SOL    HW124935   1.521   3.755   1.575
 8012SOL    HW224936   1.564   3.913   1.569
 8013SOL     OW24937   1.212   5.210   3.708
 8013SOL    HW124938   1.206   5.131   3.769
 8013SOL    HW224939   1.217   5.179   3.614
 8014SOL     OW24940   1.270   6.684   5.212
 8014SOL    HW124941   1.172   6.690   5.194
 8014SOL    HW224942   1.284   6.642   5.302
 8015SOL     OW24943   2.533   0.971   0.425
 8015SOL    HW124944   2.433   0.982   0.424
 8015SOL    HW224945   2.573   1.033   0.358
 8016SOL     OW24946   5.510   0.084   6.028
 8016SOL    HW124947   5.529   0.181   6.042
 8016SOL    HW224948   5.594   0.031   6.040
 8017SOL     OW24949   5.775   0.184   0.679
 8017SOL    HW124950   5.853   0.173   0.741
 8017SOL    HW224951   5.690   0.169   0.729
 8018SOL     OW24952   3.056   1.920   5.436
 8018SOL    HW124953   3.121   1.968   5.377
 8018SOL    HW224954   2.963   1.940   5.407
 8019SOL     OW24955   2.370   4.643   6.262
 8019SOL    HW124956   2.354   4.544   6.260
 8019SOL    HW224957   2.300   4.689   6.208
 8020SOL     OW24958   5.919   0.514   0.938
 8020SOL    HW124959   5.958   0.593   0.985
 8020SOL    HW224960   5.820   0.513   0.952
 8021SOL     OW24961   1.314   2.614   1.208
 8021SOL    HW124962   1.315   2.687   1.140
 8021SOL    HW224963   1.244   2.547   1.184
 8022SOL     OW24964   5.334   6.534   2.828
 8022SOL    HW124965   5.334   6.582   2.740
 8022SOL    HW224966   5.277   6.584   2.893
 8023SOL     OW24967   5.810   5.749   2.868
 8023SOL    HW124968   5.777   5.657   2.847
 8023SOL    HW224969   5.907   5.745   2.893
 8024SOL     OW24970   2.986   5.144   6.993
 8024SOL    HW124971   2.924   5.218   0.002
 8024SOL    HW224972   2.975   5.126   6.896
 8025SOL     OW24973   2.351   6.762   6.818
 8025SOL    HW124974   2.428   6.806   6.772
 8025SOL    HW224975   2.372   6.752   6.916
 8026SOL     OW24976   0.896   4.351   6.680
 8026SOL    HW124977   0.971   4.285   6.689
 8026SOL    HW224978   0.811   4.303   6.661
 8027SOL     OW24979   4.740   0.680   5.587
 8027SOL    HW124980   4.725   0.633   5.500
 8027SOL    HW224981   4.722   0.778   5.575
 8028SOL     OW24982   2.972   5.391   4.749
 8028SOL    HW124983   3.022   5.345   4.822
 8028SOL    HW224984   2.946   5.325   4.679
 8029SOL     OW24985   5.047   3.049   1.672
 8029SOL    HW124986   5.111   2.984   1.714
 8029SOL    HW224987   4.993   3.094   1.743
 8030SOL     OW24988   4.359   4.626   0.799
 8030SOL    HW124989   4.282   4.562   0.801
 8030SOL    HW224990   4.325   4.718   0.782
 8031SOL     OW24991   5.837   6.592   2.406
 8031SOL    HW124992   5.847   6.687   2.435
 8031SOL    HW224993   5.757   6.584   2.347
 8032SOL     OW24994   6.883   5.190   0.644
 8032SOL    HW124995   6.855   5.094   0.649
 8032SOL    HW224996   6.959   5.205   0.709
 8033SOL     OW24997   5.034   1.844   5.777
 8033SOL    HW124998   5.096   1.824   5.701
 8033SOL    HW224999   4.985   1.760   5.802
 8034SOL     OW25000   5.562   6.820   4.799
 8034SOL    HW125001   5.653   6.795   4.830
 8034SOL    HW225002   5.497   6.813   4.875
 8035SOL     OW25003   5.033   1.478   4.345
 8035SOL    HW125004   5.013   1.561   4.293
 8035SOL    HW225005   5.123   1.486   4.387
 8036SOL     OW25006   0.701   4.186   2.966
 8036SOL    HW125007   0.780   4.206   2.909
 8036SOL    HW225008   0.617   4.205   2.916
 8037SOL     OW25009   1.451   3.047   0.885
 8037SOL    HW125010   1.529   2.987   0.900
 8037SOL    HW225011   1.484   3.140   0.870
 8038SOL     OW25012   3.991   0.127   2.073
 8038SOL    HW125013   3.944   0.041   2.055
 8038SOL    HW225014   3.940   0.202   2.031
 8039SOL     OW25015   0.832   1.670   4.419
 8039SOL    HW125016   0.895   1.681   4.496
 8039SOL    HW225017   0.883   1.671   4.333
 8040SOL     OW25018   1.685   6.075   0.412
 8040SOL    HW125019   1.780   6.047   0.427
 8040SOL    HW225020   1.626   5.994   0.414
 8041SOL     OW25021   3.035   1.452   2.095
 8041SOL    HW125022   3.092   1.411   2.024
 8041SOL    HW225023   3.034   1.551   2.083
 8042SOL     OW25024   2.901   3.537   3.660
 8042SOL    HW125025   2.904   3.586   3.747
 8042SOL    HW225026   2.875   3.600   3.587
 8043SOL     OW25027   4.489   6.731   2.441
 8043SOL    HW125028   4.529   6.810   2.488
 8043SOL    HW225029   4.390   6.732   2.453
 8044SOL     OW25030   3.947   2.714   1.206
 8044SOL    HW125031   4.045   2.693   1.203
 8044SOL    HW225032   3.903   2.658   1.276
 8045SOL     OW25033   5.095   1.146   2.205
 8045SOL    HW125034   5.185   1.189   2.211
 8045SOL    HW225035   5.051   1.172   2.119
 8046SOL     OW25036   0.590   5.113   0.919
 8046SOL    HW125037   0.685   5.100   0.946
 8046SOL    HW225038   0.573   5.066   0.832
 8047SOL     OW25039   3.972   5.524   4.285
 8047SOL    HW125040   4.002   5.506   4.379
 8047SOL    HW225041   3.899   5.592   4.286
 8048SOL     OW25042   5.080   0.946   5.692
 8048SOL    HW125043   5.128   1.013   5.749
 8048SOL    HW225044   5.031   0.881   5.750
 8049SOL     OW25045   0.570   0.137   6.941
 8049SOL    HW125046   0.482   0.121   6.896
 8049SOL    HW225047   0.627   0.197   6.884
 8050SOL     OW25048   1.704   3.871   3.121
 8050SOL    HW125049   1.675   3.964   3.146
 8050SOL    HW225050   1.676   3.851   3.027
 8051SOL     OW25051   4.457   6.088   3.102
 8051SOL    HW125052   4.526   6.115   3.036
 8051SOL    HW225053   4.465   5.991   3.122
 8052SOL     OW25054   4.741   1.718   1.813
 8052SOL    HW125055   4.717   1.814   1.798
 8052SOL    HW225056   4.657   1.663   1.817
 8053SOL     OW25057   2.921   3.692   3.177
 8053SOL    HW125058   2.909   3.736   3.088
 8053SOL    HW225059   3.008   3.643   3.178
 8054SOL     OW25060   4.916   0.159   4.756
 8054SOL    HW125061   4.998   0.153   4.699
 8054SOL    HW225062   4.918   0.085   4.824
 8055SOL     OW25063   6.943   0.318   5.275
 8055SOL    HW125064   6.876   0.297   5.204
 8055SOL    HW225065   6.974   0.233   5.319
 8056SOL     OW25066   3.200   1.668   4.316
 8056SOL    HW125067   3.264   1.725   4.368
 8056SOL    HW225068   3.108   1.679   4.353
 8057SOL     OW25069   3.061   1.482   3.281
 8057SOL    HW125070   3.108   1.525   3.204
 8057SOL    HW225071   3.016   1.552   3.337
 8058SOL     OW25072   4.363   0.675   1.778
 8058SOL    HW125073   4.275   0.703   1.738
 8058SOL    HW225074   4.361   0.691   1.877
 8059SOL     OW25075   3.563   1.832   4.732
 8059SOL    HW125076   3.622   1.779   4.793
 8059SOL    HW225077   3.552   1.924   4.768
 8060SOL     OW25078   6.551   2.293   3.986
 8060SOL    HW125079   6.458   2.259   3.973
 8060SOL    HW225080   6.615   2.217   3.982
 8061SOL     OW25081   0.517   1.279   3.006
 8061SOL    HW125082   0.460   1.276   2.923
 8061SOL    HW225083   0.525   1.373   3.037
 8062SOL     OW25084   3.544   5.209   4.148
 8062SOL    HW125085   3.598   5.126   4.158
 8062SOL    HW225086   3.569   5.256   4.064
 8063SOL     OW25087   0.807   2.183   1.637
 8063SOL    HW125088   0.899   2.153   1.664
 8063SOL    HW225089   0.789   2.273   1.676
 8064SOL     OW25090   0.210   4.180   2.102
 8064SOL    HW125091   0.211   4.201   2.004
 8064SOL    HW225092   0.191   4.264   2.153
 8065SOL     OW25093   2.638   5.613   3.713
 8065SOL    HW125094   2.632   5.713   3.710
 8065SOL    HW225095   2.562   5.574   3.662
 8066SOL     OW25096   6.943   2.371   5.714
 8066SOL    HW125097   6.896   2.326   5.790
 8066SOL    HW225098   6.918   2.325   5.629
 8067SOL     OW25099   4.429   2.762   1.683
 8067SOL    HW125100   4.467   2.852   1.705
 8067SOL    HW225101   4.494   2.691   1.711
 8068SOL     OW25102   6.936   4.222   0.750
 8068SOL    HW125103   6.855   4.263   0.708
 8068SOL    HW225104   6.976   4.286   0.815
 8069SOL     OW25105   1.887   6.467   1.316
 8069SOL    HW125106   1.969   6.490   1.368
 8069SOL    HW225107   1.902   6.382   1.266
 8070SOL     OW25108   3.384   3.061   0.020
 8070SOL    HW125109   3.290   3.032   0.038
 8070SOL    HW225110   3.417   3.114   0.098
 8071SOL     OW25111   2.584   6.333   4.800
 8071SOL    HW125112   2.498   6.334   4.852
 8071SOL    HW225113   2.627   6.243   4.809
 8072SOL     OW25114   3.017   0.619   0.073
 8072SOL    HW125115   3.005   0.681   0.150
 8072SOL    HW225116   2.981   0.529   0.097
 8073SOL     OW25117   3.369   5.407   4.458
 8073SOL    HW125118   3.443   5.452   4.408
 8073SOL    HW225119   3.408   5.335   4.517
 8074SOL     OW25120   4.000   2.301   0.833
 8074SOL    HW125121   3.992   2.373   0.902
 8074SOL    HW225122   4.089   2.307   0.788
 8075SOL     OW25123   0.178   0.598   1.020
 8075SOL    HW125124   0.167   0.666   1.093
 8075SOL    HW225125   0.274   0.571   1.012
 8076SOL     OW25126   5.791   2.095   5.379
 8076SOL    HW125127   5.715   2.031   5.380
 8076SOL    HW225128   5.766   2.180   5.426
 8077SOL     OW25129   2.732   5.800   1.783
 8077SOL    HW125130   2.783   5.759   1.707
 8077SOL    HW225131   2.711   5.730   1.851
 8078SOL     OW25132   6.611   1.384   0.079
 8078SOL    HW125133   6.534   1.331   0.114
 8078SOL    HW225134   6.653   1.336   0.002
 8079SOL     OW25135   4.712   1.231   3.220
 8079SOL    HW125136   4.677   1.165   3.153
 8079SOL    HW225137   4.804   1.205   3.248
 8080SOL     OW25138   0.575   2.856   0.580
 8080SOL    HW125139   0.626   2.933   0.619
 8080SOL    HW225140   0.629   2.772   0.591
 8081SOL     OW25141   5.048   6.387   4.678
 8081SOL    HW125142   5.136   6.410   4.637
 8081SOL    HW225143   5.018   6.462   4.738
 8082SOL     OW25144   4.941   6.346   1.990
 8082SOL    HW125145   4.940   6.414   2.063
 8082SOL    HW225146   4.849   6.307   1.980
 8083SOL     OW25147   4.848   3.755   2.454
 8083SOL    HW125148   4.919   3.691   2.423
 8083SOL    HW225149   4.790   3.710   2.522
 8084SOL     OW25150   5.112   0.128   0.434
 8084SOL    HW125151   5.014   0.113   0.441
 8084SOL    HW225152   5.158   0.042   0.413
 8085SOL     OW25153   6.425   5.986   2.021
 8085SOL    HW125154   6.464   5.950   1.936
 8085SOL    HW225155   6.354   5.923   2.054
 8086SOL     OW25156   4.971   1.104   3.501
 8086SOL    HW125157   5.006   1.011   3.493
 8086SOL    HW225158   5.002   1.144   3.587
 8087SOL     OW25159   2.454   1.563   0.311
 8087SOL    HW125160   2.541   1.514   0.311
 8087SOL    HW225161   2.469   1.658   0.339
 8088SOL     OW25162   5.032   2.592   1.298
 8088SOL    HW125163   5.079   2.677   1.276
 8088SOL    HW225164   5.012   2.588   1.396
 8089SOL     OW25165   5.387   2.028   0.531
 8089SOL    HW125166   5.357   1.976   0.452
 8089SOL    HW225167   5.311   2.039   0.595
 8090SOL     OW25168   4.832   1.966   0.154
 8090SOL    HW125169   4.904   1.949   0.087
 8090SOL    HW225170   4.797   2.059   0.142
 8091SOL     OW25171   2.407   3.566   5.629
 8091SOL    HW125172   2.444   3.652   5.595
 8091SOL    HW225173   2.356   3.583   5.713
 8092SOL     OW25174   6.290   2.591   5.392
 8092SOL    HW125175   6.284   2.661   5.322
 8092SOL    HW225176   6.262   2.630   5.480
 8093SOL     OW25177   3.617   5.277   2.934
 8093SOL    HW125178   3.544   5.323   2.883
 8093SOL    HW225179   3.627   5.184   2.900
 8094SOL     OW25180   1.590   3.703   5.208
 8094SOL    HW125181   1.604   3.787   5.261
 8094SOL    HW225182   1.506   3.711   5.154
 8095SOL     OW25183   6.683   4.424   5.484
 8095SOL    HW125184   6.695   4.369   5.402
 8095SOL    HW225185   6.772   4.459   5.514
 8096SOL     OW25186   2.674   6.198   3.169
 8096SOL    HW125187   2.727   6.192   3.253
 8096SOL    HW225188   2.733   6.179   3.091
 8097SOL     OW25189   4.406   6.882   3.616
 8097SOL    HW125190   4.368   6.973   3.632
 8097SOL    HW225191   4.334   6.813   3.624
 8098SOL     OW25192   1.639   0.152   3.411
 8098SOL    HW125193   1.657   0.249   3.394
 8098SOL    HW225194   1.560   0.143   3.472
 8099SOL     OW25195   4.208   0.322   4.342
 8099SOL    HW125196   4.202   0.237   4.393
 8099SOL    HW225197   4.118   0.365   4.337
 8100SOL     OW25198   6.051   0.633   0.679
 8100SOL    HW125199   6.034   0.541   0.713
 8100SOL    HW225200   6.052   0.632   0.579
 8101SOL     OW25201   1.951   0.363   3.523
 8101SOL    HW125202   1.865   0.335   3.481
 8101SOL    HW225203   1.977   0.453   3.490
 8102SOL     OW25204   0.503   4.631   4.453
 8102SOL    HW125205   0.574   4.702   4.457
 8102SOL    HW225206   0.454   4.629   4.540
 8103SOL     OW25207   3.910   0.083   1.427
 8103SOL    HW125208   3.918   0.091   1.527
 8103SOL    HW225209   3.977   0.143   1.384
 8104SOL     OW25210   2.864   0.625   5.829
 8104SOL    HW125211   2.956   0.587   5.839
 8104SOL    HW225212   2.820   0.586   5.748
 8105SOL     OW25213   0.807   2.287   3.311
 8105SOL    HW125214   0.898   2.286   3.271
 8105SOL    HW225215   0.751   2.357   3.266
 8106SOL     OW25216   1.980   6.158   2.737
 8106SOL    HW125217   2.011   6.217   2.812
 8106SOL    HW225218   2.010   6.196   2.650
 8107SOL     OW25219   0.504   5.085   4.609
 8107SOL    HW125220   0.568   5.156   4.639
 8107SOL    HW225221   0.531   5.053   4.518
 8108SOL     OW25222   6.175   3.130   5.352
 8108SOL    HW125223   6.127   3.065   5.411
 8108SOL    HW225224   6.119   3.211   5.339
 8109SOL     OW25225   1.529   4.102   4.307
 8109SOL    HW125226   1.597   4.034   4.283
 8109SOL    HW225227   1.494   4.084   4.399
 8110SOL     OW25228   3.524   6.324   0.697
 8110SOL    HW125229   3.569   6.375   0.770
 8110SOL    HW225230   3.428   6.308   0.722
 8111SOL     OW25231   4.410   0.610   4.670
 8111SOL    HW125232   4.461   0.595   4.754
 8111SOL    HW225233   4.462   0.575   4.592
 8112SOL     OW25234   2.483   2.446   4.623
 8112SOL    HW125235   2.406   2.470   4.682
 8112SOL    HW225236   2.549   2.391   4.674
 8113SOL     OW25237   2.922   3.293   0.993
 8113SOL    HW125238   2.901   3.214   1.050
 8113SOL    HW225239   2.887   3.277   0.900
 8114SOL     OW25240   2.023   3.625   1.962
 8114SOL    HW125241   2.102   3.566   1.980
 8114SOL    HW225242   1.942   3.584   2.004
 8115SOL     OW25243   3.409   0.127   0.259
 8115SOL    HW125244   3.363   0.145   0.172
 8115SOL    HW225245   3.412   0.210   0.313
 8116SOL     OW25246   4.312   5.744   5.877
 8116SOL    HW125247   4.213   5.754   5.882
 8116SOL    HW225248   4.351   5.825   5.834
 8117SOL     OW25249   1.990   0.899   3.905
 8117SOL    HW125250   1.963   0.851   3.989
 8117SOL    HW225251   1.950   0.991   3.905
 8118SOL     OW25252   5.940   4.211   5.945
 8118SOL    HW125253   5.874   4.285   5.933
 8118SOL    HW225254   5.913   4.133   5.888
 8119SOL     OW25255   5.945   6.172   5.598
 8119SOL    HW125256   5.929   6.253   5.542
 8119SOL    HW225257   5.861   6.119   5.605
 8120SOL     OW25258   2.264   4.986   0.318
 8120SOL    HW125259   2.184   4.976   0.258
 8120SOL    HW225260   2.347   4.985   0.263
 8121SOL     OW25261   0.468   4.441   1.848
 8121SOL    HW125262   0.507   4.363   1.898
 8121SOL    HW225263   0.477   4.524   1.903
 8122SOL     OW25264   1.352   5.880   2.281
 8122SOL    HW125265   1.293   5.820   2.334
 8122SOL    HW225266   1.434   5.901   2.334
 8123SOL     OW25267   6.576   0.555   6.999
 8123SOL    HW125268   6.565   0.623   6.926
 8123SOL    HW225269   6.563   0.599   0.069
 8124SOL     OW25270   6.819   6.475   1.012
 8124SOL    HW125271   6.744   6.423   0.970
 8124SOL    HW225272   6.798   6.573   1.005
 8125SOL     OW25273   1.120   0.778   4.135
 8125SOL    HW125274   1.036   0.773   4.189
 8125SOL    HW225275   1.186   0.711   4.170
 8126SOL     OW25276   5.544   4.708   2.730
 8126SOL    HW125277   5.589   4.636   2.782
 8126SOL    HW225278   5.612   4.762   2.681
 8127SOL     OW25279   3.014   6.321   6.384
 8127SOL    HW125280   2.935   6.381   6.389
 8127SOL    HW225281   3.097   6.374   6.402
 8128SOL     OW25282   2.584   2.463   1.574
 8128SOL    HW125283   2.647   2.539   1.556
 8128SOL    HW225284   2.601   2.426   1.665
 8129SOL     OW25285   4.283   0.807   6.187
 8129SOL    HW125286   4.211   0.807   6.257
 8129SOL    HW225287   4.272   0.887   6.129
 8130SOL     OW25288   0.155   3.840   6.652
 8130SOL    HW125289   0.220   3.798   6.715
 8130SOL    HW225290   0.205   3.883   6.577
 8131SOL     OW25291   3.307   1.599   0.728
 8131SOL    HW125292   3.360   1.673   0.687
 8131SOL    HW225293   3.306   1.521   0.666
 8132SOL     OW25294   5.658   6.366   5.934
 8132SOL    HW125295   5.609   6.334   6.015
 8132SOL    HW225296   5.727   6.299   5.908
 8133SOL     OW25297   2.922   4.873   1.461
 8133SOL    HW125298   2.918   4.807   1.386
 8133SOL    HW225299   2.943   4.825   1.547
 8134SOL     OW25300   0.842   2.707   5.224
 8134SOL    HW125301   0.804   2.667   5.307
 8134SOL    HW225302   0.768   2.720   5.157
 8135SOL     OW25303   2.720   5.894   0.881
 8135SOL    HW125304   2.795   5.910   0.817
 8135SOL    HW225305   2.638   5.943   0.850
 8136SOL     OW25306   4.728   4.831   3.128
 8136SOL    HW125307   4.771   4.822   3.217
 8136SOL    HW225308   4.641   4.880   3.138
 8137SOL     OW25309   3.328   1.398   4.850
 8137SOL    HW125310   3.282   1.320   4.893
 8137SOL    HW225311   3.290   1.483   4.886
 8138SOL     OW25312   6.265   2.044   0.197
 8138SOL    HW125313   6.186   2.102   0.179
 8138SOL    HW225314   6.317   2.081   0.274
 8139SOL     OW25315   1.380   1.473   3.985
 8139SOL    HW125316   1.334   1.482   3.896
 8139SOL    HW225317   1.359   1.384   4.025
 8140SOL     OW25318   4.577   0.033   0.882
 8140SOL    HW125319   4.676   0.038   0.890
 8140SOL    HW225320   4.551   6.964   0.841
 8141SOL     OW25321   4.499   6.305   5.176
 8141SOL    HW125322   4.494   6.357   5.262
 8141SOL    HW225323   4.510   6.208   5.196
 8142SOL     OW25324   1.808   5.489   0.096
 8142SOL    HW125325   1.812   5.392   0.072
 8142SOL    HW225326   1.725   5.506   0.149
 8143SOL     OW25327   6.612   4.641   0.106
 8143SOL    HW125328   6.593   4.544   0.098
 8143SOL    HW225329   6.547   4.693   0.050
 8144SOL     OW25330   0.544   6.312   5.974
 8144SOL    HW125331   0.473   6.309   5.903
 8144SOL    HW225332   0.533   6.233   6.035
 8145SOL     OW25333   5.495   5.127   0.985
 8145SOL    HW125334   5.528   5.215   1.018
 8145SOL    HW225335   5.565   5.084   0.928
 8146SOL     OW25336   5.264   0.756   5.443
 8146SOL    HW125337   5.180   0.716   5.480
 8146SOL    HW225338   5.252   0.855   5.432
 8147SOL     OW25339   6.626   1.340   2.419
 8147SOL    HW125340   6.663   1.286   2.343
 8147SOL    HW225341   6.614   1.435   2.388
 8148SOL     OW25342   5.223   4.452   0.446
 8148SOL    HW125343   5.170   4.535   0.433
 8148SOL    HW225344   5.296   4.448   0.377
 8149SOL     OW25345   2.074   6.193   3.262
 8149SOL    HW125346   2.012   6.234   3.196
 8149SOL    HW225347   2.027   6.120   3.312
 8150SOL     OW25348   1.859   3.586   0.935
 8150SOL    HW125349   1.800   3.665   0.917
 8150SOL    HW225350   1.858   3.524   0.856
 8151SOL     OW25351   5.847   4.853   3.077
 8151SOL    HW125352   5.803   4.841   3.166
 8151SOL    HW225353   5.852   4.764   3.030
 8152SOL     OW25354   6.102   2.257   3.221
 8152SOL    HW125355   6.007   2.288   3.225
 8152SOL    HW225356   6.141   2.256   3.314
 8153SOL     OW25357   1.422   1.842   3.792
 8153SOL    HW125358   1.366   1.825   3.873
 8153SOL    HW225359   1.387   1.788   3.715
 8154SOL     OW25360   3.801   6.316   2.385
 8154SOL    HW125361   3.736   6.285   2.455
 8154SOL    HW225362   3.798   6.415   2.378
 8155SOL     OW25363   1.477   3.073   1.833
 8155SOL    HW125364   1.504   2.980   1.857
 8155SOL    HW225365   1.387   3.093   1.872
 8156SOL     OW25366   5.041   6.480   0.580
 8156SOL    HW125367   5.086   6.530   0.506
 8156SOL    HW225368   4.992   6.544   0.638
 8157SOL     OW25369   6.466   4.850   5.935
 8157SOL    HW125370   6.565   4.848   5.927
 8157SOL    HW225371   6.439   4.808   6.022
 8158SOL     OW25372   4.978   4.176   0.147
 8158SOL    HW125373   5.035   4.205   0.224
 8158SOL    HW225374   5.033   4.126   0.081
 8159SOL     OW25375   2.113   5.561   2.833
 8159SOL    HW125376   2.118   5.546   2.932
 8159SOL    HW225377   2.205   5.566   2.795
 8160SOL     OW25378   5.544   0.758   3.931
 8160SOL    HW125379   5.485   0.689   3.890
 8160SOL    HW225380   5.488   0.820   3.987
 8161SOL     OW25381   6.465   3.069   6.603
 8161SOL    HW125382   6.489   3.166   6.593
 8161SOL    HW225383   6.431   3.052   6.695
 8162SOL     OW25384   6.261   6.677   6.985
 8162SOL    HW125385   6.211   6.645   6.905
 8162SOL    HW225386   6.342   6.620   6.999
 8163SOL     OW25387   2.621   4.207   5.383
 8163SOL    HW125388   2.618   4.111   5.355
 8163SOL    HW225389   2.713   4.242   5.370
 8164SOL     OW25390   5.329   2.621   0.211
 8164SOL    HW125391   5.339   2.540   0.154
 8164SOL    HW225392   5.384   2.696   0.173
 8165SOL     OW25393   0.309   3.700   5.960
 8165SOL    HW125394   0.344   3.668   5.872
 8165SOL    HW225395   0.222   3.655   5.980
 8166SOL     OW25396   1.338   0.400   3.533
 8166SOL    HW125397   1.369   0.468   3.467
 8166SOL    HW225398   1.245   0.422   3.563
 8167SOL     OW25399   6.820   0.390   3.878
 8167SOL    HW125400   6.806   0.291   3.876
 8167SOL    HW225401   6.736   0.436   3.849
 8168SOL     OW25402   3.015   1.708   2.554
 8168SOL    HW125403   2.983   1.775   2.622
 8168SOL    HW225404   3.080   1.751   2.492
 8169SOL     OW25405   5.036   2.068   0.382
 8169SOL    HW125406   4.942   2.055   0.352
 8169SOL    HW225407   5.049   2.163   0.411
 8170SOL     OW25408   1.184   5.601   2.105
 8170SOL    HW125409   1.216   5.588   2.198
 8170SOL    HW225410   1.252   5.654   2.053
 8171SOL     OW25411   1.787   1.739   6.339
 8171SOL    HW125412   1.863   1.696   6.291
 8171SOL    HW225413   1.714   1.760   6.274
 8172SOL     OW25414   0.327   1.977   2.130
 8172SOL    HW125415   0.326   1.883   2.096
 8172SOL    HW225416   0.250   1.991   2.192
 8173SOL     OW25417   5.592   2.009   2.057
 8173SOL    HW125418   5.575   1.930   2.116
 8173SOL    HW225419   5.529   2.006   1.979
 8174SOL     OW25420   6.215   0.987   2.693
 8174SOL    HW125421   6.220   1.085   2.711
 8174SOL    HW225422   6.141   0.968   2.629
 8175SOL     OW25423   0.463   3.056   5.723
 8175SOL    HW125424   0.384   3.103   5.762
 8175SOL    HW225425   0.435   3.002   5.644
 8176SOL     OW25426   1.955   5.028   1.203
 8176SOL    HW125427   2.052   5.015   1.221
 8176SOL    HW225428   1.943   5.063   1.110
 8177SOL     OW25429   3.686   6.321   3.684
 8177SOL    HW125430   3.696   6.420   3.672
 8177SOL    HW225431   3.589   6.297   3.675
 8178SOL     OW25432   2.893   6.564   0.429
 8178SOL    HW125433   2.812   6.586   0.482
 8178SOL    HW225434   2.879   6.477   0.380
 8179SOL     OW25435   4.628   2.023   4.720
 8179SOL    HW125436   4.593   2.022   4.813
 8179SOL    HW225437   4.566   2.077   4.662
 8180SOL     OW25438   6.281   0.942   5.201
 8180SOL    HW125439   6.373   0.923   5.168
 8180SOL    HW225440   6.256   0.873   5.269
 8181SOL     OW25441   1.546   1.714   0.585
 8181SOL    HW125442   1.515   1.667   0.668
 8181SOL    HW225443   1.488   1.794   0.568
 8182SOL     OW25444   3.702   3.596   5.962
 8182SOL    HW125445   3.673   3.549   6.045
 8182SOL    HW225446   3.645   3.676   5.947
 8183SOL     OW25447   6.635   2.311   5.062
 8183SOL    HW125448   6.727   2.320   5.025
 8183SOL    HW225449   6.602   2.400   5.093
 8184SOL     OW25450   6.403   0.727   0.569
 8184SOL    HW125451   6.481   0.789   0.576
 8184SOL    HW225452   6.413   0.654   0.637
 8185SOL     OW25453   1.785   0.202   0.151
 8185SOL    HW125454   1.801   0.211   0.053
 8185SOL    HW225455   1.781   0.105   0.175
 8186SOL     OW25456   3.662   4.671   5.324
 8186SOL    HW125457   3.595   4.744   5.335
 8186SOL    HW225458   3.715   4.687   5.241
 8187SOL     OW25459   1.811   1.799   5.051
 8187SOL    HW125460   1.807   1.768   5.145
 8187SOL    HW225461   1.782   1.895   5.046
 8188SOL     OW25462   5.762   2.962   2.981
 8188SOL    HW125463   5.709   2.910   2.914
 8188SOL    HW225464   5.856   2.974   2.946
 8189SOL     OW25465   5.186   4.593   3.040
 8189SOL    HW125466   5.205   4.500   3.009
 8189SOL    HW225467   5.234   4.658   2.982
 8190SOL     OW25468   5.018   5.039   4.438
 8190SOL    HW125469   4.919   5.038   4.422
 8190SOL    HW225470   5.055   4.948   4.423
 8191SOL     OW25471   3.454   6.002   1.700
 8191SOL    HW125472   3.463   5.988   1.798
 8191SOL    HW225473   3.363   6.040   1.680
 8192SOL     OW25474   3.644   5.032   0.498
 8192SOL    HW125475   3.630   5.130   0.484
 8192SOL    HW225476   3.731   5.004   0.459
 8193SOL     OW25477   6.753   5.890   5.308
 8193SOL    HW125478   6.712   5.905   5.398
 8193SOL    HW225479   6.771   5.978   5.264
 8194SOL     OW25480   5.085   2.221   0.696
 8194SOL    HW125481   5.114   2.127   0.712
 8194SOL    HW225482   5.013   2.246   0.761
 8195SOL     OW25483   1.745   0.508   2.469
 8195SOL    HW125484   1.646   0.520   2.466
 8195SOL    HW225485   1.769   0.440   2.539
 8196SOL     OW25486   3.784   5.612   6.094
 8196SOL    HW125487   3.738   5.690   6.136
 8196SOL    HW225488   3.880   5.611   6.123
 8197SOL     OW25489   4.437   1.695   0.347
 8197SOL    HW125490   4.481   1.702   0.257
 8197SOL    HW225491   4.364   1.627   0.344
 8198SOL     OW25492   3.157   6.745   2.852
 8198SOL    HW125493   3.090   6.690   2.902
 8198SOL    HW225494   3.110   6.807   2.789
 8199SOL     OW25495   6.265   3.157   6.326
 8199SOL    HW125496   6.210   3.158   6.409
 8199SOL    HW225497   6.267   3.248   6.285
 8200SOL     OW25498   5.572   4.654   1.985
 8200SOL    HW125499   5.574   4.555   1.972
 8200SOL    HW225500   5.656   4.684   2.030
 8201SOL     OW25501   5.773   0.631   4.018
 8201SOL    HW125502   5.690   0.685   4.003
 8201SOL    HW225503   5.783   0.612   4.116
 8202SOL     OW25504   0.535   5.947   3.969
 8202SOL    HW125505   0.583   5.871   4.012
 8202SOL    HW225506   0.438   5.924   3.959
 8203SOL     OW25507   3.790   2.627   0.187
 8203SOL    HW125508   3.816   2.605   0.281
 8203SOL    HW225509   3.872   2.653   0.135
 8204SOL     OW25510   3.193   4.810   6.545
 8204SOL    HW125511   3.272   4.803   6.484
 8204SOL    HW225512   3.119   4.858   6.499
 8205SOL     OW25513   0.523   4.804   0.307
 8205SOL    HW125514   0.459   4.786   0.382
 8205SOL    HW225515   0.477   4.861   0.238
 8206SOL     OW25516   5.065   2.676   6.129
 8206SOL    HW125517   4.986   2.728   6.161
 8206SOL    HW225518   5.132   2.738   6.089
 8207SOL     OW25519   3.460   4.090   4.203
 8207SOL    HW125520   3.421   4.020   4.263
 8207SOL    HW225521   3.421   4.081   4.112
 8208SOL     OW25522   1.898   0.076   1.145
 8208SOL    HW125523   1.821   0.135   1.118
 8208SOL    HW225524   1.948   0.119   1.220
 8209SOL     OW25525   0.530   1.221   5.257
 8209SOL    HW125526   0.468   1.180   5.324
 8209SOL    HW225527   0.487   1.302   5.218
 8210SOL     OW25528   1.849   1.346   1.486
 8210SOL    HW125529   1.859   1.360   1.387
 8210SOL    HW225530   1.888   1.257   1.511
 8211SOL     OW25531   3.844   4.026   1.642
 8211SOL    HW125532   3.827   4.095   1.712
 8211SOL    HW225533   3.834   4.067   1.552
 8212SOL     OW25534   2.334   1.619   2.163
 8212SOL    HW125535   2.327   1.536   2.218
 8212SOL    HW225536   2.420   1.665   2.182
 8213SOL     OW25537   6.551   4.474   2.547
 8213SOL    HW125538   6.601   4.460   2.632
 8213SOL    HW225539   6.544   4.387   2.498
 8214SOL     OW25540   6.893   5.504   5.033
 8214SOL    HW125541   6.972   5.465   4.986
 8214SOL    HW225542   6.851   5.574   4.976
 8215SOL     OW25543   2.520   5.705   6.206
 8215SOL    HW125544   2.497   5.638   6.136
 8215SOL    HW225545   2.463   5.689   6.287
 8216SOL     OW25546   5.071   5.128   3.783
 8216SOL    HW125547   5.091   5.219   3.747
 8216SOL    HW225548   5.053   5.134   3.881
 8217SOL     OW25549   1.989   3.964   1.092
 8217SOL    HW125550   2.029   4.008   1.172
 8217SOL    HW225551   2.058   3.907   1.047
 8218SOL     OW25552   0.243   6.908   5.081
 8218SOL    HW125553   0.278   6.993   5.120
 8218SOL    HW225554   0.254   6.834   5.148
 8219SOL     OW25555   3.723   3.222   0.208
 8219SOL    HW125556   3.712   3.304   0.152
 8219SOL    HW225557   3.775   3.244   0.290
 8220SOL     OW25558   3.381   4.047   3.955
 8220SOL    HW125559   3.286   4.051   3.986
 8220SOL    HW225560   3.399   3.958   3.912
 8221SOL     OW25561   5.914   6.088   3.220
 8221SOL    HW125562   5.850   6.042   3.158
 8221SOL    HW225563   5.939   6.177   3.182
 8222SOL     OW25564   5.153   1.500   1.307
 8222SOL    HW125565   5.089   1.443   1.256
 8222SOL    HW225566   5.244   1.459   1.304
 8223SOL     OW25567   0.949   4.383   5.177
 8223SOL    HW125568   0.985   4.465   5.223
 8223SOL    HW225569   1.025   4.331   5.139
 8224SOL     OW25570   5.210   2.421   2.361
 8224SOL    HW125571   5.159   2.498   2.323
 8224SOL    HW225572   5.267   2.380   2.289
 8225SOL     OW25573   3.491   1.648   1.335
 8225SOL    HW125574   3.410   1.593   1.313
 8225SOL    HW225575   3.469   1.745   1.323
 8226SOL     OW25576   3.694   6.299   6.645
 8226SOL    HW125577   3.681   6.313   6.743
 8226SOL    HW225578   3.718   6.203   6.628
 8227SOL     OW25579   0.326   1.077   2.296
 8227SOL    HW125580   0.242   1.060   2.348
 8227SOL    HW225581   0.376   1.153   2.338
 8228SOL     OW25582   6.644   1.501   6.063
 8228SOL    HW125583   6.640   1.452   6.150
 8228SOL    HW225584   6.728   1.475   6.015
 8229SOL     OW25585   4.717   3.630   1.248
 8229SOL    HW125586   4.746   3.713   1.201
 8229SOL    HW225587   4.751   3.632   1.342
 8230SOL     OW25588   3.774   0.003   4.977
 8230SOL    HW125589   3.766   6.922   4.972
 8230SOL    HW225590   3.683   0.044   4.972
 8231SOL     OW25591   2.980   3.189   1.347
 8231SOL    HW125592   2.956   3.138   1.264
 8231SOL    HW225593   3.067   3.236   1.333
 8232SOL     OW25594   4.781   2.379   1.902
 8232SOL    HW125595   4.872   2.338   1.910
 8232SOL    HW225596   4.716   2.310   1.870
 8233SOL     OW25597   1.407   6.757   6.375
 8233SOL    HW125598   1.319   6.713   6.391
 8233SOL    HW225599   1.404   6.809   6.290
 8234SOL     OW25600   3.029   3.766   6.794
 8234SOL    HW125601   3.113   3.820   6.789
 8234SOL    HW225602   3.014   3.736   6.888
 8235SOL     OW25603   0.618   2.893   6.723
 8235SOL    HW125604   0.646   2.901   6.819
 8235SOL    HW225605   0.660   2.812   6.682
 8236SOL     OW25606   0.627   4.705   0.665
 8236SOL    HW125607   0.564   4.675   0.593
 8236SOL    HW225608   0.694   4.633   0.683
 8237SOL     OW25609   4.720   6.150   5.832
 8237SOL    HW125610   4.683   6.061   5.804
 8237SOL    HW225611   4.665   6.223   5.791
 8238SOL     OW25612   0.582   5.215   6.372
 8238SOL    HW125613   0.500   5.207   6.315
 8238SOL    HW225614   0.559   5.265   6.456
 8239SOL     OW25615   0.371   1.134   5.492
 8239SOL    HW125616   0.366   1.064   5.563
 8239SOL    HW225617   0.333   1.220   5.528
 8240SOL     OW25618   3.648   3.864   2.510
 8240SOL    HW125619   3.682   3.849   2.603
 8240SOL    HW225620   3.614   3.957   2.502
 8241SOL     OW25621   3.358   5.916   5.665
 8241SOL    HW125622   3.411   6.000   5.657
 8241SOL    HW225623   3.284   5.929   5.731
 8242SOL     OW25624   0.325   3.976   5.999
 8242SOL    HW125625   0.344   3.880   6.021
 8242SOL    HW225626   0.226   3.990   5.997
 8243SOL     OW25627   0.541   3.511   0.814
 8243SOL    HW125628   0.527   3.440   0.882
 8243SOL    HW225629   0.639   3.521   0.796
 8244SOL     OW25630   0.399   0.678   3.711
 8244SOL    HW125631   0.346   0.599   3.742
 8244SOL    HW225632   0.415   0.740   3.787
 8245SOL     OW25633   4.086   2.209   1.966
 8245SOL    HW125634   4.004   2.216   1.910
 8245SOL    HW225635   4.092   2.118   2.007
 8246SOL     OW25636   0.739   3.853   6.065
 8246SOL    HW125637   0.701   3.841   5.973
 8246SOL    HW225638   0.834   3.886   6.057
 8247SOL     OW25639   2.068   0.804   2.959
 8247SOL    HW125640   2.039   0.709   2.945
 8247SOL    HW225641   1.996   0.865   2.926
 8248SOL     OW25642   6.799   4.968   4.612
 8248SOL    HW125643   6.789   5.066   4.593
 8248SOL    HW225644   6.885   4.952   4.659
 8249SOL     OW25645   1.723   2.042   6.041
 8249SOL    HW125646   1.797   2.106   6.062
 8249SOL    HW225647   1.739   2.001   5.952
 8250SOL     OW25648   2.735   2.679   1.520
 8250SOL    HW125649   2.709   2.707   1.428
 8250SOL    HW225650   2.727   2.756   1.583
 8251SOL     OW25651   4.827   3.083   4.725
 8251SOL    HW125652   4.876   3.003   4.758
 8251SOL    HW225653   4.847   3.161   4.784
 8252SOL     OW25654   3.406   1.755   5.867
 8252SOL    HW125655   3.504   1.753   5.883
 8252SOL    HW225656   3.382   1.688   5.797
 8253SOL     OW25657   4.100   5.442   5.937
 8253SOL    HW125658   4.071   5.475   5.847
 8253SOL    HW225659   4.074   5.508   6.007
 8254SOL     OW25660   4.427   4.537   5.467
 8254SOL    HW125661   4.387   4.549   5.558
 8254SOL    HW225662   4.520   4.575   5.466
 8255SOL     OW25663   2.088   6.129   5.369
 8255SOL    HW125664   2.095   6.229   5.363
 8255SOL    HW225665   2.099   6.089   5.279
 8256SOL     OW25666   0.105   6.402   2.175
 8256SOL    HW125667   0.147   6.454   2.100
 8256SOL    HW225668   0.136   6.307   2.171
 8257SOL     OW25669   5.095   3.750   2.652
 8257SOL    HW125670   5.133   3.740   2.560
 8257SOL    HW225671   5.085   3.847   2.673
 8258SOL     OW25672   5.147   2.851   1.228
 8258SOL    HW125673   5.154   2.919   1.155
 8258SOL    HW225674   5.195   2.884   1.309
 8259SOL     OW25675   3.832   1.681   4.845
 8259SOL    HW125676   3.760   1.620   4.877
 8259SOL    HW225677   3.902   1.690   4.916
 8260SOL     OW25678   2.284   6.768   0.900
 8260SOL    HW125679   2.369   6.720   0.922
 8260SOL    HW225680   2.213   6.741   0.965
 8261SOL     OW25681   5.603   6.586   2.627
 8261SOL    HW125682   5.682   6.567   2.569
 8261SOL    HW225683   5.541   6.648   2.580
 8262SOL     OW25684   1.279   3.021   0.264
 8262SOL    HW125685   1.281   2.945   0.198
 8262SOL    HW225686   1.309   3.104   0.218
 8263SOL     OW25687   0.430   2.468   6.281
 8263SOL    HW125688   0.364   2.521   6.335
 8263SOL    HW225689   0.454   2.385   6.331
 8264SOL     OW25690   1.996   6.283   0.958
 8264SOL    HW125691   1.921   6.331   0.914
 8264SOL    HW225692   2.052   6.238   0.888
 8265SOL     OW25693   6.642   0.702   1.569
 8265SOL    HW125694   6.648   0.717   1.667
 8265SOL    HW225695   6.673   0.783   1.520
 8266SOL     OW25696   2.242   1.065   5.128
 8266SOL    HW125697   2.249   0.981   5.074
 8266SOL    HW225698   2.317   1.127   5.103
 8267SOL     OW25699   1.576   4.054   1.291
 8267SOL    HW125700   1.652   4.026   1.232
 8267SOL    HW225701   1.611   4.086   1.379
 8268SOL     OW25702   2.556   6.595   5.889
 8268SOL    HW125703   2.457   6.584   5.886
 8268SOL    HW225704   2.600   6.508   5.865
 8269SOL     OW25705   4.185   1.932   2.163
 8269SOL    HW125706   4.146   1.935   2.255
 8269SOL    HW225707   4.245   1.852   2.154
 8270SOL     OW25708   2.833   6.416   4.388
 8270SOL    HW125709   2.851   6.422   4.487
 8270SOL    HW225710   2.887   6.485   4.341
 8271SOL     OW25711   0.117   6.991   3.043
 8271SOL    HW125712   0.190   6.951   2.987
 8271SOL    HW225713   0.149   0.058   3.083
 8272SOL     OW25714   6.140   1.644   2.828
 8272SOL    HW125715   6.049   1.645   2.788
 8272SOL    HW225716   6.140   1.700   2.911
 8273SOL     OW25717   2.614   1.511   0.952
 8273SOL    HW125718   2.656   1.517   0.862
 8273SOL    HW225719   2.631   1.421   0.992
 8274SOL     OW25720   4.050   5.453   4.546
 8274SOL    HW125721   4.149   5.465   4.561
 8274SOL    HW225722   4.003   5.450   4.634
 8275SOL     OW25723   5.197   0.464   4.462
 8275SOL    HW125724   5.266   0.479   4.533
 8275SOL    HW225725   5.191   0.544   4.403
 8276SOL     OW25726   0.568   1.926   4.992
 8276SOL    HW125727   0.488   1.932   5.051
 8276SOL    HW225728   0.558   1.990   4.916
 8277SOL     OW25729   1.295   6.102   5.581
 8277SOL    HW125730   1.243   6.081   5.664
 8277SOL    HW225731   1.366   6.169   5.603
 8278SOL     OW25732   3.457   1.398   6.791
 8278SOL    HW125733   3.478   1.341   6.871
 8278SOL    HW225734   3.363   1.430   6.797
 8279SOL     OW25735   0.797   6.986   4.483
 8279SOL    HW125736   0.878   0.004   4.437
 8279SOL    HW225737   0.720   0.029   4.469
 8280SOL     OW25738   2.729   2.529   0.704
 8280SOL    HW125739   2.824   2.543   0.732
 8280SOL    HW225740   2.672   2.516   0.785
 8281SOL     OW25741   2.109   4.405   1.678
 8281SOL    HW125742   2.139   4.478   1.616
 8281SOL    HW225743   2.038   4.350   1.632
 8282SOL     OW25744   4.494   3.831   6.703
 8282SOL    HW125745   4.562   3.761   6.721
 8282SOL    HW225746   4.496   3.900   6.775
 8283SOL     OW25747   1.433   4.858   5.198
 8283SOL    HW125748   1.441   4.919   5.277
 8283SOL    HW225749   1.367   4.897   5.133
 8284SOL     OW25750   1.056   3.839   1.861
 8284SOL    HW125751   1.119   3.808   1.790
 8284SOL    HW225752   1.108   3.865   1.942
 8285SOL     OW25753   3.645   4.147   4.442
 8285SOL    HW125754   3.607   4.238   4.458
 8285SOL    HW225755   3.627   4.119   4.348
 8286SOL     OW25756   5.185   1.822   4.837
 8286SOL    HW125757   5.157   1.781   4.750
 8286SOL    HW225758   5.118   1.891   4.864
 8287SOL     OW25759   1.181   5.029   4.644
 8287SOL    HW125760   1.186   4.954   4.578
 8287SOL    HW225761   1.139   4.996   4.728
 8288SOL     OW25762   2.663   2.308   2.211
 8288SOL    HW125763   2.716   2.237   2.258
 8288SOL    HW225764   2.706   2.330   2.124
 8289SOL     OW25765   0.804   6.676   6.304
 8289SOL    HW125766   0.805   6.610   6.229
 8289SOL    HW225767   0.880   6.741   6.293
 8290SOL     OW25768   5.412   1.643   1.062
 8290SOL    HW125769   5.385   1.728   1.017
 8290SOL    HW225770   5.400   1.566   1.000
 8291SOL     OW25771   5.102   4.763   5.457
 8291SOL    HW125772   5.140   4.670   5.451
 8291SOL    HW225773   5.151   4.823   5.393
 8292SOL     OW25774   3.204   6.186   6.760
 8292SOL    HW125775   3.285   6.244   6.758
 8292SOL    HW225776   3.179   6.159   6.667
 8293SOL     OW25777   1.937   5.485   1.030
 8293SOL    HW125778   1.954   5.469   1.127
 8293SOL    HW225779   1.891   5.573   1.018
 8294SOL     OW25780   5.567   3.978   4.902
 8294SOL    HW125781   5.517   3.957   4.818
 8294SOL    HW225782   5.504   3.979   4.979
 8295SOL     OW25783   5.216   3.934   2.382
 8295SOL    HW125784   5.240   3.847   2.424
 8295SOL    HW225785   5.230   3.929   2.283
 8296SOL     OW25786   2.453   4.943   0.135
 8296SOL    HW125787   2.432   4.853   0.174
 8296SOL    HW225788   2.552   4.956   0.132
 8297SOL     OW25789   0.408   2.981   2.865
 8297SOL    HW125790   0.352   3.060   2.893
 8297SOL    HW225791   0.476   2.962   2.935
 8298SOL     OW25792   6.235   1.738   0.936
 8298SOL    HW125793   6.246   1.659   0.876
 8298SOL    HW225794   6.163   1.720   1.003
 8299SOL     OW25795   1.025   2.438   2.705
 8299SOL    HW125796   1.085   2.382   2.762
 8299SOL    HW225797   0.946   2.384   2.677
 8300SOL     OW25798   0.254   5.825   3.923
 8300SOL    HW125799   0.293   5.739   3.889
 8300SOL    HW225800   0.230   5.815   4.019
 8301SOL     OW25801   3.944   0.745   0.593
 8301SOL    HW125802   4.010   0.720   0.664
 8301SOL    HW225803   3.864   0.686   0.600
 8302SOL     OW25804   5.278   6.591   6.157
 8302SOL    HW125805   5.359   6.648   6.174
 8302SOL    HW225806   5.196   6.643   6.179
 8303SOL     OW25807   5.802   0.156   3.981
 8303SOL    HW125808   5.714   0.161   3.933
 8303SOL    HW225809   5.803   0.221   4.057
 8304SOL     OW25810   5.706   3.355   1.482
 8304SOL    HW125811   5.628   3.332   1.423
 8304SOL    HW225812   5.733   3.450   1.465
 8305SOL     OW25813   4.490   4.572   4.031
 8305SOL    HW125814   4.396   4.557   4.062
 8305SOL    HW225815   4.503   4.669   4.009
 8306SOL     OW25816   5.869   1.401   3.930
 8306SOL    HW125817   5.969   1.401   3.938
 8306SOL    HW225818   5.828   1.412   4.021
 8307SOL     OW25819   3.567   5.309   1.924
 8307SOL    HW125820   3.615   5.223   1.940
 8307SOL    HW225821   3.633   5.383   1.911
 8308SOL     OW25822   2.454   5.463   0.568
 8308SOL    HW125823   2.428   5.450   0.663
 8308SOL    HW225824   2.449   5.376   0.519
 8309SOL     OW25825   6.513   6.034   2.903
 8309SOL    HW125826   6.606   5.998   2.907
 8309SOL    HW225827   6.480   6.050   2.996
 8310SOL     OW25828   0.685   5.464   1.192
 8310SOL    HW125829   0.638   5.461   1.281
 8310SOL    HW225830   0.633   5.522   1.129
 8311SOL     OW25831   6.465   2.267   5.751
 8311SOL    HW125832   6.464   2.228   5.843
 8311SOL    HW225833   6.547   2.322   5.739
 8312SOL     OW25834   4.477   0.521   0.080
 8312SOL    HW125835   4.482   0.422   0.093
 8312SOL    HW225836   4.390   0.545   0.036
 8313SOL     OW25837   6.024   0.023   6.545
 8313SOL    HW125838   6.056   0.050   6.636
 8313SOL    HW225839   5.961   0.091   6.510
 8314SOL     OW25840   5.845   6.515   6.856
 8314SOL    HW125841   5.865   6.421   6.885
 8314SOL    HW225842   5.911   6.577   6.897
 8315SOL     OW25843   3.926   3.328   2.143
 8315SOL    HW125844   3.832   3.352   2.168
 8315SOL    HW225845   3.963   3.398   2.082
 8316SOL     OW25846   1.307   3.046   2.344
 8316SOL    HW125847   1.346   3.040   2.436
 8316SOL    HW225848   1.209   3.027   2.348
 8317SOL     OW25849   1.674   2.867   2.890
 8317SOL    HW125850   1.727   2.790   2.928
 8317SOL    HW225851   1.736   2.943   2.872
 8318SOL     OW25852   4.061   2.215   5.715
 8318SOL    HW125853   4.065   2.140   5.649
 8318SOL    HW225854   3.974   2.212   5.763
 8319SOL     OW25855   0.741   1.270   1.305
 8319SOL    HW125856   0.649   1.304   1.285
 8319SOL    HW225857   0.773   1.310   1.391
 8320SOL     OW25858   3.032   3.810   2.582
 8320SOL    HW125859   2.952   3.804   2.641
 8320SOL    HW225860   3.104   3.861   2.628
 8321SOL     OW25861   6.403   6.809   6.685
 8321SOL    HW125862   6.398   6.895   6.736
 8321SOL    HW225863   6.473   6.750   6.725
 8322SOL     OW25864   6.560   0.444   0.826
 8322SOL    HW125865   6.468   0.482   0.815
 8322SOL    HW225866   6.608   0.447   0.739
 8323SOL     OW25867   4.663   4.854   2.009
 8323SOL    HW125868   4.688   4.767   1.965
 8323SOL    HW225869   4.661   4.926   1.941
 8324SOL     OW25870   6.013   6.784   1.578
 8324SOL    HW125871   6.036   6.860   1.517
 8324SOL    HW225872   5.949   6.817   1.648
 8325SOL     OW25873   1.484   3.217   5.142
 8325SOL    HW125874   1.578   3.182   5.140
 8325SOL    HW225875   1.482   3.304   5.192
 8326SOL     OW25876   4.576   3.979   5.727
 8326SOL    HW125877   4.495   4.031   5.702
 8326SOL    HW225878   4.639   4.037   5.777
 8327SOL     OW25879   0.096   0.179   5.660
 8327SOL    HW125880   0.163   0.186   5.586
 8327SOL    HW225881   0.142   0.154   5.745
 8328SOL     OW25882   2.586   6.318   6.762
 8328SOL    HW125883   2.609   6.268   6.679
 8328SOL    HW225884   2.488   6.336   6.764
 8329SOL     OW25885   0.971   3.034   5.880
 8329SOL    HW125886   0.948   3.069   5.789
 8329SOL    HW225887   0.895   2.980   5.915
 8330SOL     OW25888   2.731   0.725   6.487
 8330SOL    HW125889   2.666   0.791   6.525
 8330SOL    HW225890   2.749   0.747   6.391
 8331SOL     OW25891   3.094   0.732   1.004
 8331SOL    HW125892   3.181   0.713   1.049
 8331SOL    HW225893   3.050   0.646   0.979
 8332SOL     OW25894   5.645   5.496   2.382
 8332SOL    HW125895   5.597   5.414   2.349
 8332SOL    HW225896   5.580   5.555   2.430
 8333SOL     OW25897   0.188   5.488   6.138
 8333SOL    HW125898   0.165   5.421   6.209
 8333SOL    HW225899   0.279   5.469   6.103
 8334SOL     OW25900   3.615   1.837   4.464
 8334SOL    HW125901   3.592   1.932   4.446
 8334SOL    HW225902   3.608   1.819   4.562
 8335SOL     OW25903   5.204   0.832   0.603
 8335SOL    HW125904   5.297   0.796   0.613
 8335SOL    HW225905   5.181   0.838   0.506
 8336SOL     OW25906   0.791   4.852   3.338
 8336SOL    HW125907   0.715   4.833   3.276
 8336SOL    HW225908   0.872   4.877   3.284
 8337SOL     OW25909   1.398   6.282   3.562
 8337SOL    HW125910   1.428   6.196   3.602
 8337SOL    HW225911   1.328   6.265   3.493
 8338SOL     OW25912   3.797   4.905   1.592
 8338SOL    HW125913   3.878   4.862   1.552
 8338SOL    HW225914   3.779   4.992   1.545
 8339SOL     OW25915   6.396   0.637   1.614
 8339SOL    HW125916   6.485   0.667   1.579
 8339SOL    HW225917   6.340   0.718   1.632
 8340SOL     OW25918   5.019   3.827   1.150
 8340SOL    HW125919   5.108   3.857   1.115
 8340SOL    HW225920   4.986   3.893   1.217
 8341SOL     OW25921   2.763   6.758   6.711
 8341SOL    HW125922   2.761   6.706   6.796
 8341SOL    HW225923   2.826   6.835   6.720
 8342SOL     OW25924   5.222   6.808   0.032
 8342SOL    HW125925   5.140   6.774   7.005
 8342SOL    HW225926   5.272   6.869   6.990
 8343SOL     OW25927   0.777   5.851   3.703
 8343SOL    HW125928   0.780   5.801   3.790
 8343SOL    HW225929   0.753   5.947   3.721
 8344SOL     OW25930   5.870   6.070   4.574
 8344SOL    HW125931   5.839   5.977   4.591
 8344SOL    HW225932   5.805   6.117   4.514
 8345SOL     OW25933   3.864   2.156   2.501
 8345SOL    HW125934   3.896   2.152   2.406
 8345SOL    HW225935   3.930   2.208   2.555
 8346SOL     OW25936   3.924   4.805   0.086
 8346SOL    HW125937   3.871   4.845   0.161
 8346SOL    HW225938   3.969   4.722   0.118
 8347SOL     OW25939   3.493   6.761   4.227
 8347SOL    HW125940   3.525   6.778   4.134
 8347SOL    HW225941   3.412   6.702   4.224
 8348SOL     OW25942   2.318   1.398   1.313
 8348SOL    HW125943   2.382   1.468   1.282
 8348SOL    HW225944   2.238   1.397   1.253
 8349SOL     OW25945   6.991   0.054   2.195
 8349SOL    HW125946   7.013   6.976   2.207
 8349SOL    HW225947   7.003   0.079   2.099
 8350SOL     OW25948   3.193   6.244   5.811
 8350SOL    HW125949   3.165   6.211   5.721
 8350SOL    HW225950   3.128   6.212   5.880
 8351SOL     OW25951   5.638   5.252   4.530
 8351SOL    HW125952   5.709   5.216   4.470
 8351SOL    HW225953   5.557   5.193   4.527
 8352SOL     OW25954   0.033   0.011   3.416
 8352SOL    HW125955   7.013   0.039   3.328
 8352SOL    HW225956   0.069   6.937   3.409
 8353SOL     OW25957   6.832   4.098   1.351
 8353SOL    HW125958   6.782   4.142   1.277
 8353SOL    HW225959   6.767   4.054   1.413
 8354SOL     OW25960   3.877   0.193   4.814
 8354SOL    HW125961   3.831   0.120   4.865
 8354SOL    HW225962   3.881   0.168   4.718
 8355SOL     OW25963   3.046   1.038   5.821
 8355SOL    HW125964   2.990   1.017   5.902
 8355SOL    HW225965   3.016   0.981   5.745
 8356SOL     OW25966   0.251   6.983   1.884
 8356SOL    HW125967   0.315   6.909   1.866
 8356SOL    HW225968   0.287   0.050   1.848
 8357SOL     OW25969   3.946   0.092   5.196
 8357SOL    HW125970   4.040   0.082   5.164
 8357SOL    HW225971   3.883   0.076   5.120
 8358SOL     OW25972   1.750   4.328   4.866
 8358SOL    HW125973   1.760   4.280   4.953
 8358SOL    HW225974   1.834   4.320   4.813
 8359SOL     OW25975   3.469   0.489   4.987
 8359SOL    HW125976   3.477   0.420   4.916
 8359SOL    HW225977   3.541   0.557   4.975
 8360SOL     OW25978   3.529   6.789   0.393
 8360SOL    HW125979   3.529   6.861   0.462
 8360SOL    HW225980   3.549   6.701   0.436
 8361SOL     OW25981   3.540   0.228   1.705
 8361SOL    HW125982   3.527   0.130   1.712
 8361SOL    HW225983   3.552   0.267   1.796
 8362SOL     OW25984   4.183   1.324   1.074
 8362SOL    HW125985   4.128   1.271   1.010
 8362SOL    HW225986   4.280   1.306   1.058
 8363SOL     OW25987   5.195   3.156   6.904
 8363SOL    HW125988   5.200   3.155   6.804
 8363SOL    HW225989   5.287   3.149   6.942
 8364SOL     OW25990   1.018   2.489   3.763
 8364SOL    HW125991   0.927   2.488   3.722
 8364SOL    HW225992   1.030   2.409   3.822
 8365SOL     OW25993   1.561   3.392   2.468
 8365SOL    HW125994   1.511   3.441   2.397
 8365SOL    HW225995   1.551   3.293   2.454
 8366SOL     OW25996   1.947   5.234   1.408
 8366SOL    HW125997   1.914   5.177   1.333
 8366SOL    HW225998   1.889   5.220   1.489
 8367SOL     OW25999   4.224   5.810   4.934
 8367SOL    HW126000   4.219   5.712   4.957
 8367SOL    HW226001   4.136   5.853   4.956
 8368SOL     OW26002   1.061   0.267   6.695
 8368SOL    HW126003   1.102   0.345   6.647
 8368SOL    HW226004   1.112   0.184   6.673
 8369SOL     OW26005   0.834   0.030   6.262
 8369SOL    HW126006   0.897   0.083   6.319
 8369SOL    HW226007   0.775   6.993   6.320
 8370SOL     OW26008   2.961   1.370   5.944
 8370SOL    HW126009   3.042   1.369   5.885
 8370SOL    HW226010   2.977   1.309   6.022
 8371SOL     OW26011   1.938   4.509   0.767
 8371SOL    HW126012   2.020   4.554   0.732
 8371SOL    HW226013   1.913   4.434   0.706
 8372SOL     OW26014   1.426   5.044   1.937
 8372SOL    HW126015   1.341   4.999   1.964
 8372SOL    HW226016   1.480   5.065   2.018
 8373SOL     OW26017   1.851   0.178   4.219
 8373SOL    HW126018   1.908   0.220   4.291
 8373SOL    HW226019   1.785   0.245   4.185
 8374SOL     OW26020   0.190   0.747   4.916
 8374SOL    HW126021   0.174   0.650   4.897
 8374SOL    HW226022   0.285   0.760   4.945
 8375SOL     OW26023   3.778   6.486   5.170
 8375SOL    HW126024   3.698   6.493   5.230
 8375SOL    HW226025   3.840   6.417   5.207
 8376SOL     OW26026   0.295   1.232   4.408
 8376SOL    HW126027   0.200   1.203   4.402
 8376SOL    HW226028   0.323   1.273   4.321
 8377SOL     OW26029   4.905   6.015   1.052
 8377SOL    HW126030   4.981   5.971   1.099
 8377SOL    HW226031   4.858   6.077   1.115
 8378SOL     OW26032   4.218   4.955   2.786
 8378SOL    HW126033   4.307   4.945   2.742
 8378SOL    HW226034   4.201   4.876   2.846
 8379SOL     OW26035   5.448   3.059   1.197
 8379SOL    HW126036   5.353   3.048   1.168
 8379SOL    HW226037   5.483   2.971   1.229
 8380SOL     OW26038   0.825   0.858   2.385
 8380SOL    HW126039   0.800   0.900   2.298
 8380SOL    HW226040   0.818   0.926   2.458
 8381SOL     OW26041   0.201   2.437   4.331
 8381SOL    HW126042   0.175   2.533   4.320
 8381SOL    HW226043   0.162   2.383   4.256
 8382SOL     OW26044   2.406   6.984   2.786
 8382SOL    HW126045   2.487   7.013   2.735
 8382SOL    HW226046   2.421   6.997   2.884
 8383SOL     OW26047   2.886   0.026   5.620
 8383SOL    HW126048   2.956   6.978   5.596
 8383SOL    HW226049   2.928   0.117   5.627
 8384SOL     OW26050   6.416   1.284   1.588
 8384SOL    HW126051   6.493   1.265   1.649
 8384SOL    HW226052   6.338   1.227   1.613
 8385SOL     OW26053   5.692   2.499   0.360
 8385SOL    HW126054   5.628   2.532   0.429
 8385SOL    HW226055   5.755   2.572   0.335
 8386SOL     OW26056   1.629   5.855   1.735
 8386SOL    HW126057   1.699   5.847   1.806
 8386SOL    HW226058   1.670   5.839   1.646
 8387SOL     OW26059   1.187   1.434   1.544
 8387SOL    HW126060   1.125   1.438   1.623
 8387SOL    HW226061   1.140   1.391   1.467
 8388SOL     OW26062   2.225   0.108   0.620
 8388SOL    HW126063   2.309   0.162   0.614
 8388SOL    HW226064   2.161   0.153   0.682
 8389SOL     OW26065   0.415   3.611   3.399
 8389SOL    HW126066   0.499   3.663   3.388
 8389SOL    HW226067   0.336   3.671   3.387
 8390SOL     OW26068   4.631   0.291   0.436
 8390SOL    HW126069   4.569   0.220   0.471
 8390SOL    HW226070   4.652   0.273   0.340
 8391SOL     OW26071   6.250   5.161   1.249
 8391SOL    HW126072   6.253   5.107   1.334
 8391SOL    HW226073   6.290   5.108   1.175
 8392SOL     OW26074   6.796   4.844   5.183
 8392SOL    HW126075   6.711   4.849   5.132
 8392SOL    HW226076   6.834   4.752   5.177
 8393SOL     OW26077   0.578   6.935   2.792
 8393SOL    HW126078   0.487   6.903   2.816
 8393SOL    HW226079   0.578   6.970   2.699
 8394SOL     OW26080   6.892   2.590   2.201
 8394SOL    HW126081   6.966   2.576   2.135
 8394SOL    HW226082   6.806   2.559   2.162
 8395SOL     OW26083   2.126   6.858   4.663
 8395SOL    HW126084   2.179   6.912   4.598
 8395SOL    HW226085   2.145   6.890   4.756
 8396SOL     OW26086   4.257   5.381   2.618
 8396SOL    HW126087   4.351   5.346   2.623
 8396SOL    HW226088   4.229   5.387   2.522
 8397SOL     OW26089   2.576   0.160   2.639
 8397SOL    HW126090   2.616   0.225   2.574
 8397SOL    HW226091   2.542   0.210   2.719
 8398SOL     OW26092   4.366   2.032   6.680
 8398SOL    HW126093   4.409   2.050   6.769
 8398SOL    HW226094   4.287   2.093   6.669
 8399SOL     OW26095   5.861   5.759   6.895
 8399SOL    HW126096   5.914   5.793   6.817
 8399SOL    HW226097   5.924   5.721   6.963
 8400SOL     OW26098   1.423   1.631   4.554
 8400SOL    HW126099   1.368   1.641   4.637
 8400SOL    HW226100   1.517   1.611   4.580
 8401SOL     OW26101   2.748   1.188   6.444
 8401SOL    HW126102   2.725   1.239   6.362
 8401SOL    HW226103   2.680   1.206   6.515
 8402SOL     OW26104   3.724   2.173   5.541
 8402SOL    HW126105   3.699   2.097   5.602
 8402SOL    HW226106   3.680   2.256   5.573
 8403SOL     OW26107   1.141   1.928   4.440
 8403SOL    HW126108   1.114   2.008   4.493
 8403SOL    HW226109   1.193   1.958   4.360
 8404SOL     OW26110   4.563   6.584   5.756
 8404SOL    HW126111   4.468   6.587   5.789
 8404SOL    HW226112   4.582   6.667   5.703
 8405SOL     OW26113   2.218   0.315   5.723
 8405SOL    HW126114   2.196   0.224   5.687
 8405SOL    HW226115   2.172   0.385   5.667
 8406SOL     OW26116   5.950   0.318   0.297
 8406SOL    HW126117   5.872   0.321   0.360
 8406SOL    HW226118   5.954   0.229   0.253
 8407SOL     OW26119   3.379   6.546   4.038
 8407SOL    HW126120   3.314   6.534   4.113
 8407SOL    HW226121   3.337   6.516   3.952
 8408SOL     OW26122   5.801   3.503   2.231
 8408SOL    HW126123   5.838   3.484   2.140
 8408SOL    HW226124   5.871   3.547   2.287
 8409SOL     OW26125   5.640   2.728   3.801
 8409SOL    HW126126   5.699   2.647   3.803
 8409SOL    HW226127   5.606   2.741   3.708
 8410SOL     OW26128   5.562   0.837   1.992
 8410SOL    HW126129   5.507   0.850   1.910
 8410SOL    HW226130   5.595   0.925   2.025
 8411SOL     OW26131   0.504   4.638   6.904
 8411SOL    HW126132   0.442   4.676   6.835
 8411SOL    HW226133   0.594   4.679   6.894
 8412SOL     OW26134   3.019   1.572   1.275
 8412SOL    HW126135   2.926   1.608   1.274
 8412SOL    HW226136   3.016   1.473   1.289
 8413SOL     OW26137   4.222   5.412   6.899
 8413SOL    HW126138   4.209   5.316   6.924
 8413SOL    HW226139   4.288   5.453   6.962
 8414SOL     OW26140   3.360   4.927   3.683
 8414SOL    HW126141   3.377   4.908   3.587
 8414SOL    HW226142   3.284   4.870   3.715
 8415SOL     OW26143   6.786   5.896   4.467
 8415SOL    HW126144   6.866   5.955   4.459
 8415SOL    HW226145   6.814   5.808   4.506
 8416SOL     OW26146   5.603   3.636   2.339
 8416SOL    HW126147   5.674   3.597   2.281
 8416SOL    HW226148   5.593   3.580   2.421
 8417SOL     OW26149   1.551   3.978   5.979
 8417SOL    HW126150   1.479   3.982   6.049
 8417SOL    HW226151   1.593   3.887   5.979
 8418SOL     OW26152   5.892   5.090   1.210
 8418SOL    HW126153   5.911   5.188   1.200
 8418SOL    HW226154   5.979   5.040   1.211
 8419SOL     OW26155   5.355   0.256   2.239
 8419SOL    HW126156   5.363   0.300   2.328
 8419SOL    HW226157   5.261   0.267   2.204
 8420SOL     OW26158   4.502   6.766   0.428
 8420SOL    HW126159   4.488   6.863   0.408
 8420SOL    HW226160   4.488   6.712   0.345
 8421SOL     OW26161   1.538   5.596   6.684
 8421SOL    HW126162   1.569   5.503   6.664
 8421SOL    HW226163   1.445   5.593   6.720
 8422SOL     OW26164   3.751   1.227   0.708
 8422SOL    HW126165   3.777   1.130   0.715
 8422SOL    HW226166   3.757   1.269   0.798
 8423SOL     OW26167   3.534   4.371   5.921
 8423SOL    HW126168   3.629   4.385   5.950
 8423SOL    HW226169   3.530   4.293   5.858
 8424SOL     OW26170   2.163   2.611   2.454
 8424SOL    HW126171   2.183   2.535   2.516
 8424SOL    HW226172   2.199   2.696   2.492
 8425SOL     OW26173   4.641   5.237   6.592
 8425SOL    HW126174   4.609   5.312   6.650
 8425SOL    HW226175   4.723   5.196   6.632
 8426SOL     OW26176   3.571   3.575   3.527
 8426SOL    HW126177   3.649   3.630   3.498
 8426SOL    HW226178   3.604   3.486   3.561
 8427SOL     OW26179   4.061   3.777   4.437
 8427SOL    HW126180   4.047   3.789   4.535
 8427SOL    HW226181   4.043   3.863   4.390
 8428SOL     OW26182   0.565   5.075   1.491
 8428SOL    HW126183   0.592   5.068   1.395
 8428SOL    HW226184   0.642   5.107   1.545
 8429SOL     OW26185   1.943   6.020   4.287
 8429SOL    HW126186   2.024   5.978   4.245
 8429SOL    HW226187   1.972   6.079   4.362
 8430SOL     OW26188   3.533   5.297   3.501
 8430SOL    HW126189   3.511   5.394   3.496
 8430SOL    HW226190   3.480   5.247   3.432
 8431SOL     OW26191   3.364   4.435   0.241
 8431SOL    HW126192   3.388   4.514   0.184
 8431SOL    HW226193   3.268   4.443   0.268
 8432SOL     OW26194   5.084   6.922   6.145
 8432SOL    HW126195   5.146   6.884   6.077
 8432SOL    HW226196   5.027   6.849   6.183
 8433SOL     OW26197   4.943   2.771   0.681
 8433SOL    HW126198   5.026   2.819   0.707
 8433SOL    HW226199   4.901   2.815   0.602
 8434SOL     OW26200   2.655   6.505   4.591
 8434SOL    HW126201   2.657   6.428   4.654
 8434SOL    HW226202   2.711   6.580   4.629
 8435SOL     OW26203   6.021   1.170   1.483
 8435SOL    HW126204   5.984   1.238   1.419
 8435SOL    HW226205   5.949   1.145   1.548
 8436SOL     OW26206   3.715   7.010   3.163
 8436SOL    HW126207   3.788   0.044   3.120
 8436SOL    HW226208   3.666   6.959   3.092
 8437SOL     OW26209   2.029   0.591   4.286
 8437SOL    HW126210   2.028   0.559   4.192
 8437SOL    HW226211   1.987   0.523   4.346
 8438SOL     OW26212   2.517   4.521   2.408
 8438SOL    HW126213   2.522   4.439   2.466
 8438SOL    HW226214   2.607   4.541   2.370
 8439SOL     OW26215   6.491   4.775   2.464
 8439SOL    HW126216   6.582   4.796   2.430
 8439SOL    HW226217   6.490   4.683   2.503
 8440SOL     OW26218   1.413   2.639   3.502
 8440SOL    HW126219   1.507   2.614   3.525
 8440SOL    HW226220   1.350   2.568   3.535
 8441SOL     OW26221   5.981   6.658   0.115
 8441SOL    HW126222   5.967   6.577   0.173
 8441SOL    HW226223   6.076   6.687   0.120
 8442SOL     OW26224   2.876   1.381   4.875
 8442SOL    HW126225   2.947   1.450   4.892
 8442SOL    HW226226   2.916   1.306   4.821
 8443SOL     OW26227   2.275   5.177   3.858
 8443SOL    HW126228   2.264   5.125   3.943
 8443SOL    HW226229   2.372   5.196   3.843
 8444SOL     OW26230   2.795   6.029   3.543
 8444SOL    HW126231   2.710   5.979   3.525
 8444SOL    HW226232   2.779   6.127   3.528
 8445SOL     OW26233   3.846   6.679   0.552
 8445SOL    HW126234   3.804   6.637   0.633
 8445SOL    HW226235   3.797   6.764   0.531
 8446SOL     OW26236   4.553   4.496   6.734
 8446SOL    HW126237   4.468   4.489   6.786
 8446SOL    HW226238   4.609   4.570   6.772
 8447SOL     OW26239   5.065   2.350   1.919
 8447SOL    HW126240   5.035   2.370   2.013
 8447SOL    HW226241   5.058   2.251   1.904
 8448SOL     OW26242   4.673   5.864   3.978
 8448SOL    HW126243   4.649   5.777   3.934
 8448SOL    HW226244   4.760   5.897   3.941
 8449SOL     OW26245   6.604   2.780   3.847
 8449SOL    HW126246   6.646   2.737   3.768
 8449SOL    HW226247   6.649   2.868   3.865
 8450SOL     OW26248   0.460   6.586   1.144
 8450SOL    HW126249   0.511   6.601   1.059
 8450SOL    HW226250   0.438   6.489   1.154
 8451SOL     OW26251   3.903   2.152   0.438
 8451SOL    HW126252   3.830   2.112   0.382
 8451SOL    HW226253   3.989   2.105   0.418
 8452SOL     OW26254   5.803   1.728   3.149
 8452SOL    HW126255   5.785   1.825   3.137
 8452SOL    HW226256   5.788   1.702   3.244
 8453SOL     OW26257   0.049   4.495   6.523
 8453SOL    HW126258   0.125   4.505   6.587
 8453SOL    HW226259   6.989   4.458   6.570
 8454SOL     OW26260   6.818   0.074   1.594
 8454SOL    HW126261   6.888   0.033   1.651
 8454SOL    HW226262   6.740   0.012   1.587
 8455SOL     OW26263   6.643   2.822   1.867
 8455SOL    HW126264   6.680   2.730   1.876
 8455SOL    HW226265   6.685   2.867   1.788
 8456SOL     OW26266   4.194   6.290   2.915
 8456SOL    HW126267   4.103   6.263   2.946
 8456SOL    HW226268   4.239   6.344   2.986
 8457SOL     OW26269   6.660   6.502   4.942
 8457SOL    HW126270   6.737   6.445   4.968
 8457SOL    HW226271   6.643   6.492   4.844
 8458SOL     OW26272   3.258   1.258   6.528
 8458SOL    HW126273   3.277   1.282   6.433
 8458SOL    HW226274   3.252   1.341   6.583
 8459SOL     OW26275   2.939   5.914   2.276
 8459SOL    HW126276   3.035   5.907   2.251
 8459SOL    HW226277   2.901   5.822   2.288
 8460SOL     OW26278   4.327   3.549   5.503
 8460SOL    HW126279   4.335   3.616   5.577
 8460SOL    HW226280   4.230   3.530   5.486
 8461SOL     OW26281   0.106   4.274   3.793
 8461SOL    HW126282   0.143   4.182   3.808
 8461SOL    HW226283   0.017   4.267   3.748
 8462SOL     OW26284   3.053   2.736   6.255
 8462SOL    HW126285   3.006   2.712   6.340
 8462SOL    HW226286   3.112   2.659   6.227
 8463SOL     OW26287   6.364   6.992   1.286
 8463SOL    HW126288   6.351   0.072   1.280
 8463SOL    HW226289   6.321   6.948   1.207
 8464SOL     OW26290   5.678   3.603   4.809
 8464SOL    HW126291   5.731   3.611   4.724
 8464SOL    HW226292   5.672   3.693   4.853
 8465SOL     OW26293   0.775   2.415   1.091
 8465SOL    HW126294   0.744   2.354   1.164
 8465SOL    HW226295   0.811   2.499   1.130
 8466SOL     OW26296   0.303   6.756   4.411
 8466SOL    HW126297   0.276   6.782   4.318
 8466SOL    HW226298   0.377   6.815   4.442
 8467SOL     OW26299   4.473   6.867   0.708
 8467SOL    HW126300   4.376   6.884   0.696
 8467SOL    HW226301   4.487   6.774   0.742
 8468SOL     OW26302   3.625   2.292   6.569
 8468SOL    HW126303   3.711   2.286   6.618
 8468SOL    HW226304   3.588   2.200   6.553
 8469SOL     OW26305   3.292   1.307   6.156
 8469SOL    HW126306   3.197   1.285   6.135
 8469SOL    HW226307   3.321   1.387   6.102
 8470SOL     OW26308   2.022   3.896   0.200
 8470SOL    HW126309   2.098   3.874   0.261
 8470SOL    HW226310   2.044   3.864   0.107
 8471SOL     OW26311   3.473   0.907   3.268
 8471SOL    HW126312   3.430   0.985   3.315
 8471SOL    HW226313   3.572   0.920   3.268
 8472SOL     OW26314   6.748   0.893   5.346
 8472SOL    HW126315   6.751   0.928   5.440
 8472SOL    HW226316   6.769   0.795   5.346
 8473SOL     OW26317   6.506   6.073   6.764
 8473SOL    HW126318   6.447   6.094   6.842
 8473SOL    HW226319   6.600   6.100   6.784
 8474SOL     OW26320   3.506   3.056   1.620
 8474SOL    HW126321   3.511   3.068   1.719
 8474SOL    HW226322   3.536   2.964   1.597
 8475SOL     OW26323   6.944   2.378   3.711
 8475SOL    HW126324   7.018   2.323   3.749
 8475SOL    HW226325   6.926   2.456   3.771
 8476SOL     OW26326   6.685   2.190   0.901
 8476SOL    HW126327   6.634   2.275   0.892
 8476SOL    HW226328   6.782   2.210   0.912
 8477SOL     OW26329   5.129   6.653   1.041
 8477SOL    HW126330   5.076   6.715   1.099
 8477SOL    HW226331   5.224   6.686   1.036
 8478SOL     OW26332   1.035   6.674   6.054
 8478SOL    HW126333   1.121   6.632   6.082
 8478SOL    HW226334   0.987   6.613   5.990
 8479SOL     OW26335   0.659   2.755   1.392
 8479SOL    HW126336   0.689   2.763   1.297
 8479SOL    HW226337   0.611   2.669   1.405
 8480SOL     OW26338   4.546   1.679   0.106
 8480SOL    HW126339   4.586   1.745   0.042
 8480SOL    HW226340   4.610   1.603   0.118
 8481SOL     OW26341   4.038   2.023   3.921
 8481SOL    HW126342   4.026   2.104   3.978
 8481SOL    HW226343   4.064   1.945   3.979
 8482SOL     OW26344   4.401   5.831   1.669
 8482SOL    HW126345   4.322   5.811   1.610
 8482SOL    HW226346   4.441   5.745   1.700
 8483SOL     OW26347   4.941   6.280   2.416
 8483SOL    HW126348   4.891   6.251   2.334
 8483SOL    HW226349   4.893   6.358   2.458
 8484SOL     OW26350   0.631   6.091   3.736
 8484SOL    HW126351   0.564   6.153   3.693
 8484SOL    HW226352   0.589   6.046   3.815
 8485SOL     OW26353   3.997   3.054   6.879
 8485SOL    HW126354   3.943   2.971   6.897
 8485SOL    HW226355   4.080   3.029   6.829
 8486SOL     OW26356   3.451   0.854   2.400
 8486SOL    HW126357   3.489   0.932   2.351
 8486SOL    HW226358   3.351   0.855   2.392
 8487SOL     OW26359   5.900   1.717   6.054
 8487SOL    HW126360   5.872   1.777   5.979
 8487SOL    HW226361   5.904   1.623   6.022
 8488SOL     OW26362   5.531   6.146   0.262
 8488SOL    HW126363   5.433   6.154   0.281
 8488SOL    HW226364   5.552   6.052   0.234
 8489SOL     OW26365   6.064   2.005   1.002
 8489SOL    HW126366   6.122   1.981   0.923
 8489SOL    HW226367   6.119   2.054   1.069
 8490SOL     OW26368   4.584   6.438   4.035
 8490SOL    HW126369   4.675   6.398   4.024
 8490SOL    HW226370   4.550   6.469   3.946
 8491SOL     OW26371   2.527   6.268   0.696
 8491SOL    HW126372   2.508   6.248   0.792
 8491SOL    HW226373   2.541   6.183   0.646
 8492SOL     OW26374   4.637   4.176   6.176
 8492SOL    HW126375   4.652   4.081   6.149
 8492SOL    HW226376   4.675   4.192   6.267
 8493SOL     OW26377   2.725   2.707   6.671
 8493SOL    HW126378   2.740   2.720   6.769
 8493SOL    HW226379   2.634   2.666   6.657
 8494SOL     OW26380   3.214   5.335   1.150
 8494SOL    HW126381   3.256   5.416   1.109
 8494SOL    HW226382   3.114   5.340   1.139
 8495SOL     OW26383   6.420   5.131   2.489
 8495SOL    HW126384   6.463   5.221   2.499
 8495SOL    HW226385   6.412   5.108   2.392
 8496SOL     OW26386   0.862   2.292   2.183
 8496SOL    HW126387   0.821   2.225   2.244
 8496SOL    HW226388   0.793   2.323   2.117
 8497SOL     OW26389   6.357   0.895   3.735
 8497SOL    HW126390   6.289   0.911   3.807
 8497SOL    HW226391   6.375   0.797   3.728
 8498SOL     OW26392   6.824   6.137   2.759
 8498SOL    HW126393   6.803   6.234   2.746
 8498SOL    HW226394   6.836   6.093   2.669
 8499SOL     OW26395   2.445   4.733   6.736
 8499SOL    HW126396   2.394   4.727   6.651
 8499SOL    HW226397   2.422   4.818   6.783
 8500SOL     OW26398   1.784   6.184   5.039
 8500SOL    HW126399   1.810   6.091   5.065
 8500SOL    HW226400   1.860   6.227   4.989
 8501SOL     OW26401   0.591   1.726   6.847
 8501SOL    HW126402   0.675   1.685   6.812
 8501SOL    HW226403   0.564   1.803   6.789
 8502SOL     OW26404   1.102   3.890   0.983
 8502SOL    HW126405   1.170   3.939   1.039
 8502SOL    HW226406   1.106   3.793   1.005
 8503SOL     OW26407   1.633   0.055   4.091
 8503SOL    HW126408   1.613   0.126   4.024
 8503SOL    HW226409   1.721   0.074   4.135
 8504SOL     OW26410   2.648   5.143   2.445
 8504SOL    HW126411   2.658   5.052   2.405
 8504SOL    HW226412   2.634   5.210   2.372
 8505SOL     OW26413   4.934   3.321   3.979
 8505SOL    HW126414   5.006   3.271   3.931
 8505SOL    HW226415   4.928   3.290   4.074
 8506SOL     OW26416   0.032   0.898   6.340
 8506SOL    HW126417   0.014   0.891   6.439
 8506SOL    HW226418   6.965   0.887   6.290
 8507SOL     OW26419   3.676   1.230   5.244
 8507SOL    HW126420   3.737   1.279   5.182
 8507SOL    HW226421   3.731   1.182   5.313
 8508SOL     OW26422   6.210   1.951   5.513
 8508SOL    HW126423   6.122   1.926   5.473
 8508SOL    HW226424   6.232   2.046   5.488
 8509SOL     OW26425   4.168   1.411   3.833
 8509SOL    HW126426   4.171   1.326   3.781
 8509SOL    HW226427   4.074   1.447   3.832
 8510SOL     OW26428   5.882   4.282   3.323
 8510SOL    HW126429   5.786   4.281   3.297
 8510SOL    HW226430   5.902   4.203   3.380
 8511SOL     OW26431   6.288   3.436   2.089
 8511SOL    HW126432   6.222   3.505   2.059
 8511SOL    HW226433   6.273   3.413   2.185
 8512SOL     OW26434   3.312   2.165   1.590
 8512SOL    HW126435   3.349   2.108   1.663
 8512SOL    HW226436   3.234   2.216   1.624
 8513SOL     OW26437   5.495   4.377   1.139
 8513SOL    HW126438   5.408   4.340   1.105
 8513SOL    HW226439   5.532   4.315   1.208
 8514SOL     OW26440   2.541   2.570   3.778
 8514SOL    HW126441   2.472   2.609   3.717
 8514SOL    HW226442   2.596   2.504   3.728
 8515SOL     OW26443   5.617   1.613   0.645
 8515SOL    HW126444   5.572   1.584   0.561
 8515SOL    HW226445   5.655   1.705   0.632
 8516SOL     OW26446   6.437   2.556   1.492
 8516SOL    HW126447   6.527   2.581   1.528
 8516SOL    HW226448   6.440   2.555   1.392
 8517SOL     OW26449   1.561   2.995   6.494
 8517SOL    HW126450   1.646   3.004   6.545
 8517SOL    HW226451   1.531   2.900   6.495
 8518SOL     OW26452   4.520   4.010   6.952
 8518SOL    HW126453   4.573   4.059   0.003
 8518SOL    HW226454   4.501   4.072   6.876
 8519SOL     OW26455   1.285   4.136   1.691
 8519SOL    HW126456   1.291   4.053   1.748
 8519SOL    HW226457   1.303   4.216   1.747
 8520SOL     OW26458   3.859   2.811   6.870
 8520SOL    HW126459   3.815   2.730   6.909
 8520SOL    HW226460   3.919   2.783   6.794
 8521SOL     OW26461   2.079   5.158   6.302
 8521SOL    HW126462   2.165   5.133   6.258
 8521SOL    HW226463   2.029   5.075   6.328
 8522SOL     OW26464   1.484   6.578   1.331
 8522SOL    HW126465   1.422   6.590   1.254
 8522SOL    HW226466   1.496   6.480   1.350
 8523SOL     OW26467   2.073   6.300   6.802
 8523SOL    HW126468   2.013   6.373   6.770
 8523SOL    HW226469   2.028   6.212   6.788
 8524SOL     OW26470   0.365   2.390   4.577
 8524SOL    HW126471   0.439   2.456   4.560
 8524SOL    HW226472   0.301   2.391   4.500
 8525SOL     OW26473   6.003   3.775   3.023
 8525SOL    HW126474   6.031   3.801   2.931
 8525SOL    HW226475   5.937   3.700   3.018
 8526SOL     OW26476   3.660   5.767   6.827
 8526SOL    HW126477   3.617   5.857   6.817
 8526SOL    HW226478   3.648   5.715   6.743
 8527SOL     OW26479   2.795   0.448   6.241
 8527SOL    HW126480   2.838   0.476   6.155
 8527SOL    HW226481   2.806   0.349   6.253
 8528SOL     OW26482   3.898   2.131   6.088
 8528SOL    HW126483   3.979   2.183   6.119
 8528SOL    HW226484   3.844   2.104   6.168
 8529SOL     OW26485   0.864   0.327   1.387
 8529SOL    HW126486   0.956   0.311   1.351
 8529SOL    HW226487   0.863   0.411   1.440
 8530SOL     OW26488   3.038   3.968   4.824
 8530SOL    HW126489   2.981   3.886   4.818
 8530SOL    HW226490   3.088   3.980   4.738
 8531SOL     OW26491   6.632   5.324   2.416
 8531SOL    HW126492   6.633   5.349   2.319
 8531SOL    HW226493   6.724   5.295   2.443
 8532SOL     OW26494   3.618   4.969   4.683
 8532SOL    HW126495   3.697   4.929   4.635
 8532SOL    HW226496   3.534   4.926   4.650
 8533SOL     OW26497   1.582   0.217   6.218
 8533SOL    HW126498   1.601   0.272   6.299
 8533SOL    HW226499   1.626   0.127   6.227
 8534SOL     OW26500   6.227   2.899   4.061
 8534SOL    HW126501   6.307   2.850   4.096
 8534SOL    HW226502   6.145   2.844   4.074
 8535SOL     OW26503   6.740   1.516   4.650
 8535SOL    HW126504   6.697   1.604   4.670
 8535SOL    HW226505   6.742   1.460   4.732
 8536SOL     OW26506   6.186   2.231   5.226
 8536SOL    HW126507   6.254   2.251   5.156
 8536SOL    HW226508   6.231   2.208   5.312
 8537SOL     OW26509   5.344   1.525   1.787
 8537SOL    HW126510   5.266   1.463   1.792
 8537SOL    HW226511   5.330   1.590   1.713
 8538SOL     OW26512   0.728   0.975   6.485
 8538SOL    HW126513   0.765   0.985   6.392
 8538SOL    HW226514   0.772   0.899   6.530
 8539SOL     OW26515   5.650   1.295   2.109
 8539SOL    HW126516   5.710   1.372   2.133
 8539SOL    HW226517   5.648   1.230   2.185
 8540SOL     OW26518   4.821   0.496   0.151
 8540SOL    HW126519   4.802   0.545   0.066
 8540SOL    HW226520   4.761   0.417   0.159
 8541SOL     OW26521   2.627   1.980   4.698
 8541SOL    HW126522   2.533   1.962   4.724
 8541SOL    HW226523   2.689   1.932   4.760
 8542SOL     OW26524   3.798   4.678   6.462
 8542SOL    HW126525   3.705   4.680   6.497
 8542SOL    HW226526   3.862   4.669   6.538
 8543SOL     OW26527   3.164   0.479   0.464
 8543SOL    HW126528   3.127   0.559   0.512
 8543SOL    HW226529   3.089   0.427   0.425
 8544SOL     OW26530   5.393   3.287   4.916
 8544SOL    HW126531   5.375   3.364   4.855
 8544SOL    HW226532   5.332   3.293   4.996
 8545SOL     OW26533   4.679   6.502   4.748
 8545SOL    HW126534   4.579   6.494   4.748
 8545SOL    HW226535   4.708   6.554   4.667
 8546SOL     OW26536   0.547   0.423   3.413
 8546SOL    HW126537   0.598   0.429   3.327
 8546SOL    HW226538   0.462   0.374   3.397
 8547SOL     OW26539   1.641   6.676   6.444
 8547SOL    HW126540   1.546   6.705   6.430
 8547SOL    HW226541   1.648   6.578   6.428
 8548SOL     OW26542   6.358   3.205   5.574
 8548SOL    HW126543   6.382   3.290   5.527
 8548SOL    HW226544   6.294   3.153   5.518
 8549SOL     OW26545   1.266   2.992   4.514
 8549SOL    HW126546   1.225   3.052   4.445
 8549SOL    HW226547   1.242   2.897   4.495
 8550SOL     OW26548   1.836   4.676   6.675
 8550SOL    HW126549   1.766   4.604   6.680
 8550SOL    HW226550   1.887   4.666   6.589
 8551SOL     OW26551   2.749   3.580   6.476
 8551SOL    HW126552   2.813   3.504   6.473
 8551SOL    HW226553   2.655   3.545   6.481
 8552SOL     OW26554   3.118   0.495   3.640
 8552SOL    HW126555   3.191   0.480   3.707
 8552SOL    HW226556   3.103   0.410   3.588
 8553SOL     OW26557   4.064   3.698   6.495
 8553SOL    HW126558   4.060   3.610   6.542
 8553SOL    HW226559   4.142   3.751   6.529
 8554SOL     OW26560   0.846   4.551   0.662
 8554SOL    HW126561   0.893   4.626   0.616
 8554SOL    HW226562   0.808   4.489   0.594
 8555SOL     OW26563   2.432   1.318   3.684
 8555SOL    HW126564   2.415   1.365   3.598
 8555SOL    HW226565   2.345   1.297   3.729
 8556SOL     OW26566   1.239   5.777   4.915
 8556SOL    HW126567   1.244   5.780   5.015
 8556SOL    HW226568   1.283   5.694   4.882
 8557SOL     OW26569   5.915   6.838   2.988
 8557SOL    HW126570   5.841   6.790   2.941
 8557SOL    HW226571   5.877   6.893   3.062
 8558SOL     OW26572   2.074   4.470   3.126
 8558SOL    HW126573   2.171   4.450   3.140
 8558SOL    HW226574   2.028   4.472   3.215
 8559SOL     OW26575   1.550   0.714   2.187
 8559SOL    HW126576   1.538   0.632   2.130
 8559SOL    HW226577   1.488   0.709   2.266
 8560SOL     OW26578   6.580   6.591   1.591
 8560SOL    HW126579   6.667   6.556   1.556
 8560SOL    HW226580   6.545   6.529   1.662
 8561SOL     OW26581   3.468   0.355   2.218
 8561SOL    HW126582   3.432   0.442   2.184
 8561SOL    HW226583   3.451   0.348   2.316
 8562SOL     OW26584   4.142   6.347   5.924
 8562SOL    HW126585   4.101   6.419   5.980
 8562SOL    HW226586   4.219   6.307   5.973
 8563SOL     OW26587   1.644   4.436   0.242
 8563SOL    HW126588   1.620   4.507   0.175
 8563SOL    HW226589   1.638   4.474   0.334
 8564SOL     OW26590   3.431   0.830   5.040
 8564SOL    HW126591   3.503   0.826   4.971
 8564SOL    HW226592   3.419   0.925   5.071
 8565SOL     OW26593   3.897   5.200   1.088
 8565SOL    HW126594   3.807   5.175   1.053
 8565SOL    HW226595   3.911   5.157   1.177
 8566SOL     OW26596   1.690   0.279   1.095
 8566SOL    HW126597   1.710   0.301   1.190
 8566SOL    HW226598   1.741   0.339   1.035
 8567SOL     OW26599   0.637   2.497   3.192
 8567SOL    HW126600   0.614   2.551   3.110
 8567SOL    HW226601   0.627   2.554   3.273
 8568SOL     OW26602   5.619   1.403   6.859
 8568SOL    HW126603   5.548   1.431   6.794
 8568SOL    HW226604   5.609   1.305   6.878
 8569SOL     OW26605   5.032   1.016   6.132
 8569SOL    HW126606   4.984   1.072   6.200
 8569SOL    HW226607   5.083   0.943   6.179
 8570SOL     OW26608   1.662   1.634   5.201
 8570SOL    HW126609   1.638   1.569   5.273
 8570SOL    HW226610   1.610   1.612   5.118
 8571SOL     OW26611   1.575   5.833   4.931
 8571SOL    HW126612   1.524   5.761   4.979
 8571SOL    HW226613   1.665   5.798   4.905
 8572SOL     OW26614   3.378   4.833   6.337
 8572SOL    HW126615   3.443   4.898   6.377
 8572SOL    HW226616   3.426   4.751   6.307
 8573SOL     OW26617   3.317   6.257   0.049
 8573SOL    HW126618   3.238   6.279   7.012
 8573SOL    HW226619   3.350   6.339   0.095
 8574SOL     OW26620   0.156   6.264   5.862
 8574SOL    HW126621   0.241   6.257   5.809
 8574SOL    HW226622   0.119   6.173   5.876
 8575SOL     OW26623   2.352   2.785   4.614
 8575SOL    HW126624   2.303   2.698   4.612
 8575SOL    HW226625   2.450   2.768   4.614
 8576SOL     OW26626   1.513   5.141   6.271
 8576SOL    HW126627   1.458   5.075   6.322
 8576SOL    HW226628   1.475   5.153   6.180
 8577SOL     OW26629   0.702   6.586   5.036
 8577SOL    HW126630   0.730   6.607   5.129
 8577SOL    HW226631   0.784   6.572   4.979
 8578SOL     OW26632   5.424   6.408   3.800
 8578SOL    HW126633   5.365   6.391   3.879
 8578SOL    HW226634   5.493   6.476   3.824
 8579SOL     OW26635   2.037   7.014   2.222
 8579SOL    HW126636   1.964   0.044   2.174
 8579SOL    HW226637   2.010   6.998   2.317
 8580SOL     OW26638   2.171   5.741   1.915
 8580SOL    HW126639   2.127   5.762   1.828
 8580SOL    HW226640   2.121   5.667   1.960
 8581SOL     OW26641   3.308   3.811   1.818
 8581SOL    HW126642   3.292   3.840   1.912
 8581SOL    HW226643   3.267   3.721   1.803
 8582SOL     OW26644   4.271   4.698   4.165
 8582SOL    HW126645   4.332   4.755   4.110
 8582SOL    HW226646   4.177   4.732   4.156
 8583SOL     OW26647   5.512   0.598   4.315
 8583SOL    HW126648   5.554   0.516   4.276
 8583SOL    HW226649   5.418   0.606   4.283
 8584SOL     OW26650   0.693   5.131   5.427
 8584SOL    HW126651   0.647   5.220   5.433
 8584SOL    HW226652   0.626   5.058   5.435
 8585SOL     OW26653   0.539   6.075   5.538
 8585SOL    HW126654   0.614   6.075   5.472
 8585SOL    HW226655   0.554   6.001   5.605
 8586SOL     OW26656   3.171   6.517   2.364
 8586SOL    HW126657   3.138   6.592   2.307
 8586SOL    HW226658   3.230   6.457   2.311
 8587SOL     OW26659   1.081   6.818   3.785
 8587SOL    HW126660   1.013   6.747   3.801
 8587SOL    HW226661   1.051   6.877   3.710
 8588SOL     OW26662   2.640   1.400   0.038
 8588SOL    HW126663   2.726   1.362   0.072
 8588SOL    HW226664   2.643   1.500   0.041
 8589SOL     OW26665   4.538   3.021   5.258
 8589SOL    HW126666   4.460   3.083   5.259
 8589SOL    HW226667   4.539   2.967   5.342
 8590SOL     OW26668   6.752   6.185   3.976
 8590SOL    HW126669   6.715   6.148   4.061
 8590SOL    HW226670   6.802   6.269   3.994
 8591SOL     OW26671   0.501   3.970   6.944
 8591SOL    HW126672   0.482   3.935   0.016
 8591SOL    HW226673   0.588   4.019   6.944
 8592SOL     OW26674   6.705   2.844   6.197
 8592SOL    HW126675   6.752   2.788   6.266
 8592SOL    HW226676   6.624   2.885   6.238
 8593SOL     OW26677   2.180   1.391   1.049
 8593SOL    HW126678   2.223   1.468   1.002
 8593SOL    HW226679   2.167   1.316   0.984
 8594SOL     OW26680   4.107   2.370   5.465
 8594SOL    HW126681   4.116   2.357   5.564
 8594SOL    HW226682   4.032   2.434   5.447
 8595SOL     OW26683   0.448   2.168   2.987
 8595SOL    HW126684   0.391   2.165   3.069
 8595SOL    HW226685   0.411   2.234   2.923
 8596SOL     OW26686   0.937   5.495   3.247
 8596SOL    HW126687   1.006   5.530   3.312
 8596SOL    HW226688   0.890   5.572   3.205
 8597SOL     OW26689   4.203   1.579   0.940
 8597SOL    HW126690   4.207   1.493   0.989
 8597SOL    HW226691   4.175   1.652   1.002
 8598SOL     OW26692   6.239   0.182   0.817
 8598SOL    HW126693   6.241   0.084   0.800
 8598SOL    HW226694   6.320   0.208   0.869
 8599SOL     OW26695   1.186   2.707   5.051
 8599SOL    HW126696   1.130   2.657   4.986
 8599SOL    HW226697   1.280   2.713   5.017
 8600SOL     OW26698   5.117   4.788   4.993
 8600SOL    HW126699   5.133   4.709   4.935
 8600SOL    HW226700   5.194   4.800   5.055
 8601SOL     OW26701   1.286   1.524   4.322
 8601SOL    HW126702   1.317   1.545   4.414
 8601SOL    HW226703   1.326   1.437   4.293
 8602SOL     OW26704   2.899   5.292   1.631
 8602SOL    HW126705   2.862   5.204   1.661
 8602SOL    HW226706   2.870   5.364   1.694
 8603SOL     OW26707   4.722   6.031   0.874
 8603SOL    HW126708   4.808   6.010   0.921
 8603SOL    HW226709   4.676   6.106   0.921
 8604SOL     OW26710   0.282   2.878   5.255
 8604SOL    HW126711   0.305   2.944   5.184
 8604SOL    HW226712   0.328   2.792   5.236
 8605SOL     OW26713   3.011   6.314   3.720
 8605SOL    HW126714   2.917   6.347   3.720
 8605SOL    HW226715   3.012   6.214   3.722
 8606SOL     OW26716   1.447   3.256   6.633
 8606SOL    HW126717   1.505   3.338   6.632
 8606SOL    HW226718   1.474   3.196   6.557
 8607SOL     OW26719   3.662   6.067   0.736
 8607SOL    HW126720   3.692   6.094   0.644
 8607SOL    HW226721   3.611   6.143   0.777
 8608SOL     OW26722   3.854   4.798   2.596
 8608SOL    HW126723   3.880   4.708   2.562
 8608SOL    HW226724   3.776   4.833   2.544
 8609SOL     OW26725   4.820   0.690   2.720
 8609SOL    HW126726   4.736   0.699   2.666
 8609SOL    HW226727   4.884   0.762   2.695
 8610SOL     OW26728   1.717   2.397   2.920
 8610SOL    HW126729   1.638   2.337   2.905
 8610SOL    HW226730   1.754   2.426   2.831
 8611SOL     OW26731   3.058   1.355   5.220
 8611SOL    HW126732   3.018   1.432   5.270
 8611SOL    HW226733   3.066   1.378   5.123
 8612SOL     OW26734   2.808   3.500   1.115
 8612SOL    HW126735   2.755   3.462   1.191
 8612SOL    HW226736   2.852   3.425   1.065
 8613SOL     OW26737   2.112   1.708   1.382
 8613SOL    HW126738   2.027   1.715   1.434
 8613SOL    HW226739   2.102   1.758   1.296
 8614SOL     OW26740   0.740   2.545   2.448
 8614SOL    HW126741   0.770   2.491   2.527
 8614SOL    HW226742   0.643   2.527   2.431
 8615SOL     OW26743   4.393   1.193   5.062
 8615SOL    HW126744   4.458   1.116   5.056
 8615SOL    HW226745   4.420   1.265   4.999
 8616SOL     OW26746   3.051   4.479   1.608
 8616SOL    HW126747   3.004   4.472   1.696
 8616SOL    HW226748   3.074   4.575   1.590
 8617SOL     OW26749   6.373   1.221   6.639
 8617SOL    HW126750   6.393   1.170   6.555
 8617SOL    HW226751   6.292   1.278   6.625
 8618SOL     OW26752   5.797   5.864   0.781
 8618SOL    HW126753   5.852   5.941   0.814
 8618SOL    HW226754   5.770   5.807   0.858
 8619SOL     OW26755   3.873   4.980   2.276
 8619SOL    HW126756   3.884   4.964   2.178
 8619SOL    HW226757   3.956   5.021   2.313
 8620SOL     OW26758   1.532   0.929   3.853
 8620SOL    HW126759   1.505   0.849   3.800
 8620SOL    HW226760   1.455   0.960   3.909
 8621SOL     OW26761   5.744   1.974   3.076
 8621SOL    HW126762   5.815   2.041   3.055
 8621SOL    HW226763   5.659   2.021   3.098
 8622SOL     OW26764   5.447   3.486   0.848
 8622SOL    HW126765   5.430   3.535   0.763
 8622SOL    HW226766   5.363   3.480   0.901
 8623SOL     OW26767   1.116   3.934   4.527
 8623SOL    HW126768   1.164   3.846   4.519
 8623SOL    HW226769   1.027   3.919   4.571
 8624SOL     OW26770   1.386   3.596   4.865
 8624SOL    HW126771   1.355   3.636   4.952
 8624SOL    HW226772   1.481   3.565   4.875
 8625SOL     OW26773   4.472   0.619   6.239
 8625SOL    HW126774   4.401   0.685   6.215
 8625SOL    HW226775   4.478   0.549   6.168
 8626SOL     OW26776   3.666   3.203   5.996
 8626SOL    HW126777   3.665   3.106   5.971
 8626SOL    HW226778   3.702   3.257   5.919
 8627SOL     OW26779   1.260   1.962   3.434
 8627SOL    HW126780   1.328   1.913   3.380
 8627SOL    HW226781   1.222   1.901   3.503
 8628SOL     OW26782   6.565   6.920   0.588
 8628SOL    HW126783   6.662   6.935   0.608
 8628SOL    HW226784   6.532   6.841   0.639
 8629SOL     OW26785   1.263   5.474   5.037
 8629SOL    HW126786   1.188   5.474   5.104
 8629SOL    HW226787   1.226   5.449   4.947
 8630SOL     OW26788   5.410   4.225   3.668
 8630SOL    HW126789   5.403   4.288   3.745
 8630SOL    HW226790   5.382   4.133   3.698
 8631SOL     OW26791   0.891   4.826   6.201
 8631SOL    HW126792   0.872   4.739   6.155
 8631SOL    HW226793   0.961   4.876   6.151
 8632SOL     OW26794   3.608   5.416   4.317
 8632SOL    HW126795   3.570   5.349   4.253
 8632SOL    HW226796   3.672   5.476   4.269
 8633SOL     OW26797   5.231   1.519   5.818
 8633SOL    HW126798   5.184   1.456   5.757
 8633SOL    HW226799   5.200   1.504   5.912
 8634SOL     OW26800   5.115   3.754   0.662
 8634SOL    HW126801   5.069   3.787   0.745
 8634SOL    HW226802   5.058   3.684   0.618
 8635SOL     OW26803   5.492   3.799   6.270
 8635SOL    HW126804   5.586   3.829   6.283
 8635SOL    HW226805   5.488   3.729   6.198
 8636SOL     OW26806   5.229   5.780   0.955
 8636SOL    HW126807   5.142   5.764   0.908
 8636SOL    HW226808   5.295   5.819   0.890
 8637SOL     OW26809   1.813   1.034   0.435
 8637SOL    HW126810   1.755   1.095   0.381
 8637SOL    HW226811   1.856   0.966   0.374
 8638SOL     OW26812   2.833   2.859   5.672
 8638SOL    HW126813   2.915   2.908   5.704
 8638SOL    HW226814   2.836   2.852   5.572
 8639SOL     OW26815   5.357   2.642   0.661
 8639SOL    HW126816   5.446   2.669   0.624
 8639SOL    HW226817   5.305   2.723   0.686
 8640SOL     OW26818   4.259   3.880   6.548
 8640SOL    HW126819   4.352   3.859   6.579
 8640SOL    HW226820   4.262   3.913   6.454
 8641SOL     OW26821   4.714   4.757   3.985
 8641SOL    HW126822   4.698   4.753   4.084
 8641SOL    HW226823   4.780   4.685   3.960
 8642SOL     OW26824   1.729   6.368   2.864
 8642SOL    HW126825   1.698   6.357   2.959
 8642SOL    HW226826   1.700   6.290   2.810
 8643SOL     OW26827   2.545   6.901   6.668
 8643SOL    HW126828   2.576   6.992   6.697
 8643SOL    HW226829   2.624   6.843   6.650
 8644SOL     OW26830   5.106   2.474   5.169
 8644SOL    HW126831   5.191   2.445   5.211
 8644SOL    HW226832   5.069   2.400   5.114
 8645SOL     OW26833   4.590   4.502   1.567
 8645SOL    HW126834   4.669   4.564   1.574
 8645SOL    HW226835   4.601   4.444   1.486
 8646SOL     OW26836   6.626   1.808   1.309
 8646SOL    HW126837   6.643   1.851   1.220
 8646SOL    HW226838   6.530   1.819   1.333
 8647SOL     OW26839   2.994   5.659   6.509
 8647SOL    HW126840   2.978   5.745   6.559
 8647SOL    HW226841   3.066   5.607   6.556
 8648SOL     OW26842   6.251   0.583   3.208
 8648SOL    HW126843   6.225   0.506   3.266
 8648SOL    HW226844   6.260   0.665   3.265
 8649SOL     OW26845   5.427   4.966   5.780
 8649SOL    HW126846   5.339   5.000   5.748
 8649SOL    HW226847   5.467   4.907   5.710
 8650SOL     OW26848   2.555   5.010   4.801
 8650SOL    HW126849   2.489   4.961   4.744
 8650SOL    HW226850   2.579   5.096   4.758
 8651SOL     OW26851   4.272   6.770   6.759
 8651SOL    HW126852   4.190   6.823   6.738
 8651SOL    HW226853   4.248   6.695   6.820
 8652SOL     OW26854   1.812   4.725   4.376
 8652SOL    HW126855   1.880   4.724   4.302
 8652SOL    HW226856   1.788   4.632   4.401
 8653SOL     OW26857   5.780   0.206   6.163
 8653SOL    HW126858   5.752   0.264   6.086
 8653SOL    HW226859   5.750   0.248   6.249
 8654SOL     OW26860   0.827   4.800   1.564
 8654SOL    HW126861   0.886   4.729   1.525
 8654SOL    HW226862   0.840   4.885   1.512
 8655SOL     OW26863   0.103   1.361   3.968
 8655SOL    HW126864   0.195   1.327   3.986
 8655SOL    HW226865   0.082   1.435   4.033
 8656SOL     OW26866   6.607   0.252   1.184
 8656SOL    HW126867   6.676   0.219   1.248
 8656SOL    HW226868   6.594   0.350   1.195
 8657SOL     OW26869   5.466   4.510   0.266
 8657SOL    HW126870   5.439   4.594   0.313
 8657SOL    HW226871   5.563   4.493   0.280
 8658SOL     OW26872   5.667   6.368   0.135
 8658SOL    HW126873   5.604   6.299   0.170
 8658SOL    HW226874   5.669   6.365   0.035
 8659SOL     OW26875   4.210   2.006   2.650
 8659SOL    HW126876   4.173   1.913   2.648
 8659SOL    HW226877   4.174   2.055   2.729
 8660SOL     OW26878   6.371   3.844   1.943
 8660SOL    HW126879   6.402   3.898   2.020
 8660SOL    HW226880   6.273   3.861   1.927
 8661SOL     OW26881   6.247   4.447   0.729
 8661SOL    HW126882   6.233   4.374   0.661
 8661SOL    HW226883   6.344   4.461   0.744
 8662SOL     OW26884   4.439   5.625   1.375
 8662SOL    HW126885   4.349   5.585   1.357
 8662SOL    HW226886   4.432   5.724   1.379
 8663SOL     OW26887   3.213   6.107   1.657
 8663SOL    HW126888   3.158   6.125   1.575
 8663SOL    HW226889   3.153   6.081   1.732
 8664SOL     OW26890   1.359   6.092   0.877
 8664SOL    HW126891   1.420   6.035   0.932
 8664SOL    HW226892   1.396   6.102   0.785
 8665SOL     OW26893   5.521   6.166   4.986
 8665SOL    HW126894   5.614   6.155   5.020
 8665SOL    HW226895   5.497   6.089   4.927
 8666SOL     OW26896   5.343   1.278   3.948
 8666SOL    HW126897   5.315   1.279   3.853
 8666SOL    HW226898   5.264   1.294   4.007
 8667SOL     OW26899   4.443   2.467   2.925
 8667SOL    HW126900   4.440   2.497   2.830
 8667SOL    HW226901   4.412   2.372   2.932
 8668SOL     OW26902   4.900   3.308   3.117
 8668SOL    HW126903   4.956   3.354   3.186
 8668SOL    HW226904   4.942   3.319   3.027
 8669SOL     OW26905   1.868   6.527   5.942
 8669SOL    HW126906   1.769   6.526   5.956
 8669SOL    HW226907   1.911   6.581   6.014
 8670SOL     OW26908   3.757   4.421   5.368
 8670SOL    HW126909   3.740   4.381   5.279
 8670SOL    HW226910   3.724   4.515   5.369
 8671SOL     OW26911   5.274   1.653   2.655
 8671SOL    HW126912   5.368   1.661   2.623
 8671SOL    HW226913   5.264   1.568   2.707
 8672SOL     OW26914   1.406   5.223   4.623
 8672SOL    HW126915   1.344   5.145   4.618
 8672SOL    HW226916   1.501   5.191   4.626
 8673SOL     OW26917   6.166   2.838   0.286
 8673SOL    HW126918   6.265   2.823   0.289
 8673SOL    HW226919   6.130   2.805   0.199
 8674SOL     OW26920   5.190   5.998   3.179
 8674SOL    HW126921   5.206   5.979   3.276
 8674SOL    HW226922   5.276   5.988   3.129
 8675SOL     OW26923   3.278   2.122   4.032
 8675SOL    HW126924   3.277   2.219   4.056
 8675SOL    HW226925   3.250   2.068   4.112
 8676SOL     OW26926   4.573   6.956   2.577
 8676SOL    HW126927   4.507   0.010   2.563
 8676SOL    HW226928   4.640   6.984   2.646
 8677SOL     OW26929   2.160   5.526   5.946
 8677SOL    HW126930   2.061   5.545   5.947
 8677SOL    HW226931   2.175   5.429   5.929
 8678SOL     OW26932   6.807   0.200   2.342
 8678SOL    HW126933   6.847   0.287   2.311
 8678SOL    HW226934   6.859   0.124   2.303
 8679SOL     OW26935   0.080   1.705   3.233
 8679SOL    HW126936   0.102   1.739   3.142
 8679SOL    HW226937   0.150   1.733   3.298
 8680SOL     OW26938   0.545   3.835   0.162
 8680SOL    HW126939   0.543   3.910   0.228
 8680SOL    HW226940   0.638   3.800   0.152
 8681SOL     OW26941   5.100   5.116   0.675
 8681SOL    HW126942   5.052   5.160   0.752
 8681SOL    HW226943   5.033   5.090   0.605
 8682SOL     OW26944   5.280   6.672   2.088
 8682SOL    HW126945   5.301   6.601   2.155
 8682SOL    HW226946   5.210   6.733   2.125
 8683SOL     OW26947   2.059   2.153   4.041
 8683SOL    HW126948   2.084   2.242   4.003
 8683SOL    HW226949   2.134   2.089   4.028
 8684SOL     OW26950   6.611   2.938   5.021
 8684SOL    HW126951   6.564   2.994   5.089
 8684SOL    HW226952   6.680   2.881   5.065
 8685SOL     OW26953   0.552   1.962   6.718
 8685SOL    HW126954   0.602   2.031   6.771
 8685SOL    HW226955   0.597   1.949   6.630
 8686SOL     OW26956   6.943   1.135   2.599
 8686SOL    HW126957   6.976   1.225   2.629
 8686SOL    HW226958   6.876   1.101   2.666
 8687SOL     OW26959   5.115   4.631   1.441
 8687SOL    HW126960   5.146   4.599   1.530
 8687SOL    HW226961   5.138   4.728   1.430
 8688SOL     OW26962   2.353   5.525   6.897
 8688SOL    HW126963   2.266   5.561   6.864
 8688SOL    HW226964   2.353   5.425   6.887
 8689SOL     OW26965   3.752   3.756   1.520
 8689SOL    HW126966   3.663   3.802   1.520
 8689SOL    HW226967   3.783   3.742   1.426
 8690SOL     OW26968   1.867   3.971   3.424
 8690SOL    HW126969   1.835   3.986   3.331
 8690SOL    HW226970   1.895   3.876   3.435
 8691SOL     OW26971   2.886   1.653   5.805
 8691SOL    HW126972   2.980   1.640   5.838
 8691SOL    HW226973   2.833   1.570   5.823
 8692SOL     OW26974   2.575   1.136   5.240
 8692SOL    HW126975   2.528   1.160   5.324
 8692SOL    HW226976   2.540   1.191   5.164
 8693SOL     OW26977   5.670   0.651   0.015
 8693SOL    HW126978   5.674   0.576   6.968
 8693SOL    HW226979   5.724   0.628   0.096
 8694SOL     OW26980   4.791   0.466   5.190
 8694SOL    HW126981   4.713   0.513   5.232
 8694SOL    HW226982   4.835   0.407   5.258
 8695SOL     OW26983   4.176   3.410   6.225
 8695SOL    HW126984   4.231   3.428   6.144
 8695SOL    HW226985   4.118   3.490   6.244
 8696SOL     OW26986   2.334   5.084   6.198
 8696SOL    HW126987   2.376   5.171   6.171
 8696SOL    HW226988   2.404   5.024   6.236
 8697SOL     OW26989   0.096   2.758   6.281
 8697SOL    HW126990   0.071   2.670   6.319
 8697SOL    HW226991   0.017   2.820   6.284
 8698SOL     OW26992   4.889   6.222   5.257
 8698SOL    HW126993   4.867   6.203   5.161
 8698SOL    HW226994   4.979   6.186   5.279
 8699SOL     OW26995   1.763   2.347   5.249
 8699SOL    HW126996   1.783   2.355   5.347
 8699SOL    HW226997   1.664   2.348   5.235
 8700SOL     OW26998   1.118   1.356   3.928
 8700SOL    HW126999   1.129   1.398   4.019
 8700SOL    HW227000   1.048   1.285   3.934
 8701SOL     OW27001   0.973   0.951   0.609
 8701SOL    HW127002   0.991   0.985   0.516
 8701SOL    HW227003   1.038   0.878   0.631
 8702SOL     OW27004   5.519   5.142   1.988
 8702SOL    HW127005   5.422   5.127   2.006
 8702SOL    HW227006   5.552   5.075   1.922
 8703SOL     OW27007   2.960   5.007   6.504
 8703SOL    HW127008   3.031   5.036   6.439
 8703SOL    HW227009   2.960   5.068   6.583
 8704SOL     OW27010   0.248   3.811   3.372
 8704SOL    HW127011   0.161   3.814   3.323
 8704SOL    HW227012   0.308   3.883   3.337
 8705SOL     OW27013   5.611   1.146   6.161
 8705SOL    HW127014   5.706   1.171   6.145
 8705SOL    HW227015   5.573   1.204   6.234
 8706SOL     OW27016   4.728   2.165   6.825
 8706SOL    HW127017   4.794   2.191   6.896
 8706SOL    HW227018   4.760   2.082   6.780
 8707SOL     OW27019   6.632   1.389   6.309
 8707SOL    HW127020   6.670   1.417   6.398
 8707SOL    HW227021   6.536   1.416   6.304
 8708SOL     OW27022   4.391   1.556   2.507
 8708SOL    HW127023   4.469   1.618   2.509
 8708SOL    HW227024   4.306   1.609   2.496
 8709SOL     OW27025   0.004   6.612   0.016
 8709SOL    HW127026   0.013   6.663   6.950
 8709SOL    HW227027   7.010   6.675   0.092
 8710SOL     OW27028   1.878   3.255   4.001
 8710SOL    HW127029   1.912   3.163   4.023
 8710SOL    HW227030   1.826   3.290   4.080
 8711SOL     OW27031   2.020   0.093   3.185
 8711SOL    HW127032   1.936   0.070   3.135
 8711SOL    HW227033   2.099   0.061   3.133
 8712SOL     OW27034   3.912   1.957   4.823
 8712SOL    HW127035   3.880   2.014   4.747
 8712SOL    HW227036   3.872   1.866   4.814
 8713SOL     OW27037   6.452   3.145   4.028
 8713SOL    HW127038   6.543   3.134   4.068
 8713SOL    HW227039   6.383   3.120   4.096
 8714SOL     OW27040   0.451   0.456   5.846
 8714SOL    HW127041   0.472   0.369   5.801
 8714SOL    HW227042   0.438   0.439   5.944
 8715SOL     OW27043   4.481   0.046   0.499
 8715SOL    HW127044   4.381   0.040   0.503
 8715SOL    HW227045   4.520   7.007   0.570
 8716SOL     OW27046   6.834   0.138   1.334
 8716SOL    HW127047   6.848   0.089   1.420
 8716SOL    HW227048   6.884   0.224   1.335
 8717SOL     OW27049   2.961   3.215   4.500
 8717SOL    HW127050   2.968   3.294   4.440
 8717SOL    HW227051   2.866   3.184   4.503
 8718SOL     OW27052   1.845   3.759   5.479
 8718SOL    HW127053   1.842   3.702   5.397
 8718SOL    HW227054   1.905   3.715   5.547
 8719SOL     OW27055   3.622   0.474   6.467
 8719SOL    HW127056   3.563   0.394   6.473
 8719SOL    HW227057   3.699   0.465   6.530
 8720SOL     OW27058   6.704   5.422   5.870
 8720SOL    HW127059   6.726   5.513   5.837
 8720SOL    HW227060   6.684   5.425   5.968
 8721SOL     OW27061   6.877   3.026   1.921
 8721SOL    HW127062   6.918   3.117   1.915
 8721SOL    HW227063   6.836   3.002   1.833
 8722SOL     OW27064   3.813   1.459   6.755
 8722SOL    HW127065   3.732   1.410   6.723
 8722SOL    HW227066   3.785   1.547   6.794
 8723SOL     OW27067   5.685   5.970   1.329
 8723SOL    HW127068   5.707   6.040   1.397
 8723SOL    HW227069   5.608   6.001   1.273
 8724SOL     OW27070   4.429   6.770   5.117
 8724SOL    HW127071   4.433   6.672   5.100
 8724SOL    HW227072   4.425   6.819   5.030
 8725SOL     OW27073   1.787   6.083   5.909
 8725SOL    HW127074   1.811   6.127   5.822
 8725SOL    HW227075   1.852   6.112   5.979
 8726SOL     OW27076   6.652   1.416   3.389
 8726SOL    HW127077   6.680   1.500   3.343
 8726SOL    HW227078   6.713   1.341   3.362
 8727SOL     OW27079   6.435   6.602   2.160
 8727SOL    HW127080   6.428   6.647   2.071
 8727SOL    HW227081   6.520   6.549   2.164
 8728SOL     OW27082   6.311   0.384   2.193
 8728SOL    HW127083   6.224   0.339   2.209
 8728SOL    HW227084   6.380   0.348   2.256
 8729SOL     OW27085   3.618   5.713   4.919
 8729SOL    HW127086   3.589   5.785   4.983
 8729SOL    HW227087   3.680   5.650   4.965
 8730SOL     OW27088   6.296   4.355   2.554
 8730SOL    HW127089   6.287   4.289   2.629
 8730SOL    HW227090   6.393   4.370   2.535
 8731SOL     OW27091   1.843   2.663   3.022
 8731SOL    HW127092   1.865   2.603   3.099
 8731SOL    HW227093   1.865   2.617   2.937
 8732SOL     OW27094   5.865   5.100   1.772
 8732SOL    HW127095   5.919   5.089   1.856
 8732SOL    HW227096   5.890   5.186   1.728
 8733SOL     OW27097   1.742   5.178   1.613
 8733SOL    HW127098   1.680   5.224   1.676
 8733SOL    HW227099   1.813   5.130   1.665
 8734SOL     OW27100   0.997   4.593   2.063
 8734SOL    HW127101   0.959   4.684   2.082
 8734SOL    HW227102   1.093   4.592   2.090
 8735SOL     OW27103   1.195   2.504   0.855
 8735SOL    HW127104   1.290   2.474   0.851
 8735SOL    HW227105   1.135   2.427   0.835
 8736SOL     OW27106   0.327   5.536   0.042
 8736SOL    HW127107   0.237   5.504   0.070
 8736SOL    HW227108   0.321   5.580   6.972
 8737SOL     OW27109   1.663   6.205   6.891
 8737SOL    HW127110   1.648   6.298   6.858
 8737SOL    HW227111   1.737   6.204   6.959
 8738SOL     OW27112   2.726   5.740   4.384
 8738SOL    HW127113   2.652   5.748   4.318
 8738SOL    HW227114   2.813   5.764   4.341
 8739SOL     OW27115   5.904   5.269   6.816
 8739SOL    HW127116   5.976   5.217   6.770
 8739SOL    HW227117   5.863   5.214   6.888
 8740SOL     OW27118   4.615   1.301   4.575
 8740SOL    HW127119   4.705   1.302   4.531
 8740SOL    HW227120   4.547   1.339   4.513
 8741SOL     OW27121   2.809   1.111   2.401
 8741SOL    HW127122   2.884   1.152   2.348
 8741SOL    HW227123   2.836   1.106   2.498
 8742SOL     OW27124   5.466   6.197   1.525
 8742SOL    HW127125   5.429   6.105   1.534
 8742SOL    HW227126   5.498   6.228   1.615
 8743SOL     OW27127   1.746   0.088   2.097
 8743SOL    HW127128   1.769   0.071   2.001
 8743SOL    HW227129   1.652   0.057   2.115
 8744SOL     OW27130   4.065   2.751   6.689
 8744SOL    HW127131   4.149   2.773   6.639
 8744SOL    HW227132   4.006   2.696   6.630
 8745SOL     OW27133   6.224   2.724   6.725
 8745SOL    HW127134   6.233   2.661   6.648
 8745SOL    HW227135   6.312   2.732   6.772
 8746SOL     OW27136   4.561   5.307   4.401
 8746SOL    HW127137   4.560   5.388   4.460
 8746SOL    HW227138   4.490   5.243   4.431
 8747SOL     OW27139   0.806   2.933   3.086
 8747SOL    HW127140   0.880   2.958   3.147
 8747SOL    HW227141   0.823   2.971   2.995
 8748SOL     OW27142   6.578   1.384   4.453
 8748SOL    HW127143   6.616   1.364   4.362
 8748SOL    HW227144   6.646   1.431   4.508
 8749SOL     OW27145   2.204   0.587   4.862
 8749SOL    HW127146   2.217   0.545   4.772
 8749SOL    HW227147   2.112   0.624   4.869
 8750SOL     OW27148   3.134   3.762   4.999
 8750SOL    HW127149   3.088   3.846   4.967
 8750SOL    HW227150   3.230   3.765   4.971
 8751SOL     OW27151   5.562   1.501   2.312
 8751SOL    HW127152   5.515   1.511   2.224
 8751SOL    HW227153   5.656   1.472   2.296
 8752SOL     OW27154   2.904   3.074   7.014
 8752SOL    HW127155   2.855   3.113   6.936
 8752SOL    HW227156   2.861   2.988   0.021
 8753SOL     OW27157   4.287   2.090   5.839
 8753SOL    HW127158   4.229   2.165   5.805
 8753SOL    HW227159   4.309   2.107   5.935
 8754SOL     OW27160   2.254   3.472   5.885
 8754SOL    HW127161   2.254   3.570   5.906
 8754SOL    HW227162   2.183   3.453   5.816
 8755SOL     OW27163   1.931   0.811   0.768
 8755SOL    HW127164   1.860   0.789   0.702
 8755SOL    HW227165   1.955   0.729   0.820
 8756SOL     OW27166   0.847   3.134   3.897
 8756SOL    HW127167   0.941   3.105   3.915
 8756SOL    HW227168   0.784   3.075   3.949
 8757SOL     OW27169   4.100   5.856   6.350
 8757SOL    HW127170   4.184   5.890   6.306
 8757SOL    HW227171   4.117   5.766   6.388
 8758SOL     OW27172   4.928   5.887   2.296
 8758SOL    HW127173   5.017   5.919   2.329
 8758SOL    HW227174   4.941   5.811   2.232
 8759SOL     OW27175   5.007   2.578   0.099
 8759SOL    HW127176   4.979   2.662   0.146
 8759SOL    HW227177   5.016   2.596   0.001
 8760SOL     OW27178   2.180   1.170   5.363
 8760SOL    HW127179   2.222   1.258   5.339
 8760SOL    HW227180   2.188   1.108   5.285
 8761SOL     OW27181   6.418   2.042   1.788
 8761SOL    HW127182   6.493   2.087   1.738
 8761SOL    HW227183   6.333   2.091   1.770
 8762SOL     OW27184   1.547   4.242   2.981
 8762SOL    HW127185   1.503   4.159   3.014
 8762SOL    HW227186   1.495   4.322   3.011
 8763SOL     OW27187   6.916   6.658   5.937
 8763SOL    HW127188   6.922   6.567   5.895
 8763SOL    HW227189   6.947   6.653   6.032
 8764SOL     OW27190   4.666   0.756   4.872
 8764SOL    HW127191   4.700   0.662   4.865
 8764SOL    HW227192   4.679   0.803   4.785
 8765SOL     OW27193   5.021   6.767   3.882
 8765SOL    HW127194   5.048   6.823   3.960
 8765SOL    HW227195   4.922   6.776   3.869
 8766SOL     OW27196   4.744   4.651   4.255
 8766SOL    HW127197   4.675   4.585   4.285
 8766SOL    HW227198   4.835   4.609   4.263
 8767SOL     OW27199   4.955   5.356   2.892
 8767SOL    HW127200   5.042   5.374   2.936
 8767SOL    HW227201   4.897   5.302   2.953
 8768SOL     OW27202   1.087   2.650   0.348
 8768SOL    HW127203   0.989   2.632   0.354
 8768SOL    HW227204   1.136   2.563   0.348
 8769SOL     OW27205   0.064   0.652   4.150
 8769SOL    HW127206   0.095   0.745   4.168
 8769SOL    HW227207   0.051   0.640   4.051
 8770SOL     OW27208   4.792   4.148   2.258
 8770SOL    HW127209   4.856   4.072   2.255
 8770SOL    HW227210   4.698   4.113   2.262
 8771SOL     OW27211   1.059   1.598   6.515
 8771SOL    HW127212   1.149   1.561   6.537
 8771SOL    HW227213   1.004   1.604   6.598
 8772SOL     OW27214   5.167   0.376   6.102
 8772SOL    HW127215   5.198   0.349   6.011
 8772SOL    HW227216   5.141   0.294   6.154
 8773SOL     OW27217   4.463   2.470   3.593
 8773SOL    HW127218   4.469   2.526   3.676
 8773SOL    HW227219   4.538   2.405   3.591
 8774SOL     OW27220   1.220   0.875   0.169
 8774SOL    HW127221   1.247   0.967   0.199
 8774SOL    HW227222   1.240   0.809   0.242
 8775SOL     OW27223   5.724   6.629   5.305
 8775SOL    HW127224   5.726   6.654   5.402
 8775SOL    HW227225   5.666   6.549   5.293
 8776SOL     OW27226   3.608   2.879   6.762
 8776SOL    HW127227   3.684   2.846   6.818
 8776SOL    HW227228   3.546   2.803   6.741
 8777SOL     OW27229   0.318   4.078   2.431
 8777SOL    HW127230   0.222   4.095   2.411
 8777SOL    HW227231   0.375   4.149   2.388
 8778SOL     OW27232   5.014   2.948   5.269
 8778SOL    HW127233   5.050   2.862   5.305
 8778SOL    HW227234   5.000   2.940   5.171
 8779SOL     OW27235   2.880   5.189   2.630
 8779SOL    HW127236   2.952   5.135   2.672
 8779SOL    HW227237   2.800   5.131   2.613
 8780SOL     OW27238   0.723   6.405   2.912
 8780SOL    HW127239   0.664   6.325   2.913
 8780SOL    HW227240   0.815   6.379   2.942
 8781SOL     OW27241   5.525   1.190   3.220
 8781SOL    HW127242   5.568   1.276   3.247
 8781SOL    HW227243   5.514   1.131   3.300
 8782SOL     OW27244   6.292   6.650   1.395
 8782SOL    HW127245   6.379   6.651   1.446
 8782SOL    HW227246   6.241   6.734   1.413
 8783SOL     OW27247   6.692   4.581   3.776
 8783SOL    HW127248   6.792   4.577   3.787
 8783SOL    HW227249   6.668   4.564   3.681
 8784SOL     OW27250   6.375   3.721   6.066
 8784SOL    HW127251   6.350   3.794   6.002
 8784SOL    HW227252   6.330   3.636   6.039
 8785SOL     OW27253   5.695   3.626   0.232
 8785SOL    HW127254   5.761   3.694   0.199
 8785SOL    HW227255   5.650   3.583   0.154
 8786SOL     OW27256   2.272   0.723   0.530
 8786SOL    HW127257   2.236   0.674   0.609
 8786SOL    HW227258   2.245   0.677   0.446
 8787SOL     OW27259   3.632   1.964   1.572
 8787SOL    HW127260   3.721   2.003   1.548
 8787SOL    HW227261   3.608   1.992   1.665
 8788SOL     OW27262   6.269   1.315   5.576
 8788SOL    HW127263   6.263   1.263   5.491
 8788SOL    HW227264   6.178   1.323   5.616
 8789SOL     OW27265   6.456   6.730   4.664
 8789SOL    HW127266   6.361   6.753   4.687
 8789SOL    HW227267   6.518   6.787   4.718
 8790SOL     OW27268   0.521   0.504   6.773
 8790SOL    HW127269   0.499   0.484   6.678
 8790SOL    HW227270   0.616   0.478   6.791
 8791SOL     OW27271   5.417   6.824   5.043
 8791SOL    HW127272   5.418   6.728   5.018
 8791SOL    HW227273   5.406   6.833   5.142
 8792SOL     OW27274   2.294   6.212   2.881
 8792SOL    HW127275   2.341   6.299   2.898
 8792SOL    HW227276   2.360   6.145   2.845
 8793SOL     OW27277   1.277   4.341   3.184
 8793SOL    HW127278   1.327   4.307   3.263
 8793SOL    HW227279   1.179   4.320   3.195
 8794SOL     OW27280   5.001   0.235   2.294
 8794SOL    HW127281   4.996   0.189   2.206
 8794SOL    HW227282   5.052   0.179   2.359
 8795SOL     OW27283   1.314   5.128   5.667
 8795SOL    HW127284   1.274   5.190   5.735
 8795SOL    HW227285   1.398   5.088   5.703
 8796SOL     OW27286   3.848   2.170   4.653
 8796SOL    HW127287   3.902   2.250   4.627
 8796SOL    HW227288   3.787   2.144   4.578
 8797SOL     OW27289   6.987   0.006   6.784
 8797SOL    HW127290   6.989   0.100   6.751
 8797SOL    HW227291   6.987   0.005   6.884
 8798SOL     OW27292   5.351   5.689   6.256
 8798SOL    HW127293   5.340   5.630   6.336
 8798SOL    HW227294   5.267   5.685   6.201
 8799SOL     OW27295   2.656   4.615   3.526
 8799SOL    HW127296   2.719   4.689   3.549
 8799SOL    HW227297   2.594   4.598   3.603
 8800SOL     OW27298   6.385   3.892   5.311
 8800SOL    HW127299   6.426   3.877   5.401
 8800SOL    HW227300   6.457   3.912   5.245
 8801SOL     OW27301   6.885   1.146   5.234
 8801SOL    HW127302   6.844   1.135   5.325
 8801SOL    HW227303   6.922   1.058   5.203
 8802SOL     OW27304   1.818   6.951   0.254
 8802SOL    HW127305   1.866   6.997   0.329
 8802SOL    HW227306   1.759   6.879   0.291
 8803SOL     OW27307   6.651   6.271   6.941
 8803SOL    HW127308   6.658   6.322   6.856
 8803SOL    HW227309   6.555   6.260   6.966
 8804SOL     OW27310   2.345   6.610   2.074
 8804SOL    HW127311   2.348   6.710   2.064
 8804SOL    HW227312   2.253   6.577   2.053
 8805SOL     OW27313   2.778   6.304   3.471
 8805SOL    HW127314   2.680   6.307   3.490
 8805SOL    HW227315   2.808   6.393   3.436
 8806SOL     OW27316   3.058   5.107   2.270
 8806SOL    HW127317   3.068   5.016   2.229
 8806SOL    HW227318   3.037   5.097   2.367
 8807SOL     OW27319   5.118   0.402   0.441
 8807SOL    HW127320   5.128   0.307   0.411
 8807SOL    HW227321   5.088   0.403   0.537
 8808SOL     OW27322   5.660   2.787   6.803
 8808SOL    HW127323   5.663   2.695   6.764
 8808SOL    HW227324   5.720   2.792   6.882
 8809SOL     OW27325   4.998   5.707   3.204
 8809SOL    HW127326   4.971   5.611   3.214
 8809SOL    HW227327   5.055   5.717   3.123
 8810SOL     OW27328   6.060   0.858   4.877
 8810SOL    HW127329   6.108   0.935   4.919
 8810SOL    HW227330   6.113   0.774   4.892
 8811SOL     OW27331   3.145   0.875   2.440
 8811SOL    HW127332   3.151   0.945   2.511
 8811SOL    HW227333   3.136   0.919   2.351
 8812SOL     OW27334   1.761   0.450   0.870
 8812SOL    HW127335   1.846   0.502   0.876
 8812SOL    HW227336   1.764   0.388   0.792
 8813SOL     OW27337   2.195   4.695   1.583
 8813SOL    HW127338   2.262   4.707   1.656
 8813SOL    HW227339   2.181   4.781   1.535
 8814SOL     OW27340   5.793   6.753   1.002
 8814SOL    HW127341   5.788   6.654   1.018
 8814SOL    HW227342   5.766   6.802   1.085
 8815SOL     OW27343   5.397   6.906   1.283
 8815SOL    HW127344   5.465   6.936   1.350
 8815SOL    HW227345   5.313   6.881   1.330
 8816SOL     OW27346   1.149   6.436   0.262
 8816SOL    HW127347   1.167   6.484   0.176
 8816SOL    HW227348   1.204   6.477   0.335
 8817SOL     OW27349   0.128   5.011   4.082
 8817SOL    HW127350   0.170   4.961   4.158
 8817SOL    HW227351   0.148   4.964   3.996
 8818SOL     OW27352   0.393   4.235   4.645
 8818SOL    HW127353   0.442   4.265   4.563
 8818SOL    HW227354   0.414   4.297   4.721
 8819SOL     OW27355   5.709   5.519   5.225
 8819SOL    HW127356   5.650   5.448   5.187
 8819SOL    HW227357   5.752   5.486   5.308
 8820SOL     OW27358   2.066   0.395   5.252
 8820SOL    HW127359   2.040   0.365   5.344
 8820SOL    HW227360   2.095   0.490   5.254
 8821SOL     OW27361   1.547   5.968   1.047
 8821SOL    HW127362   1.637   6.011   1.043
 8821SOL    HW227363   1.534   5.925   1.137
 8822SOL     OW27364   0.991   0.104   3.847
 8822SOL    HW127365   0.972   0.065   3.757
 8822SOL    HW227366   0.952   0.196   3.852
 8823SOL     OW27367   2.528   0.767   2.466
 8823SOL    HW127368   2.533   0.827   2.546
 8823SOL    HW227369   2.595   0.797   2.398
 8824SOL     OW27370   1.082   2.305   0.486
 8824SOL    HW127371   1.152   2.361   0.441
 8824SOL    HW227372   1.122   2.216   0.510
 8825SOL     OW27373   2.441   1.505   1.656
 8825SOL    HW127374   2.456   1.550   1.745
 8825SOL    HW227375   2.344   1.503   1.636
 8826SOL     OW27376   0.124   3.280   0.263
 8826SOL    HW127377   0.051   3.303   0.328
 8826SOL    HW227378   0.149   3.361   0.211
 8827SOL     OW27379   4.039   1.867   1.799
 8827SOL    HW127380   3.992   1.936   1.853
 8827SOL    HW227381   3.972   1.809   1.753
 8828SOL     OW27382   4.021   5.779   5.896
 8828SOL    HW127383   4.028   5.780   5.797
 8828SOL    HW227384   3.968   5.858   5.927
 8829SOL     OW27385   5.097   3.285   0.682
 8829SOL    HW127386   5.174   3.283   0.746
 8829SOL    HW227387   5.105   3.208   0.618
 8830SOL     OW27388   1.612   1.896   2.703
 8830SOL    HW127389   1.569   1.868   2.617
 8830SOL    HW227390   1.672   1.823   2.735
 8831SOL     OW27391   3.903   2.186   4.234
 8831SOL    HW127392   3.960   2.240   4.173
 8831SOL    HW227393   3.949   2.174   4.322
 8832SOL     OW27394   0.143   6.457   3.459
 8832SOL    HW127395   0.055   6.410   3.465
 8832SOL    HW227396   0.177   6.476   3.551
 8833SOL     OW27397   2.154   5.274   5.829
 8833SOL    HW127398   2.149   5.325   5.744
 8833SOL    HW227399   2.083   5.205   5.831
 8834SOL     OW27400   5.654   4.323   4.581
 8834SOL    HW127401   5.705   4.407   4.601
 8834SOL    HW227402   5.573   4.318   4.640
 8835SOL     OW27403   4.855   1.001   5.253
 8835SOL    HW127404   4.868   0.905   5.226
 8835SOL    HW227405   4.805   1.049   5.181
 8836SOL     OW27406   5.191   2.544   0.450
 8836SOL    HW127407   5.252   2.558   0.529
 8836SOL    HW227408   5.237   2.574   0.367
 8837SOL     OW27409   0.197   6.280   2.454
 8837SOL    HW127410   0.132   6.219   2.408
 8837SOL    HW227411   0.264   6.314   2.388
 8838SOL     OW27412   2.381   5.497   3.469
 8838SOL    HW127413   2.334   5.516   3.554
 8838SOL    HW227414   2.439   5.416   3.481
 8839SOL     OW27415   5.896   5.475   2.256
 8839SOL    HW127416   5.819   5.524   2.297
 8839SOL    HW227417   5.872   5.448   2.163
 8840SOL     OW27418   6.987   1.484   2.466
 8840SOL    HW127419   6.910   1.500   2.528
 8840SOL    HW227420   6.955   1.489   2.371
 8841SOL     OW27421   0.437   0.850   4.987
 8841SOL    HW127422   0.491   0.856   5.072
 8841SOL    HW227423   0.491   0.883   4.910
 8842SOL     OW27424   3.483   3.074   2.701
 8842SOL    HW127425   3.532   3.123   2.629
 8842SOL    HW227426   3.549   3.040   2.768
 8843SOL     OW27427   2.046   3.659   5.670
 8843SOL    HW127428   2.028   3.561   5.674
 8843SOL    HW227429   2.095   3.680   5.586
 8844SOL     OW27430   0.111   1.172   6.336
 8844SOL    HW127431   0.095   1.073   6.336
 8844SOL    HW227432   0.203   1.191   6.371
 8845SOL     OW27433   3.260   3.650   0.771
 8845SOL    HW127434   3.200   3.617   0.844
 8845SOL    HW227435   3.206   3.672   0.690
 8846SOL     OW27436   3.624   5.436   3.983
 8846SOL    HW127437   3.649   5.432   3.886
 8846SOL    HW227438   3.584   5.525   4.003
 8847SOL     OW27439   2.506   0.790   2.900
 8847SOL    HW127440   2.426   0.848   2.885
 8847SOL    HW227441   2.537   0.800   2.995
 8848SOL     OW27442   2.851   2.133   2.336
 8848SOL    HW127443   2.948   2.111   2.334
 8848SOL    HW227444   2.825   2.167   2.426
 8849SOL     OW27445   3.028   6.410   3.204
 8849SOL    HW127446   2.946   6.430   3.258
 8849SOL    HW227447   3.026   6.314   3.174
 8850SOL     OW27448   1.215   1.916   0.114
 8850SOL    HW127449   1.172   1.968   0.040
 8850SOL    HW227450   1.146   1.890   0.181
 8851SOL     OW27451   1.293   5.031   2.531
 8851SOL    HW127452   1.323   5.036   2.436
 8851SOL    HW227453   1.372   5.045   2.592
 8852SOL     OW27454   5.503   3.249   5.545
 8852SOL    HW127455   5.573   3.177   5.545
 8852SOL    HW227456   5.412   3.207   5.540
 8853SOL     OW27457   2.976   1.385   0.816
 8853SOL    HW127458   2.970   1.466   0.875
 8853SOL    HW227459   3.064   1.386   0.768
 8854SOL     OW27460   3.094   1.995   5.704
 8854SOL    HW127461   3.001   1.972   5.734
 8854SOL    HW227462   3.105   1.968   5.608
 8855SOL     OW27463   0.001   5.467   1.583
 8855SOL    HW127464   0.058   5.544   1.554
 8855SOL    HW227465   6.933   5.471   1.534
 8856SOL     OW27466   0.192   6.388   6.332
 8856SOL    HW127467   0.103   6.366   6.370
 8856SOL    HW227468   0.182   6.415   6.236
 8857SOL     OW27469   6.800   1.579   4.115
 8857SOL    HW127470   6.884   1.606   4.067
 8857SOL    HW227471   6.790   1.633   4.198
 8858SOL     OW27472   0.685   3.218   5.671
 8858SOL    HW127473   0.608   3.156   5.685
 8858SOL    HW227474   0.771   3.167   5.678
 8859SOL     OW27475   0.101   0.228   3.940
 8859SOL    HW127476   0.099   0.250   4.037
 8859SOL    HW227477   0.065   0.305   3.887
 8860SOL     OW27478   6.762   2.618   2.964
 8860SOL    HW127479   6.800   2.622   2.871
 8860SOL    HW227480   6.718   2.705   2.986
 8861SOL     OW27481   4.130   1.428   6.297
 8861SOL    HW127482   4.206   1.403   6.358
 8861SOL    HW227483   4.049   1.449   6.352
 8862SOL     OW27484   5.406   0.392   4.049
 8862SOL    HW127485   5.454   0.349   4.126
 8862SOL    HW227486   5.451   0.366   3.963
 8863SOL     OW27487   1.589   4.936   4.389
 8863SOL    HW127488   1.684   4.921   4.415
 8863SOL    HW227489   1.586   4.978   4.298
 8864SOL     OW27490   3.186   4.751   6.155
 8864SOL    HW127491   3.246   4.789   6.225
 8864SOL    HW227492   3.202   4.652   6.147
 8865SOL     OW27493   3.279   0.203   5.992
 8865SOL    HW127494   3.241   0.134   6.053
 8865SOL    HW227495   3.208   0.234   5.929
 8866SOL     OW27496   5.345   0.536   3.393
 8866SOL    HW127497   5.289   0.488   3.325
 8866SOL    HW227498   5.411   0.594   3.346
 8867SOL     OW27499   5.721   4.252   2.978
 8867SOL    HW127500   5.674   4.270   3.064
 8867SOL    HW227501   5.757   4.159   2.978
 8868SOL     OW27502   6.441   2.896   1.155
 8868SOL    HW127503   6.446   2.946   1.242
 8868SOL    HW227504   6.487   2.808   1.164
 8869SOL     OW27505   3.959   5.750   4.704
 8869SOL    HW127506   3.934   5.655   4.686
 8869SOL    HW227507   3.972   5.798   4.618
 8870SOL     OW27508   2.818   0.377   0.592
 8870SOL    HW127509   2.870   0.379   0.507
 8870SOL    HW227510   2.738   0.438   0.583
 8871SOL     OW27511   2.302   1.196   4.391
 8871SOL    HW127512   2.277   1.107   4.429
 8871SOL    HW227513   2.365   1.183   4.315
 8872SOL     OW27514   1.277   4.389   4.828
 8872SOL    HW127515   1.228   4.470   4.861
 8872SOL    HW227516   1.372   4.392   4.860
 8873SOL     OW27517   0.773   6.646   1.761
 8873SOL    HW127518   0.694   6.647   1.700
 8873SOL    HW227519   0.851   6.604   1.714
 8874SOL     OW27520   1.915   6.603   2.523
 8874SOL    HW127521   1.832   6.606   2.578
 8874SOL    HW227522   1.987   6.554   2.573
 8875SOL     OW27523   0.190   3.638   5.050
 8875SOL    HW127524   0.116   3.660   5.115
 8875SOL    HW227525   0.150   3.606   4.965
 8876SOL     OW27526   2.482   6.333   5.183
 8876SOL    HW127527   2.491   6.432   5.176
 8876SOL    HW227528   2.435   6.298   5.103
 8877SOL     OW27529   2.965   2.138   4.291
 8877SOL    HW127530   2.961   2.042   4.320
 8877SOL    HW227531   3.052   2.177   4.318
 8878SOL     OW27532   6.306   4.849   0.651
 8878SOL    HW127533   6.377   4.915   0.625
 8878SOL    HW227534   6.266   4.809   0.568
 8879SOL     OW27535   5.000   4.801   3.090
 8879SOL    HW127536   4.900   4.799   3.097
 8879SOL    HW227537   5.033   4.709   3.068
 8880SOL     OW27538   5.395   5.927   4.892
 8880SOL    HW127539   5.357   5.868   4.821
 8880SOL    HW227540   5.322   5.980   4.935
 8881SOL     OW27541   4.906   6.823   4.167
 8881SOL    HW127542   4.809   6.797   4.175
 8881SOL    HW227543   4.914   6.922   4.172
 8882SOL     OW27544   5.426   1.381   0.859
 8882SOL    HW127545   5.402   1.336   0.945
 8882SOL    HW227546   5.526   1.382   0.849
 8883SOL     OW27547   1.510   6.109   5.850
 8883SOL    HW127548   1.500   6.164   5.933
 8883SOL    HW227549   1.603   6.073   5.844
 8884SOL     OW27550   6.533   3.793   5.516
 8884SOL    HW127551   6.556   3.699   5.491
 8884SOL    HW227552   6.608   3.853   5.491
 8885SOL     OW27553   6.085   3.848   2.027
 8885SOL    HW127554   6.081   3.923   1.960
 8885SOL    HW227555   6.059   3.882   2.117
 8886SOL     OW27556   2.799   6.746   4.701
 8886SOL    HW127557   2.872   6.785   4.645
 8886SOL    HW227558   2.720   6.808   4.700
 8887SOL     OW27559   3.886   0.300   0.259
 8887SOL    HW127560   3.983   0.296   0.284
 8887SOL    HW227561   3.877   0.301   0.160
 8888SOL     OW27562   1.692   1.541   5.847
 8888SOL    HW127563   1.783   1.515   5.815
 8888SOL    HW227564   1.646   1.596   5.777
 8889SOL     OW27565   6.617   0.445   6.617
 8889SOL    HW127566   6.658   0.430   6.707
 8889SOL    HW227567   6.563   0.364   6.591
 8890SOL     OW27568   6.917   6.028   4.718
 8890SOL    HW127569   6.825   6.000   4.743
 8890SOL    HW227570   6.924   6.036   4.619
 8891SOL     OW27571   4.312   3.193   6.709
 8891SOL    HW127572   4.216   3.212   6.686
 8891SOL    HW227573   4.367   3.195   6.625
 8892SOL     OW27574   3.377   5.393   2.827
 8892SOL    HW127575   3.330   5.465   2.777
 8892SOL    HW227576   3.344   5.304   2.796
 8893SOL     OW27577   0.740   5.690   3.950
 8893SOL    HW127578   0.668   5.656   4.010
 8893SOL    HW227579   0.820   5.715   4.005
 8894SOL     OW27580   3.450   2.660   6.740
 8894SOL    HW127581   3.359   2.692   6.713
 8894SOL    HW227582   3.496   2.620   6.660
 8895SOL     OW27583   6.639   2.918   2.142
 8895SOL    HW127584   6.663   2.851   2.072
 8895SOL    HW227585   6.719   2.974   2.163
 8896SOL     OW27586   2.829   3.711   5.483
 8896SOL    HW127587   2.892   3.665   5.546
 8896SOL    HW227588   2.802   3.648   5.410
 8897SOL     OW27589   2.211   3.034   3.296
 8897SOL    HW127590   2.191   2.953   3.350
 8897SOL    HW227591   2.295   3.020   3.244
 8898SOL     OW27592   5.192   3.308   2.291
 8898SOL    HW127593   5.107   3.342   2.250
 8898SOL    HW227594   5.197   3.337   2.386
 8899SOL     OW27595   1.572   5.317   1.786
 8899SOL    HW127596   1.554   5.254   1.861
 8899SOL    HW227597   1.488   5.362   1.758
 8900SOL     OW27598   5.573   2.869   2.757
 8900SOL    HW127599   5.618   2.913   2.679
 8900SOL    HW227600   5.604   2.774   2.764
 8901SOL     OW27601   1.835   0.958   4.981
 8901SOL    HW127602   1.785   1.033   5.024
 8901SOL    HW227603   1.814   0.956   4.883
 8902SOL     OW27604   1.770   6.472   0.547
 8902SOL    HW127605   1.835   6.547   0.540
 8902SOL    HW227606   1.736   6.449   0.456
 8903SOL     OW27607   0.621   1.746   4.569
 8903SOL    HW127608   0.709   1.738   4.521
 8903SOL    HW227609   0.547   1.719   4.508
 8904SOL     OW27610   6.603   0.269   4.163
 8904SOL    HW127611   6.635   0.176   4.176
 8904SOL    HW227612   6.681   0.331   4.158
 8905SOL     OW27613   1.947   4.381   3.642
 8905SOL    HW127614   1.924   4.288   3.671
 8905SOL    HW227615   1.951   4.441   3.722
 8906SOL     OW27616   0.464   6.374   6.722
 8906SOL    HW127617   0.411   6.459   6.722
 8906SOL    HW227618   0.554   6.391   6.762
 8907SOL     OW27619   2.882   2.575   5.312
 8907SOL    HW127620   2.959   2.639   5.317
 8907SOL    HW227621   2.808   2.608   5.372
 8908SOL     OW27622   1.591   5.174   0.281
 8908SOL    HW127623   1.674   5.224   0.306
 8908SOL    HW227624   1.535   5.158   0.362
 8909SOL     OW27625   2.282   0.964   5.864
 8909SOL    HW127626   2.344   1.022   5.810
 8909SOL    HW227627   2.336   0.902   5.921
 8910SOL     OW27628   0.386   2.604   5.527
 8910SOL    HW127629   0.328   2.589   5.608
 8910SOL    HW227630   0.346   2.558   5.448
 8911SOL     OW27631   4.079   2.037   5.036
 8911SOL    HW127632   4.024   2.008   4.958
 8911SOL    HW227633   4.039   2.120   5.075
 8912SOL     OW27634   3.464   3.610   6.422
 8912SOL    HW127635   3.392   3.560   6.468
 8912SOL    HW227636   3.424   3.679   6.362
 8913SOL     OW27637   4.655   5.304   5.553
 8913SOL    HW127638   4.688   5.375   5.615
 8913SOL    HW227639   4.733   5.264   5.505
 8914SOL     OW27640   4.553   0.306   4.642
 8914SOL    HW127641   4.613   0.229   4.625
 8914SOL    HW227642   4.525   0.346   4.554
 8915SOL     OW27643   0.790   2.822   4.163
 8915SOL    HW127644   0.816   2.728   4.142
 8915SOL    HW227645   0.760   2.829   4.258
 8916SOL     OW27646   6.819   2.764   0.546
 8916SOL    HW127647   6.903   2.711   0.536
 8916SOL    HW227648   6.842   2.861   0.554
 8917SOL     OW27649   6.525   3.708   6.991
 8917SOL    HW127650   6.558   3.667   6.905
 8917SOL    HW227651   6.600   3.760   0.014
 8918SOL     OW27652   6.409   3.976   0.828
 8918SOL    HW127653   6.323   3.927   0.839
 8918SOL    HW227654   6.424   3.995   0.731
 8919SOL     OW27655   4.242   4.215   0.714
 8919SOL    HW127656   4.168   4.162   0.757
 8919SOL    HW227657   4.308   4.153   0.673
 8920SOL     OW27658   0.258   1.047   6.837
 8920SOL    HW127659   0.164   1.077   6.852
 8920SOL    HW227660   0.303   1.035   6.926
 8921SOL     OW27661   2.012   2.280   2.294
 8921SOL    HW127662   2.015   2.237   2.384
 8921SOL    HW227663   1.926   2.331   2.283
 8922SOL     OW27664   4.381   5.021   1.342
 8922SOL    HW127665   4.422   4.983   1.260
 8922SOL    HW227666   4.425   4.982   1.423
 8923SOL     OW27667   1.945   2.526   6.617
 8923SOL    HW127668   1.863   2.549   6.565
 8923SOL    HW227669   1.953   2.427   6.624
 8924SOL     OW27670   3.772   5.530   5.338
 8924SOL    HW127671   3.779   5.604   5.405
 8924SOL    HW227672   3.677   5.501   5.328
 8925SOL     OW27673   1.251   1.994   3.090
 8925SOL    HW127674   1.328   1.963   3.145
 8925SOL    HW227675   1.168   1.996   3.146
 8926SOL     OW27676   6.562   2.930   5.904
 8926SOL    HW127677   6.647   2.904   5.951
 8926SOL    HW227678   6.582   2.992   5.829
 8927SOL     OW27679   0.138   0.920   4.713
 8927SOL    HW127680   0.204   0.996   4.708
 8927SOL    HW227681   0.184   0.839   4.749
 8928SOL     OW27682   0.816   6.914   6.488
 8928SOL    HW127683   0.750   6.846   6.457
 8928SOL    HW227684   0.775   6.970   6.560
 8929SOL     OW27685   5.666   1.797   4.394
 8929SOL    HW127686   5.716   1.868   4.444
 8929SOL    HW227687   5.684   1.708   4.437
 8930SOL     OW27688   1.923   3.229   4.284
 8930SOL    HW127689   2.020   3.209   4.267
 8930SOL    HW227690   1.901   3.321   4.253
 8931SOL     OW27691   2.246   3.229   0.735
 8931SOL    HW127692   2.323   3.261   0.790
 8931SOL    HW227693   2.216   3.302   0.674
 8932SOL     OW27694   6.448   1.242   1.306
 8932SOL    HW127695   6.407   1.248   1.397
 8932SOL    HW227696   6.394   1.295   1.241
 8933SOL     OW27697   2.314   2.691   6.255
 8933SOL    HW127698   2.248   2.650   6.319
 8933SOL    HW227699   2.387   2.736   6.307
 8934SOL     OW27700   3.204   5.114   4.479
 8934SOL    HW127701   3.209   5.126   4.379
 8934SOL    HW227702   3.262   5.181   4.524
 8935SOL     OW27703   7.001   4.370   0.474
 8935SOL    HW127704   0.060   4.424   0.443
 8935SOL    HW227705   0.012   4.304   0.543
 8936SOL     OW27706   1.404   3.190   2.948
 8936SOL    HW127707   1.482   3.242   2.912
 8936SOL    HW227708   1.343   3.165   2.872
 8937SOL     OW27709   0.252   0.219   5.410
 8937SOL    HW127710   0.287   0.283   5.342
 8937SOL    HW227711   0.176   0.167   5.371
 8938SOL     OW27712   0.154   6.864   0.788
 8938SOL    HW127713   0.126   6.949   0.831
 8938SOL    HW227714   0.159   6.792   0.857
 8939SOL     OW27715   6.264   4.159   4.121
 8939SOL    HW127716   6.195   4.206   4.176
 8939SOL    HW227717   6.314   4.094   4.177
 8940SOL     OW27718   6.665   0.770   1.816
 8940SOL    HW127719   6.633   0.680   1.847
 8940SOL    HW227720   6.593   0.838   1.831
 8941SOL     OW27721   5.480   2.778   4.733
 8941SOL    HW127722   5.455   2.866   4.774
 8941SOL    HW227723   5.454   2.704   4.795
 8942SOL     OW27724   6.328   5.561   5.788
 8942SOL    HW127725   6.363   5.615   5.712
 8942SOL    HW227726   6.275   5.483   5.753
 8943SOL     OW27727   3.827   5.635   0.204
 8943SOL    HW127728   3.731   5.637   0.177
 8943SOL    HW227729   3.840   5.571   0.280
 8944SOL     OW27730   5.248   5.828   5.334
 8944SOL    HW127731   5.167   5.864   5.380
 8944SOL    HW227732   5.316   5.902   5.325
 8945SOL     OW27733   1.321   0.951   3.317
 8945SOL    HW127734   1.298   0.996   3.403
 8945SOL    HW227735   1.241   0.954   3.256
 8946SOL     OW27736   2.451   1.563   4.771
 8946SOL    HW127737   2.530   1.504   4.756
 8946SOL    HW227738   2.379   1.542   4.705
 8947SOL     OW27739   2.689   2.989   6.015
 8947SOL    HW127740   2.749   3.032   5.948
 8947SOL    HW227741   2.660   2.899   5.982
 8948SOL     OW27742   6.141   6.024   4.624
 8948SOL    HW127743   6.047   6.051   4.608
 8948SOL    HW227744   6.203   6.099   4.601
 8949SOL     OW27745   3.226   5.861   0.392
 8949SOL    HW127746   3.309   5.808   0.375
 8949SOL    HW227747   3.244   5.930   0.461
 8950SOL     OW27748   4.456   4.205   6.700
 8950SOL    HW127749   4.480   4.163   6.612
 8950SOL    HW227750   4.489   4.299   6.702
 8951SOL     OW27751   1.528   1.154   4.801
 8951SOL    HW127752   1.509   1.093   4.724
 8951SOL    HW227753   1.521   1.104   4.887
 8952SOL     OW27754   0.948   6.114   1.977
 8952SOL    HW127755   0.893   6.093   2.058
 8952SOL    HW227756   1.045   6.103   1.999
 8953SOL     OW27757   1.363   3.707   6.984
 8953SOL    HW127758   1.273   3.663   6.986
 8953SOL    HW227759   1.358   3.795   0.011
 8954SOL     OW27760   0.186   6.662   4.633
 8954SOL    HW127761   0.218   6.695   4.544
 8954SOL    HW227762   0.219   6.724   4.705
 8955SOL     OW27763   0.104   5.445   2.516
 8955SOL    HW127764   0.183   5.486   2.471
 8955SOL    HW227765   0.135   5.375   2.580
 8956SOL     OW27766   2.158   1.119   6.849
 8956SOL    HW127767   2.226   1.072   6.905
 8956SOL    HW227768   2.176   1.100   6.753
 8957SOL     OW27769   1.715   4.487   1.142
 8957SOL    HW127770   1.778   4.411   1.161
 8957SOL    HW227771   1.624   4.450   1.123
 8958SOL     OW27772   0.176   1.551   4.937
 8958SOL    HW127773   0.113   1.524   4.864
 8958SOL    HW227774   0.267   1.565   4.898
 8959SOL     OW27775   1.723   4.325   2.031
 8959SOL    HW127776   1.753   4.329   2.126
 8959SOL    HW227777   1.645   4.386   2.018
 8960SOL     OW27778   4.217   5.171   3.045
 8960SOL    HW127779   4.129   5.139   3.011
 8960SOL    HW227780   4.208   5.265   3.078
 8961SOL     OW27781   2.885   0.660   3.554
 8961SOL    HW127782   2.829   0.634   3.476
 8961SOL    HW227783   2.952   0.589   3.573
 8962SOL     OW27784   6.363   5.567   2.994
 8962SOL    HW127785   6.405   5.488   3.038
 8962SOL    HW227786   6.376   5.561   2.895
 8963SOL     OW27787   4.152   6.925   4.840
 8963SOL    HW127788   4.085   6.864   4.883
 8963SOL    HW227789   4.212   6.871   4.781
 8964SOL     OW27790   5.067   3.813   3.096
 8964SOL    HW127791   5.043   3.903   3.133
 8964SOL    HW227792   5.001   3.788   3.025
 8965SOL     OW27793   2.730   5.025   0.903
 8965SOL    HW127794   2.773   5.039   0.992
 8965SOL    HW227795   2.631   5.030   0.912
 8966SOL     OW27796   6.706   4.404   0.523
 8966SOL    HW127797   6.660   4.325   0.484
 8966SOL    HW227798   6.805   4.394   0.513
 8967SOL     OW27799   4.279   6.943   0.985
 8967SOL    HW127800   4.213   7.014   0.961
 8967SOL    HW227801   4.363   6.956   0.931
 8968SOL     OW27802   4.590   5.616   3.171
 8968SOL    HW127803   4.491   5.617   3.188
 8968SOL    HW227804   4.609   5.661   3.085
 8969SOL     OW27805   6.192   0.799   4.246
 8969SOL    HW127806   6.262   0.748   4.196
 8969SOL    HW227807   6.232   0.839   4.328
 8970SOL     OW27808   2.753   3.150   6.775
 8970SOL    HW127809   2.818   3.088   6.732
 8970SOL    HW227810   2.713   3.211   6.706
 8971SOL     OW27811   6.048   4.696   1.675
 8971SOL    HW127812   6.093   4.611   1.648
 8971SOL    HW227813   6.005   4.738   1.596
 8972SOL     OW27814   4.956   3.345   6.890
 8972SOL    HW127815   5.034   3.285   6.909
 8972SOL    HW227816   4.872   3.304   6.926
 8973SOL     OW27817   0.840   3.470   3.220
 8973SOL    HW127818   0.859   3.459   3.123
 8973SOL    HW227819   0.746   3.439   3.239
 8974SOL     OW27820   1.320   4.681   4.622
 8974SOL    HW127821   1.253   4.671   4.548
 8974SOL    HW227822   1.272   4.681   4.710
 8975SOL     OW27823   1.556   6.250   6.089
 8975SOL    HW127824   1.640   6.228   6.139
 8975SOL    HW227825   1.575   6.321   6.021
 8976SOL     OW27826   6.917   5.693   5.966
 8976SOL    HW127827   6.847   5.706   6.036
 8976SOL    HW227828   6.942   5.781   5.926
 8977SOL     OW27829   0.046   2.955   6.843
 8977SOL    HW127830   0.049   3.025   6.914
 8977SOL    HW227831   0.117   2.972   6.776
 8978SOL     OW27832   5.004   6.519   3.640
 8978SOL    HW127833   5.099   6.510   3.611
 8978SOL    HW227834   5.000   6.520   3.740
 8979SOL     OW27835   0.974   3.966   4.932
 8979SOL    HW127836   1.025   4.015   5.003
 8979SOL    HW227837   0.904   4.027   4.894
 8980SOL     OW27838   3.949   3.035   5.288
 8980SOL    HW127839   3.865   2.997   5.327
 8980SOL    HW227840   3.931   3.064   5.194
 8981SOL     OW27841   4.350   1.232   6.276
 8981SOL    HW127842   4.297   1.196   6.353
 8981SOL    HW227843   4.322   1.186   6.192
 8982SOL     OW27844   1.563   2.176   1.884
 8982SOL    HW127845   1.577   2.250   1.949
 8982SOL    HW227846   1.519   2.099   1.930
 8983SOL     OW27847   1.264   5.675   6.542
 8983SOL    HW127848   1.304   5.717   6.460
 8983SOL    HW227849   1.258   5.576   6.529
 8984SOL     OW27850   6.595   0.090   3.697
 8984SOL    HW127851   6.669   0.056   3.638
 8984SOL    HW227852   6.589   0.033   3.778
 8985SOL     OW27853   2.200   2.028   0.711
 8985SOL    HW127854   2.181   2.087   0.789
 8985SOL    HW227855   2.291   1.987   0.721
 8986SOL     OW27856   4.098   5.238   1.886
 8986SOL    HW127857   4.064   5.323   1.926
 8986SOL    HW227858   4.044   5.161   1.919
 8987SOL     OW27859   5.394   0.078   0.570
 8987SOL    HW127860   5.403   0.125   0.658
 8987SOL    HW227861   5.401   0.145   0.496
 8988SOL     OW27862   1.470   4.094   6.495
 8988SOL    HW127863   1.408   4.147   6.553
 8988SOL    HW227864   1.420   4.059   6.416
 8989SOL     OW27865   5.527   3.911   2.278
 8989SOL    HW127866   5.457   3.943   2.341
 8989SOL    HW227867   5.551   3.816   2.301
 8990SOL     OW27868   1.960   5.656   2.139
 8990SOL    HW127869   1.980   5.558   2.148
 8990SOL    HW227870   2.034   5.709   2.181
 8991SOL     OW27871   2.156   2.126   0.072
 8991SOL    HW127872   2.181   2.029   0.069
 8991SOL    HW227873   2.152   2.157   0.167
 8992SOL     OW27874   6.714   2.404   6.966
 8992SOL    HW127875   6.660   2.323   6.990
 8992SOL    HW227876   6.672   2.448   6.887
 8993SOL     OW27877   4.921   2.445   2.149
 8993SOL    HW127878   4.899   2.412   2.240
 8993SOL    HW227879   4.836   2.462   2.098
 8994SOL     OW27880   1.599   4.984   4.932
 8994SOL    HW127881   1.564   4.990   4.838
 8994SOL    HW227882   1.593   4.889   4.964
 8995SOL     OW27883   0.932   2.604   6.694
 8995SOL    HW127884   0.957   2.584   6.789
 8995SOL    HW227885   0.832   2.613   6.687
 8996SOL     OW27886   6.634   5.064   1.621
 8996SOL    HW127887   6.711   5.032   1.567
 8996SOL    HW227888   6.601   4.990   1.679
 8997SOL     OW27889   4.613   1.017   6.424
 8997SOL    HW127890   4.539   0.957   6.455
 8997SOL    HW227891   4.701   0.973   6.442
 8998SOL     OW27892   6.787   3.475   4.757
 8998SOL    HW127893   6.737   3.408   4.701
 8998SOL    HW227894   6.774   3.566   4.719
 8999SOL     OW27895   5.148   6.419   0.162
 8999SOL    HW127896   5.169   6.453   0.253
 8999SOL    HW227897   5.219   6.448   0.098
 9000SOL     OW27898   2.485   4.012   0.185
 9000SOL    HW127899   2.491   3.913   0.198
 9000SOL    HW227900   2.482   4.058   0.273
 9001SOL     OW27901   1.252   5.520   2.396
 9001SOL    HW127902   1.328   5.487   2.452
 9001SOL    HW227903   1.220   5.608   2.431
 9002SOL     OW27904   7.012   5.166   4.909
 9002SOL    HW127905   0.026   5.093   4.969
 9002SOL    HW227906   6.912   5.162   4.903
 9003SOL     OW27907   5.249   2.945   1.446
 9003SOL    HW127908   5.259   2.881   1.522
 9003SOL    HW227909   5.287   3.034   1.472
 9004SOL     OW27910   4.445   6.278   0.813
 9004SOL    HW127911   4.477   6.340   0.741
 9004SOL    HW227912   4.451   6.324   0.901
 9005SOL     OW27913   5.003   2.614   4.503
 9005SOL    HW127914   4.932   2.561   4.551
 9005SOL    HW227915   5.002   2.590   4.406
 9006SOL     OW27916   3.032   6.529   0.761
 9006SOL    HW127917   2.989   6.560   0.676
 9006SOL    HW227918   3.029   6.429   0.765
 9007SOL     OW27919   4.567   0.918   4.014
 9007SOL    HW127920   4.521   0.884   3.932
 9007SOL    HW227921   4.519   0.999   4.047
 9008SOL     OW27922   0.435   5.936   3.212
 9008SOL    HW127923   0.414   5.847   3.253
 9008SOL    HW227924   0.477   5.995   3.282
 9009SOL     OW27925   2.656   1.361   0.490
 9009SOL    HW127926   2.699   1.309   0.416
 9009SOL    HW227927   2.609   1.298   0.552
 9010SOL     OW27928   1.116   6.737   4.043
 9010SOL    HW127929   1.189   6.669   4.033
 9010SOL    HW227930   1.104   6.786   3.957
 9011SOL     OW27931   4.550   2.359   1.556
 9011SOL    HW127932   4.560   2.452   1.591
 9011SOL    HW227933   4.463   2.350   1.508
 9012SOL     OW27934   2.978   4.116   1.177
 9012SOL    HW127935   3.000   4.156   1.088
 9012SOL    HW227936   3.061   4.076   1.216
 9013SOL     OW27937   0.130   6.611   4.944
 9013SOL    HW127938   0.181   6.680   4.893
 9013SOL    HW227939   0.140   6.522   4.899
 9014SOL     OW27940   0.035   1.490   0.449
 9014SOL    HW127941   0.119   1.543   0.441
 9014SOL    HW227942   0.022   1.435   0.366
 9015SOL     OW27943   5.686   1.830   1.396
 9015SOL    HW127944   5.747   1.850   1.320
 9015SOL    HW227945   5.739   1.814   1.479
 9016SOL     OW27946   0.983   6.683   6.839
 9016SOL    HW127947   1.042   6.645   6.911
 9016SOL    HW227948   0.950   6.773   6.867
 9017SOL     OW27949   4.554   2.197   1.941
 9017SOL    HW127950   4.601   2.150   2.016
 9017SOL    HW227951   4.516   2.284   1.975
 9018SOL     OW27952   3.881   1.786   6.942
 9018SOL    HW127953   3.812   1.744   7.001
 9018SOL    HW227954   3.837   1.830   6.864
 9019SOL     OW27955   0.914   0.491   1.803
 9019SOL    HW127956   0.825   0.451   1.779
 9019SOL    HW227957   0.906   0.541   1.889
 9020SOL     OW27958   1.014   3.525   1.488
 9020SOL    HW127959   0.997   3.486   1.398
 9020SOL    HW227960   0.977   3.617   1.493
 9021SOL     OW27961   6.381   0.644   4.136
 9021SOL    HW127962   6.396   0.561   4.083
 9021SOL    HW227963   6.437   0.718   4.099
 9022SOL     OW27964   2.874   1.786   0.098
 9022SOL    HW127965   2.970   1.794   0.074
 9022SOL    HW227966   2.865   1.770   0.196
 9023SOL     OW27967   3.658   4.000   2.142
 9023SOL    HW127968   3.617   3.911   2.163
 9023SOL    HW227969   3.645   4.061   2.220
 9024SOL     OW27970   0.209   4.723   4.557
 9024SOL    HW127971   0.262   4.670   4.623
 9024SOL    HW227972   0.133   4.668   4.523
 9025SOL     OW27973   0.708   5.269   7.011
 9025SOL    HW127974   0.798   5.311   6.999
 9025SOL    HW227975   0.640   5.319   6.958
 9026SOL     OW27976   4.002   3.276   1.168
 9026SOL    HW127977   4.052   3.195   1.196
 9026SOL    HW227978   3.953   3.257   1.083
 9027SOL     OW27979   1.193   2.257   4.103
 9027SOL    HW127980   1.262   2.190   4.129
 9027SOL    HW227981   1.158   2.303   4.185
 9028SOL     OW27982   2.274   3.763   5.811
 9028SOL    HW127983   2.266   3.768   5.911
 9028SOL    HW227984   2.189   3.794   5.770
 9029SOL     OW27985   3.072   5.825   4.763
 9029SOL    HW127986   3.135   5.756   4.729
 9029SOL    HW227987   3.123   5.904   4.796
 9030SOL     OW27988   2.561   2.194   3.757
 9030SOL    HW127989   2.651   2.228   3.729
 9030SOL    HW227990   2.498   2.270   3.768
 9031SOL     OW27991   4.792   5.767   4.259
 9031SOL    HW127992   4.710   5.803   4.214
 9031SOL    HW227993   4.820   5.682   4.213
 9032SOL     OW27994   3.590   3.018   0.336
 9032SOL    HW127995   3.646   3.088   0.290
 9032SOL    HW227996   3.498   3.053   0.349
 9033SOL     OW27997   1.504   5.338   4.174
 9033SOL    HW127998   1.420   5.373   4.215
 9033SOL    HW227999   1.514   5.373   4.081
 9034SOL     OW28000   2.956   0.306   5.609
 9034SOL    HW128001   2.863   0.298   5.644
 9034SOL    HW228002   2.957   0.364   5.528
 9035SOL     OW28003   1.553   4.524   6.033
 9035SOL    HW128004   1.637   4.499   5.986
 9035SOL    HW228005   1.482   4.457   6.013
 9036SOL     OW28006   2.089   0.953   5.494
 9036SOL    HW128007   2.148   0.875   5.475
 9036SOL    HW228008   2.122   1.033   5.443
 9037SOL     OW28009   1.460   3.752   5.756
 9037SOL    HW128010   1.401   3.830   5.778
 9037SOL    HW228011   1.541   3.753   5.815
 9038SOL     OW28012   4.785   6.106   6.113
 9038SOL    HW128013   4.787   6.007   6.126
 9038SOL    HW228014   4.746   6.128   6.023
 9039SOL     OW28015   2.964   5.008   4.779
 9039SOL    HW128016   2.923   5.077   4.720
 9039SOL    HW228017   2.896   4.976   4.846
 9040SOL     OW28018   3.271   2.150   3.025
 9040SOL    HW128019   3.244   2.126   2.932
 9040SOL    HW228020   3.196   2.201   3.068
 9041SOL     OW28021   1.479   2.353   2.095
 9041SOL    HW128022   1.514   2.440   2.059
 9041SOL    HW228023   1.379   2.360   2.106
 9042SOL     OW28024   2.809   6.981   3.858
 9042SOL    HW128025   2.859   0.047   3.872
 9042SOL    HW228026   2.725   7.000   3.807
 9043SOL     OW28027   2.030   1.395   7.008
 9043SOL    HW128028   1.999   1.388   6.914
 9043SOL    HW228029   2.067   1.307   0.019
 9044SOL     OW28030   5.379   0.875   1.784
 9044SOL    HW128031   5.359   0.851   1.689
 9044SOL    HW228032   5.294   0.892   1.833
 9045SOL     OW28033   2.737   0.865   2.294
 9045SOL    HW128034   2.795   0.851   2.214
 9045SOL    HW228035   2.748   0.958   2.327
 9046SOL     OW28036   3.587   4.145   3.808
 9046SOL    HW128037   3.566   4.128   3.712
 9046SOL    HW228038   3.517   4.104   3.866
 9047SOL     OW28039   1.024   3.464   5.783
 9047SOL    HW128040   1.079   3.406   5.843
 9047SOL    HW228041   1.051   3.449   5.688
 9048SOL     OW28042   5.996   2.039   6.380
 9048SOL    HW128043   5.972   2.105   6.451
 9048SOL    HW228044   5.929   1.964   6.380
 9049SOL     OW28045   3.598   0.078   6.362
 9049SOL    HW128046   3.613   0.054   6.266
 9049SOL    HW228047   3.527   0.148   6.368
 9050SOL     OW28048   0.363   3.547   6.931
 9050SOL    HW128049   0.437   3.485   6.955
 9050SOL    HW228050   0.298   3.553   7.008
 9051SOL     OW28051   4.573   6.459   0.620
 9051SOL    HW128052   4.576   6.551   0.657
 9051SOL    HW228053   4.638   6.451   0.544
 9052SOL     OW28054   1.843   2.529   4.044
 9052SOL    HW128055   1.799   2.615   4.072
 9052SOL    HW228056   1.777   2.455   4.049
 9053SOL     OW28057   1.998   1.799   2.972
 9053SOL    HW128058   2.006   1.839   3.063
 9053SOL    HW228059   1.917   1.741   2.968
 9054SOL     OW28060   1.523   6.641   2.106
 9054SOL    HW128061   1.428   6.666   2.129
 9054SOL    HW228062   1.534   6.636   2.007
 9055SOL     OW28063   5.985   3.142   3.914
 9055SOL    HW128064   5.987   3.177   4.008
 9055SOL    HW228065   5.915   3.071   3.906
 9056SOL     OW28066   0.895   0.904   1.635
 9056SOL    HW128067   0.820   0.911   1.701
 9056SOL    HW228068   0.900   0.988   1.582
 9057SOL     OW28069   5.881   5.124   5.854
 9057SOL    HW128070   5.893   5.224   5.853
 9057SOL    HW228071   5.833   5.098   5.937
 9058SOL     OW28072   2.466   1.872   2.913
 9058SOL    HW128073   2.472   1.819   2.828
 9058SOL    HW228074   2.373   1.908   2.923
 9059SOL     OW28075   1.304   2.117   4.854
 9059SOL    HW128076   1.309   2.070   4.765
 9059SOL    HW228077   1.280   2.051   4.925
 9060SOL     OW28078   6.033   3.003   2.761
 9060SOL    HW128079   6.089   2.923   2.780
 9060SOL    HW228080   6.016   3.010   2.663
 9061SOL     OW28081   2.782   5.487   1.779
 9061SOL    HW128082   2.751   5.546   1.704
 9061SOL    HW228083   2.702   5.450   1.827
 9062SOL     OW28084   1.788   6.420   1.893
 9062SOL    HW128085   1.864   6.457   1.838
 9062SOL    HW228086   1.825   6.373   1.973
 9063SOL     OW28087   2.603   0.417   2.893
 9063SOL    HW128088   2.522   0.421   2.952
 9063SOL    HW228089   2.594   0.486   2.821
 9064SOL     OW28090   6.190   2.694   5.649
 9064SOL    HW128091   6.273   2.676   5.702
 9064SOL    HW228092   6.195   2.787   5.611
 9065SOL     OW28093   3.206   6.503   5.885
 9065SOL    HW128094   3.150   6.469   5.960
 9065SOL    HW228095   3.261   6.429   5.847
 9066SOL     OW28096   5.299   6.450   0.729
 9066SOL    HW128097   5.249   6.520   0.678
 9066SOL    HW228098   5.397   6.463   0.716
 9067SOL     OW28099   6.215   0.539   4.356
 9067SOL    HW128100   6.291   0.551   4.293
 9067SOL    HW228101   6.163   0.625   4.363
 9068SOL     OW28102   2.493   0.071   4.804
 9068SOL    HW128103   2.538   0.126   4.874
 9068SOL    HW228104   2.502   6.993   4.826
 9069SOL     OW28105   2.216   2.537   1.893
 9069SOL    HW128106   2.136   2.566   1.946
 9069SOL    HW228107   2.229   2.599   1.816
 9070SOL     OW28108   1.423   4.349   5.271
 9070SOL    HW128109   1.429   4.446   5.293
 9070SOL    HW228110   1.396   4.298   5.353
 9071SOL     OW28111   5.359   0.281   0.963
 9071SOL    HW128112   5.393   0.325   1.046
 9071SOL    HW228113   5.259   0.274   0.968
 9072SOL     OW28114   6.855   1.374   2.171
 9072SOL    HW128115   6.820   1.280   2.177
 9072SOL    HW228116   6.780   1.437   2.152
 9073SOL     OW28117   3.289   6.620   1.464
 9073SOL    HW128118   3.361   6.612   1.396
 9073SOL    HW228119   3.252   6.529   1.485
 9074SOL     OW28120   2.540   1.519   1.949
 9074SOL    HW128121   2.482   1.533   2.029
 9074SOL    HW228122   2.577   1.426   1.950
 9075SOL     OW28123   1.335   1.020   3.023
 9075SOL    HW128124   1.362   0.998   3.117
 9075SOL    HW228125   1.255   1.079   3.024
 9076SOL     OW28126   6.004   2.065   4.759
 9076SOL    HW128127   5.906   2.049   4.743
 9076SOL    HW228128   6.028   2.157   4.726
 9077SOL     OW28129   5.896   0.124   0.090
 9077SOL    HW128130   5.927   0.054   0.154
 9077SOL    HW228131   5.802   0.105   0.062
 9078SOL     OW28132   4.292   3.756   6.124
 9078SOL    HW128133   4.319   3.661   6.118
 9078SOL    HW228134   4.223   3.776   6.055
 9079SOL     OW28135   3.382   6.938   3.908
 9079SOL    HW128136   3.297   6.912   3.953
 9079SOL    HW228137   3.372   6.929   3.809
 9080SOL     OW28138   4.849   2.783   6.799
 9080SOL    HW128139   4.790   2.703   6.790
 9080SOL    HW228140   4.942   2.760   6.770
 9081SOL     OW28141   3.979   6.177   2.998
 9081SOL    HW128142   3.886   6.156   2.970
 9081SOL    HW228143   4.021   6.096   3.039
 9082SOL     OW28144   2.477   0.534   5.661
 9082SOL    HW128145   2.504   0.627   5.637
 9082SOL    HW228146   2.379   0.523   5.645
 9083SOL     OW28147   3.157   5.919   5.872
 9083SOL    HW128148   3.170   5.839   5.930
 9083SOL    HW228149   3.069   5.961   5.892
 9084SOL     OW28150   3.156   3.578   5.192
 9084SOL    HW128151   3.187   3.640   5.120
 9084SOL    HW228152   3.069   3.611   5.229
 9085SOL     OW28153   2.657   4.792   1.550
 9085SOL    HW128154   2.742   4.838   1.526
 9085SOL    HW228155   2.587   4.861   1.572
 9086SOL     OW28156   1.035   5.155   0.135
 9086SOL    HW128157   1.119   5.206   0.117
 9086SOL    HW228158   1.017   5.092   0.059
 9087SOL     OW28159   4.828   2.801   1.743
 9087SOL    HW128160   4.781   2.865   1.803
 9087SOL    HW228161   4.886   2.853   1.679
 9088SOL     OW28162   5.822   6.169   0.877
 9088SOL    HW128163   5.839   6.143   0.972
 9088SOL    HW228164   5.773   6.256   0.874
 9089SOL     OW28165   5.391   5.826   5.634
 9089SOL    HW128166   5.423   5.785   5.549
 9089SOL    HW228167   5.394   5.926   5.626
 9090SOL     OW28168   7.018   0.546   3.552
 9090SOL    HW128169   0.043   0.613   3.492
 9090SOL    HW228170   6.985   0.592   3.634
 9091SOL     OW28171   3.102   4.445   0.325
 9091SOL    HW128172   3.125   4.359   0.370
 9091SOL    HW228173   3.075   4.427   0.231
 9092SOL     OW28174   0.401   1.201   0.652
 9092SOL    HW128175   0.501   1.195   0.650
 9092SOL    HW228176   0.363   1.114   0.680
 9093SOL     OW28177   1.174   6.445   5.862
 9093SOL    HW128178   1.194   6.398   5.947
 9093SOL    HW228179   1.076   6.462   5.855
 9094SOL     OW28180   6.507   4.958   2.681
 9094SOL    HW128181   6.477   5.026   2.614
 9094SOL    HW228182   6.470   4.869   2.657
 9095SOL     OW28183   5.433   4.614   6.041
 9095SOL    HW128184   5.406   4.527   5.998
 9095SOL    HW228185   5.485   4.669   5.976
 9096SOL     OW28186   5.859   3.995   2.431
 9096SOL    HW128187   5.836   3.931   2.505
 9096SOL    HW228188   5.844   4.089   2.462
 9097SOL     OW28189   1.013   1.620   0.981
 9097SOL    HW128190   0.977   1.529   1.005
 9097SOL    HW228191   1.073   1.612   0.901
 9098SOL     OW28192   3.514   1.802   5.231
 9098SOL    HW128193   3.530   1.872   5.300
 9098SOL    HW228194   3.467   1.842   5.153
 9099SOL     OW28195   3.212   2.409   5.620
 9099SOL    HW128196   3.244   2.485   5.677
 9099SOL    HW228197   3.134   2.365   5.663
 9100SOL     OW28198   0.412   3.185   3.368
 9100SOL    HW128199   0.413   3.222   3.461
 9100SOL    HW228200   0.318   3.166   3.341
 9101SOL     OW28201   2.186   2.616   2.898
 9101SOL    HW128202   2.242   2.687   2.941
 9101SOL    HW228203   2.187   2.627   2.799
 9102SOL     OW28204   2.657   6.640   1.764
 9102SOL    HW128205   2.614   6.718   1.718
 9102SOL    HW228206   2.587   6.577   1.796
 9103SOL     OW28207   6.968   3.208   6.506
 9103SOL    HW128208   6.926   3.169   6.424
 9103SOL    HW228209   6.915   3.183   6.586
 9104SOL     OW28210   0.271   5.879   2.409
 9104SOL    HW128211   0.341   5.808   2.397
 9104SOL    HW228212   0.278   5.917   2.501
 9105SOL     OW28213   0.927   1.526   6.273
 9105SOL    HW128214   0.974   1.489   6.194
 9105SOL    HW228215   0.994   1.562   6.338
 9106SOL     OW28216   6.924   3.490   1.150
 9106SOL    HW128217   6.866   3.568   1.173
 9106SOL    HW228218   6.954   3.498   1.055
 9107SOL     OW28219   2.696   0.738   6.824
 9107SOL    HW128220   2.680   0.834   6.803
 9107SOL    HW228221   2.794   0.718   6.821
 9108SOL     OW28222   5.324   4.603   5.366
 9108SOL    HW128223   5.293   4.520   5.321
 9108SOL    HW228224   5.414   4.587   5.407
 9109SOL     OW28225   6.559   3.160   3.738
 9109SOL    HW128226   6.487   3.116   3.792
 9109SOL    HW228227   6.520   3.236   3.686
 9110SOL     OW28228   1.998   5.054   4.170
 9110SOL    HW128229   2.044   4.974   4.131
 9110SOL    HW228230   2.062   5.131   4.174
 9111SOL     OW28231   5.742   2.333   0.577
 9111SOL    HW128232   5.754   2.377   0.488
 9111SOL    HW228233   5.816   2.268   0.592
 9112SOL     OW28234   1.042   5.232   2.894
 9112SOL    HW128235   0.965   5.286   2.928
 9112SOL    HW228236   1.073   5.271   2.807
 9113SOL     OW28237   4.831   2.865   2.677
 9113SOL    HW128238   4.763   2.810   2.628
 9113SOL    HW228239   4.917   2.866   2.625
 9114SOL     OW28240   0.481   5.011   3.422
 9114SOL    HW128241   0.524   4.951   3.354
 9114SOL    HW228242   0.477   4.964   3.510
 9115SOL     OW28243   6.643   5.896   4.757
 9115SOL    HW128244   6.557   5.876   4.710
 9115SOL    HW228245   6.631   5.974   4.818
 9116SOL     OW28246   0.055   6.877   2.740
 9116SOL    HW128247   7.006   6.846   2.806
 9116SOL    HW228248   0.147   6.858   2.774
 9117SOL     OW28249   3.877   2.598   6.521
 9117SOL    HW128250   3.832   2.687   6.515
 9117SOL    HW228251   3.808   2.528   6.540
 9118SOL     OW28252   0.462   2.952   0.335
 9118SOL    HW128253   0.498   2.910   0.418
 9118SOL    HW228254   0.509   3.038   0.318
 9119SOL     OW28255   4.160   0.925   2.425
 9119SOL    HW128256   4.095   0.894   2.494
 9119SOL    HW228257   4.230   0.854   2.411
 9120SOL     OW28258   6.702   1.445   5.421
 9120SOL    HW128259   6.625   1.467   5.481
 9120SOL    HW228260   6.689   1.354   5.383
 9121SOL     OW28261   4.009   6.828   5.076
 9121SOL    HW128262   4.089   6.859   5.128
 9121SOL    HW228263   3.926   6.865   5.117
 9122SOL     OW28264   2.403   4.684   2.117
 9122SOL    HW128265   2.344   4.762   2.095
 9122SOL    HW228266   2.455   4.658   2.035
 9123SOL     OW28267   1.621   0.645   4.645
 9123SOL    HW128268   1.538   0.686   4.683
 9123SOL    HW228269   1.608   0.629   4.547
 9124SOL     OW28270   4.467   5.208   0.214
 9124SOL    HW128271   4.409   5.184   0.137
 9124SOL    HW228272   4.549   5.151   0.213
 9125SOL     OW28273   4.476   4.099   0.606
 9125SOL    HW128274   4.544   4.171   0.591
 9125SOL    HW228275   4.517   4.010   0.583
 9126SOL     OW28276   6.277   3.422   1.516
 9126SOL    HW128277   6.285   3.396   1.612
 9126SOL    HW228278   6.188   3.392   1.481
 9127SOL     OW28279   6.207   1.472   5.930
 9127SOL    HW128280   6.301   1.480   5.896
 9127SOL    HW228281   6.181   1.558   5.975
 9128SOL     OW28282   5.572   2.438   5.154
 9128SOL    HW128283   5.580   2.535   5.177
 9128SOL    HW228284   5.646   2.412   5.092
 9129SOL     OW28285   6.798   2.028   7.002
 9129SOL    HW128286   6.739   2.087   0.039
 9129SOL    HW228287   6.833   2.080   6.924
 9130SOL     OW28288   1.329   4.039   6.202
 9130SOL    HW128289   1.316   4.138   6.194
 9130SOL    HW228290   1.247   3.998   6.240
 9131SOL     OW28291   5.626   3.197   6.322
 9131SOL    HW128292   5.712   3.177   6.274
 9131SOL    HW228293   5.601   3.292   6.305
 9132SOL     OW28294   0.538   5.705   4.148
 9132SOL    HW128295   0.555   5.764   4.227
 9132SOL    HW228296   0.459   5.647   4.166
 9133SOL     OW28297   3.787   6.254   1.151
 9133SOL    HW128298   3.751   6.268   1.243
 9133SOL    HW228299   3.743   6.175   1.109
 9134SOL     OW28300   3.676   5.147   1.467
 9134SOL    HW128301   3.618   5.146   1.385
 9134SOL    HW228302   3.659   5.230   1.520
 9135SOL     OW28303   0.294   0.100   1.436
 9135SOL    HW128304   0.306   0.119   1.339
 9135SOL    HW228305   0.221   0.032   1.448
 9136SOL     OW28306   4.716   5.816   6.365
 9136SOL    HW128307   4.640   5.881   6.369
 9136SOL    HW228308   4.686   5.728   6.402
 9137SOL     OW28309   3.936   0.823   6.740
 9137SOL    HW128310   4.013   0.879   6.772
 9137SOL    HW228311   3.893   0.868   6.662
 9138SOL     OW28312   6.933   4.648   6.347
 9138SOL    HW128313   6.979   4.669   6.261
 9138SOL    HW228314   6.991   4.587   6.402
 9139SOL     OW28315   1.922   1.382   2.965
 9139SOL    HW128316   2.017   1.367   2.938
 9139SOL    HW228317   1.864   1.386   2.883
 9140SOL     OW28318   0.290   3.743   2.530
 9140SOL    HW128319   0.280   3.818   2.595
 9140SOL    HW228320   0.300   3.780   2.437
 9141SOL     OW28321   5.726   6.247   1.486
 9141SOL    HW128322   5.629   6.263   1.505
 9141SOL    HW228323   5.762   6.321   1.429
 9142SOL     OW28324   0.694   3.982   1.655
 9142SOL    HW128325   0.728   4.053   1.593
 9142SOL    HW228326   0.666   3.902   1.602
 9143SOL     OW28327   6.437   2.779   0.257
 9143SOL    HW128328   6.525   2.818   0.281
 9143SOL    HW228329   6.450   2.700   0.197
 9144SOL     OW28330   2.850   5.640   4.781
 9144SOL    HW128331   2.887   5.546   4.783
 9144SOL    HW228332   2.926   5.704   4.774
 9145SOL     OW28333   0.676   5.742   6.432
 9145SOL    HW128334   0.676   5.771   6.528
 9145SOL    HW228335   0.743   5.668   6.419
 9146SOL     OW28336   5.340   2.954   2.862
 9146SOL    HW128337   5.425   2.935   2.811
 9146SOL    HW228338   5.266   2.899   2.823
 9147SOL     OW28339   6.389   0.783   5.441
 9147SOL    HW128340   6.394   0.873   5.484
 9147SOL    HW228341   6.470   0.730   5.464
 9148SOL     OW28342   5.589   6.317   2.294
 9148SOL    HW128343   5.554   6.231   2.256
 9148SOL    HW228344   5.604   6.307   2.392
 9149SOL     OW28345   5.302   3.650   2.232
 9149SOL    HW128346   5.363   3.600   2.171
 9149SOL    HW228347   5.354   3.686   2.310
 9150SOL     OW28348   3.578   4.928   0.893
 9150SOL    HW128349   3.609   4.910   0.800
 9150SOL    HW228350   3.491   4.882   0.909
 9151SOL     OW28351   1.840   4.857   3.928
 9151SOL    HW128352   1.803   4.869   4.020
 9151SOL    HW228353   1.939   4.847   3.933
 9152SOL     OW28354   2.446   4.451   4.786
 9152SOL    HW128355   2.493   4.501   4.859
 9152SOL    HW228356   2.426   4.358   4.817
 9153SOL     OW28357   0.285   2.572   6.550
 9153SOL    HW128358   0.331   2.517   6.620
 9153SOL    HW228359   0.189   2.583   6.574
 9154SOL     OW28360   4.946   4.816   4.678
 9154SOL    HW128361   4.930   4.899   4.731
 9154SOL    HW228362   4.861   4.786   4.635
 9155SOL     OW28363   2.457   4.781   2.522
 9155SOL    HW128364   2.437   4.700   2.467
 9155SOL    HW228365   2.417   4.861   2.478
 9156SOL     OW28366   6.691   1.932   1.071
 9156SOL    HW128367   6.668   2.029   1.063
 9156SOL    HW228368   6.751   1.906   0.996
 9157SOL     OW28369   3.234   4.013   6.775
 9157SOL    HW128370   3.160   4.063   6.732
 9157SOL    HW228371   3.271   4.066   6.851
 9158SOL     OW28372   6.451   4.014   4.276
 9158SOL    HW128373   6.508   3.991   4.197
 9158SOL    HW228374   6.458   3.941   4.344
 9159SOL     OW28375   1.998   0.756   3.650
 9159SOL    HW128376   2.020   0.805   3.734
 9159SOL    HW228377   2.029   0.809   3.571
 9160SOL     OW28378   0.838   6.202   5.718
 9160SOL    HW128379   0.822   6.226   5.814
 9160SOL    HW228380   0.767   6.242   5.661
 9161SOL     OW28381   6.246   4.666   3.036
 9161SOL    HW128382   6.259   4.592   2.970
 9161SOL    HW228383   6.303   4.649   3.117
 9162SOL     OW28384   4.186   0.520   2.671
 9162SOL    HW128385   4.153   0.445   2.613
 9162SOL    HW228386   4.143   0.514   2.761
 9163SOL     OW28387   6.912   2.899   3.655
 9163SOL    HW128388   6.862   2.814   3.640
 9163SOL    HW228389   7.010   2.882   3.650
 9164SOL     OW28390   2.028   0.594   6.993
 9164SOL    HW128391   2.053   0.503   6.959
 9164SOL    HW228392   1.934   0.591   0.009
 9165SOL     OW28393   5.357   2.013   6.115
 9165SOL    HW128394   5.318   1.991   6.205
 9165SOL    HW228395   5.454   2.033   6.125
 9166SOL     OW28396   4.918   5.663   0.896
 9166SOL    HW128397   4.870   5.622   0.974
 9166SOL    HW228398   4.854   5.719   0.843
 9167SOL     OW28399   2.091   2.059   5.848
 9167SOL    HW128400   2.061   2.050   5.943
 9167SOL    HW228401   2.023   2.110   5.796
 9168SOL     OW28402   6.740   6.129   6.338
 9168SOL    HW128403   6.824   6.076   6.349
 9168SOL    HW228404   6.740   6.175   6.250
 9169SOL     OW28405   7.010   6.612   6.182
 9169SOL    HW128406   0.074   6.586   6.132
 9169SOL    HW228407   7.001   6.554   6.263
 9170SOL     OW28408   1.975   0.177   6.194
 9170SOL    HW128409   1.912   0.197   6.269
 9170SOL    HW228410   2.021   0.090   6.211
 9171SOL     OW28411   3.601   6.318   0.242
 9171SOL    HW128412   3.588   6.381   0.319
 9171SOL    HW228413   3.518   6.265   0.227
 9172SOL     OW28414   4.574   1.246   3.464
 9172SOL    HW128415   4.609   1.284   3.378
 9172SOL    HW228416   4.624   1.287   3.540
 9173SOL     OW28417   5.972   3.409   5.442
 9173SOL    HW128418   5.960   3.331   5.504
 9173SOL    HW228419   5.884   3.432   5.401
 9174SOL     OW28420   0.999   5.762   6.658
 9174SOL    HW128421   1.049   5.774   6.743
 9174SOL    HW228422   1.062   5.732   6.586
 9175SOL     OW28423   1.388   0.374   6.669
 9175SOL    HW128424   1.312   0.439   6.675
 9175SOL    HW228425   1.446   0.398   6.591
 9176SOL     OW28426   2.639   0.621   2.005
 9176SOL    HW128427   2.612   0.715   1.983
 9176SOL    HW228428   2.561   0.560   1.993
 9177SOL     OW28429   1.278   2.893   4.178
 9177SOL    HW128430   1.262   2.821   4.245
 9177SOL    HW228431   1.323   2.971   4.222
 9178SOL     OW28432   1.810   5.926   6.311
 9178SOL    HW128433   1.723   5.932   6.360
 9178SOL    HW228434   1.826   5.832   6.282
 9179SOL     OW28435   1.821   5.735   4.871
 9179SOL    HW128436   1.833   5.642   4.837
 9179SOL    HW228437   1.877   5.798   4.816
 9180SOL     OW28438   6.460   2.442   3.358
 9180SOL    HW128439   6.382   2.429   3.418
 9180SOL    HW228440   6.539   2.391   3.393
 9181SOL     OW28441   4.795   2.569   3.625
 9181SOL    HW128442   4.732   2.557   3.701
 9181SOL    HW228443   4.789   2.664   3.592
 9182SOL     OW28444   3.220   0.106   2.831
 9182SOL    HW128445   3.143   0.055   2.795
 9182SOL    HW228446   3.275   0.047   2.890
 9183SOL     OW28447   4.791   4.399   6.647
 9183SOL    HW128448   4.855   4.465   6.609
 9183SOL    HW228449   4.700   4.440   6.654
 9184SOL     OW28450   3.643   2.200   0.959
 9184SOL    HW128451   3.703   2.242   0.890
 9184SOL    HW228452   3.697   2.143   1.020
 9185SOL     OW28453   0.060   0.069   5.307
 9185SOL    HW128454   7.007   0.007   5.337
 9185SOL    HW228455   0.051   0.086   5.209
 9186SOL     OW28456   5.597   0.910   5.377
 9186SOL    HW128457   5.516   0.905   5.435
 9186SOL    HW228458   5.570   0.897   5.281
 9187SOL     OW28459   4.467   2.033   0.212
 9187SOL    HW128460   4.407   2.023   0.292
 9187SOL    HW228461   4.553   2.074   0.240
 9188SOL     OW28462   1.830   0.469   1.748
 9188SOL    HW128463   1.919   0.505   1.718
 9188SOL    HW228464   1.812   0.500   1.842
 9189SOL     OW28465   3.073   6.449   2.932
 9189SOL    HW128466   3.168   6.474   2.914
 9189SOL    HW228467   3.064   6.418   3.027
 9190SOL     OW28468   0.685   3.581   5.052
 9190SOL    HW128469   0.781   3.573   5.027
 9190SOL    HW228470   0.630   3.588   4.969
 9191SOL     OW28471   5.698   1.362   6.512
 9191SOL    HW128472   5.621   1.390   6.456
 9191SOL    HW228473   5.689   1.266   6.537
 9192SOL     OW28474   6.073   2.982   5.608
 9192SOL    HW128475   6.028   2.925   5.676
 9192SOL    HW228476   6.019   3.065   5.591
 9193SOL     OW28477   3.978   3.957   4.231
 9193SOL    HW128478   4.014   4.026   4.169
 9193SOL    HW228479   3.919   3.893   4.181
 9194SOL     OW28480   3.900   5.846   2.369
 9194SOL    HW128481   3.874   5.925   2.313
 9194SOL    HW228482   3.856   5.851   2.458
 9195SOL     OW28483   1.872   3.047   3.174
 9195SOL    HW128484   1.780   3.011   3.186
 9195SOL    HW228485   1.878   3.138   3.216
 9196SOL     OW28486   5.352   0.225   3.647
 9196SOL    HW128487   5.406   0.144   3.672
 9196SOL    HW228488   5.307   0.208   3.559
 9197SOL     OW28489   3.490   5.343   0.526
 9197SOL    HW128490   3.500   5.322   0.624
 9197SOL    HW228491   3.518   5.437   0.509
 9198SOL     OW28492   6.183   4.351   6.366
 9198SOL    HW128493   6.265   4.343   6.310
 9198SOL    HW228494   6.199   4.416   6.440
 9199SOL     OW28495   0.278   2.962   6.317
 9199SOL    HW128496   0.215   2.886   6.298
 9199SOL    HW228497   0.289   3.017   6.234
 9200SOL     OW28498   2.188   5.550   6.239
 9200SOL    HW128499   2.240   5.488   6.298
 9200SOL    HW228500   2.191   5.516   6.145
 9201SOL     OW28501   0.394   3.130   0.843
 9201SOL    HW128502   0.447   3.116   0.759
 9201SOL    HW228503   0.443   3.193   0.903
 9202SOL     OW28504   1.158   5.641   3.996
 9202SOL    HW128505   1.086   5.708   4.014
 9202SOL    HW228506   1.122   5.549   4.013
 9203SOL     OW28507   5.467   2.994   5.938
 9203SOL    HW128508   5.477   2.999   6.037
 9203SOL    HW228509   5.516   2.914   5.904
 9204SOL     OW28510   4.889   3.777   4.087
 9204SOL    HW128511   4.987   3.758   4.085
 9204SOL    HW228512   4.856   3.794   3.994
 9205SOL     OW28513   5.055   5.602   2.717
 9205SOL    HW128514   5.033   5.579   2.812
 9205SOL    HW228515   5.093   5.522   2.671
 9206SOL     OW28516   3.512   0.172   3.727
 9206SOL    HW128517   3.554   0.085   3.700
 9206SOL    HW228518   3.421   0.154   3.765
 9207SOL     OW28519   3.558   5.057   6.544
 9207SOL    HW128520   3.617   5.136   6.559
 9207SOL    HW228521   3.463   5.083   6.559
 9208SOL     OW28522   5.383   4.148   2.545
 9208SOL    HW128523   5.392   4.198   2.459
 9208SOL    HW228524   5.310   4.080   2.537
 9209SOL     OW28525   4.338   0.296   1.460
 9209SOL    HW128526   4.292   0.319   1.546
 9209SOL    HW228527   4.407   0.226   1.477
 9210SOL     OW28528   0.492   0.725   1.614
 9210SOL    HW128529   0.511   0.727   1.712
 9210SOL    HW228530   0.521   0.812   1.573
 9211SOL     OW28531   5.554   3.440   6.272
 9211SOL    HW128532   5.494   3.477   6.201
 9211SOL    HW228533   5.638   3.494   6.275
 9212SOL     OW28534   5.143   4.443   4.996
 9212SOL    HW128535   5.070   4.375   4.994
 9212SOL    HW228536   5.124   4.515   4.930
 9213SOL     OW28537   4.774   5.424   4.638
 9213SOL    HW128538   4.769   5.418   4.737
 9213SOL    HW228539   4.697   5.477   4.603
 9214SOL     OW28540   0.064   2.930   4.833
 9214SOL    HW128541   0.013   2.990   4.772
 9214SOL    HW228542   0.043   2.834   4.811
 9215SOL     OW28543   1.120   4.666   2.947
 9215SOL    HW128544   1.045   4.732   2.955
 9215SOL    HW228545   1.083   4.575   2.932
 9216SOL     OW28546   2.402   6.733   3.893
 9216SOL    HW128547   2.364   6.651   3.936
 9216SOL    HW228548   2.386   6.812   3.952
 9217SOL     OW28549   5.808   2.158   0.087
 9217SOL    HW128550   5.764   2.124   0.004
 9217SOL    HW228551   5.894   2.202   0.063
 9218SOL     OW28552   3.774   0.626   6.857
 9218SOL    HW128553   3.686   0.673   6.854
 9218SOL    HW228554   3.839   0.676   6.800
 9219SOL     OW28555   4.287   3.257   5.762
 9219SOL    HW128556   4.381   3.263   5.728
 9219SOL    HW228557   4.244   3.347   5.757
 9220SOL     OW28558   1.616   6.810   2.303
 9220SOL    HW128559   1.633   6.774   2.395
 9220SOL    HW228560   1.582   6.737   2.244
 9221SOL     OW28561   2.721   6.932   4.179
 9221SOL    HW128562   2.654   6.860   4.199
 9221SOL    HW228563   2.755   6.920   4.085
 9222SOL     OW28564   2.889   5.033   5.138
 9222SOL    HW128565   2.865   5.041   5.235
 9222SOL    HW228566   2.830   4.965   5.095
 9223SOL     OW28567   1.087   2.425   4.292
 9223SOL    HW128568   1.129   2.493   4.352
 9223SOL    HW228569   1.006   2.463   4.248
 9224SOL     OW28570   1.535   4.575   3.544
 9224SOL    HW128571   1.579   4.488   3.564
 9224SOL    HW228572   1.579   4.648   3.597
 9225SOL     OW28573   4.000   5.566   5.678
 9225SOL    HW128574   3.914   5.596   5.719
 9225SOL    HW228575   3.982   5.506   5.601
 9226SOL     OW28576   0.898   0.056   1.348
 9226SOL    HW128577   0.841   0.138   1.360
 9226SOL    HW228578   0.989   0.074   1.384
 9227SOL     OW28579   1.929   6.084   1.509
 9227SOL    HW128580   1.856   6.108   1.572
 9227SOL    HW228581   1.893   6.028   1.434
 9228SOL     OW28582   2.365   2.409   0.270
 9228SOL    HW128583   2.269   2.383   0.282
 9228SOL    HW228584   2.378   2.445   0.178
 9229SOL     OW28585   0.914   5.047   5.932
 9229SOL    HW128586   0.815   5.058   5.945
 9229SOL    HW228587   0.939   5.071   5.839
 9230SOL     OW28588   4.882   3.588   2.729
 9230SOL    HW128589   4.914   3.506   2.682
 9230SOL    HW228590   4.943   3.665   2.709
 9231SOL     OW28591   0.988   3.364   5.322
 9231SOL    HW128592   1.010   3.364   5.224
 9231SOL    HW228593   0.938   3.281   5.344
 9232SOL     OW28594   3.121   5.050   0.926
 9232SOL    HW128595   3.102   5.132   0.872
 9232SOL    HW228596   3.166   4.982   0.868
 9233SOL     OW28597   0.264   6.716   0.980
 9233SOL    HW128598   0.251   6.798   1.036
 9233SOL    HW228599   0.347   6.668   1.009
 9234SOL     OW28600   2.174   6.083   0.828
 9234SOL    HW128601   2.117   6.140   0.768
 9234SOL    HW228602   2.132   5.993   0.838
 9235SOL     OW28603   2.139   3.264   3.421
 9235SOL    HW128604   2.043   3.291   3.429
 9235SOL    HW228605   2.149   3.197   3.347
 9236SOL     OW28606   2.936   3.780   6.537
 9236SOL    HW128607   2.969   3.766   6.630
 9236SOL    HW228608   2.864   3.714   6.517
 9237SOL     OW28609   0.843   5.731   3.178
 9237SOL    HW128610   0.859   5.819   3.133
 9237SOL    HW228611   0.799   5.746   3.266
 9238SOL     OW28612   2.787   2.030   5.999
 9238SOL    HW128613   2.791   2.125   6.029
 9238SOL    HW228614   2.822   2.023   5.905
 9239SOL     OW28615   6.870   4.426   6.693
 9239SOL    HW128616   6.841   4.506   6.746
 9239SOL    HW228617   6.795   4.397   6.633
 9240SOL     OW28618   5.362   2.969   1.983
 9240SOL    HW128619   5.301   3.048   1.991
 9240SOL    HW228620   5.434   2.990   1.916
 9241SOL     OW28621   0.492   5.837   0.726
 9241SOL    HW128622   0.564   5.905   0.716
 9241SOL    HW228623   0.462   5.805   0.636
 9242SOL     OW28624   1.828   3.845   1.939
 9242SOL    HW128625   1.871   3.763   1.903
 9242SOL    HW228626   1.854   3.924   1.883
 9243SOL     OW28627   6.956   0.771   2.183
 9243SOL    HW128628   6.935   0.853   2.237
 9243SOL    HW228629   6.870   0.725   2.159
 9244SOL     OW28630   2.787   5.996   5.586
 9244SOL    HW128631   2.854   6.071   5.583
 9244SOL    HW228632   2.695   6.035   5.591
 9245SOL     OW28633   0.732   4.528   3.909
 9245SOL    HW128634   0.780   4.445   3.882
 9245SOL    HW228635   0.779   4.571   3.986
 9246SOL     OW28636   5.556   0.309   3.827
 9246SOL    HW128637   5.625   0.382   3.821
 9246SOL    HW228638   5.495   0.314   3.749
 9247SOL     OW28639   3.263   5.512   2.327
 9247SOL    HW128640   3.185   5.485   2.384
 9247SOL    HW228641   3.302   5.431   2.283
 9248SOL     OW28642   2.953   2.119   4.683
 9248SOL    HW128643   2.878   2.179   4.654
 9248SOL    HW228644   2.996   2.158   4.764
 9249SOL     OW28645   4.743   5.124   1.889
 9249SOL    HW128646   4.707   5.119   1.796
 9249SOL    HW228647   4.810   5.199   1.895
 9250SOL     OW28648   6.304   2.922   3.785
 9250SOL    HW128649   6.274   2.999   3.729
 9250SOL    HW228650   6.292   2.945   3.882
 9251SOL     OW28651   3.897   1.250   2.331
 9251SOL    HW128652   3.800   1.249   2.355
 9251SOL    HW228653   3.908   1.285   2.238
 9252SOL     OW28654   5.831   0.291   4.938
 9252SOL    HW128655   5.890   0.355   4.988
 9252SOL    HW228656   5.884   0.249   4.864
 9253SOL     OW28657   5.619   5.222   5.575
 9253SOL    HW128658   5.548   5.251   5.510
 9253SOL    HW228659   5.598   5.259   5.666
 9254SOL     OW28660   4.421   4.625   2.898
 9254SOL    HW128661   4.510   4.666   2.877
 9254SOL    HW228662   4.430   4.564   2.977
 9255SOL     OW28663   4.989   3.477   0.254
 9255SOL    HW128664   4.900   3.477   0.211
 9255SOL    HW228665   5.005   3.388   0.297
 9256SOL     OW28666   2.859   0.201   2.401
 9256SOL    HW128667   2.893   0.191   2.308
 9256SOL    HW228668   2.770   0.247   2.399
 9257SOL     OW28669   5.968   5.177   3.682
 9257SOL    HW128670   6.050   5.194   3.628
 9257SOL    HW228671   5.974   5.227   3.769
 9258SOL     OW28672   3.931   3.515   1.522
 9258SOL    HW128673   3.877   3.590   1.483
 9258SOL    HW228674   4.027   3.525   1.495
 9259SOL     OW28675   1.694   1.622   0.948
 9259SOL    HW128676   1.723   1.689   1.016
 9259SOL    HW228677   1.755   1.625   0.869
 9260SOL     OW28678   6.291   2.464   5.894
 9260SOL    HW128679   6.318   2.390   5.832
 9260SOL    HW228680   6.359   2.537   5.891
 9261SOL     OW28681   4.332   1.689   6.978
 9261SOL    HW128682   4.416   1.693   0.013
 9261SOL    HW228683   4.335   1.610   6.917
 9262SOL     OW28684   0.690   5.951   5.009
 9262SOL    HW128685   0.715   6.013   5.083
 9262SOL    HW228686   0.608   5.984   4.963
 9263SOL     OW28687   2.848   5.659   2.312
 9263SOL    HW128688   2.855   5.608   2.226
 9263SOL    HW228689   2.823   5.597   2.386
 9264SOL     OW28690   4.600   3.617   0.339
 9264SOL    HW128691   4.624   3.527   0.303
 9264SOL    HW228692   4.635   3.687   0.277
 9265SOL     OW28693   3.236   2.474   0.289
 9265SOL    HW128694   3.169   2.413   0.248
 9265SOL    HW228695   3.220   2.479   0.388
 9266SOL     OW28696   0.908   6.074   1.249
 9266SOL    HW128697   0.899   6.124   1.163
 9266SOL    HW228698   1.004   6.047   1.262
 9267SOL     OW28699   0.363   1.821   4.007
 9267SOL    HW128700   0.430   1.757   3.969
 9267SOL    HW228701   0.274   1.805   3.965
 9268SOL     OW28702   1.219   0.372   2.635
 9268SOL    HW128703   1.122   0.384   2.655
 9268SOL    HW228704   1.273   0.433   2.694
 9269SOL     OW28705   4.280   0.233   6.026
 9269SOL    HW128706   4.221   0.242   6.106
 9269SOL    HW228707   4.249   0.155   5.971
 9270SOL     OW28708   4.262   0.042   5.818
 9270SOL    HW128709   4.324   0.000   5.885
 9270SOL    HW228710   4.314   0.105   5.761
 9271SOL     OW28711   6.207   0.327   0.595
 9271SOL    HW128712   6.164   0.271   0.524
 9271SOL    HW228713   6.235   0.268   0.671
 9272SOL     OW28714   1.194   6.041   6.163
 9272SOL    HW128715   1.122   6.054   6.095
 9272SOL    HW228716   1.209   5.943   6.178
 9273SOL     OW28717   6.680   5.903   3.600
 9273SOL    HW128718   6.719   5.885   3.510
 9273SOL    HW228719   6.754   5.930   3.663
 9274SOL     OW28720   0.140   1.813   6.794
 9274SOL    HW128721   0.165   1.841   6.887
 9274SOL    HW228722   0.216   1.834   6.732
 9275SOL     OW28723   6.287   0.626   0.359
 9275SOL    HW128724   6.332   0.683   0.427
 9275SOL    HW228725   6.192   0.612   0.385
 9276SOL     OW28726   2.105   4.723   0.660
 9276SOL    HW128727   2.092   4.822   0.670
 9276SOL    HW228728   2.154   4.704   0.575
 9277SOL     OW28729   4.340   4.843   2.109
 9277SOL    HW128730   4.269   4.778   2.082
 9277SOL    HW228731   4.318   4.934   2.073
 9278SOL     OW28732   2.153   0.703   5.768
 9278SOL    HW128733   2.188   0.794   5.790
 9278SOL    HW228734   2.195   0.636   5.828
 9279SOL     OW28735   3.356   6.753   1.697
 9279SOL    HW128736   3.349   6.710   1.607
 9279SOL    HW228737   3.281   6.724   1.755
 9280SOL     OW28738   2.879   1.006   2.647
 9280SOL    HW128739   2.873   0.939   2.721
 9280SOL    HW228740   2.973   1.039   2.640
 9281SOL     OW28741   3.132   4.334   0.071
 9281SOL    HW128742   3.067   4.336   7.015
 9281SOL    HW228743   3.225   4.340   0.035
 9282SOL     OW28744   4.888   1.091   3.850
 9282SOL    HW128745   4.914   1.188   3.850
 9282SOL    HW228746   4.789   1.083   3.854
 9283SOL     OW28747   5.242   0.363   4.875
 9283SOL    HW128748   5.145   0.354   4.895
 9283SOL    HW228749   5.256   0.364   4.776
 9284SOL     OW28750   2.842   3.204   5.495
 9284SOL    HW128751   2.855   3.105   5.484
 9284SOL    HW228752   2.756   3.231   5.451
 9285SOL     OW28753   4.943   3.347   1.336
 9285SOL    HW128754   4.963   3.434   1.292
 9285SOL    HW228755   4.877   3.361   1.410
 9286SOL     OW28756   5.336   5.333   0.777
 9286SOL    HW128757   5.422   5.339   0.726
 9286SOL    HW228758   5.338   5.252   0.836
 9287SOL     OW28759   4.069   4.767   5.982
 9287SOL    HW128760   3.991   4.715   6.017
 9287SOL    HW228761   4.038   4.832   5.913
 9288SOL     OW28762   4.452   2.184   2.808
 9288SOL    HW128763   4.520   2.121   2.771
 9288SOL    HW228764   4.365   2.171   2.761
 9289SOL     OW28765   4.700   0.194   1.125
 9289SOL    HW128766   4.670   0.285   1.154
 9289SOL    HW228767   4.642   0.124   1.167
 9290SOL     OW28768   5.427   1.019   3.907
 9290SOL    HW128769   5.526   1.014   3.896
 9290SOL    HW228770   5.400   1.112   3.930
 9291SOL     OW28771   1.257   5.310   5.850
 9291SOL    HW128772   1.231   5.392   5.798
 9291SOL    HW228773   1.326   5.335   5.918
 9292SOL     OW28774   2.635   2.337   6.581
 9292SOL    HW128775   2.609   2.362   6.674
 9292SOL    HW228776   2.726   2.296   6.583
 9293SOL     OW28777   5.879   4.248   6.919
 9293SOL    HW128778   5.824   4.329   6.897
 9293SOL    HW228779   5.925   4.216   6.837
 9294SOL     OW28780   5.329   1.545   6.167
 9294SOL    HW128781   5.297   1.465   6.116
 9294SOL    HW228782   5.415   1.578   6.127
 9295SOL     OW28783   5.675   0.305   5.693
 9295SOL    HW128784   5.752   0.351   5.649
 9295SOL    HW228785   5.650   0.223   5.642
 9296SOL     OW28786   2.064   4.927   0.146
 9296SOL    HW128787   2.085   4.986   0.069
 9296SOL    HW228788   1.967   4.935   0.169
 9297SOL     OW28789   1.020   6.981   2.746
 9297SOL    HW128790   0.976   6.907   2.797
 9297SOL    HW228791   0.951   0.026   2.714
 9298SOL     OW28792   1.459   6.053   6.239
 9298SOL    HW128793   1.500   6.115   6.173
 9298SOL    HW228794   1.359   6.055   6.228
 9299SOL     OW28795   1.065   2.186   4.577
 9299SOL    HW128796   0.998   2.260   4.572
 9299SOL    HW228797   1.149   2.213   4.529
 9300SOL     OW28798   0.278   5.296   5.639
 9300SOL    HW128799   0.244   5.220   5.584
 9300SOL    HW228800   0.206   5.364   5.652
 9301SOL     OW28801   5.831   5.332   4.708
 9301SOL    HW128802   5.751   5.307   4.655
 9301SOL    HW228803   5.899   5.259   4.704
 9302SOL     OW28804   2.109   3.426   4.590
 9302SOL    HW128805   2.124   3.341   4.539
 9302SOL    HW228806   2.043   3.410   4.663
 9303SOL     OW28807   2.878   3.612   0.709
 9303SOL    HW128808   2.929   3.526   0.705
 9303SOL    HW228809   2.842   3.625   0.801
 9304SOL     OW28810   4.541   4.886   0.393
 9304SOL    HW128811   4.593   4.869   0.476
 9304SOL    HW228812   4.464   4.947   0.414
 9305SOL     OW28813   3.751   0.622   0.877
 9305SOL    HW128814   3.824   0.680   0.913
 9305SOL    HW228815   3.667   0.639   0.928
 9306SOL     OW28816   1.421   4.044   5.582
 9306SOL    HW128817   1.422   3.975   5.509
 9306SOL    HW228818   1.340   4.030   5.639
 9307SOL     OW28819   0.822   4.070   0.283
 9307SOL    HW128820   0.745   4.016   0.315
 9307SOL    HW228821   0.904   4.045   0.334
 9308SOL     OW28822   1.597   3.777   2.273
 9308SOL    HW128823   1.529   3.818   2.212
 9308SOL    HW228824   1.689   3.802   2.242
 9309SOL     OW28825   3.780   5.627   5.820
 9309SOL    HW128826   3.713   5.701   5.825
 9309SOL    HW228827   3.824   5.616   5.909
 9310SOL     OW28828   5.359   6.309   5.702
 9310SOL    HW128829   5.293   6.355   5.761
 9310SOL    HW228830   5.431   6.374   5.677
 9311SOL     OW28831   5.502   4.580   1.350
 9311SOL    HW128832   5.487   4.517   1.274
 9311SOL    HW228833   5.493   4.531   1.437
 9312SOL     OW28834   1.979   2.592   0.860
 9312SOL    HW128835   2.054   2.633   0.809
 9312SOL    HW228836   1.960   2.501   0.825
 9313SOL     OW28837   0.286   0.396   1.951
 9313SOL    HW128838   0.207   0.350   1.912
 9313SOL    HW228839   0.257   0.483   1.992
 9314SOL     OW28840   6.927   3.648   0.068
 9314SOL    HW128841   6.944   3.715   7.015
 9314SOL    HW228842   6.936   3.692   0.157
 9315SOL     OW28843   6.818   0.190   5.694
 9315SOL    HW128844   6.788   0.111   5.748
 9315SOL    HW228845   6.908   0.220   5.725
 9316SOL     OW28846   6.094   6.520   5.681
 9316SOL    HW128847   6.042   6.485   5.603
 9316SOL    HW228848   6.164   6.584   5.650
 9317SOL     OW28849   4.448   5.638   4.017
 9317SOL    HW128850   4.451   5.548   3.974
 9317SOL    HW228851   4.353   5.665   4.030
 9318SOL     OW28852   5.616   0.101   0.053
 9318SOL    HW128853   5.612   0.022   7.011
 9318SOL    HW228854   5.529   0.109   0.102
 9319SOL     OW28855   2.455   2.964   1.078
 9319SOL    HW128856   2.388   3.031   1.112
 9319SOL    HW228857   2.547   3.002   1.085
 9320SOL     OW28858   4.271   0.534   5.777
 9320SOL    HW128859   4.310   0.442   5.776
 9320SOL    HW228860   4.175   0.529   5.806
 9321SOL     OW28861   0.719   1.190   5.055
 9321SOL    HW128862   0.692   1.260   4.989
 9321SOL    HW228863   0.648   1.182   5.126
 9322SOL     OW28864   0.171   4.744   0.166
 9322SOL    HW128865   0.137   4.719   0.076
 9322SOL    HW228866   0.153   4.670   0.231
 9323SOL     OW28867   1.348   1.361   4.807
 9323SOL    HW128868   1.419   1.292   4.797
 9323SOL    HW228869   1.260   1.322   4.781
 9324SOL     OW28870   1.891   3.958   2.840
 9324SOL    HW128871   1.905   3.886   2.907
 9324SOL    HW228872   1.975   3.973   2.788
 9325SOL     OW28873   7.006   0.108   0.679
 9325SOL    HW128874   0.055   0.105   0.753
 9325SOL    HW228875   6.990   0.203   0.653
 9326SOL     OW28876   2.728   4.917   0.283
 9326SOL    HW128877   2.754   5.010   0.311
 9326SOL    HW228878   2.723   4.858   0.364
 9327SOL     OW28879   4.212   6.742   2.504
 9327SOL    HW128880   4.176   6.828   2.538
 9327SOL    HW228881   4.174   6.666   2.557
 9328SOL     OW28882   1.775   0.558   5.087
 9328SOL    HW128883   1.736   0.590   5.174
 9328SOL    HW228884   1.792   0.460   5.092
 9329SOL     OW28885   6.624   5.122   1.215
 9329SOL    HW128886   6.710   5.114   1.165
 9329SOL    HW228887   6.606   5.037   1.265
 9330SOL     OW28888   0.203   0.106   5.914
 9330SOL    HW128889   0.292   0.074   5.882
 9330SOL    HW228890   0.148   0.028   5.943
 9331SOL     OW28891   1.857   1.400   6.349
 9331SOL    HW128892   1.821   1.375   6.439
 9331SOL    HW228893   1.781   1.422   6.288
 9332SOL     OW28894   4.510   5.160   0.866
 9332SOL    HW128895   4.524   5.174   0.768
 9332SOL    HW228896   4.543   5.241   0.916
 9333SOL     OW28897   4.074   5.319   6.277
 9333SOL    HW128898   4.170   5.328   6.305
 9333SOL    HW228899   4.041   5.228   6.299
 9334SOL     OW28900   4.824   6.252   4.786
 9334SOL    HW128901   4.755   6.322   4.766
 9334SOL    HW228902   4.905   6.267   4.729
 9335SOL     OW28903   1.558   1.532   0.139
 9335SOL    HW128904   1.535   1.628   0.126
 9335SOL    HW228905   1.527   1.479   0.060
 9336SOL     OW28906   4.746   6.457   4.327
 9336SOL    HW128907   4.797   6.387   4.377
 9336SOL    HW228908   4.783   6.466   4.235
 9337SOL     OW28909   4.975   1.260   5.663
 9337SOL    HW128910   4.985   1.191   5.735
 9337SOL    HW228911   4.897   1.319   5.685
 9338SOL     OW28912   6.311   6.210   0.856
 9338SOL    HW128913   6.318   6.306   0.885
 9338SOL    HW228914   6.397   6.163   0.876
 9339SOL     OW28915   5.963   5.777   0.148
 9339SOL    HW128916   6.046   5.815   0.108
 9339SOL    HW228917   5.924   5.843   0.212
 9340SOL     OW28918   3.669   5.034   2.815
 9340SOL    HW128919   3.614   5.002   2.738
 9340SOL    HW228920   3.764   5.002   2.804
 9341SOL     OW28921   6.017   4.738   1.385
 9341SOL    HW128922   6.006   4.808   1.456
 9341SOL    HW228923   6.075   4.774   1.312
 9342SOL     OW28924   2.442   0.410   4.428
 9342SOL    HW128925   2.470   0.372   4.516
 9342SOL    HW228926   2.518   0.406   4.364
 9343SOL     OW28927   5.091   4.077   1.969
 9343SOL    HW128928   5.009   4.036   2.009
 9343SOL    HW228929   5.173   4.032   2.005
 9344SOL     OW28930   5.466   5.986   0.815
 9344SOL    HW128931   5.544   6.041   0.787
 9344SOL    HW228932   5.387   6.045   0.830
 9345SOL     OW28933   6.693   4.687   2.203
 9345SOL    HW128934   6.744   4.752   2.147
 9345SOL    HW228935   6.596   4.689   2.175
 9346SOL     OW28936   4.599   7.004   1.936
 9346SOL    HW128937   4.688   0.021   1.962
 9346SOL    HW228938   4.541   6.998   2.018
 9347SOL     OW28939   3.189   6.313   0.622
 9347SOL    HW128940   3.146   6.256   0.552
 9347SOL    HW228941   3.240   6.254   0.686
 9348SOL     OW28942   2.557   5.154   2.693
 9348SOL    HW128943   2.567   5.163   2.594
 9348SOL    HW228944   2.561   5.244   2.736
 9349SOL     OW28945   6.784   5.298   2.776
 9349SOL    HW128946   6.734   5.384   2.782
 9349SOL    HW228947   6.812   5.282   2.682
 9350SOL     OW28948   6.699   1.994   4.080
 9350SOL    HW128949   6.621   1.932   4.089
 9350SOL    HW228950   6.783   1.946   4.105
 9351SOL     OW28951   3.347   0.568   6.344
 9351SOL    HW128952   3.293   0.639   6.299
 9351SOL    HW228953   3.429   0.548   6.289
 9352SOL     OW28954   3.505   2.650   6.218
 9352SOL    HW128955   3.564   2.670   6.140
 9352SOL    HW228956   3.415   2.621   6.185
 9353SOL     OW28957   1.438   4.141   0.859
 9353SOL    HW128958   1.536   4.149   0.875
 9353SOL    HW228959   1.403   4.225   0.819
 9354SOL     OW28960   6.541   2.158   6.608
 9354SOL    HW128961   6.565   2.162   6.511
 9354SOL    HW228962   6.528   2.062   6.635
 9355SOL     OW28963   0.010   1.754   4.538
 9355SOL    HW128964   6.938   1.718   4.560
 9355SOL    HW228965   0.065   1.756   4.621
 9356SOL     OW28966   4.758   5.794   1.600
 9356SOL    HW128967   4.849   5.777   1.564
 9356SOL    HW228968   4.714   5.867   1.548
 9357SOL     OW28969   3.474   3.219   6.416
 9357SOL    HW128970   3.379   3.197   6.438
 9357SOL    HW228971   3.513   3.276   6.488
 9358SOL     OW28972   6.590   3.364   2.809
 9358SOL    HW128973   6.617   3.441   2.866
 9358SOL    HW228974   6.628   3.376   2.717
 9359SOL     OW28975   1.098   3.728   5.732
 9359SOL    HW128976   1.040   3.711   5.653
 9359SOL    HW228977   1.102   3.645   5.789
 9360SOL     OW28978   1.569   6.480   5.923
 9360SOL    HW128979   1.587   6.550   5.854
 9360SOL    HW228980   1.506   6.516   5.991
 9361SOL     OW28981   1.451   6.471   3.067
 9361SOL    HW128982   1.446   6.414   2.986
 9361SOL    HW228983   1.413   6.561   3.047
 9362SOL     OW28984   1.895   2.646   2.422
 9362SOL    HW128985   1.870   2.686   2.334
 9362SOL    HW228986   1.995   2.634   2.425
 9363SOL     OW28987   3.753   5.983   1.681
 9363SOL    HW128988   3.798   5.956   1.767
 9363SOL    HW228989   3.655   5.992   1.697
 9364SOL     OW28990   3.748   2.951   5.480
 9364SOL    HW128991   3.814   2.988   5.545
 9364SOL    HW228992   3.656   2.965   5.514
 9365SOL     OW28993   2.098   2.285   5.324
 9365SOL    HW128994   2.180   2.305   5.271
 9365SOL    HW228995   2.080   2.359   5.389
 9366SOL     OW28996   3.576   0.025   6.893
 9366SOL    HW128997   3.549   7.014   6.802
 9366SOL    HW228998   3.629   0.110   6.886
 9367SOL     OW28999   6.737   6.093   2.462
 9367SOL    HW129000   6.704   6.062   2.373
 9367SOL    HW229001   6.818   6.150   2.450
 9368SOL     OW29002   2.674   1.540   3.742
 9368SOL    HW129003   2.622   1.457   3.722
 9368SOL    HW229004   2.674   1.600   3.662
 9369SOL     OW29005   6.983   0.084   5.039
 9369SOL    HW129006   6.937   0.126   4.961
 9369SOL    HW229007   0.002   7.015   5.011
 9370SOL     OW29008   5.118   6.900   2.144
 9370SOL    HW129009   5.018   6.892   2.137
 9370SOL    HW229010   5.146   6.992   2.116
 9371SOL     OW29011   2.408   4.874   0.866
 9371SOL    HW129012   2.316   4.836   0.873
 9371SOL    HW229013   2.406   4.957   0.811
 9372SOL     OW29014   4.969   6.483   2.737
 9372SOL    HW129015   5.060   6.441   2.732
 9372SOL    HW229016   4.975   6.580   2.715
 9373SOL     OW29017   4.718   2.044   2.124
 9373SOL    HW129018   4.655   1.966   2.132
 9373SOL    HW229019   4.812   2.012   2.131
 9374SOL     OW29020   0.875   3.347   0.976
 9374SOL    HW129021   0.930   3.275   0.934
 9374SOL    HW229022   0.795   3.308   1.020
 9375SOL     OW29023   6.185   1.479   3.231
 9375SOL    HW129024   6.152   1.562   3.186
 9375SOL    HW229025   6.156   1.399   3.178
 9376SOL     OW29026   2.769   4.422   0.819
 9376SOL    HW129027   2.819   4.445   0.736
 9376SOL    HW229028   2.710   4.498   0.845
 9377SOL     OW29029   1.937   5.552   3.844
 9377SOL    HW129030   2.011   5.596   3.895
 9377SOL    HW229031   1.945   5.453   3.851
 9378SOL     OW29032   1.394   1.367   5.369
 9378SOL    HW129033   1.379   1.282   5.419
 9378SOL    HW229034   1.399   1.347   5.271
 9379SOL     OW29035   4.058   5.833   5.274
 9379SOL    HW129036   4.050   5.742   5.233
 9379SOL    HW229037   4.154   5.857   5.285
 9380SOL     OW29038   5.561   5.147   5.088
 9380SOL    HW129039   5.655   5.172   5.109
 9380SOL    HW229040   5.546   5.051   5.113
 9381SOL     OW29041   3.538   2.641   5.905
 9381SOL    HW129042   3.515   2.669   5.812
 9381SOL    HW229043   3.632   2.606   5.907
 9382SOL     OW29044   3.422   0.719   2.656
 9382SOL    HW129045   3.445   0.768   2.571
 9382SOL    HW229046   3.329   0.742   2.683
 9383SOL     OW29047   1.515   5.736   4.476
 9383SOL    HW129048   1.587   5.776   4.419
 9383SOL    HW229049   1.536   5.641   4.496
 9384SOL     OW29050   2.957   6.869   1.813
 9384SOL    HW129051   2.974   6.888   1.717
 9384SOL    HW229052   3.027   6.805   1.847
 9385SOL     OW29053   3.716   0.491   3.001
 9385SOL    HW129054   3.673   0.432   2.932
 9385SOL    HW229055   3.695   0.586   2.981
 9386SOL     OW29056   2.366   6.225   4.959
 9386SOL    HW129057   2.354   6.186   4.868
 9386SOL    HW229058   2.298   6.186   5.021
 9387SOL     OW29059   2.438   1.528   6.852
 9387SOL    HW129060   2.522   1.581   6.861
 9387SOL    HW229061   2.397   1.515   6.943
 9388SOL     OW29062   2.061   5.296   2.709
 9388SOL    HW129063   2.038   5.370   2.771
 9388SOL    HW229064   2.093   5.216   2.761
 9389SOL     OW29065   1.450   7.014   4.367
 9389SOL    HW129066   1.376   6.965   4.321
 9389SOL    HW229067   1.537   6.991   4.322
 9390SOL     OW29068   4.488   5.073   4.725
 9390SOL    HW129069   4.576   5.083   4.680
 9390SOL    HW229070   4.486   5.129   4.808
 9391SOL     OW29071   2.336   1.429   5.308
 9391SOL    HW129072   2.383   1.503   5.356
 9391SOL    HW229073   2.292   1.465   5.226
 9392SOL     OW29074   6.866   0.687   6.056
 9392SOL    HW129075   6.900   0.741   5.980
 9392SOL    HW229076   6.839   0.748   6.131
 9393SOL     OW29077   3.421   6.980   5.902
 9393SOL    HW129078   3.380   0.037   5.951
 9393SOL    HW229079   3.388   6.980   5.807
 9394SOL     OW29080   0.707   1.503   2.101
 9394SOL    HW129081   0.778   1.564   2.138
 9394SOL    HW229082   0.617   1.546   2.112
 9395SOL     OW29083   2.626   1.963   0.986
 9395SOL    HW129084   2.595   1.883   1.038
 9395SOL    HW229085   2.722   1.952   0.961
 9396SOL     OW29086   2.309   5.121   4.138
 9396SOL    HW129087   2.394   5.174   4.136
 9396SOL    HW229088   2.325   5.034   4.183
 9397SOL     OW29089   4.534   0.238   6.963
 9397SOL    HW129090   4.623   0.227   6.918
 9397SOL    HW229091   4.463   0.198   6.906
 9398SOL     OW29092   6.900   0.528   4.893
 9398SOL    HW129093   6.998   0.513   4.890
 9398SOL    HW229094   6.877   0.611   4.841
 9399SOL     OW29095   0.095   1.925   5.679
 9399SOL    HW129096   0.036   1.929   5.598
 9399SOL    HW229097   0.189   1.905   5.651
 9400SOL     OW29098   3.893   1.395   2.086
 9400SOL    HW129099   3.986   1.428   2.100
 9400SOL    HW229100   3.868   1.405   1.990
 9401SOL     OW29101   5.685   0.127   3.602
 9401SOL    HW129102   5.610   0.069   3.632
 9401SOL    HW229103   5.772   0.082   3.622
 9402SOL     OW29104   1.263   4.943   3.806
 9402SOL    HW129105   1.342   4.958   3.746
 9402SOL    HW229106   1.293   4.947   3.901
 9403SOL     OW29107   6.079   1.705   3.118
 9403SOL    HW129108   6.104   1.784   3.174
 9403SOL    HW229109   5.982   1.684   3.131
 9404SOL     OW29110   1.558   3.273   7.011
 9404SOL    HW129111   1.574   3.367   6.983
 9404SOL    HW229112   1.507   3.225   6.940
 9405SOL     OW29113   1.476   5.420   2.515
 9405SOL    HW129114   1.564   5.464   2.534
 9405SOL    HW229115   1.472   5.331   2.560
 9406SOL     OW29116   6.677   3.078   5.481
 9406SOL    HW129117   6.648   3.168   5.448
 9406SOL    HW229118   6.672   3.077   5.581
 9407SOL     OW29119   2.787   5.387   2.800
 9407SOL    HW129120   2.807   5.360   2.894
 9407SOL    HW229121   2.828   5.322   2.736
 9408SOL     OW29122   5.140   2.188   6.221
 9408SOL    HW129123   5.151   2.283   6.252
 9408SOL    HW229124   5.069   2.144   6.274
 9409SOL     OW29125   6.189   5.490   0.197
 9409SOL    HW129126   6.131   5.503   0.117
 9409SOL    HW229127   6.159   5.552   0.270
 9410SOL     OW29128   3.251   0.215   1.778
 9410SOL    HW129129   3.335   0.162   1.790
 9410SOL    HW229130   3.237   0.274   1.858
 9411SOL     OW29131   3.249   2.867   2.094
 9411SOL    HW129132   3.276   2.862   2.191
 9411SOL    HW229133   3.206   2.781   2.067
 9412SOL     OW29134   6.849   2.365   2.577
 9412SOL    HW129135   6.802   2.300   2.517
 9412SOL    HW229136   6.782   2.428   2.616
 9413SOL     OW29137   3.037   6.011   3.461
 9413SOL    HW129138   3.053   6.103   3.425
 9413SOL    HW229139   2.944   6.005   3.498
 9414SOL     OW29140   3.231   0.759   3.574
 9414SOL    HW129141   3.180   0.678   3.603
 9414SOL    HW229142   3.311   0.730   3.521
 9415SOL     OW29143   3.046   6.418   1.897
 9415SOL    HW129144   2.973   6.453   1.839
 9415SOL    HW229145   3.122   6.387   1.840
 9416SOL     OW29146   0.453   2.603   0.969
 9416SOL    HW129147   0.504   2.544   0.907
 9416SOL    HW229148   0.515   2.642   1.037
 9417SOL     OW29149   4.058   0.286   6.185
 9417SOL    HW129150   4.020   0.352   6.250
 9417SOL    HW229151   4.125   0.228   6.232
 9418SOL     OW29152   3.552   6.849   1.349
 9418SOL    HW129153   3.640   6.895   1.340
 9418SOL    HW229154   3.483   6.915   1.379
 9419SOL     OW29155   3.685   5.224   5.915
 9419SOL    HW129156   3.657   5.317   5.938
 9419SOL    HW229157   3.604   5.169   5.894
 9420SOL     OW29158   6.373   3.570   5.426
 9420SOL    HW129159   6.290   3.571   5.483
 9420SOL    HW229160   6.362   3.635   5.350
 9421SOL     OW29161   1.989   6.698   4.175
 9421SOL    HW129162   2.052   6.651   4.112
 9421SOL    HW229163   1.895   6.669   4.156
 9422SOL     OW29164   3.907   5.889   3.455
 9422SOL    HW129165   3.962   5.933   3.527
 9422SOL    HW229166   3.968   5.850   3.386
 9423SOL     OW29167   3.704   0.650   3.779
 9423SOL    HW129168   3.692   0.705   3.696
 9423SOL    HW229169   3.621   0.655   3.835
 9424SOL     OW29170   5.599   1.084   4.570
 9424SOL    HW129171   5.547   1.082   4.655
 9424SOL    HW229172   5.554   1.026   4.502
 9425SOL     OW29173   6.659   3.287   6.813
 9425SOL    HW129174   6.570   3.264   6.853
 9425SOL    HW229175   6.726   3.301   6.885
 9426SOL     OW29176   3.504   2.040   6.558
 9426SOL    HW129177   3.511   2.047   6.458
 9426SOL    HW229178   3.419   1.994   6.583
 9427SOL     OW29179   2.741   4.952   3.355
 9427SOL    HW129180   2.789   4.903   3.428
 9427SOL    HW229181   2.645   4.926   3.354
 9428SOL     OW29182   6.006   0.650   1.318
 9428SOL    HW129183   5.950   0.693   1.389
 9428SOL    HW229184   6.102   0.662   1.340
 9429SOL     OW29185   2.134   3.830   2.524
 9429SOL    HW129186   2.124   3.733   2.549
 9429SOL    HW229187   2.172   3.837   2.432
 9430SOL     OW29188   0.638   4.302   2.574
 9430SOL    HW129189   0.650   4.207   2.545
 9430SOL    HW229190   0.553   4.310   2.627
 9431SOL     OW29191   6.419   4.108   1.500
 9431SOL    HW129192   6.468   4.191   1.527
 9431SOL    HW229193   6.386   4.118   1.406
 9432SOL     OW29194   4.522   0.416   2.656
 9432SOL    HW129195   4.516   0.406   2.755
 9432SOL    HW229196   4.615   0.397   2.625
 9433SOL     OW29197   2.765   5.445   2.483
 9433SOL    HW129198   2.776   5.345   2.480
 9433SOL    HW229199   2.683   5.467   2.537
 9434SOL     OW29200   5.322   4.771   2.858
 9434SOL    HW129201   5.411   4.760   2.813
 9434SOL    HW229202   5.314   4.864   2.894
 9435SOL     OW29203   0.573   2.616   4.402
 9435SOL    HW129204   0.616   2.539   4.356
 9435SOL    HW229205   0.633   2.696   4.398
 9436SOL     OW29206   1.572   2.574   1.900
 9436SOL    HW129207   1.600   2.651   1.957
 9436SOL    HW229208   1.518   2.607   1.823
 9437SOL     OW29209   1.750   5.854   3.220
 9437SOL    HW129210   1.770   5.892   3.310
 9437SOL    HW229211   1.703   5.923   3.165
 9438SOL     OW29212   0.088   0.315   1.767
 9438SOL    HW129213   0.022   0.387   1.789
 9438SOL    HW229214   0.100   0.310   1.668
 9439SOL     OW29215   0.656   3.438   1.246
 9439SOL    HW129216   0.639   3.361   1.184
 9439SOL    HW229217   0.685   3.518   1.193
 9440SOL     OW29218   4.013   4.815   3.488
 9440SOL    HW129219   4.111   4.803   3.506
 9440SOL    HW229220   4.000   4.843   3.393
 9441SOL     OW29221   0.397   3.422   5.125
 9441SOL    HW129222   0.394   3.522   5.127
 9441SOL    HW229223   0.419   3.388   5.216
 9442SOL     OW29224   4.148   2.888   0.695
 9442SOL    HW129225   4.097   2.803   0.708
 9442SOL    HW229226   4.222   2.893   0.764
 9443SOL     OW29227   2.126   5.347   0.876
 9443SOL    HW129228   2.207   5.352   0.934
 9443SOL    HW229229   2.050   5.394   0.921
 9444SOL     OW29230   1.350   3.291   0.164
 9444SOL    HW129231   1.369   3.264   0.069
 9444SOL    HW229232   1.409   3.368   0.189
 9445SOL     OW29233   5.550   3.521   3.788
 9445SOL    HW129234   5.608   3.440   3.796
 9445SOL    HW229235   5.606   3.601   3.768
 9446SOL     OW29236   6.539   5.517   4.237
 9446SOL    HW129237   6.617   5.517   4.174
 9446SOL    HW229238   6.572   5.527   4.331
 9447SOL     OW29239   6.212   3.807   4.671
 9447SOL    HW129240   6.221   3.891   4.724
 9447SOL    HW229241   6.119   3.799   4.635
 9448SOL     OW29242   6.959   0.242   6.657
 9448SOL    HW129243   6.959   0.335   6.692
 9448SOL    HW229244   6.990   0.242   6.562
 9449SOL     OW29245   6.592   6.102   0.305
 9449SOL    HW129246   6.592   6.201   0.316
 9449SOL    HW229247   6.580   6.059   0.395
 9450SOL     OW29248   2.429   5.350   5.125
 9450SOL    HW129249   2.499   5.321   5.190
 9450SOL    HW229250   2.416   5.279   5.056
 9451SOL     OW29251   4.272   6.683   6.054
 9451SOL    HW129252   4.295   6.614   6.123
 9451SOL    HW229253   4.300   6.650   5.964
 9452SOL     OW29254   2.049   4.337   0.225
 9452SOL    HW129255   1.961   4.300   0.195
 9452SOL    HW229256   2.096   4.379   0.147
 9453SOL     OW29257   1.821   4.814   3.462
 9453SOL    HW129258   1.766   4.789   3.382
 9453SOL    HW229259   1.901   4.866   3.432
 9454SOL     OW29260   3.573   3.122   6.857
 9454SOL    HW129261   3.576   3.031   6.815
 9454SOL    HW229262   3.515   3.119   6.938
 9455SOL     OW29263   3.323   1.376   3.388
 9455SOL    HW129264   3.377   1.460   3.390
 9455SOL    HW229265   3.230   1.396   3.358
 9456SOL     OW29266   0.733   3.172   1.165
 9456SOL    HW129267   0.738   3.160   1.265
 9456SOL    HW229268   0.770   3.091   1.120
 9457SOL     OW29269   2.283   3.818   5.336
 9457SOL    HW129270   2.357   3.804   5.402
 9457SOL    HW229271   2.317   3.873   5.260
 9458SOL     OW29272   1.169   2.909   6.911
 9458SOL    HW129273   1.221   2.992   6.887
 9458SOL    HW229274   1.230   2.845   6.958
 9459SOL     OW29275   5.433   4.566   3.518
 9459SOL    HW129276   5.375   4.497   3.474
 9459SOL    HW229277   5.428   4.651   3.466
 9460SOL     OW29278   0.325   2.926   3.807
 9460SOL    HW129279   0.307   3.016   3.847
 9460SOL    HW229280   0.362   2.865   3.878
 9461SOL     OW29281   6.582   1.588   2.312
 9461SOL    HW129282   6.495   1.619   2.276
 9461SOL    HW229283   6.635   1.666   2.345
 9462SOL     OW29284   2.213   3.954   3.289
 9462SOL    HW129285   2.226   3.966   3.190
 9462SOL    HW229286   2.189   3.859   3.308
 9463SOL     OW29287   6.397   0.812   1.965
 9463SOL    HW129288   6.344   0.730   1.986
 9463SOL    HW229289   6.337   0.892   1.968
 9464SOL     OW29290   6.452   0.237   0.958
 9464SOL    HW129291   6.497   0.244   1.047
 9464SOL    HW229292   6.506   0.285   0.890
 9465SOL     OW29293   1.532   4.835   2.652
 9465SOL    HW129294   1.598   4.847   2.726
 9465SOL    HW229295   1.448   4.794   2.688
 9466SOL     OW29296   4.399   4.845   6.262
 9466SOL    HW129297   4.460   4.772   6.232
 9466SOL    HW229298   4.449   4.931   6.269
 9467SOL     OW29299   1.378   2.709   2.275
 9467SOL    HW129300   1.296   2.714   2.332
 9467SOL    HW229301   1.393   2.798   2.232
 9468SOL     OW29302   5.984   3.442   6.240
 9468SOL    HW129303   5.980   3.369   6.172
 9468SOL    HW229304   5.895   3.488   6.244
 9469SOL     OW29305   6.612   5.669   2.019
 9469SOL    HW129306   6.532   5.648   1.963
 9469SOL    HW229307   6.690   5.690   1.960
 9470SOL     OW29308   4.514   3.372   5.666
 9470SOL    HW129309   4.559   3.460   5.678
 9470SOL    HW229310   4.487   3.361   5.570
 9471SOL     OW29311   0.327   1.790   4.655
 9471SOL    HW129312   0.382   1.738   4.720
 9471SOL    HW229313   0.278   1.863   4.702
 9472SOL     OW29314   6.222   3.560   4.789
 9472SOL    HW129315   6.210   3.642   4.733
 9472SOL    HW229316   6.258   3.586   4.879
 9473SOL     OW29317   3.015   5.323   6.429
 9473SOL    HW129318   2.969   5.311   6.518
 9473SOL    HW229319   2.975   5.259   6.363
 9474SOL     OW29320   0.479   2.461   0.017
 9474SOL    HW129321   0.550   2.528   0.037
 9474SOL    HW229322   0.494   2.379   0.071
 9475SOL     OW29323   3.181   3.389   6.207
 9475SOL    HW129324   3.101   3.342   6.245
 9475SOL    HW229325   3.264   3.341   6.236
 9476SOL     OW29326   3.165   3.976   4.594
 9476SOL    HW129327   3.263   3.960   4.601
 9476SOL    HW229328   3.139   3.985   4.498
 9477SOL     OW29329   0.694   3.461   1.509
 9477SOL    HW129330   0.687   3.445   1.410
 9477SOL    HW229331   0.772   3.410   1.546
 9478SOL     OW29332   5.006   3.226   0.324
 9478SOL    HW129333   4.981   3.163   0.250
 9478SOL    HW229334   5.075   3.183   0.382
 9479SOL     OW29335   4.276   6.140   6.825
 9479SOL    HW129336   4.238   6.104   6.741
 9479SOL    HW229337   4.268   6.240   6.826
 9480SOL     OW29338   4.692   3.756   0.795
 9480SOL    HW129339   4.694   3.782   0.698
 9480SOL    HW229340   4.775   3.789   0.840
 9481SOL     OW29341   5.189   3.171   2.004
 9481SOL    HW129342   5.201   3.235   2.080
 9481SOL    HW229343   5.098   3.183   1.965
 9482SOL     OW29344   0.116   0.576   2.943
 9482SOL    HW129345   0.025   0.612   2.921
 9482SOL    HW229346   0.111   0.476   2.952
 9483SOL     OW29347   1.389   1.865   1.587
 9483SOL    HW129348   1.303   1.815   1.600
 9483SOL    HW229349   1.466   1.801   1.592
 9484SOL     OW29350   3.808   1.040   3.291
 9484SOL    HW129351   3.756   1.111   3.339
 9484SOL    HW229352   3.851   1.079   3.210
 9485SOL     OW29353   0.249   0.418   0.653
 9485SOL    HW129354   0.180   0.467   0.706
 9485SOL    HW229355   0.212   0.396   0.563
 9486SOL     OW29356   2.994   6.594   1.017
 9486SOL    HW129357   2.913   6.540   1.039
 9486SOL    HW229358   3.012   6.590   0.919
 9487SOL     OW29359   3.792   3.739   3.464
 9487SOL    HW129360   3.878   3.702   3.428
 9487SOL    HW229361   3.809   3.827   3.507
 9488SOL     OW29362   2.216   6.552   1.168
 9488SOL    HW129363   2.128   6.574   1.126
 9488SOL    HW229364   2.201   6.508   1.256
 9489SOL     OW29365   4.355   4.437   1.695
 9489SOL    HW129366   4.441   4.462   1.651
 9489SOL    HW229367   4.369   4.359   1.755
 9490SOL     OW29368   6.957   5.140   1.579
 9490SOL    HW129369   0.036   5.155   1.587
 9490SOL    HW229370   6.910   5.228   1.577
 9491SOL     OW29371   6.535   4.813   3.920
 9491SOL    HW129372   6.507   4.890   3.863
 9491SOL    HW229373   6.592   4.751   3.867
 9492SOL     OW29374   3.520   2.905   3.285
 9492SOL    HW129375   3.578   2.829   3.315
 9492SOL    HW229376   3.522   2.911   3.185
 9493SOL     OW29377   3.159   5.257   3.636
 9493SOL    HW129378   3.232   5.322   3.616
 9493SOL    HW229379   3.070   5.302   3.628
 9494SOL     OW29380   4.948   4.348   1.628
 9494SOL    HW129381   5.028   4.308   1.672
 9494SOL    HW229382   4.865   4.310   1.669
 9495SOL     OW29383   6.244   1.905   3.821
 9495SOL    HW129384   6.260   1.809   3.801
 9495SOL    HW229385   6.325   1.958   3.794
 9496SOL     OW29386   6.529   4.368   1.585
 9496SOL    HW129387   6.543   4.455   1.538
 9496SOL    HW229388   6.516   4.384   1.682
 9497SOL     OW29389   5.476   6.024   6.581
 9497SOL    HW129390   5.562   6.071   6.599
 9497SOL    HW229391   5.407   6.052   6.647
 9498SOL     OW29392   4.715   6.669   4.511
 9498SOL    HW129393   4.735   6.610   4.433
 9498SOL    HW229394   4.634   6.725   4.492
 9499SOL     OW29395   1.821   5.439   6.388
 9499SOL    HW129396   1.863   5.409   6.302
 9499SOL    HW229397   1.863   5.526   6.416
 9500SOL     OW29398   5.503   0.988   0.774
 9500SOL    HW129399   5.584   0.939   0.741
 9500SOL    HW229400   5.529   1.048   0.850
 9501SOL     OW29401   3.252   0.997   4.332
 9501SOL    HW129402   3.260   1.063   4.257
 9501SOL    HW229403   3.328   1.008   4.395
 9502SOL     OW29404   5.270   2.398   5.354
 9502SOL    HW129405   5.349   2.342   5.330
 9502SOL    HW229406   5.283   2.437   5.444
 9503SOL     OW29407   7.009   1.429   1.726
 9503SOL    HW129408   0.072   1.471   1.688
 9503SOL    HW229409   0.000   1.419   1.825
 9504SOL     OW29410   0.178   2.603   1.107
 9504SOL    HW129411   0.116   2.527   1.089
 9504SOL    HW229412   0.261   2.592   1.052
 9505SOL     OW29413   5.315   4.684   3.264
 9505SOL    HW129414   5.251   4.649   3.195
 9505SOL    HW229415   5.288   4.777   3.290
 9506SOL     OW29416   0.609   2.260   6.096
 9506SOL    HW129417   0.562   2.239   6.182
 9506SOL    HW229418   0.702   2.291   6.115
 9507SOL     OW29419   0.995   2.859   3.703
 9507SOL    HW129420   1.078   2.836   3.651
 9507SOL    HW229421   0.917   2.809   3.665
 9508SOL     OW29422   6.600   2.597   0.445
 9508SOL    HW129423   6.554   2.685   0.456
 9508SOL    HW229424   6.680   2.593   0.505
 9509SOL     OW29425   0.701   1.166   3.825
 9509SOL    HW129426   0.685   1.101   3.750
 9509SOL    HW229427   0.795   1.156   3.858
 9510SOL     OW29428   1.406   3.506   3.003
 9510SOL    HW129429   1.452   3.539   3.085
 9510SOL    HW229430   1.370   3.414   3.019
 9511SOL     OW29431   1.365   0.470   0.785
 9511SOL    HW129432   1.391   0.473   0.882
 9511SOL    HW229433   1.276   0.425   0.776
 9512SOL     OW29434   5.516   1.605   1.317
 9512SOL    HW129435   5.443   1.638   1.257
 9512SOL    HW229436   5.576   1.681   1.342
 9513SOL     OW29437   1.842   3.933   6.323
 9513SOL    HW129438   1.816   3.973   6.236
 9513SOL    HW229439   1.912   3.862   6.308
 9514SOL     OW29440   2.159   4.939   6.593
 9514SOL    HW129441   2.078   4.954   6.536
 9514SOL    HW229442   2.197   4.849   6.572
 9515SOL     OW29443   1.945   5.512   1.305
 9515SOL    HW129444   1.950   5.455   1.387
 9515SOL    HW229445   1.852   5.546   1.293
 9516SOL     OW29446   5.126   4.419   5.298
 9516SOL    HW129447   5.045   4.383   5.343
 9516SOL    HW229448   5.099   4.470   5.216
 9517SOL     OW29449   1.307   5.114   0.738
 9517SOL    HW129450   1.376   5.115   0.811
 9517SOL    HW229451   1.296   5.020   0.704
 9518SOL     OW29452   2.081   2.322   6.931
 9518SOL    HW129453   2.148   2.395   6.946
 9518SOL    HW229454   2.108   2.241   6.982
 9519SOL     OW29455   4.055   3.262   4.301
 9519SOL    HW129456   4.076   3.182   4.357
 9519SOL    HW229457   4.069   3.345   4.356
 9520SOL     OW29458   0.835   1.884   3.535
 9520SOL    HW129459   0.798   1.976   3.544
 9520SOL    HW229460   0.865   1.851   3.625
 9521SOL     OW29461   5.024   5.203   1.592
 9521SOL    HW129462   5.052   5.277   1.531
 9521SOL    HW229463   5.100   5.141   1.608
 9522SOL     OW29464   3.893   5.060   1.320
 9522SOL    HW129465   3.978   5.060   1.373
 9522SOL    HW229466   3.821   5.104   1.373
 9523SOL     OW29467   2.691   4.782   5.224
 9523SOL    HW129468   2.636   4.758   5.304
 9523SOL    HW229469   2.727   4.698   5.183
 9524SOL     OW29470   3.466   3.148   0.653
 9524SOL    HW129471   3.409   3.104   0.723
 9524SOL    HW229472   3.412   3.162   0.570
 9525SOL     OW29473   2.318   2.369   5.738
 9525SOL    HW129474   2.284   2.336   5.826
 9525SOL    HW229475   2.413   2.398   5.747
 9526SOL     OW29476   6.596   4.838   1.205
 9526SOL    HW129477   6.695   4.832   1.203
 9526SOL    HW229478   6.557   4.773   1.139
 9527SOL     OW29479   0.369   0.678   4.378
 9527SOL    HW129480   0.380   0.774   4.356
 9527SOL    HW229481   0.289   0.666   4.436
 9528SOL     OW29482   6.633   1.433   0.703
 9528SOL    HW129483   6.717   1.394   0.665
 9528SOL    HW229484   6.644   1.532   0.714
 9529SOL     OW29485   6.618   3.528   6.348
 9529SOL    HW129486   6.572   3.468   6.283
 9529SOL    HW229487   6.610   3.622   6.318
 9530SOL     OW29488   2.076   3.414   2.976
 9530SOL    HW129489   2.085   3.319   2.946
 9530SOL    HW229490   1.982   3.430   3.006
 9531SOL     OW29491   4.504   5.272   2.621
 9531SOL    HW129492   4.596   5.292   2.587
 9531SOL    HW229493   4.507   5.259   2.720
 9532SOL     OW29494   6.778   6.486   1.416
 9532SOL    HW129495   6.874   6.461   1.427
 9532SOL    HW229496   6.728   6.409   1.375
 9533SOL     OW29497   0.189   5.888   5.229
 9533SOL    HW129498   0.252   5.877   5.306
 9533SOL    HW229499   0.111   5.826   5.240
 9534SOL     OW29500   0.218   3.794   4.737
 9534SOL    HW129501   0.180   3.837   4.656
 9534SOL    HW229502   0.156   3.724   4.771
 9535SOL     OW29503   2.159   0.818   6.659
 9535SOL    HW129504   2.151   0.723   6.631
 9535SOL    HW229505   2.071   0.849   6.696
 9536SOL     OW29506   2.884   3.988   5.546
 9536SOL    HW129507   2.856   4.031   5.460
 9536SOL    HW229508   2.874   3.889   5.538
 9537SOL     OW29509   2.820   6.532   3.760
 9537SOL    HW129510   2.844   6.615   3.708
 9537SOL    HW229511   2.721   6.524   3.766
 9538SOL     OW29512   5.874   1.921   3.741
 9538SOL    HW129513   5.939   1.856   3.780
 9538SOL    HW229514   5.914   2.012   3.743
 9539SOL     OW29515   3.474   3.720   4.801
 9539SOL    HW129516   3.418   3.791   4.758
 9539SOL    HW229517   3.568   3.753   4.809
 9540SOL     OW29518   5.974   3.901   4.335
 9540SOL    HW129519   6.062   3.945   4.353
 9540SOL    HW229520   5.947   3.920   4.240
 9541SOL     OW29521   3.292   0.766   5.628
 9541SOL    HW129522   3.363   0.833   5.646
 9541SOL    HW229523   3.328   0.694   5.567
 9542SOL     OW29524   5.077   4.600   4.753
 9542SOL    HW129525   5.047   4.691   4.724
 9542SOL    HW229526   4.998   4.541   4.766
 9543SOL     OW29527   3.441   0.681   5.875
 9543SOL    HW129528   3.413   0.771   5.842
 9543SOL    HW229529   3.472   0.688   5.970
 9544SOL     OW29530   7.006   2.043   3.274
 9544SOL    HW129531   0.067   2.071   3.222
 9544SOL    HW229532   6.951   2.123   3.297
 9545SOL     OW29533   6.187   5.818   4.400
 9545SOL    HW129534   6.093   5.837   4.370
 9545SOL    HW229535   6.201   5.856   4.492
 9546SOL     OW29536   3.484   1.994   5.425
 9546SOL    HW129537   3.447   2.083   5.402
 9546SOL    HW229538   3.530   1.998   5.514
 9547SOL     OW29539   2.040   6.310   4.419
 9547SOL    HW129540   2.130   6.334   4.383
 9547SOL    HW229541   1.969   6.349   4.361
 9548SOL     OW29542   6.026   5.231   6.424
 9548SOL    HW129543   6.070   5.319   6.403
 9548SOL    HW229544   6.096   5.164   6.447
 9549SOL     OW29545   2.663   2.741   1.264
 9549SOL    HW129546   2.621   2.824   1.300
 9549SOL    HW229547   2.716   2.763   1.182
 9550SOL     OW29548   0.352   1.348   0.246
 9550SOL    HW129549   0.402   1.266   0.276
 9550SOL    HW229550   0.401   1.430   0.276
 9551SOL     OW29551   5.634   1.353   4.607
 9551SOL    HW129552   5.556   1.390   4.658
 9551SOL    HW229553   5.635   1.253   4.617
 9552SOL     OW29554   1.385   0.107   3.540
 9552SOL    HW129555   1.380   0.199   3.579
 9552SOL    HW229556   1.375   0.039   3.613
 9553SOL     OW29557   6.309   3.504   5.931
 9553SOL    HW129558   6.286   3.409   5.910
 9553SOL    HW229559   6.377   3.537   5.865
 9554SOL     OW29560   1.726   6.603   1.151
 9554SOL    HW129561   1.784   6.569   1.226
 9554SOL    HW229562   1.630   6.594   1.177
 9555SOL     OW29563   1.065   0.892   3.196
 9555SOL    HW129564   1.025   0.930   3.113
 9555SOL    HW229565   0.993   0.877   3.265
 9556SOL     OW29566   0.988   3.130   1.606
 9556SOL    HW129567   1.019   3.224   1.620
 9556SOL    HW229568   0.993   3.079   1.692
 9557SOL     OW29569   0.618   6.871   2.299
 9557SOL    HW129570   0.706   6.898   2.261
 9557SOL    HW229571   0.621   6.774   2.324
 9558SOL     OW29572   6.165   6.251   4.886
 9558SOL    HW129573   6.076   6.285   4.857
 9558SOL    HW229574   6.153   6.161   4.929
 9559SOL     OW29575   0.012   4.590   0.768
 9559SOL    HW129576   6.946   4.565   0.814
 9559SOL    HW229577   0.077   4.514   0.775
 9560SOL     OW29578   1.822   1.471   3.213
 9560SOL    HW129579   1.876   1.464   3.129
 9560SOL    HW229580   1.870   1.424   3.287
 9561SOL     OW29581   1.419   6.668   0.361
 9561SOL    HW129582   1.399   6.647   0.457
 9561SOL    HW229583   1.507   6.715   0.355
 9562SOL     OW29584   3.386   0.171   5.424
 9562SOL    HW129585   3.461   0.140   5.366
 9562SOL    HW229586   3.320   0.222   5.369
 9563SOL     OW29587   6.047   6.315   0.790
 9563SOL    HW129588   5.973   6.255   0.819
 9563SOL    HW229589   6.135   6.277   0.821
 9564SOL     OW29590   2.986   6.901   0.316
 9564SOL    HW129591   3.048   6.848   0.374
 9564SOL    HW229592   2.950   6.843   0.244
 9565SOL     OW29593   4.053   0.405   4.592
 9565SOL    HW129594   3.994   0.327   4.569
 9565SOL    HW229595   4.138   0.371   4.633
 9566SOL     OW29596   1.862   5.220   0.061
 9566SOL    HW129597   1.854   5.150   0.132
 9566SOL    HW229598   1.948   5.268   0.072
 9567SOL     OW29599   5.241   4.850   0.313
 9567SOL    HW129600   5.337   4.831   0.331
 9567SOL    HW229601   5.208   4.792   0.238
 9568SOL     OW29602   4.440   2.373   6.603
 9568SOL    HW129603   4.513   2.384   6.671
 9568SOL    HW229604   4.351   2.386   6.646
 9569SOL     OW29605   0.903   2.100   3.029
 9569SOL    HW129606   0.970   2.081   2.957
 9569SOL    HW229607   0.838   2.169   2.996
 9570SOL     OW29608   0.687   3.235   2.150
 9570SOL    HW129609   0.703   3.201   2.058
 9570SOL    HW229610   0.592   3.215   2.177
 9571SOL     OW29611   3.585   4.185   6.398
 9571SOL    HW129612   3.584   4.110   6.333
 9571SOL    HW229613   3.583   4.272   6.349
 9572SOL     OW29614   1.623   5.054   2.127
 9572SOL    HW129615   1.618   5.046   2.227
 9572SOL    HW229616   1.702   5.111   2.102
 9573SOL     OW29617   1.009   1.491   6.832
 9573SOL    HW129618   1.052   1.501   6.922
 9573SOL    HW229619   1.058   1.421   6.779
 9574SOL     OW29620   4.023   3.197   3.807
 9574SOL    HW129621   4.009   3.202   3.708
 9574SOL    HW229622   3.955   3.136   3.848
 9575SOL     OW29623   6.917   1.171   1.240
 9575SOL    HW129624   6.935   1.073   1.252
 9575SOL    HW229625   6.843   1.199   1.300
 9576SOL     OW29626   2.256   0.293   1.968
 9576SOL    HW129627   2.293   0.366   2.026
 9576SOL    HW229628   2.324   0.268   1.899
 9577SOL     OW29629   1.607   0.841   6.067
 9577SOL    HW129630   1.663   0.764   6.038
 9577SOL    HW229631   1.650   0.886   6.146
 9578SOL     OW29632   0.842   4.077   3.698
 9578SOL    HW129633   0.851   4.151   3.765
 9578SOL    HW229634   0.909   4.005   3.718
 9579SOL     OW29635   1.911   5.058   2.854
 9579SOL    HW129636   1.845   5.130   2.870
 9579SOL    HW229637   1.912   4.995   2.932
 9580SOL     OW29638   3.667   3.247   0.826
 9580SOL    HW129639   3.598   3.273   0.893
 9580SOL    HW229640   3.624   3.201   0.749
 9581SOL     OW29641   0.850   5.151   6.458
 9581SOL    HW129642   0.860   5.052   6.449
 9581SOL    HW229643   0.759   5.179   6.427
 9582SOL     OW29644   4.627   5.150   5.829
 9582SOL    HW129645   4.538   5.170   5.789
 9582SOL    HW229646   4.646   5.052   5.819
 9583SOL     OW29647   4.138   4.502   1.258
 9583SOL    HW129648   4.153   4.405   1.278
 9583SOL    HW229649   4.081   4.511   1.176
 9584SOL     OW29650   6.264   6.368   0.100
 9584SOL    HW129651   6.178   6.407   0.132
 9584SOL    HW229652   6.334   6.439   0.095
 9585SOL     OW29653   6.407   0.379   4.016
 9585SOL    HW129654   6.353   0.302   3.983
 9585SOL    HW229655   6.466   0.349   4.091
 9586SOL     OW29656   6.434   3.959   2.917
 9586SOL    HW129657   6.487   3.884   2.876
 9586SOL    HW229658   6.430   3.947   3.016
 9587SOL     OW29659   0.503   1.112   1.959
 9587SOL    HW129660   0.547   1.158   2.036
 9587SOL    HW229661   0.421   1.163   1.932
 9588SOL     OW29662   0.751   1.909   2.181
 9588SOL    HW129663   0.818   1.834   2.183
 9588SOL    HW229664   0.677   1.886   2.118
 9589SOL     OW29665   2.512   5.555   5.947
 9589SOL    HW129666   2.599   5.598   5.923
 9589SOL    HW229667   2.447   5.569   5.873
 9590SOL     OW29668   0.299   3.447   1.839
 9590SOL    HW129669   0.250   3.372   1.795
 9590SOL    HW229670   0.361   3.489   1.774
 9591SOL     OW29671   2.966   5.898   6.657
 9591SOL    HW129672   2.911   5.980   6.665
 9591SOL    HW229673   3.019   5.884   6.741
 9592SOL     OW29674   3.434   4.123   1.198
 9592SOL    HW129675   3.345   4.100   1.237
 9592SOL    HW229676   3.442   4.083   1.107
 9593SOL     OW29677   6.843   0.269   4.863
 9593SOL    HW129678   6.868   0.366   4.852
 9593SOL    HW229679   6.791   0.239   4.783
 9594SOL     OW29680   1.620   6.800   2.927
 9594SOL    HW129681   1.558   6.878   2.913
 9594SOL    HW229682   1.660   6.806   3.018
 9595SOL     OW29683   1.710   4.635   5.361
 9595SOL    HW129684   1.756   4.547   5.360
 9595SOL    HW229685   1.611   4.621   5.358
 9596SOL     OW29686   0.428   5.855   0.092
 9596SOL    HW129687   0.473   5.942   0.070
 9596SOL    HW229688   0.329   5.864   0.077
 9597SOL     OW29689   0.468   4.418   0.630
 9597SOL    HW129690   0.416   4.488   0.678
 9597SOL    HW229691   0.517   4.362   0.697
 9598SOL     OW29692   1.187   3.751   4.717
 9598SOL    HW129693   1.274   3.730   4.763
 9598SOL    HW229694   1.179   3.850   4.705
 9599SOL     OW29695   3.884   0.384   5.862
 9599SOL    HW129696   3.955   0.333   5.815
 9599SOL    HW229697   3.924   0.435   5.939
 9600SOL     OW29698   2.046   0.066   0.106
 9600SOL    HW129699   1.984   7.009   0.119
 9600SOL    HW229700   2.092   0.058   0.017
 9601SOL     OW29701   6.243   3.750   0.914
 9601SOL    HW129702   6.277   3.763   1.007
 9601SOL    HW229703   6.143   3.754   0.913
 9602SOL     OW29704   6.598   4.651   6.624
 9602SOL    HW129705   6.609   4.606   6.713
 9602SOL    HW229706   6.543   4.593   6.564
 9603SOL     OW29707   3.395   1.550   5.295
 9603SOL    HW129708   3.317   1.584   5.348
 9603SOL    HW229709   3.449   1.627   5.262
 9604SOL     OW29710   4.037   0.368   6.818
 9604SOL    HW129711   4.106   0.296   6.812
 9604SOL    HW229712   4.075   0.454   6.782
 9605SOL     OW29713   0.378   4.596   4.188
 9605SOL    HW129714   0.398   4.499   4.171
 9605SOL    HW229715   0.424   4.625   4.272
 9606SOL     OW29716   1.812   6.014   5.534
 9606SOL    HW129717   1.888   6.077   5.523
 9606SOL    HW229718   1.727   6.066   5.548
 9607SOL     OW29719   1.307   1.651   1.830
 9607SOL    HW129720   1.222   1.698   1.805
 9607SOL    HW229721   1.333   1.587   1.757
 9608SOL     OW29722   6.681   6.507   1.964
 9608SOL    HW129723   6.727   6.592   1.939
 9608SOL    HW229724   6.724   6.469   2.046
 9609SOL     OW29725   1.933   3.539   6.551
 9609SOL    HW129726   1.996   3.467   6.581
 9609SOL    HW229727   1.946   3.620   6.609
 9610SOL     OW29728   2.029   5.295   3.899
 9610SOL    HW129729   2.102   5.243   3.855
 9610SOL    HW229730   2.051   5.310   3.995
 9611SOL     OW29731   0.414   6.763   6.876
 9611SOL    HW129732   0.359   6.800   6.950
 9611SOL    HW229733   0.491   6.711   6.913
 9612SOL     OW29734   0.664   3.510   1.899
 9612SOL    HW129735   0.752   3.549   1.871
 9612SOL    HW229736   0.663   3.412   1.879
 9613SOL     OW29737   4.159   6.622   3.522
 9613SOL    HW129738   4.128   6.716   3.536
 9613SOL    HW229739   4.152   6.570   3.607
 9614SOL     OW29740   3.654   2.536   0.871
 9614SOL    HW129741   3.557   2.514   0.872
 9614SOL    HW229742   3.668   2.619   0.817
 9615SOL     OW29743   0.710   6.871   1.944
 9615SOL    HW129744   0.731   6.780   1.908
 9615SOL    HW229745   0.611   6.884   1.946
 9616SOL     OW29746   4.538   3.467   1.123
 9616SOL    HW129747   4.581   3.378   1.135
 9616SOL    HW229748   4.599   3.539   1.158
 9617SOL     OW29749   1.341   3.765   4.214
 9617SOL    HW129750   1.296   3.842   4.169
 9617SOL    HW229751   1.272   3.702   4.250
 9618SOL     OW29752   3.749   6.625   6.147
 9618SOL    HW129753   3.800   6.687   6.207
 9618SOL    HW229754   3.692   6.564   6.203
 9619SOL     OW29755   0.736   6.811   0.309
 9619SOL    HW129756   0.668   6.838   0.376
 9619SOL    HW229757   0.821   6.786   0.355
 9620SOL     OW29758   5.355   2.807   6.622
 9620SOL    HW129759   5.262   2.843   6.612
 9620SOL    HW229760   5.372   2.783   6.718
 9621SOL     OW29761   1.583   1.028   2.922
 9621SOL    HW129762   1.603   1.124   2.943
 9621SOL    HW229763   1.496   1.002   2.964
 9622SOL     OW29764   5.472   0.901   0.235
 9622SOL    HW129765   5.408   0.833   0.198
 9622SOL    HW229766   5.526   0.860   0.308
 9623SOL     OW29767   4.073   5.125   5.231
 9623SOL    HW129768   4.164   5.167   5.235
 9623SOL    HW229769   4.070   5.057   5.158
 9624SOL     OW29770   6.351   4.214   3.822
 9624SOL    HW129771   6.353   4.308   3.789
 9624SOL    HW229772   6.357   4.214   3.922
 9625SOL     OW29773   5.209   5.290   6.921
 9625SOL    HW129774   5.177   5.234   6.997
 9625SOL    HW229775   5.200   5.387   6.944
 9626SOL     OW29776   2.338   6.045   0.075
 9626SOL    HW129777   2.289   6.078   7.014
 9626SOL    HW229778   2.393   5.966   0.050
 9627SOL     OW29779   0.087   4.024   4.189
 9627SOL    HW129780   0.034   3.946   4.223
 9627SOL    HW229781   0.024   4.099   4.167
 9628SOL     OW29782   6.301   4.515   0.366
 9628SOL    HW129783   6.390   4.558   0.355
 9628SOL    HW229784   6.307   4.445   0.437
 9629SOL     OW29785   6.948   6.149   2.997
 9629SOL    HW129786   6.912   6.139   2.904
 9629SOL    HW229787   0.010   6.093   3.007
 9630SOL     OW29788   6.218   6.475   5.071
 9630SOL    HW129789   6.186   6.393   5.023
 9630SOL    HW229790   6.177   6.479   5.162
 9631SOL     OW29791   5.194   1.395   6.964
 9631SOL    HW129792   5.127   1.377   0.017
 9631SOL    HW229793   5.280   1.424   7.005
 9632SOL     OW29794   2.021   5.400   2.198
 9632SOL    HW129795   1.974   5.388   2.286
 9632SOL    HW229796   2.120   5.385   2.211
 9633SOL     OW29797   4.130   4.640   0.467
 9633SOL    HW129798   4.148   4.542   0.480
 9633SOL    HW229799   4.105   4.658   0.372
 9634SOL     OW29800   0.370   6.504   4.458
 9634SOL    HW129801   0.344   6.599   4.438
 9634SOL    HW229802   0.433   6.472   4.387
 9635SOL     OW29803   2.581   4.600   5.686
 9635SOL    HW129804   2.509   4.669   5.678
 9635SOL    HW229805   2.572   4.552   5.773
 9636SOL     OW29806   4.514   1.851   6.233
 9636SOL    HW129807   4.543   1.910   6.309
 9636SOL    HW229808   4.501   1.907   6.151
 9637SOL     OW29809   3.463   2.152   0.143
 9637SOL    HW129810   3.450   2.251   0.146
 9637SOL    HW229811   3.492   2.125   0.051
 9638SOL     OW29812   0.087   3.684   6.222
 9638SOL    HW129813   0.053   3.667   6.130
 9638SOL    HW229814   0.123   3.599   6.261
 9639SOL     OW29815   4.494   1.840   2.195
 9639SOL    HW129816   4.416   1.778   2.182
 9639SOL    HW229817   4.545   1.812   2.276
 9640SOL     OW29818   3.173   0.728   2.815
 9640SOL    HW129819   3.200   0.700   2.908
 9640SOL    HW229820   3.095   0.673   2.785
 9641SOL     OW29821   5.527   5.282   1.615
 9641SOL    HW129822   5.566   5.272   1.706
 9641SOL    HW229823   5.590   5.245   1.547
 9642SOL     OW29824   2.021   5.661   4.589
 9642SOL    HW129825   2.008   5.582   4.529
 9642SOL    HW229826   2.117   5.688   4.587
 9643SOL     OW29827   5.940   4.708   3.925
 9643SOL    HW129828   6.038   4.726   3.915
 9643SOL    HW229829   5.924   4.609   3.921
 9644SOL     OW29830   0.496   4.898   5.012
 9644SOL    HW129831   0.491   4.986   4.965
 9644SOL    HW229832   0.592   4.873   5.025
 9645SOL     OW29833   2.850   4.747   3.876
 9645SOL    HW129834   2.938   4.794   3.890
 9645SOL    HW229835   2.822   4.702   3.960
 9646SOL     OW29836   2.696   4.673   2.214
 9646SOL    HW129837   2.601   4.672   2.184
 9646SOL    HW229838   2.755   4.639   2.140
 9647SOL     OW29839   0.471   5.707   2.401
 9647SOL    HW129840   0.550   5.723   2.341
 9647SOL    HW229841   0.503   5.670   2.488
 9648SOL     OW29842   3.109   1.678   0.036
 9648SOL    HW129843   3.133   1.758   0.090
 9648SOL    HW229844   3.092   1.600   0.097
 9649SOL     OW29845   2.415   4.585   6.957
 9649SOL    HW129846   2.439   4.657   0.003
 9649SOL    HW229847   2.436   4.617   6.864
 9650SOL     OW29848   4.812   4.550   3.002
 9650SOL    HW129849   4.838   4.521   3.094
 9650SOL    HW229850   4.748   4.626   3.008
 9651SOL     OW29851   5.692   1.497   0.886
 9651SOL    HW129852   5.674   1.570   0.821
 9651SOL    HW229853   5.772   1.445   0.857
 9652SOL     OW29854   1.923   4.209   1.363
 9652SOL    HW129855   1.910   4.157   1.448
 9652SOL    HW229856   1.935   4.306   1.384
 9653SOL     OW29857   4.658   5.259   5.227
 9653SOL    HW129858   4.564   5.291   5.226
 9653SOL    HW229859   4.659   5.160   5.244
 9654SOL     OW29860   3.271   3.158   2.546
 9654SOL    HW129861   3.239   3.074   2.502
 9654SOL    HW229862   3.324   3.135   2.628
 9655SOL     OW29863   0.309   1.582   0.518
 9655SOL    HW129864   0.405   1.559   0.506
 9655SOL    HW229865   0.272   1.535   0.598
 9656SOL     OW29866   4.346   1.907   0.488
 9656SOL    HW129867   4.321   1.849   0.566
 9656SOL    HW229868   4.396   1.853   0.421
 9657SOL     OW29869   5.880   2.907   3.580
 9657SOL    HW129870   5.903   3.001   3.553
 9657SOL    HW229871   5.957   2.847   3.561
 9658SOL     OW29872   5.725   2.102   2.271
 9658SOL    HW129873   5.669   2.076   2.192
 9658SOL    HW229874   5.698   2.048   2.351
 9659SOL     OW29875   0.206   2.484   0.075
 9659SOL    HW129876   0.131   2.490   0.008
 9659SOL    HW229877   0.294   2.485   0.027
 9660SOL     OW29878   0.929   6.788   2.209
 9660SOL    HW129879   0.970   6.763   2.121
 9660SOL    HW229880   0.988   6.853   2.256
 9661SOL     OW29881   3.155   6.111   1.141
 9661SOL    HW129882   3.100   6.144   1.064
 9661SOL    HW229883   3.251   6.136   1.127
 9662SOL     OW29884   4.257   2.983   5.659
 9662SOL    HW129885   4.244   3.071   5.705
 9662SOL    HW229886   4.230   2.991   5.563
 9663SOL     OW29887   6.369   6.810   3.045
 9663SOL    HW129888   6.292   6.806   2.981
 9663SOL    HW229889   6.407   6.903   3.045
 9664SOL     OW29890   5.668   5.917   4.861
 9664SOL    HW129891   5.570   5.913   4.883
 9664SOL    HW229892   5.686   5.862   4.780
 9665SOL     OW29893   5.639   6.245   6.709
 9665SOL    HW129894   5.593   6.324   6.670
 9665SOL    HW229895   5.624   6.243   6.808
 9666SOL     OW29896   6.748   3.796   2.026
 9666SOL    HW129897   6.670   3.734   2.020
 9666SOL    HW229898   6.832   3.742   2.030
 9667SOL     OW29899   4.226   3.452   6.494
 9667SOL    HW129900   4.165   3.436   6.572
 9667SOL    HW229901   4.183   3.417   6.411
 9668SOL     OW29902   6.743   0.413   6.365
 9668SOL    HW129903   6.751   0.438   6.462
 9668SOL    HW229904   6.659   0.452   6.328
 9669SOL     OW29905   2.065   6.880   2.499
 9669SOL    HW129906   2.044   6.938   2.578
 9669SOL    HW229907   2.001   6.803   2.497
 9670SOL     OW29908   6.564   4.912   6.316
 9670SOL    HW129909   6.530   5.005   6.331
 9670SOL    HW229910   6.623   4.886   6.393
 9671SOL     OW29911   6.356   4.503   0.041
 9671SOL    HW129912   6.354   4.542   0.133
 9671SOL    HW229913   6.322   4.409   0.043
 9672SOL     OW29914   1.559   5.749   3.922
 9672SOL    HW129915   1.473   5.796   3.940
 9672SOL    HW229916   1.544   5.650   3.927
 9673SOL     OW29917   4.739   3.280   1.524
 9673SOL    HW129918   4.745   3.190   1.568
 9673SOL    HW229919   4.643   3.309   1.519
 9674SOL     OW29920   2.776   6.604   2.965
 9674SOL    HW129921   2.831   6.522   2.982
 9674SOL    HW229922   2.736   6.599   2.874
 9675SOL     OW29923   5.357   2.726   6.886
 9675SOL    HW129924   5.411   2.780   6.951
 9675SOL    HW229925   5.398   2.635   6.876
 9676SOL     OW29926   1.676   3.746   5.932
 9676SOL    HW129927   1.672   3.663   5.987
 9676SOL    HW229928   1.770   3.777   5.924
 9677SOL     OW29929   0.070   5.386   4.790
 9677SOL    HW129930   0.033   5.398   4.698
 9677SOL    HW229931   0.044   5.297   4.825
 9678SOL     OW29932   2.871   3.709   3.459
 9678SOL    HW129933   2.866   3.693   3.361
 9678SOL    HW229934   2.922   3.793   3.477
 9679SOL     OW29935   3.293   1.097   3.384
 9679SOL    HW129936   3.263   1.192   3.391
 9679SOL    HW229937   3.238   1.050   3.315
 9680SOL     OW29938   4.727   1.129   2.744
 9680SOL    HW129939   4.630   1.111   2.761
 9680SOL    HW229940   4.743   1.136   2.645
 9681SOL     OW29941   2.898   1.769   0.647
 9681SOL    HW129942   2.881   1.826   0.728
 9681SOL    HW229943   2.849   1.682   0.656
 9682SOL     OW29944   5.022   4.627   3.619
 9682SOL    HW129945   5.082   4.691   3.572
 9682SOL    HW229946   5.010   4.654   3.714
 9683SOL     OW29947   2.985   5.561   1.219
 9683SOL    HW129948   2.922   5.507   1.162
 9683SOL    HW229949   3.025   5.501   1.289
 9684SOL     OW29950   0.208   3.445   6.270
 9684SOL    HW129951   0.283   3.500   6.233
 9684SOL    HW229952   0.242   3.387   6.344
 9685SOL     OW29953   3.345   4.726   1.022
 9685SOL    HW129954   3.381   4.633   1.033
 9685SOL    HW229955   3.288   4.749   1.101
 9686SOL     OW29956   6.826   1.876   0.233
 9686SOL    HW129957   6.772   1.804   0.188
 9686SOL    HW229958   6.871   1.932   0.164
 9687SOL     OW29959   1.995   0.853   4.216
 9687SOL    HW129960   2.086   0.894   4.213
 9687SOL    HW229961   2.002   0.758   4.246
 9688SOL     OW29962   1.093   3.526   2.561
 9688SOL    HW129963   1.025   3.590   2.595
 9688SOL    HW229964   1.143   3.568   2.485
 9689SOL     OW29965   0.604   4.866   5.753
 9689SOL    HW129966   0.682   4.853   5.813
 9689SOL    HW229967   0.606   4.959   5.715
 9690SOL     OW29968   6.105   5.241   0.036
 9690SOL    HW129969   6.128   5.192   0.120
 9690SOL    HW229970   6.124   5.338   0.048
 9691SOL     OW29971   3.607   5.314   0.836
 9691SOL    HW129972   3.697   5.306   0.792
 9691SOL    HW229973   3.612   5.277   0.928
 9692SOL     OW29974   3.385   5.751   2.369
 9692SOL    HW129975   3.449   5.742   2.294
 9692SOL    HW229976   3.342   5.662   2.387
 9693SOL     OW29977   5.891   4.487   2.364
 9693SOL    HW129978   5.877   4.535   2.277
 9693SOL    HW229979   5.986   4.498   2.393
 9694SOL     OW29980   2.186   0.930   0.733
 9694SOL    HW129981   2.205   0.881   0.648
 9694SOL    HW229982   2.088   0.928   0.752
 9695SOL     OW29983   6.657   3.182   3.010
 9695SOL    HW129984   6.640   3.244   2.933
 9695SOL    HW229985   6.576   3.124   3.024
 9696SOL     OW29986   5.470   3.479   1.115
 9696SOL    HW129987   5.473   3.470   1.016
 9696SOL    HW229988   5.407   3.553   1.140
 9697SOL     OW29989   0.465   5.316   6.851
 9697SOL    HW129990   0.377   5.290   6.890
 9697SOL    HW229991   0.458   5.407   6.809
 9698SOL     OW29992   4.609   1.675   5.992
 9698SOL    HW129993   4.589   1.768   6.025
 9698SOL    HW229994   4.535   1.614   6.020
 9699SOL     OW29995   6.501   5.372   6.843
 9699SOL    HW129996   6.583   5.427   6.856
 9699SOL    HW229997   6.469   5.339   6.932
 9700SOL     OW29998   4.680   5.633   5.073
 9700SOL    HW129999   4.645   5.605   5.162
 9700SOL    HW230000   4.720   5.725   5.080
 9701SOL     OW30001   4.456   4.914   5.892
 9701SOL    HW130002   4.436   5.005   5.856
 9701SOL    HW230003   4.504   4.860   5.823
 9702SOL     OW30004   4.716   0.330   6.487
 9702SOL    HW130005   4.673   0.240   6.483
 9702SOL    HW230006   4.803   0.323   6.536
 9703SOL     OW30007   4.835   3.851   3.795
 9703SOL    HW130008   4.881   3.883   3.712
 9703SOL    HW230009   4.859   3.756   3.812
 9704SOL     OW30010   3.826   0.299   1.930
 9704SOL    HW130011   3.848   0.312   1.833
 9704SOL    HW230012   3.727   0.293   1.941
 9705SOL     OW30013   5.311   4.552   5.728
 9705SOL    HW130014   5.337   4.532   5.633
 9705SOL    HW230015   5.247   4.628   5.730
 9706SOL     OW30016   1.437   3.552   0.211
 9706SOL    HW130017   1.528   3.511   0.217
 9706SOL    HW230018   1.420   3.582   0.118
 9707SOL     OW30019   6.826   4.533   2.416
 9707SOL    HW130020   6.728   4.534   2.435
 9707SOL    HW230021   6.841   4.539   2.317
 9708SOL     OW30022   1.696   1.427   4.069
 9708SOL    HW130023   1.607   1.464   4.044
 9708SOL    HW230024   1.760   1.502   4.085
 9709SOL     OW30025   5.238   6.677   3.043
 9709SOL    HW130026   5.318   6.640   3.091
 9709SOL    HW230027   5.214   6.766   3.082
 9710SOL     OW30028   6.772   1.639   1.454
 9710SOL    HW130029   6.725   1.709   1.401
 9710SOL    HW230030   6.862   1.621   1.412
 9711SOL     OW30031   2.951   5.643   6.078
 9711SOL    HW130032   2.882   5.680   6.016
 9711SOL    HW230033   2.979   5.552   6.047
 9712SOL     OW30034   5.761   3.588   6.309
 9712SOL    HW130035   5.753   3.545   6.399
 9712SOL    HW230036   5.756   3.687   6.319
 9713SOL     OW30037   0.710   4.603   3.570
 9713SOL    HW130038   0.807   4.623   3.584
 9713SOL    HW230039   0.681   4.530   3.632
 9714SOL     OW30040   4.208   6.464   6.320
 9714SOL    HW130041   4.153   6.421   6.391
 9714SOL    HW230042   4.304   6.440   6.333
 9715SOL     OW30043   5.770   3.857   6.381
 9715SOL    HW130044   5.848   3.877   6.321
 9715SOL    HW230045   5.800   3.859   6.477
 9716SOL     OW30046   4.033   4.437   6.758
 9716SOL    HW130047   3.996   4.395   6.841
 9716SOL    HW230048   4.108   4.499   6.783
 9717SOL     OW30049   5.886   5.975   5.993
 9717SOL    HW130050   5.831   5.892   5.981
 9717SOL    HW230051   5.982   5.955   5.975
 9718SOL     OW30052   4.811   2.816   0.392
 9718SOL    HW130053   4.782   2.733   0.343
 9718SOL    HW230054   4.763   2.895   0.354
 9719SOL     OW30055   6.014   1.282   5.687
 9719SOL    HW130056   5.916   1.277   5.671
 9719SOL    HW230057   6.041   1.210   5.750
 9720SOL     OW30058   6.902   5.161   1.836
 9720SOL    HW130059   6.912   5.158   1.736
 9720SOL    HW230060   6.989   5.188   1.877
 9721SOL     OW30061   6.656   1.707   0.725
 9721SOL    HW130062   6.752   1.709   0.698
 9721SOL    HW230063   6.601   1.751   0.655
 9722SOL     OW30064   5.667   0.961   4.108
 9722SOL    HW130065   5.674   0.922   4.016
 9722SOL    HW230066   5.748   0.939   4.161
 9723SOL     OW30067   2.691   6.671   2.700
 9723SOL    HW130068   2.698   6.636   2.607
 9723SOL    HW230069   2.595   6.694   2.720
 9724SOL     OW30070   1.927   4.689   0.330
 9724SOL    HW130071   1.933   4.674   0.428
 9724SOL    HW230072   1.834   4.720   0.307
 9725SOL     OW30073   4.118   5.021   6.112
 9725SOL    HW130074   4.169   4.938   6.087
 9725SOL    HW230075   4.029   5.020   6.067
 9726SOL     OW30076   5.276   1.081   4.458
 9726SOL    HW130077   5.323   1.163   4.424
 9726SOL    HW230078   5.312   1.000   4.411
 9727SOL     OW30079   1.362   3.110   6.853
 9727SOL    HW130080   1.433   3.044   6.878
 9727SOL    HW230081   1.385   3.153   6.766
 9728SOL     OW30082   0.769   0.842   5.728
 9728SOL    HW130083   0.743   0.884   5.641
 9728SOL    HW230084   0.756   0.743   5.723
 9729SOL     OW30085   0.857   4.260   3.911
 9729SOL    HW130086   0.947   4.304   3.911
 9729SOL    HW230087   0.849   4.201   3.992
 9730SOL     OW30088   1.122   4.183   4.131
 9730SOL    HW130089   1.209   4.137   4.111
 9730SOL    HW230090   1.122   4.274   4.090
 9731SOL     OW30091   4.875   4.545   0.826
 9731SOL    HW130092   4.807   4.585   0.887
 9731SOL    HW230093   4.850   4.451   0.804
 9732SOL     OW30094   6.010   5.771   3.421
 9732SOL    HW130095   5.964   5.753   3.508
 9732SOL    HW230096   6.078   5.842   3.433
 9733SOL     OW30097   6.046   5.143   0.672
 9733SOL    HW130098   5.971   5.195   0.712
 9733SOL    HW230099   6.092   5.091   0.744
 9734SOL     OW30100   6.995   1.795   1.642
 9734SOL    HW130101   6.994   1.795   1.742
 9734SOL    HW230102   6.918   1.848   1.607
 9735SOL     OW30103   1.959   4.216   4.442
 9735SOL    HW130104   1.949   4.264   4.355
 9735SOL    HW230105   2.043   4.162   4.441
 9736SOL     OW30106   6.521   1.212   6.870
 9736SOL    HW130107   6.471   1.245   6.791
 9736SOL    HW230108   6.475   1.132   6.908
 9737SOL     OW30109   5.303   2.747   3.380
 9737SOL    HW130110   5.274   2.792   3.464
 9737SOL    HW230111   5.268   2.797   3.301
 9738SOL     OW30112   1.768   0.310   1.359
 9738SOL    HW130113   1.727   0.340   1.446
 9738SOL    HW230114   1.863   0.282   1.375
 9739SOL     OW30115   5.891   4.983   2.232
 9739SOL    HW130116   5.926   4.890   2.226
 9739SOL    HW230117   5.959   5.047   2.195
 9740SOL     OW30118   6.525   1.662   3.611
 9740SOL    HW130119   6.459   1.710   3.552
 9740SOL    HW230120   6.595   1.619   3.554
 9741SOL     OW30121   3.874   0.900   2.330
 9741SOL    HW130122   3.871   0.887   2.430
 9741SOL    HW230123   3.967   0.919   2.302
 9742SOL     OW30124   4.127   0.182   0.852
 9742SOL    HW130125   4.197   0.237   0.898
 9742SOL    HW230126   4.044   0.236   0.841
 9743SOL     OW30127   6.943   2.354   4.903
 9743SOL    HW130128   6.852   2.366   4.863
 9743SOL    HW230129   7.011   2.352   4.829
 9744SOL     OW30130   1.388   6.983   2.618
 9744SOL    HW130131   1.314   0.020   2.582
 9744SOL    HW230132   1.351   6.917   2.684
 9745SOL     OW30133   5.365   3.343   6.022
 9745SOL    HW130134   5.280   3.381   5.985
 9745SOL    HW230135   5.344   3.282   6.099
 9746SOL     OW30136   6.625   0.420   5.667
 9746SOL    HW130137   6.597   0.488   5.735
 9746SOL    HW230138   6.674   0.346   5.713
 9747SOL     OW30139   2.279   1.277   1.778
 9747SOL    HW130140   2.324   1.188   1.776
 9747SOL    HW230141   2.277   1.311   1.872
 9748SOL     OW30142   0.065   1.171   3.407
 9748SOL    HW130143   0.114   1.130   3.330
 9748SOL    HW230144   0.100   1.263   3.424
 9749SOL     OW30145   2.557   0.578   4.866
 9749SOL    HW130146   2.610   0.650   4.911
 9749SOL    HW230147   2.468   0.615   4.839
 9750SOL     OW30148   5.606   4.310   3.237
 9750SOL    HW130149   5.575   4.388   3.182
 9750SOL    HW230150   5.573   4.320   3.331
 9751SOL     OW30151   1.532   0.620   1.253
 9751SOL    HW130152   1.595   0.689   1.218
 9751SOL    HW230153   1.537   0.616   1.352
 9752SOL     OW30154   4.407   2.134   5.596
 9752SOL    HW130155   4.477   2.070   5.564
 9752SOL    HW230156   4.365   2.098   5.679
 9753SOL     OW30157   6.103   5.784   6.231
 9753SOL    HW130158   6.151   5.740   6.155
 9753SOL    HW230159   6.155   5.771   6.316
 9754SOL     OW30160   1.333   1.333   6.386
 9754SOL    HW130161   1.390   1.272   6.331
 9754SOL    HW230162   1.391   1.402   6.430
 9755SOL     OW30163   3.266   3.396   4.402
 9755SOL    HW130164   3.267   3.296   4.406
 9755SOL    HW230165   3.230   3.432   4.488
 9756SOL     OW30166   6.615   3.719   0.844
 9756SOL    HW130167   6.544   3.786   0.864
 9756SOL    HW230168   6.604   3.639   0.904
 9757SOL     OW30169   5.448   3.502   4.055
 9757SOL    HW130170   5.468   3.503   3.957
 9757SOL    HW230171   5.493   3.424   4.098
 9758SOL     OW30172   2.436   6.826   0.045
 9758SOL    HW130173   2.392   6.889   0.109
 9758SOL    HW230174   2.534   6.844   0.043
 9759SOL     OW30175   1.199   0.293   0.183
 9759SOL    HW130176   1.173   0.367   0.121
 9759SOL    HW230177   1.262   0.327   0.252
 9760SOL     OW30178   4.526   2.312   4.878
 9760SOL    HW130179   4.437   2.297   4.837
 9760SOL    HW230180   4.545   2.410   4.884
 9761SOL     OW30181   5.893   1.626   2.670
 9761SOL    HW130182   5.854   1.660   2.584
 9761SOL    HW230183   5.836   1.656   2.747
 9762SOL     OW30184   3.476   0.991   4.460
 9762SOL    HW130185   3.567   1.031   4.463
 9762SOL    HW230186   3.479   0.906   4.407
 9763SOL     OW30187   5.324   2.114   2.017
 9763SOL    HW130188   5.369   2.127   1.928
 9763SOL    HW230189   5.229   2.085   2.002
 9764SOL     OW30190   0.234   2.881   2.672
 9764SOL    HW130191   0.254   2.808   2.607
 9764SOL    HW230192   0.316   2.904   2.724
 9765SOL     OW30193   6.859   0.794   3.737
 9765SOL    HW130194   6.903   0.868   3.687
 9765SOL    HW230195   6.761   0.792   3.714
 9766SOL     OW30196   3.200   6.780   2.487
 9766SOL    HW130197   3.111   6.758   2.527
 9766SOL    HW230198   3.267   6.711   2.514
 9767SOL     OW30199   4.822   0.538   4.538
 9767SOL    HW130200   4.731   0.564   4.505
 9767SOL    HW230201   4.867   0.482   4.470
 9768SOL     OW30202   5.741   1.667   2.905
 9768SOL    HW130203   5.650   1.625   2.911
 9768SOL    HW230204   5.774   1.687   2.997
 9769SOL     OW30205   3.783   0.929   2.747
 9769SOL    HW130206   3.690   0.951   2.719
 9769SOL    HW230207   3.802   0.971   2.836
 9770SOL     OW30208   5.603   0.792   6.388
 9770SOL    HW130209   5.605   0.832   6.296
 9770SOL    HW230210   5.531   0.723   6.393
 9771SOL     OW30211   3.115   5.660   0.177
 9771SOL    HW130212   3.054   5.707   0.242
 9771SOL    HW230213   3.154   5.579   0.222
 9772SOL     OW30214   1.638   6.814   2.581
 9772SOL    HW130215   1.544   6.843   2.594
 9772SOL    HW230216   1.663   6.748   2.652
 9773SOL     OW30217   5.514   5.411   4.185
 9773SOL    HW130218   5.479   5.399   4.277
 9773SOL    HW230219   5.612   5.391   4.184
 9774SOL     OW30220   0.217   4.846   2.351
 9774SOL    HW130221   0.126   4.859   2.312
 9774SOL    HW230222   0.239   4.922   2.411
 9775SOL     OW30223   2.948   0.513   3.136
 9775SOL    HW130224   2.895   0.561   3.066
 9775SOL    HW230225   3.034   0.480   3.097
 9776SOL     OW30226   1.774   4.475   4.464
 9776SOL    HW130227   1.826   4.389   4.473
 9776SOL    HW230228   1.714   4.486   4.542
 9777SOL     OW30229   6.141   5.580   6.603
 9777SOL    HW130230   6.051   5.536   6.610
 9777SOL    HW230231   6.207   5.529   6.658
 9778SOL     OW30232   0.240   0.909   3.882
 9778SOL    HW130233   0.218   0.972   3.956
 9778SOL    HW230234   0.181   0.829   3.887
 9779SOL     OW30235   1.641   1.457   5.415
 9779SOL    HW130236   1.698   1.402   5.475
 9779SOL    HW230237   1.548   1.419   5.414
 9780SOL     OW30238   2.810   1.751   1.262
 9780SOL    HW130239   2.812   1.814   1.339
 9780SOL    HW230240   2.716   1.746   1.226
 9781SOL     OW30241   1.790   4.013   4.546
 9781SOL    HW130242   1.867   4.067   4.512
 9781SOL    HW230243   1.718   4.073   4.580
 9782SOL     OW30244   6.539   1.672   0.977
 9782SOL    HW130245   6.587   1.684   0.890
 9782SOL    HW230246   6.456   1.728   0.977
 9783SOL     OW30247   4.509   2.560   3.162
 9783SOL    HW130248   4.582   2.503   3.200
 9783SOL    HW230249   4.492   2.535   3.067
 9784SOL     OW30250   3.776   1.015   4.464
 9784SOL    HW130251   3.811   1.087   4.403
 9784SOL    HW230252   3.779   0.927   4.417
 9785SOL     OW30253   0.687   3.769   5.792
 9785SOL    HW130254   0.705   3.801   5.699
 9785SOL    HW230255   0.683   3.669   5.793
 9786SOL     OW30256   2.184   4.463   0.026
 9786SOL    HW130257   2.111   4.470   6.976
 9786SOL    HW230258   2.262   4.519   7.016
 9787SOL     OW30259   4.735   4.264   1.763
 9787SOL    HW130260   4.780   4.201   1.826
 9787SOL    HW230261   4.649   4.295   1.802
 9788SOL     OW30262   0.650   0.930   3.683
 9788SOL    HW130263   0.658   0.835   3.654
 9788SOL    HW230264   0.553   0.954   3.692
 9789SOL     OW30265   0.839   5.426   0.860
 9789SOL    HW130266   0.829   5.453   0.764
 9789SOL    HW230267   0.750   5.396   0.895
 9790SOL     OW30268   6.239   4.568   6.823
 9790SOL    HW130269   6.289   4.569   6.910
 9790SOL    HW230270   6.158   4.625   6.831
 9791SOL     OW30271   0.946   1.182   2.366
 9791SOL    HW130272   1.013   1.146   2.302
 9791SOL    HW230273   0.985   1.181   2.459
 9792SOL     OW30274   4.883   5.098   1.117
 9792SOL    HW130275   4.808   5.153   1.155
 9792SOL    HW230276   4.956   5.090   1.184
 9793SOL     OW30277   4.785   6.082   3.426
 9793SOL    HW130278   4.814   6.084   3.331
 9793SOL    HW230279   4.792   6.174   3.466
 9794SOL     OW30280   0.145   4.361   0.840
 9794SOL    HW130281   0.208   4.380   0.916
 9794SOL    HW230282   0.194   4.318   0.765
 9795SOL     OW30283   2.066   1.826   4.483
 9795SOL    HW130284   2.113   1.913   4.498
 9795SOL    HW230285   2.070   1.802   4.387
 9796SOL     OW30286   3.683   2.179   1.346
 9796SOL    HW130287   3.620   2.153   1.273
 9796SOL    HW230288   3.632   2.209   1.426
 9797SOL     OW30289   2.400   5.346   6.381
 9797SOL    HW130290   2.327   5.296   6.428
 9797SOL    HW230291   2.441   5.412   6.444
 9798SOL     OW30292   3.122   0.376   1.520
 9798SOL    HW130293   3.099   0.326   1.604
 9798SOL    HW230294   3.039   0.394   1.469
 9799SOL     OW30295   4.119   3.684   4.027
 9799SOL    HW130296   4.133   3.724   4.118
 9799SOL    HW230297   4.125   3.585   4.032
 9800SOL     OW30298   3.909   6.613   4.735
 9800SOL    HW130299   3.943   6.584   4.824
 9800SOL    HW230300   3.976   6.592   4.665
 9801SOL     OW30301   4.737   3.512   0.108
 9801SOL    HW130302   4.776   3.571   0.037
 9801SOL    HW230303   4.720   3.421   0.070
 9802SOL     OW30304   0.051   3.624   1.425
 9802SOL    HW130305   0.032   3.702   1.365
 9802SOL    HW230306   0.145   3.630   1.458
 9803SOL     OW30307   0.711   2.155   6.834
 9803SOL    HW130308   0.705   2.237   6.777
 9803SOL    HW230309   0.760   2.177   6.919
 9804SOL     OW30310   1.584   0.051   2.766
 9804SOL    HW130311   1.510   0.032   2.701
 9804SOL    HW230312   1.666   0.077   2.716
 9805SOL     OW30313   0.955   0.590   5.065
 9805SOL    HW130314   0.956   0.603   5.164
 9805SOL    HW230315   0.941   0.678   5.020
 9806SOL     OW30316   1.277   1.404   0.685
 9806SOL    HW130317   1.255   1.313   0.720
 9806SOL    HW230318   1.355   1.397   0.622
 9807SOL     OW30319   2.709   3.719   0.098
 9807SOL    HW130320   2.678   3.763   0.014
 9807SOL    HW230321   2.640   3.654   0.129
 9808SOL     OW30322   4.720   0.974   5.605
 9808SOL    HW130323   4.702   1.047   5.539
 9808SOL    HW230324   4.769   1.012   5.684
 9809SOL     OW30325   0.565   2.242   0.195
 9809SOL    HW130326   0.550   2.164   0.135
 9809SOL    HW230327   0.663   2.253   0.212
 9810SOL     OW30328   2.151   3.068   3.601
 9810SOL    HW130329   2.178   3.133   3.530
 9810SOL    HW230330   2.066   3.099   3.644
 9811SOL     OW30331   5.687   4.558   3.637
 9811SOL    HW130332   5.721   4.652   3.649
 9811SOL    HW230333   5.593   4.560   3.604
 9812SOL     OW30334   3.301   2.089   5.835
 9812SOL    HW130335   3.225   2.043   5.789
 9812SOL    HW230336   3.369   2.021   5.864
 9813SOL     OW30337   5.553   1.153   6.931
 9813SOL    HW130338   5.479   1.146   6.998
 9813SOL    HW230339   5.619   1.081   6.947
 9814SOL     OW30340   0.086   0.461   0.428
 9814SOL    HW130341   0.089   0.559   0.449
 9814SOL    HW230342   0.002   0.422   0.466
 9815SOL     OW30343   5.494   3.811   3.569
 9815SOL    HW130344   5.587   3.788   3.599
 9815SOL    HW230345   5.454   3.876   3.634
 9816SOL     OW30346   6.919   1.132   6.525
 9816SOL    HW130347   6.973   1.155   6.444
 9816SOL    HW230348   6.890   1.037   6.519
 9817SOL     OW30349   2.478   6.404   2.850
 9817SOL    HW130350   2.472   6.364   2.759
 9817SOL    HW230351   2.572   6.399   2.883
 9818SOL     OW30352   1.252   0.906   4.941
 9818SOL    HW130353   1.194   0.897   5.022
 9818SOL    HW230354   1.323   0.974   4.957
 9819SOL     OW30355   4.673   2.637   4.313
 9819SOL    HW130356   4.689   2.732   4.342
 9819SOL    HW230357   4.757   2.599   4.276
 9820SOL     OW30358   4.687   3.179   6.218
 9820SOL    HW130359   4.591   3.153   6.212
 9820SOL    HW230360   4.695   3.278   6.207
 9821SOL     OW30361   5.347   0.538   0.504
 9821SOL    HW130362   5.255   0.508   0.476
 9821SOL    HW230363   5.412   0.465   0.485
 9822SOL     OW30364   2.493   5.859   3.743
 9822SOL    HW130365   2.466   5.930   3.808
 9822SOL    HW230366   2.482   5.893   3.650
 9823SOL     OW30367   2.583   0.457   0.925
 9823SOL    HW130368   2.571   0.361   0.952
 9823SOL    HW230369   2.499   0.508   0.946
 9824SOL     OW30370   2.110   5.381   4.135
 9824SOL    HW130371   2.067   5.417   4.218
 9824SOL    HW230372   2.209   5.375   4.150
 9825SOL     OW30373   5.276   6.365   4.545
 9825SOL    HW130374   5.370   6.338   4.570
 9825SOL    HW230375   5.234   6.291   4.492
 9826SOL     OW30376   4.024   5.417   5.383
 9826SOL    HW130377   3.930   5.441   5.358
 9826SOL    HW230378   4.026   5.324   5.418
 9827SOL     OW30379   1.827   4.281   3.973
 9827SOL    HW130380   1.782   4.197   3.943
 9827SOL    HW230381   1.757   4.352   3.988
 9828SOL     OW30382   2.948   2.305   5.290
 9828SOL    HW130383   3.033   2.318   5.240
 9828SOL    HW230384   2.900   2.393   5.299
 9829SOL     OW30385   4.555   5.498   6.241
 9829SOL    HW130386   4.557   5.401   6.220
 9829SOL    HW230387   4.464   5.535   6.221
 9830SOL     OW30388   5.381   1.094   1.931
 9830SOL    HW130389   5.454   1.052   1.877
 9830SOL    HW230390   5.293   1.075   1.889
 9831SOL     OW30391   1.029   4.959   2.915
 9831SOL    HW130392   1.026   5.059   2.910
 9831SOL    HW230393   1.053   4.922   2.825
 9832SOL     OW30394   5.460   5.619   2.536
 9832SOL    HW130395   5.377   5.614   2.481
 9832SOL    HW230396   5.458   5.701   2.593
 9833SOL     OW30397   3.520   3.470   4.192
 9833SOL    HW130398   3.602   3.420   4.217
 9833SOL    HW230399   3.458   3.474   4.271
 9834SOL     OW30400   2.565   4.496   5.403
 9834SOL    HW130401   2.604   4.548   5.479
 9834SOL    HW230402   2.607   4.405   5.400
 9835SOL     OW30403   3.329   3.133   4.467
 9835SOL    HW130404   3.359   3.058   4.408
 9835SOL    HW230405   3.366   3.120   4.559
 9836SOL     OW30406   0.296   3.755   3.933
 9836SOL    HW130407   0.384   3.718   3.904
 9836SOL    HW230408   0.222   3.705   3.886
 9837SOL     OW30409   4.138   0.944   2.097
 9837SOL    HW130410   4.154   0.983   2.006
 9837SOL    HW230411   4.164   1.011   2.167
 9838SOL     OW30412   1.676   6.732   0.411
 9838SOL    HW130413   1.756   6.677   0.389
 9838SOL    HW230414   1.689   6.776   0.500
 9839SOL     OW30415   5.063   6.488   3.952
 9839SOL    HW130416   5.095   6.582   3.949
 9839SOL    HW230417   5.140   6.427   3.971
 9840SOL     OW30418   5.907   1.755   0.766
 9840SOL    HW130419   5.966   1.722   0.840
 9840SOL    HW230420   5.858   1.837   0.797
 9841SOL     OW30421   1.509   4.166   5.046
 9841SOL    HW130422   1.460   4.242   5.089
 9841SOL    HW230423   1.605   4.169   5.074
 9842SOL     OW30424   3.558   3.233   1.398
 9842SOL    HW130425   3.641   3.288   1.385
 9842SOL    HW230426   3.573   3.167   1.471
 9843SOL     OW30427   6.820   0.583   2.551
 9843SOL    HW130428   6.757   0.595   2.474
 9843SOL    HW230429   6.850   0.488   2.556
 9844SOL     OW30430   5.880   1.308   3.691
 9844SOL    HW130431   5.973   1.277   3.668
 9844SOL    HW230432   5.876   1.331   3.788
 9845SOL     OW30433   1.844   2.370   3.731
 9845SOL    HW130434   1.914   2.359   3.802
 9845SOL    HW230435   1.777   2.296   3.739
 9846SOL     OW30436   3.429   2.443   1.407
 9846SOL    HW130437   3.345   2.460   1.458
 9846SOL    HW230438   3.506   2.436   1.470
 9847SOL     OW30439   3.676   2.969   2.881
 9847SOL    HW130440   3.750   2.973   2.815
 9847SOL    HW230441   3.714   2.956   2.973
 9848SOL     OW30442   4.319   3.706   5.250
 9848SOL    HW130443   4.288   3.671   5.339
 9848SOL    HW230444   4.260   3.671   5.178
 9849SOL     OW30445   1.088   6.822   6.620
 9849SOL    HW130446   1.020   6.881   6.577
 9849SOL    HW230447   1.043   6.760   6.684
 9850SOL     OW30448   6.589   0.747   3.678
 9850SOL    HW130449   6.598   0.733   3.579
 9850SOL    HW230450   6.562   0.661   3.721
 9851SOL     OW30451   1.432   0.261   4.258
 9851SOL    HW130452   1.481   0.191   4.308
 9851SOL    HW230453   1.455   0.256   4.161
 9852SOL     OW30454   2.265   2.010   4.408
 9852SOL    HW130455   2.334   2.056   4.464
 9852SOL    HW230456   2.311   1.947   4.345
 9853SOL     OW30457   5.768   3.492   5.276
 9853SOL    HW130458   5.669   3.498   5.285
 9853SOL    HW230459   5.793   3.489   5.179
 9854SOL     OW30460   0.291   6.268   4.576
 9854SOL    HW130461   0.270   6.201   4.505
 9854SOL    HW230462   0.330   6.350   4.534
 9855SOL     OW30463   1.758   3.158   1.766
 9855SOL    HW130464   1.802   3.078   1.726
 9855SOL    HW230465   1.667   3.132   1.800
 9856SOL     OW30466   4.680   4.213   4.160
 9856SOL    HW130467   4.692   4.267   4.077
 9856SOL    HW230468   4.632   4.267   4.228
 9857SOL     OW30469   4.674   2.624   2.498
 9857SOL    HW130470   4.654   2.614   2.400
 9857SOL    HW230471   4.757   2.573   2.520
 9858SOL     OW30472   6.901   6.772   1.353
 9858SOL    HW130473   6.821   6.733   1.399
 9858SOL    HW230474   6.958   6.699   1.317
 9859SOL     OW30475   6.528   5.789   3.191
 9859SOL    HW130476   6.510   5.824   3.283
 9859SOL    HW230477   6.444   5.793   3.137
 9860SOL     OW30478   1.960   2.455   4.292
 9860SOL    HW130479   1.940   2.465   4.195
 9860SOL    HW230480   1.980   2.360   4.313
 9861SOL     OW30481   2.796   0.639   2.944
 9861SOL    HW130482   2.726   0.652   3.014
 9861SOL    HW230483   2.752   0.634   2.854
 9862SOL     OW30484   2.809   3.422   6.876
 9862SOL    HW130485   2.745   3.352   6.845
 9862SOL    HW230486   2.766   3.512   6.871
 9863SOL     OW30487   3.139   5.560   1.696
 9863SOL    HW130488   3.119   5.538   1.792
 9863SOL    HW230489   3.199   5.640   1.692
 9864SOL     OW30490   3.398   0.717   4.148
 9864SOL    HW130491   3.326   0.786   4.138
 9864SOL    HW230492   3.402   0.687   4.243
 9865SOL     OW30493   1.338   6.712   4.444
 9865SOL    HW130494   1.295   6.782   4.388
 9865SOL    HW230495   1.300   6.622   4.420
 9866SOL     OW30496   5.666   4.872   6.149
 9866SOL    HW130497   5.631   4.965   6.159
 9866SOL    HW230498   5.629   4.815   6.223
 9867SOL     OW30499   6.841   2.006   1.482
 9867SOL    HW130500   6.905   2.062   1.431
 9867SOL    HW230501   6.770   1.972   1.421
 9868SOL     OW30502   0.049   2.648   4.612
 9868SOL    HW130503   0.078   2.641   4.516
 9868SOL    HW230504   6.969   2.656   4.617
 9869SOL     OW30505   0.264   2.542   1.789
 9869SOL    HW130506   0.297   2.480   1.717
 9869SOL    HW230507   0.332   2.546   1.863
 9870SOL     OW30508   3.983   5.724   3.002
 9870SOL    HW130509   3.985   5.807   2.945
 9870SOL    HW230510   4.036   5.652   2.956
 9871SOL     OW30511   6.329   4.499   6.068
 9871SOL    HW130512   6.312   4.569   5.998
 9871SOL    HW230513   6.416   4.454   6.049
 9872SOL     OW30514   3.575   5.831   4.656
 9872SOL    HW130515   3.598   5.927   4.671
 9872SOL    HW230516   3.574   5.782   4.743
 9873SOL     OW30517   2.081   2.885   0.592
 9873SOL    HW130518   2.148   2.955   0.571
 9873SOL    HW230519   2.014   2.921   0.656
 9874SOL     OW30520   6.702   2.829   5.390
 9874SOL    HW130521   6.702   2.921   5.429
 9874SOL    HW230522   6.721   2.762   5.462
 9875SOL     OW30523   6.183   5.681   2.478
 9875SOL    HW130524   6.169   5.640   2.567
 9875SOL    HW230525   6.266   5.738   2.480
 9876SOL     OW30526   5.271   6.943   4.701
 9876SOL    HW130527   5.346   7.009   4.699
 9876SOL    HW230528   5.308   6.850   4.696
 9877SOL     OW30529   0.082   4.654   4.098
 9877SOL    HW130530   0.109   4.750   4.095
 9877SOL    HW230531   0.160   4.596   4.073
 9878SOL     OW30532   2.948   3.252   6.165
 9878SOL    HW130533   2.968   3.154   6.162
 9878SOL    HW230534   2.857   3.266   6.204
 9879SOL     OW30535   5.502   5.269   5.836
 9879SOL    HW130536   5.448   5.186   5.823
 9879SOL    HW230537   5.485   5.305   5.928
 9880SOL     OW30538   2.774   1.176   0.862
 9880SOL    HW130539   2.848   1.231   0.823
 9880SOL    HW230540   2.808   1.084   0.881
 9881SOL     OW30541   0.228   1.500   4.502
 9881SOL    HW130542   0.251   1.404   4.491
 9881SOL    HW230543   0.134   1.509   4.534
 9882SOL     OW30544   2.767   3.717   5.895
 9882SOL    HW130545   2.799   3.639   5.841
 9882SOL    HW230546   2.674   3.742   5.867
 9883SOL     OW30547   0.736   6.519   0.840
 9883SOL    HW130548   0.678   6.438   0.838
 9883SOL    HW230549   0.727   6.569   0.754
 9884SOL     OW30550   4.512   1.386   0.567
 9884SOL    HW130551   4.437   1.449   0.588
 9884SOL    HW230552   4.574   1.429   0.501
 9885SOL     OW30553   0.497   3.142   4.660
 9885SOL    HW130554   0.424   3.073   4.657
 9885SOL    HW230555   0.472   3.219   4.601
 9886SOL     OW30556   0.777   5.777   1.216
 9886SOL    HW130557   0.806   5.858   1.267
 9886SOL    HW230558   0.678   5.766   1.224
 9887SOL     OW30559   4.018   6.868   6.705
 9887SOL    HW130560   3.998   6.775   6.676
 9887SOL    HW230561   3.945   6.929   6.673
 9888SOL     OW30562   5.712   4.808   3.315
 9888SOL    HW130563   5.771   4.819   3.396
 9888SOL    HW230564   5.620   4.842   3.336
 9889SOL     OW30565   6.657   4.227   1.901
 9889SOL    HW130566   6.691   4.186   1.816
 9889SOL    HW230567   6.682   4.168   1.978
 9890SOL     OW30568   0.575   2.472   1.380
 9890SOL    HW130569   0.639   2.395   1.383
 9890SOL    HW230570   0.512   2.460   1.303
 9891SOL     OW30571   6.186   3.995   1.569
 9891SOL    HW130572   6.281   4.020   1.552
 9891SOL    HW230573   6.139   3.983   1.482
 9892SOL     OW30574   1.522   5.660   3.097
 9892SOL    HW130575   1.555   5.673   3.191
 9892SOL    HW230576   1.522   5.748   3.049
 9893SOL     OW30577   6.435   6.842   2.312
 9893SOL    HW130578   6.439   6.753   2.267
 9893SOL    HW230579   6.415   6.913   2.244
 9894SOL     OW30580   2.761   1.616   6.159
 9894SOL    HW130581   2.859   1.635   6.160
 9894SOL    HW230582   2.710   1.702   6.165
 9895SOL     OW30583   5.789   2.811   5.390
 9895SOL    HW130584   5.881   2.792   5.356
 9895SOL    HW230585   5.780   2.772   5.482
 9896SOL     OW30586   5.430   1.753   0.792
 9896SOL    HW130587   5.453   1.817   0.719
 9896SOL    HW230588   5.502   1.684   0.801
 9897SOL     OW30589   4.959   0.237   2.809
 9897SOL    HW130590   5.023   0.305   2.771
 9897SOL    HW230591   4.871   0.281   2.827
 9898SOL     OW30592   0.328   4.605   5.727
 9898SOL    HW130593   0.390   4.527   5.717
 9898SOL    HW230594   0.331   4.639   5.821
 9899SOL     OW30595   6.766   5.738   2.589
 9899SOL    HW130596   6.701   5.804   2.552
 9899SOL    HW230597   6.720   5.652   2.609
 9900SOL     OW30598   1.853   3.054   2.884
 9900SOL    HW130599   1.868   3.133   2.824
 9900SOL    HW230600   1.879   3.079   2.978
 9901SOL     OW30601   2.138   1.164   0.142
 9901SOL    HW130602   2.185   1.225   0.206
 9901SOL    HW230603   2.058   1.124   0.186
 9902SOL     OW30604   4.625   3.847   1.048
 9902SOL    HW130605   4.528   3.827   1.058
 9902SOL    HW230606   4.654   3.828   0.954
 9903SOL     OW30607   5.163   0.120   1.993
 9903SOL    HW130608   5.094   0.128   1.921
 9903SOL    HW230609   5.250   0.156   1.960
 9904SOL     OW30610   6.920   3.901   6.292
 9904SOL    HW130611   6.978   3.824   6.265
 9904SOL    HW230612   6.957   3.942   6.376
 9905SOL     OW30613   1.391   6.738   6.692
 9905SOL    HW130614   1.303   6.754   6.646
 9905SOL    HW230615   1.450   6.684   6.632
 9906SOL     OW30616   2.176   3.686   6.881
 9906SOL    HW130617   2.263   3.734   6.871
 9906SOL    HW230618   2.117   3.709   6.804
 9907SOL     OW30619   1.304   0.460   3.057
 9907SOL    HW130620   1.310   0.464   2.957
 9907SOL    HW230621   1.349   0.540   3.096
 9908SOL     OW30622   0.707   3.501   5.673
 9908SOL    HW130623   0.793   3.548   5.652
 9908SOL    HW230624   0.716   3.404   5.652
 9909SOL     OW30625   3.704   0.606   2.598
 9909SOL    HW130626   3.609   0.586   2.575
 9909SOL    HW230627   3.710   0.697   2.638
 9910SOL     OW30628   0.970   5.048   1.875
 9910SOL    HW130629   0.928   4.957   1.871
 9910SOL    HW230630   1.060   5.045   1.832
 9911SOL     OW30631   4.049   5.842   2.049
 9911SOL    HW130632   4.090   5.918   2.100
 9911SOL    HW230633   4.007   5.778   2.113
 9912SOL     OW30634   4.049   0.949   1.329
 9912SOL    HW130635   4.137   0.925   1.288
 9912SOL    HW230636   3.977   0.893   1.288
 9913SOL     OW30637   6.290   3.392   1.795
 9913SOL    HW130638   6.332   3.482   1.796
 9913SOL    HW230639   6.290   3.354   1.888
 9914SOL     OW30640   0.844   0.284   5.240
 9914SOL    HW130641   0.755   0.240   5.233
 9914SOL    HW230642   0.870   0.322   5.151
 9915SOL     OW30643   5.085   2.511   3.626
 9915SOL    HW130644   5.129   2.481   3.542
 9915SOL    HW230645   4.986   2.518   3.612
 9916SOL     OW30646   2.281   2.146   3.483
 9916SOL    HW130647   2.193   2.118   3.522
 9916SOL    HW230648   2.354   2.130   3.550
 9917SOL     OW30649   3.586   3.773   4.436
 9917SOL    HW130650   3.651   3.781   4.360
 9917SOL    HW230651   3.608   3.692   4.490
 9918SOL     OW30652   0.654   2.347   2.003
 9918SOL    HW130653   0.708   2.345   1.919
 9918SOL    HW230654   0.566   2.301   1.987
 9919SOL     OW30655   2.686   5.876   1.469
 9919SOL    HW130656   2.773   5.900   1.512
 9919SOL    HW230657   2.691   5.895   1.371
 9920SOL     OW30658   3.902   6.825   2.357
 9920SOL    HW130659   3.868   6.914   2.325
 9920SOL    HW230660   3.979   6.839   2.419
 9921SOL     OW30661   4.541   6.834   4.842
 9921SOL    HW130662   4.492   6.751   4.816
 9921SOL    HW230663   4.628   6.838   4.791
 9922SOL     OW30664   4.792   4.680   1.213
 9922SOL    HW130665   4.823   4.589   1.240
 9922SOL    HW230666   4.706   4.673   1.163
 9923SOL     OW30667   0.352   2.977   6.741
 9923SOL    HW130668   0.449   2.953   6.727
 9923SOL    HW230669   0.302   2.964   6.656
 9924SOL     OW30670   4.619   1.713   3.363
 9924SOL    HW130671   4.616   1.812   3.352
 9924SOL    HW230672   4.694   1.675   3.309
 9925SOL     OW30673   1.690   4.815   3.693
 9925SOL    HW130674   1.736   4.830   3.781
 9925SOL    HW230675   1.757   4.818   3.620
 9926SOL     OW30676   3.145   2.337   0.615
 9926SOL    HW130677   3.128   2.432   0.587
 9926SOL    HW230678   3.238   2.311   0.591
 9927SOL     OW30679   1.091   1.925   0.932
 9927SOL    HW130680   1.188   1.923   0.958
 9927SOL    HW230681   1.063   1.834   0.902
 9928SOL     OW30682   5.345   3.725   2.503
 9928SOL    HW130683   5.343   3.634   2.545
 9928SOL    HW230684   5.409   3.783   2.555
 9929SOL     OW30685   3.362   4.127   4.823
 9929SOL    HW130686   3.291   4.197   4.816
 9929SOL    HW230687   3.374   4.082   4.735
 9930SOL     OW30688   0.904   0.380   6.356
 9930SOL    HW130689   0.812   0.341   6.351
 9930SOL    HW230690   0.971   0.306   6.361
 9931SOL     OW30691   6.837   5.480   4.153
 9931SOL    HW130692   6.791   5.394   4.172
 9931SOL    HW230693   6.912   5.465   4.089
 9932SOL     OW30694   2.197   1.670   6.757
 9932SOL    HW130695   2.270   1.602   6.771
 9932SOL    HW230696   2.161   1.660   6.665
 9933SOL     OW30697   1.804   1.018   4.358
 9933SOL    HW130698   1.831   1.113   4.341
 9933SOL    HW230699   1.861   0.958   4.302
 9934SOL     OW30700   6.204   1.541   6.894
 9934SOL    HW130701   6.230   1.603   6.969
 9934SOL    HW230702   6.119   1.494   6.918
 9935SOL     OW30703   2.441   0.768   0.784
 9935SOL    HW130704   2.450   0.772   0.684
 9935SOL    HW230705   2.352   0.807   0.810
 9936SOL     OW30706   6.850   5.304   0.209
 9936SOL    HW130707   6.919   5.274   0.275
 9936SOL    HW230708   6.767   5.332   0.258
 9937SOL     OW30709   1.673   1.249   3.064
 9937SOL    HW130710   1.688   1.201   3.151
 9937SOL    HW230711   1.756   1.299   3.039
 9938SOL     OW30712   5.591   6.806   4.245
 9938SOL    HW130713   5.625   6.855   4.325
 9938SOL    HW230714   5.663   6.804   4.175
 9939SOL     OW30715   2.507   2.544   0.936
 9939SOL    HW130716   2.579   2.489   0.978
 9939SOL    HW230717   2.437   2.564   1.004
 9940SOL     OW30718   1.215   0.071   2.886
 9940SOL    HW130719   1.137   0.032   2.836
 9940SOL    HW230720   1.202   0.169   2.896
 9941SOL     OW30721   2.934   5.821   5.338
 9941SOL    HW130722   2.887   5.903   5.371
 9941SOL    HW230723   2.952   5.830   5.240
 9942SOL     OW30724   4.746   5.549   1.752
 9942SOL    HW130725   4.736   5.629   1.693
 9942SOL    HW230726   4.656   5.517   1.781
 9943SOL     OW30727   1.013   3.897   6.658
 9943SOL    HW130728   1.001   3.802   6.631
 9943SOL    HW230729   0.955   3.916   6.738
 9944SOL     OW30730   0.636   4.972   6.509
 9944SOL    HW130731   0.612   5.025   6.428
 9944SOL    HW230732   0.646   5.034   6.587
 9945SOL     OW30733   5.626   4.106   6.846
 9945SOL    HW130734   5.694   4.152   6.902
 9945SOL    HW230735   5.654   4.112   6.750
 9946SOL     OW30736   6.126   6.992   3.149
 9946SOL    HW130737   6.125   6.947   3.238
 9946SOL    HW230738   6.104   6.927   3.078
 9947SOL     OW30739   2.650   1.392   4.728
 9947SOL    HW130740   2.729   1.386   4.790
 9947SOL    HW230741   2.680   1.372   4.635
 9948SOL     OW30742   7.005   5.709   5.277
 9948SOL    HW130743   6.922   5.759   5.302
 9948SOL    HW230744   6.993   5.612   5.299
 9949SOL     OW30745   0.018   5.345   3.788
 9949SOL    HW130746   7.016   5.342   3.886
 9949SOL    HW230747   6.994   5.267   3.743
 9950SOL     OW30748   7.003   5.972   5.880
 9950SOL    HW130749   0.041   5.920   5.944
 9950SOL    HW230750   0.022   5.963   5.788
 9951SOL     OW30751   1.747   2.022   2.957
 9951SOL    HW130752   1.811   1.946   2.964
 9951SOL    HW230753   1.671   1.998   2.897
 9952SOL     OW30754   1.351   3.699   0.891
 9952SOL    HW130755   1.373   3.678   0.796
 9952SOL    HW230756   1.254   3.681   0.907
 9953SOL     OW30757   5.625   2.709   4.235
 9953SOL    HW130758   5.718   2.735   4.261
 9953SOL    HW230759   5.623   2.613   4.207
 9954SOL     OW30760   1.316   0.015   4.643
 9954SOL    HW130761   1.326   0.005   4.544
 9954SOL    HW230762   1.307   6.944   4.684
 9955SOL     OW30763   3.438   3.813   6.811
 9955SOL    HW130764   3.379   3.892   6.792
 9955SOL    HW230765   3.501   3.799   6.735
 9956SOL     OW30766   0.725   3.420   2.316
 9956SOL    HW130767   0.725   3.339   2.256
 9956SOL    HW230768   0.636   3.464   2.312
 9957SOL     OW30769   5.827   0.376   2.334
 9957SOL    HW130770   5.774   0.406   2.413
 9957SOL    HW230771   5.925   0.381   2.354
 9958SOL     OW30772   3.144   6.087   6.493
 9958SOL    HW130773   3.066   6.028   6.514
 9958SOL    HW230774   3.113   6.180   6.477
 9959SOL     OW30775   4.077   3.695   2.493
 9959SOL    HW130776   4.093   3.606   2.534
 9959SOL    HW230777   4.150   3.758   2.518
 9960SOL     OW30778   0.397   6.516   1.505
 9960SOL    HW130779   0.435   6.433   1.546
 9960SOL    HW230780   0.465   6.589   1.509
 9961SOL     OW30781   1.555   4.525   3.018
 9961SOL    HW130782   1.475   4.569   3.060
 9961SOL    HW230783   1.592   4.584   2.946
 9962SOL     OW30784   4.365   0.640   2.052
 9962SOL    HW130785   4.461   0.667   2.044
 9962SOL    HW230786   4.317   0.704   2.111
 9963SOL     OW30787   2.929   2.446   5.922
 9963SOL    HW130788   2.862   2.504   5.876
 9963SOL    HW230789   2.961   2.375   5.859
 9964SOL     OW30790   4.357   5.165   5.799
 9964SOL    HW130791   4.324   5.222   5.874
 9964SOL    HW230792   4.357   5.218   5.715
 9965SOL     OW30793   3.546   4.932   5.203
 9965SOL    HW130794   3.595   4.998   5.147
 9965SOL    HW230795   3.462   4.904   5.156
 9966SOL     OW30796   1.690   4.819   1.985
 9966SOL    HW130797   1.626   4.880   2.033
 9966SOL    HW230798   1.763   4.791   2.047
 9967SOL     OW30799   5.603   5.027   2.221
 9967SOL    HW130800   5.701   5.039   2.236
 9967SOL    HW230801   5.576   5.074   2.137
 9968SOL     OW30802   3.460   5.721   6.370
 9968SOL    HW130803   3.390   5.706   6.301
 9968SOL    HW230804   3.461   5.644   6.434
 9969SOL     OW30805   1.147   3.523   3.872
 9969SOL    HW130806   1.158   3.426   3.890
 9969SOL    HW230807   1.158   3.540   3.774
 9970SOL     OW30808   0.239   4.585   2.451
 9970SOL    HW130809   0.188   4.589   2.537
 9970SOL    HW230810   0.228   4.671   2.401
 9971SOL     OW30811   2.153   4.165   0.403
 9971SOL    HW130812   2.121   4.220   0.325
 9971SOL    HW230813   2.122   4.208   0.488
 9972SOL     OW30814   3.160   4.274   0.731
 9972SOL    HW130815   3.116   4.359   0.701
 9972SOL    HW230816   3.260   4.284   0.724
 9973SOL     OW30817   4.381   1.845   4.588
 9973SOL    HW130818   4.399   1.747   4.592
 9973SOL    HW230819   4.467   1.895   4.600
 9974SOL     OW30820   6.848   3.515   3.330
 9974SOL    HW130821   6.929   3.527   3.272
 9974SOL    HW230822   6.793   3.439   3.296
 9975SOL     OW30823   0.108   4.637   6.913
 9975SOL    HW130824   0.178   4.685   6.860
 9975SOL    HW230825   0.018   4.664   6.881
 9976SOL     OW30826   6.533   4.846   5.000
 9976SOL    HW130827   6.468   4.851   4.924
 9976SOL    HW230828   6.491   4.885   5.082
 9977SOL     OW30829   6.669   4.773   6.111
 9977SOL    HW130830   6.745   4.831   6.081
 9977SOL    HW230831   6.603   4.827   6.163
 9978SOL     OW30832   5.861   1.643   5.265
 9978SOL    HW130833   5.763   1.637   5.245
 9978SOL    HW230834   5.902   1.552   5.260
 9979SOL     OW30835   6.494   4.364   5.863
 9979SOL    HW130836   6.484   4.277   5.816
 9979SOL    HW230837   6.590   4.392   5.862
 9980SOL     OW30838   1.374   1.163   0.188
 9980SOL    HW130839   1.387   1.178   0.090
 9980SOL    HW230840   1.331   1.243   0.229
 9981SOL     OW30841   2.393   1.884   0.340
 9981SOL    HW130842   2.335   1.962   0.365
 9981SOL    HW230843   2.485   1.917   0.317
 9982SOL     OW30844   1.158   1.774   3.592
 9982SOL    HW130845   1.181   1.690   3.544
 9982SOL    HW230846   1.103   1.753   3.673
 9983SOL     OW30847   1.254   0.774   1.231
 9983SOL    HW130848   1.230   0.726   1.315
 9983SOL    HW230849   1.337   0.828   1.246
 9984SOL     OW30850   0.575   0.465   0.157
 9984SOL    HW130851   0.498   0.408   0.185
 9984SOL    HW230852   0.642   0.408   0.109
 9985SOL     OW30853   3.861   6.820   1.421
 9985SOL    HW130854   3.890   6.794   1.513
 9985SOL    HW230855   3.897   6.910   1.399
 9986SOL     OW30856   5.091   4.092   6.909
 9986SOL    HW130857   5.025   4.103   6.834
 9986SOL    HW230858   5.184   4.106   6.873
 9987SOL     OW30859   6.092   1.944   2.172
 9987SOL    HW130860   6.041   2.030   2.169
 9987SOL    HW230861   6.053   1.879   2.106
 9988SOL     OW30862   0.013   4.891   4.707
 9988SOL    HW130863   0.080   4.843   4.650
 9988SOL    HW230864   0.046   4.895   4.801
 9989SOL     OW30865   5.323   3.429   3.628
 9989SOL    HW130866   5.272   3.515   3.623
 9989SOL    HW230867   5.412   3.446   3.670
 9990SOL     OW30868   2.458   0.301   3.601
 9990SOL    HW130869   2.366   0.268   3.582
 9990SOL    HW230870   2.456   0.400   3.613
 9991SOL     OW30871   1.460   2.666   4.969
 9991SOL    HW130872   1.549   2.663   5.014
 9991SOL    HW230873   1.463   2.734   4.895
 9992SOL     OW30874   3.661   3.531   0.795
 9992SOL    HW130875   3.682   3.441   0.834
 9992SOL    HW230876   3.586   3.522   0.729
 9993SOL     OW30877   4.034   6.392   3.169
 9993SOL    HW130878   3.999   6.315   3.115
 9993SOL    HW230879   4.069   6.462   3.107
 9994SOL     OW30880   0.050   4.068   3.605
 9994SOL    HW130881   0.005   3.982   3.581
 9994SOL    HW230882   0.133   4.049   3.657
 9995SOL     OW30883   3.202   0.247   3.156
 9995SOL    HW130884   3.299   0.236   3.138
 9995SOL    HW230885   3.165   0.316   3.094
 9996SOL     OW30886   2.717   2.783   1.009
 9996SOL    HW130887   2.779   2.754   0.936
 9996SOL    HW230888   2.623   2.779   0.976
 9997SOL     OW30889   4.828   0.950   0.990
 9997SOL    HW130890   4.847   0.940   0.893
 9997SOL    HW230891   4.798   1.044   1.009
 9998SOL     OW30892   5.290   3.731   2.949
 9998SOL    HW130893   5.206   3.751   3.000
 9998SOL    HW230894   5.315   3.811   2.894
 9999SOL     OW30895   6.600   5.686   5.167
 9999SOL    HW130896   6.646   5.748   5.230
 9999SOL    HW230897   6.509   5.721   5.146
10000SOL     OW30898   5.875   2.153   6.776
10000SOL    HW130899   5.780   2.127   6.793
10000SOL    HW230900   5.934   2.073   6.788
10001SOL     OW30901   4.461   0.176   1.747
10001SOL    HW130902   4.477   0.266   1.787
10001SOL    HW230903   4.531   0.113   1.780
10002SOL     OW30904   1.414   1.673   2.069
10002SOL    HW130905   1.502   1.625   2.070
10002SOL    HW230906   1.377   1.675   1.976
10003SOL     OW30907   3.598   2.137   2.633
10003SOL    HW130908   3.612   2.132   2.731
10003SOL    HW230909   3.675   2.184   2.590
10004SOL     OW30910   5.185   2.950   4.695
10004SOL    HW130911   5.269   2.988   4.734
10004SOL    HW230912   5.204   2.916   4.603
10005SOL     OW30913   4.306   5.657   3.182
10005SOL    HW130914   4.247   5.576   3.182
10005SOL    HW230915   4.294   5.707   3.097
10006SOL     OW30916   4.970   1.527   4.998
10006SOL    HW130917   5.014   1.488   5.079
10006SOL    HW230918   4.902   1.595   5.026
10007SOL     OW30919   0.564   3.742   4.458
10007SOL    HW130920   0.483   3.689   4.434
10007SOL    HW230921   0.537   3.833   4.490
10008SOL     OW30922   4.072   1.040   2.911
10008SOL    HW130923   4.092   1.091   2.995
10008SOL    HW230924   4.124   1.080   2.836
10009SOL     OW30925   1.888   4.125   1.912
10009SOL    HW130926   1.837   4.201   1.953
10009SOL    HW230927   1.974   4.112   1.961
10010SOL     OW30928   2.238   6.509   0.414
10010SOL    HW130929   2.201   6.433   0.361
10010SOL    HW230930   2.277   6.475   0.499
10011SOL     OW30931   0.643   3.569   6.302
10011SOL    HW130932   0.736   3.580   6.268
10011SOL    HW230933   0.582   3.552   6.225
10012SOL     OW30934   4.917   6.829   2.467
10012SOL    HW130935   4.905   6.926   2.486
10012SOL    HW230936   4.862   6.776   2.532
10013SOL     OW30937   2.065   1.881   4.874
10013SOL    HW130938   2.076   1.961   4.816
10013SOL    HW230939   1.980   1.889   4.926
10014SOL     OW30940   0.109   1.892   1.402
10014SOL    HW130941   0.057   1.893   1.487
10014SOL    HW230942   0.125   1.797   1.374
10015SOL     OW30943   3.901   4.482   0.581
10015SOL    HW130944   3.875   4.423   0.504
10015SOL    HW230945   3.984   4.532   0.558
10016SOL     OW30946   1.890   0.298   5.072
10016SOL    HW130947   1.951   0.332   5.144
10016SOL    HW230948   1.913   0.204   5.051
10017SOL     OW30949   2.619   1.553   2.622
10017SOL    HW130950   2.635   1.457   2.599
10017SOL    HW230951   2.645   1.611   2.545
10018SOL     OW30952   6.364   5.125   5.967
10018SOL    HW130953   6.373   5.026   5.977
10018SOL    HW230954   6.438   5.159   5.909
10019SOL     OW30955   0.677   1.937   3.101
10019SOL    HW130956   0.635   1.939   3.011
10019SOL    HW230957   0.757   1.999   3.102
10020SOL     OW30958   0.490   1.279   1.202
10020SOL    HW130959   0.467   1.182   1.191
10020SOL    HW230960   0.441   1.333   1.133
10021SOL     OW30961   1.297   2.650   2.712
10021SOL    HW130962   1.285   2.554   2.686
10021SOL    HW230963   1.302   2.656   2.812
10022SOL     OW30964   3.754   6.967   0.859
10022SOL    HW130965   3.844   6.922   0.865
10022SOL    HW230966   3.745   0.013   0.935
10023SOL     OW30967   2.237   5.309   5.309
10023SOL    HW130968   2.300   5.330   5.235
10023SOL    HW230969   2.172   5.384   5.321
10024SOL     OW30970   2.063   6.445   1.796
10024SOL    HW130971   2.100   6.536   1.775
10024SOL    HW230972   2.095   6.415   1.886
10025SOL     OW30973   1.974   1.943   1.284
10025SOL    HW130974   1.936   1.925   1.193
10025SOL    HW230975   2.035   2.022   1.280
10026SOL     OW30976   3.938   6.237   3.647
10026SOL    HW130977   3.974   6.196   3.563
10026SOL    HW230978   3.848   6.276   3.628
10027SOL     OW30979   1.093   4.238   5.003
10027SOL    HW130980   1.018   4.232   4.938
10027SOL    HW230981   1.169   4.289   4.962
10028SOL     OW30982   1.265   1.794   2.260
10028SOL    HW130983   1.326   1.751   2.193
10028SOL    HW230984   1.215   1.724   2.310
10029SOL     OW30985   2.490   1.648   4.399
10029SOL    HW130986   2.487   1.622   4.302
10029SOL    HW230987   2.454   1.573   4.455
10030SOL     OW30988   2.187   0.114   4.266
10030SOL    HW130989   2.275   0.083   4.303
10030SOL    HW230990   2.129   0.146   4.340
10031SOL     OW30991   6.224   4.619   3.897
10031SOL    HW130992   6.209   4.713   3.868
10031SOL    HW230993   6.259   4.618   3.991
10032SOL     OW30994   3.940   0.650   5.286
10032SOL    HW130995   4.031   0.656   5.246
10032SOL    HW230996   3.945   0.607   5.376
10033SOL     OW30997   4.421   1.802   4.192
10033SOL    HW130998   4.437   1.824   4.095
10033SOL    HW230999   4.346   1.737   4.199
10034SOL     OW31000   3.832   0.160   3.823
10034SOL    HW131001   3.825   0.110   3.909
10034SOL    HW231002   3.773   0.241   3.826
10035SOL     OW31003   0.104   4.548   2.680
10035SOL    HW131004   0.009   4.570   2.702
10035SOL    HW231005   0.164   4.598   2.743
10036SOL     OW31006   5.723   1.054   1.225
10036SOL    HW131007   5.777   0.972   1.208
10036SOL    HW231008   5.699   1.098   1.138
10037SOL     OW31009   5.982   1.627   1.015
10037SOL    HW131010   5.884   1.619   1.033
10037SOL    HW231011   6.013   1.545   0.966
10038SOL     OW31012   4.185   1.080   6.490
10038SOL    HW131013   4.238   1.156   6.528
10038SOL    HW231014   4.087   1.098   6.503
10039SOL     OW31015   3.856   0.402   5.205
10039SOL    HW131016   3.894   0.480   5.255
10039SOL    HW231017   3.894   0.399   5.113
10040SOL     OW31018   4.517   6.009   6.052
10040SOL    HW131019   4.601   5.957   6.069
10040SOL    HW231020   4.442   5.969   6.105
10041SOL     OW31021   4.344   5.882   6.242
10041SOL    HW131022   4.408   5.925   6.306
10041SOL    HW231023   4.373   5.788   6.225
10042SOL     OW31024   0.883   2.094   4.821
10042SOL    HW131025   0.792   2.063   4.793
10042SOL    HW231026   0.946   2.089   4.744
10043SOL     OW31027   0.148   2.428   4.744
10043SOL    HW131028   0.110   2.510   4.701
10043SOL    HW231029   0.233   2.402   4.698
10044SOL     OW31030   3.065   0.997   5.100
10044SOL    HW131031   3.117   0.938   5.039
10044SOL    HW231032   3.056   0.952   5.189
10045SOL     OW31033   4.719   6.837   3.758
10045SOL    HW131034   4.698   6.869   3.666
10045SOL    HW231035   4.699   6.909   3.824
10046SOL     OW31036   1.570   3.575   1.539
10046SOL    HW131037   1.620   3.502   1.493
10046SOL    HW231038   1.474   3.571   1.514
10047SOL     OW31039   6.969   3.650   5.164
10047SOL    HW131040   6.882   3.641   5.115
10047SOL    HW231041   6.984   3.570   5.221
10048SOL     OW31042   6.117   1.000   3.443
10048SOL    HW131043   6.187   0.941   3.404
10048SOL    HW231044   6.156   1.054   3.518
10049SOL     OW31045   0.122   0.451   6.709
10049SOL    HW131046   0.120   0.466   6.610
10049SOL    HW231047   0.177   0.522   6.752
10050SOL     OW31048   5.839   3.457   5.016
10050SOL    HW131049   5.794   3.483   4.930
10050SOL    HW231050   5.831   3.358   5.029
10051SOL     OW31051   5.108   2.663   4.973
10051SOL    HW131052   5.112   2.634   5.069
10051SOL    HW231053   5.194   2.641   4.928
10052SOL     OW31054   2.194   1.624   2.832
10052SOL    HW131055   2.248   1.692   2.783
10052SOL    HW231056   2.130   1.671   2.894
10053SOL     OW31057   3.537   5.779   2.838
10053SOL    HW131058   3.533   5.788   2.937
10053SOL    HW231059   3.453   5.737   2.804
10054SOL     OW31060   5.413   5.750   6.522
10054SOL    HW131061   5.396   5.724   6.427
10054SOL    HW231062   5.414   5.850   6.529
10055SOL     OW31063   5.513   1.991   4.737
10055SOL    HW131064   5.457   2.020   4.814
10055SOL    HW231065   5.454   1.969   4.659
10056SOL     OW31066   5.271   4.349   3.448
10056SOL    HW131067   5.248   4.292   3.369
10056SOL    HW231068   5.307   4.292   3.522
10057SOL     OW31069   4.359   1.808   5.295
10057SOL    HW131070   4.324   1.747   5.224
10057SOL    HW231071   4.379   1.755   5.378
10058SOL     OW31072   0.108   3.490   4.456
10058SOL    HW131073   0.046   3.422   4.415
10058SOL    HW231074   0.058   3.575   4.470
10059SOL     OW31075   6.463   0.420   1.440
10059SOL    HW131076   6.548   0.371   1.459
10059SOL    HW231077   6.446   0.486   1.514
10060SOL     OW31078   1.825   2.438   1.790
10060SOL    HW131079   1.852   2.342   1.789
10060SOL    HW231080   1.733   2.448   1.752
10061SOL     OW31081   4.497   0.776   3.792
10061SOL    HW131082   4.481   0.819   3.703
10061SOL    HW231083   4.583   0.726   3.789
10062SOL     OW31084   5.984   0.288   4.435
10062SOL    HW131085   6.068   0.337   4.415
10062SOL    HW231086   6.004   0.212   4.498
10063SOL     OW31087   2.450   1.113   4.185
10063SOL    HW131088   2.406   1.055   4.117
10063SOL    HW231089   2.531   1.156   4.145
10064SOL     OW31090   5.332   6.974   6.875
10064SOL    HW131091   5.267   0.019   6.834
10064SOL    HW231092   5.396   6.941   6.805
10065SOL     OW31093   3.060   0.609   2.384
10065SOL    HW131094   3.077   0.693   2.435
10065SOL    HW231095   2.963   0.604   2.359
10066SOL     OW31096   0.596   2.572   3.870
10066SOL    HW131097   0.546   2.653   3.899
10066SOL    HW231098   0.614   2.514   3.950
10067SOL     OW31099   0.103   3.964   5.066
10067SOL    HW131100   0.168   3.947   4.992
10067SOL    HW231101   0.013   3.981   5.028
10068SOL     OW31102   0.136   3.162   3.290
10068SOL    HW131103   0.109   3.067   3.301
10068SOL    HW231104   0.065   3.222   3.327
10069SOL     OW31105   2.330   4.994   2.407
10069SOL    HW131106   2.239   4.972   2.372
10069SOL    HW231107   2.380   5.048   2.340
10070SOL     OW31108   0.160   6.151   5.139
10070SOL    HW131109   0.120   6.140   5.048
10070SOL    HW231110   0.168   6.061   5.183
10071SOL     OW31111   6.437   6.172   4.767
10071SOL    HW131112   6.359   6.216   4.812
10071SOL    HW231113   6.409   6.141   4.677
10072SOL     OW31114   6.724   7.006   4.241
10072SOL    HW131115   6.773   6.941   4.298
10072SOL    HW231116   6.782   0.015   4.164
10073SOL     OW31117   6.239   4.855   5.038
10073SOL    HW131118   6.212   4.769   5.080
10073SOL    HW231119   6.172   4.882   4.969
10074SOL     OW31120   2.196   0.540   5.558
10074SOL    HW131121   2.168   0.574   5.468
10074SOL    HW231122   2.182   0.612   5.626
10075SOL     OW31123   1.907   2.549   2.794
10075SOL    HW131124   1.983   2.502   2.749
10075SOL    HW231125   1.839   2.576   2.725
10076SOL     OW31126   6.303   6.899   4.065
10076SOL    HW131127   6.391   6.913   4.021
10076SOL    HW231128   6.255   6.823   4.022
10077SOL     OW31129   4.443   2.811   6.296
10077SOL    HW131130   4.442   2.903   6.256
10077SOL    HW231131   4.375   2.754   6.248
10078SOL     OW31132   0.619   5.650   3.618
10078SOL    HW131133   0.672   5.565   3.624
10078SOL    HW231134   0.676   5.727   3.648
10079SOL     OW31135   5.569   3.025   3.695
10079SOL    HW131136   5.601   2.951   3.635
10079SOL    HW231137   5.647   3.082   3.722
10080SOL     OW31138   4.372   0.811   5.747
10080SOL    HW131139   4.285   0.855   5.767
10080SOL    HW231140   4.373   0.719   5.785
10081SOL     OW31141   6.836   1.148   0.803
10081SOL    HW131142   6.811   1.185   0.713
10081SOL    HW231143   6.762   1.166   0.867
10082SOL     OW31144   0.575   5.411   1.460
10082SOL    HW131145   0.530   5.324   1.438
10082SOL    HW231146   0.673   5.395   1.472
10083SOL     OW31147   3.560   0.207   3.245
10083SOL    HW131148   3.629   0.280   3.245
10083SOL    HW231149   3.605   0.118   3.238
10084SOL     OW31150   2.424   0.785   6.032
10084SOL    HW131151   2.500   0.722   6.014
10084SOL    HW231152   2.382   0.762   6.119
10085SOL     OW31153   2.478   5.707   0.889
10085SOL    HW131154   2.562   5.762   0.895
10085SOL    HW231155   2.441   5.712   0.797
10086SOL     OW31156   4.530   5.753   2.095
10086SOL    HW131157   4.612   5.791   2.052
10086SOL    HW231158   4.529   5.654   2.082
10087SOL     OW31159   0.014   6.489   4.328
10087SOL    HW131160   6.986   6.409   4.366
10087SOL    HW231161   7.004   6.571   4.377
10088SOL     OW31162   6.434   0.032   2.473
10088SOL    HW131163   6.459   6.968   2.423
10088SOL    HW231164   6.336   0.047   2.468
10089SOL     OW31165   2.990   1.890   3.011
10089SOL    HW131166   3.018   1.794   3.014
10089SOL    HW231167   3.012   1.934   3.098
10090SOL     OW31168   0.774   5.152   1.684
10090SOL    HW131169   0.844   5.093   1.726
10090SOL    HW231170   0.752   5.226   1.747
10091SOL     OW31171   0.135   4.945   6.671
10091SOL    HW131172   0.058   4.974   6.614
10091SOL    HW231173   0.122   4.977   6.765
10092SOL     OW31174   2.134   2.583   5.745
10092SOL    HW131175   2.170   2.653   5.807
10092SOL    HW231176   2.207   2.518   5.723
10093SOL     OW31177   5.436   3.425   5.732
10093SOL    HW131178   5.460   3.369   5.652
10093SOL    HW231179   5.406   3.365   5.806
10094SOL     OW31180   3.959   5.455   1.153
10094SOL    HW131181   4.016   5.493   1.079
10094SOL    HW231182   3.947   5.357   1.138
10095SOL     OW31183   5.761   1.992   4.585
10095SOL    HW131184   5.685   2.006   4.648
10095SOL    HW231185   5.759   2.062   4.514
10096SOL     OW31186   4.103   5.539   2.786
10096SOL    HW131187   4.172   5.482   2.741
10096SOL    HW231188   4.025   5.482   2.813
10097SOL     OW31189   1.009   1.860   0.290
10097SOL    HW131190   0.961   1.948   0.285
10097SOL    HW231191   0.942   1.786   0.281
10098SOL     OW31192   3.142   0.317   5.289
10098SOL    HW131193   3.060   0.354   5.332
10098SOL    HW231194   3.165   0.371   5.208
10099SOL     OW31195   0.377   4.693   1.080
10099SOL    HW131196   0.376   4.713   1.178
10099SOL    HW231197   0.463   4.725   1.040
10100SOL     OW31198   4.497   6.173   5.533
10100SOL    HW131199   4.446   6.221   5.462
10100SOL    HW231200   4.571   6.119   5.492
10101SOL     OW31201   6.569   3.509   2.066
10101SOL    HW131202   6.472   3.499   2.088
10101SOL    HW231203   6.616   3.422   2.083
10102SOL     OW31204   6.802   1.007   1.792
10102SOL    HW131205   6.764   0.915   1.777
10102SOL    HW231206   6.881   1.000   1.853
10103SOL     OW31207   3.669   0.697   5.649
10103SOL    HW131208   3.661   0.752   5.566
10103SOL    HW231209   3.586   0.708   5.704
10104SOL     OW31210   1.468   1.561   4.956
10104SOL    HW131211   1.387   1.615   4.934
10104SOL    HW231212   1.489   1.500   4.879
10105SOL     OW31213   1.443   0.864   6.977
10105SOL    HW131214   1.405   0.841   0.048
10105SOL    HW231215   1.478   0.781   6.934
10106SOL     OW31216   4.038   6.320   0.361
10106SOL    HW131217   4.037   6.226   0.394
10106SOL    HW231218   3.954   6.340   0.311
10107SOL     OW31219   5.702   1.532   5.732
10107SOL    HW131220   5.744   1.610   5.685
10107SOL    HW231221   5.603   1.544   5.735
10108SOL     OW31222   6.850   1.346   0.572
10108SOL    HW131223   6.936   1.391   0.550
10108SOL    HW231224   6.800   1.326   0.488
10109SOL     OW31225   5.933   1.095   0.292
10109SOL    HW131226   5.861   1.035   0.257
10109SOL    HW231227   6.021   1.046   0.290
10110SOL     OW31228   4.999   4.885   4.092
10110SOL    HW131229   5.001   4.849   4.185
10110SOL    HW231230   5.010   4.984   4.094
10111SOL     OW31231   5.800   3.637   3.979
10111SOL    HW131232   5.753   3.600   4.059
10111SOL    HW231233   5.851   3.564   3.934
10112SOL     OW31234   5.921   3.916   3.608
10112SOL    HW131235   5.985   3.970   3.554
10112SOL    HW231236   5.951   3.915   3.703
10113SOL     OW31237   4.439   6.921   6.643
10113SOL    HW131238   4.421   6.936   6.546
10113SOL    HW231239   4.367   6.863   6.681
10114SOL     OW31240   4.195   2.079   1.642
10114SOL    HW131241   4.231   2.045   1.556
10114SOL    HW231242   4.149   2.005   1.691
10115SOL     OW31243   3.763   0.851   5.152
10115SOL    HW131244   3.831   0.788   5.192
10115SOL    HW231245   3.708   0.802   5.085
10116SOL     OW31246   0.646   0.025   0.155
10116SOL    HW131247   0.637   0.061   0.062
10116SOL    HW231248   0.645   6.944   0.152
10117SOL     OW31249   6.758   6.296   6.106
10117SOL    HW131250   6.683   6.361   6.114
10117SOL    HW231251   6.815   6.321   6.027
10118SOL     OW31252   1.961   4.165   3.098
10118SOL    HW131253   1.870   4.157   3.138
10118SOL    HW231254   1.968   4.252   3.048
10119SOL     OW31255   6.693   5.347   4.695
10119SOL    HW131256   6.693   5.428   4.753
10119SOL    HW231257   6.698   5.265   4.752
10120SOL     OW31258   2.182   3.148   4.538
10120SOL    HW131259   2.172   3.121   4.634
10120SOL    HW231260   2.204   3.067   4.483
10121SOL     OW31261   5.819   3.983   6.635
10121SOL    HW131262   5.782   4.039   6.561
10121SOL    HW231263   5.913   4.013   6.656
10122SOL     OW31264   5.555   3.218   2.850
10122SOL    HW131265   5.522   3.236   2.758
10122SOL    HW231266   5.566   3.119   2.863
10123SOL     OW31267   5.927   5.496   1.380
10123SOL    HW131268   5.910   5.511   1.477
10123SOL    HW231269   5.839   5.479   1.334
10124SOL     OW31270   1.376   5.507   0.444
10124SOL    HW131271   1.310   5.432   0.438
10124SOL    HW231272   1.328   5.592   0.467
10125SOL     OW31273   1.754   1.480   1.833
10125SOL    HW131274   1.853   1.481   1.818
10125SOL    HW231275   1.732   1.414   1.905
10126SOL     OW31276   6.858   0.124   0.298
10126SOL    HW131277   6.759   0.129   0.289
10126SOL    HW231278   6.882   0.101   0.393
10127SOL     OW31279   2.957   4.043   6.994
10127SOL    HW131280   2.954   4.015   6.898
10127SOL    HW231281   2.884   4.108   7.012
10128SOL     OW31282   2.830   0.992   6.688
10128SOL    HW131283   2.888   1.037   6.620
10128SOL    HW231284   2.743   0.966   6.646
10129SOL     OW31285   6.427   1.647   3.231
10129SOL    HW131286   6.368   1.576   3.269
10129SOL    HW231287   6.423   1.728   3.289
10130SOL     OW31288   0.959   2.557   1.300
10130SOL    HW131289   0.995   2.472   1.262
10130SOL    HW231290   0.973   2.558   1.399
10131SOL     OW31291   1.714   6.661   3.985
10131SOL    HW131292   1.791   6.712   3.945
10131SOL    HW231293   1.705   6.685   4.081
10132SOL     OW31294   3.002   0.157   3.899
10132SOL    HW131295   3.045   0.153   3.809
10132SOL    HW231296   2.990   0.253   3.925
10133SOL     OW31297   4.332   6.268   0.497
10133SOL    HW131298   4.368   6.360   0.518
10133SOL    HW231299   4.398   6.219   0.441
10134SOL     OW31300   6.413   0.632   2.503
10134SOL    HW131301   6.335   0.687   2.475
10134SOL    HW231302   6.381   0.548   2.548
10135SOL     OW31303   4.878   3.582   3.842
10135SOL    HW131304   4.912   3.500   3.886
10135SOL    HW231305   4.898   3.579   3.744
10136SOL     OW31306   4.966   1.892   2.171
10136SOL    HW131307   4.990   1.830   2.096
10136SOL    HW231308   5.050   1.923   2.216
10137SOL     OW31309   0.110   3.887   4.490
10137SOL    HW131310   0.051   3.841   4.424
10137SOL    HW231311   0.182   3.937   4.441
10138SOL     OW31312   5.771   3.525   0.463
10138SOL    HW131313   5.866   3.547   0.485
10138SOL    HW231314   5.746   3.569   0.377
10139SOL     OW31315   2.899   3.418   3.281
10139SOL    HW131316   2.867   3.504   3.241
10139SOL    HW231317   2.845   3.396   3.362
10140SOL     OW31318   6.933   6.387   6.644
10140SOL    HW131319   6.960   6.392   6.741
10140SOL    HW231320   6.883   6.470   6.620
10141SOL     OW31321   4.517   1.060   5.812
10141SOL    HW131322   4.454   0.984   5.799
10141SOL    HW231323   4.580   1.065   5.735
10142SOL     OW31324   6.126   6.346   5.989
10142SOL    HW131325   6.027   6.334   5.978
10142SOL    HW231326   6.150   6.442   5.972
10143SOL     OW31327   5.861   1.897   0.417
10143SOL    HW131328   5.851   1.840   0.336
10143SOL    HW231329   5.955   1.891   0.450
10144SOL     OW31330   3.985   0.182   6.435
10144SOL    HW131331   3.932   0.187   6.350
10144SOL    HW231332   3.932   0.131   6.503
10145SOL     OW31333   3.119   5.255   3.262
10145SOL    HW131334   3.086   5.321   3.330
10145SOL    HW231335   3.046   5.189   3.242
10146SOL     OW31336   5.263   4.479   4.580
10146SOL    HW131337   5.276   4.571   4.543
10146SOL    HW231338   5.184   4.478   4.641
10147SOL     OW31339   5.219   4.390   6.204
10147SOL    HW131340   5.278   4.467   6.231
10147SOL    HW231341   5.124   4.414   6.222
10148SOL     OW31342   5.038   4.941   6.850
10148SOL    HW131343   5.124   4.890   6.855
10148SOL    HW231344   4.961   4.877   6.859
10149SOL     OW31345   5.436   3.577   1.438
10149SOL    HW131346   5.360   3.582   1.502
10149SOL    HW231347   5.455   3.481   1.416
10150SOL     OW31348   3.633   2.896   1.359
10150SOL    HW131349   3.698   2.961   1.396
10150SOL    HW231350   3.671   2.804   1.363
10151SOL     OW31351   0.799   6.196   6.905
10151SOL    HW131352   0.745   6.155   6.831
10151SOL    HW231353   0.792   6.295   6.900
10152SOL     OW31354   6.562   6.534   3.655
10152SOL    HW131355   6.533   6.628   3.637
10152SOL    HW231356   6.556   6.515   3.753
10153SOL     OW31357   4.143   6.030   3.536
10153SOL    HW131358   4.174   5.942   3.499
10153SOL    HW231359   4.128   6.094   3.461
10154SOL     OW31360   3.579   6.390   4.713
10154SOL    HW131361   3.630   6.430   4.637
10154SOL    HW231362   3.521   6.316   4.678
10155SOL     OW31363   4.941   2.166   6.522
10155SOL    HW131364   4.902   2.180   6.431
10155SOL    HW231365   5.002   2.242   6.543
10156SOL     OW31366   5.408   0.757   2.382
10156SOL    HW131367   5.475   0.715   2.321
10156SOL    HW231368   5.323   0.704   2.381
10157SOL     OW31369   0.214   1.901   0.021
10157SOL    HW131370   0.222   1.811   0.064
10157SOL    HW231371   0.183   1.968   0.089
10158SOL     OW31372   6.736   6.095   0.945
10158SOL    HW131373   6.833   6.122   0.944
10158SOL    HW231374   6.705   6.078   0.852
10159SOL     OW31375   2.986   2.332   1.372
10159SOL    HW131376   2.930   2.349   1.453
10159SOL    HW231377   3.022   2.239   1.376
10160SOL     OW31378   1.465   2.879   2.690
10160SOL    HW131379   1.396   2.808   2.699
10160SOL    HW231380   1.525   2.879   2.769
10161SOL     OW31381   3.535   3.913   0.615
10161SOL    HW131382   3.509   3.816   0.618
10161SOL    HW231383   3.621   3.926   0.664
10162SOL     OW31384   3.437   4.913   0.645
10162SOL    HW131385   3.522   4.952   0.609
10162SOL    HW231386   3.456   4.824   0.685
10163SOL     OW31387   0.101   3.798   0.235
10163SOL    HW131388   0.116   3.845   0.148
10163SOL    HW231389   0.183   3.747   0.260
10164SOL     OW31390   6.502   3.768   4.989
10164SOL    HW131391   6.477   3.855   4.947
10164SOL    HW231392   6.420   3.711   4.997
10165SOL     OW31393   6.838   1.644   3.257
10165SOL    HW131394   6.785   1.649   3.172
10165SOL    HW231395   6.931   1.675   3.239
10166SOL     OW31396   2.809   1.715   1.614
10166SOL    HW131397   2.877   1.762   1.557
10166SOL    HW231398   2.848   1.630   1.649
10167SOL     OW31399   0.755   5.327   0.308
10167SOL    HW131400   0.677   5.267   0.326
10167SOL    HW231401   0.839   5.274   0.313
10168SOL     OW31402   6.247   2.522   6.548
10168SOL    HW131403   6.284   2.437   6.584
10168SOL    HW231404   6.179   2.501   6.477
10169SOL     OW31405   0.532   4.375   3.562
10169SOL    HW131406   0.478   4.300   3.524
10169SOL    HW231407   0.475   4.430   3.623
10170SOL     OW31408   6.519   5.524   6.623
10170SOL    HW131409   6.612   5.526   6.585
10170SOL    HW231410   6.507   5.440   6.676
10171SOL     OW31411   1.081   2.835   5.270
10171SOL    HW131412   1.155   2.805   5.208
10171SOL    HW231413   0.996   2.789   5.244
10172SOL     OW31414   0.907   5.861   4.348
10172SOL    HW131415   0.924   5.765   4.371
10172SOL    HW231416   0.832   5.895   4.405
10173SOL     OW31417   1.616   2.025   0.695
10173SOL    HW131418   1.551   2.094   0.727
10173SOL    HW231419   1.569   1.960   0.635
10174SOL     OW31420   5.452   4.977   3.386
10174SOL    HW131421   5.414   5.026   3.308
10174SOL    HW231422   5.386   4.977   3.462
10175SOL     OW31423   5.125   2.803   3.007
10175SOL    HW131424   5.147   2.875   3.073
10175SOL    HW231425   5.030   2.774   3.018
10176SOL     OW31426   0.284   2.974   5.003
10176SOL    HW131427   0.198   2.983   4.953
10176SOL    HW231428   0.359   2.966   4.938
10177SOL     OW31429   1.702   0.761   1.062
10177SOL    HW131430   1.790   0.712   1.056
10177SOL    HW231431   1.657   0.760   0.973
10178SOL     OW31432   6.738   0.903   0.266
10178SOL    HW131433   6.771   0.847   0.190
10178SOL    HW231434   6.803   0.978   0.283
10179SOL     OW31435   0.689   2.378   6.701
10179SOL    HW131436   0.749   2.457   6.718
10179SOL    HW231437   0.594   2.409   6.695
10180SOL     OW31438   4.131   0.614   6.736
10180SOL    HW131439   4.192   0.576   6.666
10180SOL    HW231440   4.068   0.679   6.693
10181SOL     OW31441   0.069   2.642   1.617
10181SOL    HW131442   0.118   2.726   1.597
10181SOL    HW231443   0.120   2.587   1.683
10182SOL     OW31444   4.473   0.636   0.652
10182SOL    HW131445   4.568   0.628   0.620
10182SOL    HW231446   4.438   0.727   0.629
10183SOL     OW31447   5.719   2.292   5.764
10183SOL    HW131448   5.646   2.225   5.752
10183SOL    HW231449   5.679   2.382   5.783
10184SOL     OW31450   4.497   1.749   6.616
10184SOL    HW131451   4.424   1.693   6.576
10184SOL    HW231452   4.480   1.845   6.597
10185SOL     OW31453   6.162   6.346   2.859
10185SOL    HW131454   6.112   6.368   2.776
10185SOL    HW231455   6.259   6.333   2.837
10186SOL     OW31456   5.178   4.069   4.280
10186SOL    HW131457   5.081   4.058   4.260
10186SOL    HW231458   5.197   4.032   4.371
10187SOL     OW31459   1.073   4.152   6.692
10187SOL    HW131460   1.047   4.060   6.663
10187SOL    HW231461   1.126   4.196   6.619
10188SOL     OW31462   3.437   4.094   6.969
10188SOL    HW131463   3.537   4.094   6.968
10188SOL    HW231464   3.404   4.174   0.000
10189SOL     OW31465   0.642   1.306   6.539
10189SOL    HW131466   0.562   1.278   6.592
10189SOL    HW231467   0.676   1.228   6.486
10190SOL     OW31468   3.837   3.045   1.426
10190SOL    HW131469   3.930   3.028   1.460
10190SOL    HW231470   3.816   3.142   1.436
10191SOL     OW31471   4.557   5.042   6.406
10191SOL    HW131472   4.575   5.107   6.480
10191SOL    HW231473   4.559   5.091   6.318
10192SOL     OW31474   4.498   0.727   5.132
10192SOL    HW131475   4.463   0.635   5.112
10192SOL    HW231476   4.446   0.794   5.079
10193SOL     OW31477   3.456   3.403   2.466
10193SOL    HW131478   3.384   3.340   2.494
10193SOL    HW231479   3.546   3.363   2.487
10194SOL     OW31480   5.000   0.379   5.027
10194SOL    HW131481   4.951   0.411   4.945
10194SOL    HW231482   4.959   0.420   5.108
10195SOL     OW31483   6.658   6.354   0.341
10195SOL    HW131484   6.625   6.449   0.340
10195SOL    HW231485   6.748   6.350   0.296
10196SOL     OW31486   3.764   2.068   4.018
10196SOL    HW131487   3.795   2.119   4.099
10196SOL    HW231488   3.843   2.046   3.960
10197SOL     OW31489   5.387   1.711   4.381
10197SOL    HW131490   5.341   1.655   4.313
10197SOL    HW231491   5.483   1.722   4.356
10198SOL     OW31492   3.918   6.537   2.010
10198SOL    HW131493   3.828   6.503   2.038
10198SOL    HW231494   3.929   6.631   2.043
10199SOL     OW31495   1.013   2.260   0.971
10199SOL    HW131496   0.952   2.339   0.965
10199SOL    HW231497   0.971   2.182   0.924
10200SOL     OW31498   4.686   3.484   5.407
10200SOL    HW131499   4.607   3.426   5.424
10200SOL    HW231500   4.668   3.544   5.329
10201SOL     OW31501   0.872   5.701   0.057
10201SOL    HW131502   0.941   5.628   0.056
10201SOL    HW231503   0.915   5.787   0.085
10202SOL     OW31504   2.755   4.603   0.183
10202SOL    HW131505   2.759   4.674   0.113
10202SOL    HW231506   2.701   4.526   0.149
10203SOL     OW31507   6.843   2.712   2.459
10203SOL    HW131508   6.745   2.698   2.466
10203SOL    HW231509   6.881   2.649   2.392
10204SOL     OW31510   4.155   5.614   6.471
10204SOL    HW131511   4.173   5.629   6.568
10204SOL    HW231512   4.203   5.532   6.440
10205SOL     OW31513   3.073   1.056   1.985
10205SOL    HW131514   3.142   1.063   2.057
10205SOL    HW231515   3.018   1.140   1.983
10206SOL     OW31516   6.668   0.010   6.421
10206SOL    HW131517   6.629   0.100   6.439
10206SOL    HW231518   6.701   6.989   6.507
10207SOL     OW31519   1.336   2.128   0.277
10207SOL    HW131520   1.298   2.081   0.198
10207SOL    HW231521   1.436   2.132   0.269
10208SOL     OW31522   6.563   5.248   3.582
10208SOL    HW131523   6.604   5.328   3.627
10208SOL    HW231524   6.519   5.276   3.497
10209SOL     OW31525   0.251   0.117   6.481
10209SOL    HW131526   0.272   0.198   6.426
10209SOL    HW231527   0.193   0.055   6.428
10210SOL     OW31528   5.190   6.049   0.849
10210SOL    HW131529   5.131   5.984   0.898
10210SOL    HW231530   5.145   6.138   0.844
10211SOL     OW31531   4.026   6.055   5.075
10211SOL    HW131532   4.033   5.997   5.156
10211SOL    HW231533   3.976   6.008   5.003
10212SOL     OW31534   6.940   6.871   5.368
10212SOL    HW131535   6.956   6.821   5.283
10212SOL    HW231536   6.976   6.818   5.445
10213SOL     OW31537   5.416   3.215   2.636
10213SOL    HW131538   5.418   3.144   2.565
10213SOL    HW231539   5.339   3.276   2.621
10214SOL     OW31540   0.815   1.355   1.574
10214SOL    HW131541   0.746   1.288   1.604
10214SOL    HW231542   0.883   1.366   1.646
10215SOL     OW31543   3.236   3.000   3.334
10215SOL    HW131544   3.250   2.925   3.270
10215SOL    HW231545   3.202   3.080   3.285
10216SOL     OW31546   0.916   0.932   0.982
10216SOL    HW131547   0.877   0.840   0.978
10216SOL    HW231548   0.846   0.999   0.959
10217SOL     OW31549   2.030   2.565   3.637
10217SOL    HW131550   1.972   2.488   3.612
10217SOL    HW231551   2.126   2.539   3.629
10218SOL     OW31552   1.460   0.978   1.596
10218SOL    HW131553   1.367   0.949   1.618
10218SOL    HW231554   1.467   1.078   1.604
10219SOL     OW31555   0.607   2.594   2.807
10219SOL    HW131556   0.599   2.656   2.729
10219SOL    HW231557   0.598   2.645   2.892
10220SOL     OW31558   3.902   1.123   1.061
10220SOL    HW131559   3.818   1.076   1.085
10220SOL    HW231560   3.934   1.176   1.140
10221SOL     OW31561   1.794   3.732   4.497
10221SOL    HW131562   1.891   3.712   4.492
10221SOL    HW231563   1.781   3.827   4.526
10222SOL     OW31564   2.522   3.296   5.594
10222SOL    HW131565   2.483   3.388   5.584
10222SOL    HW231566   2.597   3.299   5.660
10223SOL     OW31567   2.288   5.495   0.313
10223SOL    HW131568   2.262   5.571   0.254
10223SOL    HW231569   2.223   5.487   0.388
10224SOL     OW31570   6.285   2.220   5.507
10224SOL    HW131571   6.249   2.312   5.490
10224SOL    HW231572   6.367   2.227   5.564
10225SOL     OW31573   2.240   6.190   6.274
10225SOL    HW131574   2.205   6.099   6.253
10225SOL    HW231575   2.245   6.201   6.374
10226SOL     OW31576   2.246   0.399   6.392
10226SOL    HW131577   2.295   0.336   6.333
10226SOL    HW231578   2.205   0.472   6.337
10227SOL     OW31579   4.799   4.284   0.787
10227SOL    HW131580   4.820   4.187   0.772
10227SOL    HW231581   4.747   4.319   0.709
10228SOL     OW31582   1.131   5.828   1.582
10228SOL    HW131583   1.047   5.882   1.580
10228SOL    HW231584   1.175   5.838   1.671
10229SOL     OW31585   1.747   1.892   4.518
10229SOL    HW131586   1.825   1.836   4.546
10229SOL    HW231587   1.697   1.846   4.445
10230SOL     OW31588   6.384   6.418   3.302
10230SOL    HW131589   6.378   6.350   3.375
10230SOL    HW231590   6.461   6.479   3.320
10231SOL     OW31591   6.205   5.347   5.646
10231SOL    HW131592   6.302   5.337   5.622
10231SOL    HW231593   6.152   5.277   5.599
10232SOL     OW31594   2.936   1.591   4.440
10232SOL    HW131595   2.856   1.638   4.477
10232SOL    HW231596   2.906   1.523   4.372
10233SOL     OW31597   4.544   3.844   5.287
10233SOL    HW131598   4.450   3.812   5.288
10233SOL    HW231599   4.601   3.778   5.238
10234SOL     OW31600   5.974   0.290   6.899
10234SOL    HW131601   5.942   0.255   6.987
10234SOL    HW231602   5.989   0.389   6.906
10235SOL     OW31603   3.412   2.307   0.542
10235SOL    HW131604   3.411   2.216   0.499
10235SOL    HW231605   3.489   2.359   0.506
10236SOL     OW31606   1.694   0.993   1.235
10236SOL    HW131607   1.711   0.904   1.192
10236SOL    HW231608   1.729   1.066   1.176
10237SOL     OW31609   0.076   4.355   6.934
10237SOL    HW131610   0.011   4.285   6.904
10237SOL    HW231611   0.044   4.445   6.904
10238SOL     OW31612   3.582   4.126   2.414
10238SOL    HW131613   3.622   4.209   2.452
10238SOL    HW231614   3.486   4.142   2.392
10239SOL     OW31615   2.250   4.057   5.986
10239SOL    HW131616   2.214   3.968   5.958
10239SOL    HW231617   2.349   4.050   6.000
10240SOL     OW31618   1.812   4.310   2.312
10240SOL    HW131619   1.730   4.278   2.359
10240SOL    HW231620   1.893   4.269   2.354
10241SOL     OW31621   6.526   6.604   2.923
10241SOL    HW131622   6.471   6.675   2.966
10241SOL    HW231623   6.591   6.646   2.860
10242SOL     OW31624   6.777   1.410   1.584
10242SOL    HW131625   6.768   1.499   1.539
10242SOL    HW231626   6.853   1.413   1.649
10243SOL     OW31627   1.239   4.869   1.985
10243SOL    HW131628   1.300   4.790   1.997
10243SOL    HW231629   1.175   4.850   1.910
10244SOL     OW31630   1.591   4.521   0.521
10244SOL    HW131631   1.494   4.498   0.517
10244SOL    HW231632   1.626   4.501   0.613
10245SOL     OW31633   3.046   4.875   0.533
10245SOL    HW131634   2.968   4.916   0.580
10245SOL    HW231635   3.088   4.806   0.591
10246SOL     OW31636   3.288   3.770   3.101
10246SOL    HW131637   3.247   3.729   3.020
10246SOL    HW231638   3.329   3.699   3.158
10247SOL     OW31639   6.960   4.756   5.797
10247SOL    HW131640   6.875   4.803   5.820
10247SOL    HW231641   0.011   4.824   5.774
10248SOL     OW31642   1.825   6.986   3.015
10248SOL    HW131643   1.884   6.905   3.017
10248SOL    HW231644   1.778   6.991   2.927
10249SOL     OW31645   2.701   6.909   0.005
10249SOL    HW131646   2.695   6.947   6.932
10249SOL    HW231647   2.796   6.912   0.036
10250SOL     OW31648   6.667   3.416   1.549
10250SOL    HW131649   6.650   3.457   1.639
10250SOL    HW231650   6.764   3.394   1.540
10251SOL     OW31651   2.423   1.258   5.042
10251SOL    HW131652   2.384   1.347   5.065
10251SOL    HW231653   2.438   1.253   4.943
10252SOL     OW31654   4.192   4.656   6.865
10252SOL    HW131655   4.153   4.711   6.791
10252SOL    HW231656   4.243   4.715   6.927
10253SOL     OW31657   3.033   6.146   0.454
10253SOL    HW131658   3.030   6.060   0.404
10253SOL    HW231659   3.002   6.221   0.395
10254SOL     OW31660   5.020   0.669   4.856
10254SOL    HW131661   4.967   0.585   4.848
10254SOL    HW231662   5.118   0.647   4.847
10255SOL     OW31663   1.548   6.306   1.253
10255SOL    HW131664   1.638   6.292   1.294
10255SOL    HW231665   1.506   6.218   1.232
10256SOL     OW31666   6.467   1.224   1.983
10256SOL    HW131667   6.541   1.245   1.920
10256SOL    HW231668   6.394   1.176   1.935
10257SOL     OW31669   2.783   4.854   4.941
10257SOL    HW131670   2.691   4.895   4.936
10257SOL    HW231671   2.779   4.771   4.997
10258SOL     OW31672   3.124   0.866   4.156
10258SOL    HW131673   3.026   0.885   4.155
10258SOL    HW231674   3.164   0.903   4.241
10259SOL     OW31675   0.931   4.411   3.407
10259SOL    HW131676   1.007   4.351   3.433
10259SOL    HW231677   0.964   4.505   3.401
10260SOL     OW31678   1.069   1.067   3.503
10260SOL    HW131679   1.160   1.051   3.541
10260SOL    HW231680   1.050   1.165   3.503
10261SOL     OW31681   0.005   5.845   3.830
10261SOL    HW131682   0.006   5.807   3.738
10261SOL    HW231683   0.094   5.826   3.874
10262SOL     OW31684   1.961   6.718   5.071
10262SOL    HW131685   1.910   6.699   4.987
10262SOL    HW231686   1.908   6.690   5.150
10263SOL     OW31687   5.621   0.854   6.133
10263SOL    HW131688   5.683   0.933   6.138
10263SOL    HW231689   5.539   0.879   6.083
10264SOL     OW31690   5.830   1.556   6.690
10264SOL    HW131691   5.769   1.479   6.671
10264SOL    HW231692   5.775   1.639   6.704
10265SOL     OW31693   2.535   2.516   2.376
10265SOL    HW131694   2.479   2.587   2.333
10265SOL    HW231695   2.588   2.470   2.305
10266SOL     OW31696   3.141   3.033   3.599
10266SOL    HW131697   3.230   3.030   3.644
10266SOL    HW231698   3.153   3.025   3.500
10267SOL     OW31699   6.255   2.257   6.657
10267SOL    HW131700   6.226   2.208   6.575
10267SOL    HW231701   6.355   2.258   6.662
10268SOL     OW31702   5.862   5.463   2.561
10268SOL    HW131703   5.788   5.469   2.494
10268SOL    HW231704   5.824   5.435   2.649
10269SOL     OW31705   0.591   3.432   0.028
10269SOL    HW131706   0.527   3.437   0.105
10269SOL    HW231707   0.685   3.425   0.063
10270SOL     OW31708   3.066   4.887   3.049
10270SOL    HW131709   3.079   4.867   3.146
10270SOL    HW231710   3.153   4.876   3.000
10271SOL     OW31711   3.483   2.496   6.469
10271SOL    HW131712   3.558   2.442   6.508
10271SOL    HW231713   3.512   2.537   6.383
10272SOL     OW31714   0.812   0.552   4.598
10272SOL    HW131715   0.820   0.472   4.538
10272SOL    HW231716   0.862   0.534   4.683
10273SOL     OW31717   3.208   5.694   2.765
10273SOL    HW131718   3.119   5.649   2.751
10273SOL    HW231719   3.235   5.741   2.681
10274SOL     OW31720   6.971   5.155   4.356
10274SOL    HW131721   0.045   5.178   4.330
10274SOL    HW231722   6.920   5.124   4.275
10275SOL     OW31723   0.569   6.942   1.612
10275SOL    HW131724   0.653   6.972   1.658
10275SOL    HW231725   0.554   6.998   1.531
10276SOL     OW31726   6.028   5.241   5.398
10276SOL    HW131727   6.029   5.192   5.310
10276SOL    HW231728   5.948   5.300   5.402
10277SOL     OW31729   2.171   5.220   3.573
10277SOL    HW131730   2.179   5.158   3.495
10277SOL    HW231731   2.221   5.182   3.651
10278SOL     OW31732   6.985   1.400   4.580
10278SOL    HW131733   6.901   1.400   4.634
10278SOL    HW231734   6.962   1.416   4.484
10279SOL     OW31735   2.826   4.809   3.593
10279SOL    HW131736   2.805   4.772   3.683
10279SOL    HW231737   2.913   4.858   3.596
10280SOL     OW31738   0.340   3.345   0.564
10280SOL    HW131739   0.410   3.296   0.617
10280SOL    HW231740   0.256   3.353   0.619
10281SOL     OW31741   5.784   1.214   2.388
10281SOL    HW131742   5.765   1.123   2.425
10281SOL    HW231743   5.822   1.272   2.460
10282SOL     OW31744   5.808   4.934   4.932
10282SOL    HW131745   5.763   4.878   5.001
10282SOL    HW231746   5.739   4.979   4.875
10283SOL     OW31747   0.778   3.678   0.831
10283SOL    HW131748   0.831   3.601   0.797
10283SOL    HW231749   0.735   3.654   0.918
10284SOL     OW31750   4.790   3.077   5.121
10284SOL    HW131751   4.823   3.167   5.149
10284SOL    HW231752   4.698   3.062   5.159
10285SOL     OW31753   5.307   0.765   2.060
10285SOL    HW131754   5.403   0.793   2.057
10285SOL    HW231755   5.296   0.692   2.127
10286SOL     OW31756   2.870   2.057   3.523
10286SOL    HW131757   2.907   2.011   3.604
10286SOL    HW231758   2.771   2.042   3.518
10287SOL     OW31759   2.518   6.656   1.021
10287SOL    HW131760   2.561   6.605   1.096
10287SOL    HW231761   2.534   6.609   0.935
10288SOL     OW31762   4.319   6.266   3.698
10288SOL    HW131763   4.288   6.219   3.781
10288SOL    HW231764   4.246   6.326   3.665
10289SOL     OW31765   1.403   0.060   1.478
10289SOL    HW131766   1.430   7.007   1.413
10289SOL    HW231767   1.393   0.021   1.569
10290SOL     OW31768   3.070   3.666   2.091
10290SOL    HW131769   3.011   3.731   2.139
10290SOL    HW231770   3.078   3.582   2.145
10291SOL     OW31771   3.873   1.427   3.000
10291SOL    HW131772   3.805   1.482   3.048
10291SOL    HW231773   3.865   1.442   2.902
10292SOL     OW31774   0.964   0.670   5.332
10292SOL    HW131775   0.997   0.591   5.383
10292SOL    HW231776   0.964   0.750   5.392
10293SOL     OW31777   2.202   4.411   3.510
10293SOL    HW131778   2.134   4.383   3.578
10293SOL    HW231779   2.226   4.332   3.452
10294SOL     OW31780   5.689   3.331   3.069
10294SOL    HW131781   5.654   3.293   2.984
10294SOL    HW231782   5.670   3.267   3.144
10295SOL     OW31783   5.922   5.109   6.196
10295SOL    HW131784   5.961   5.017   6.204
10295SOL    HW231785   5.948   5.163   6.277
10296SOL     OW31786   5.030   2.321   0.448
10296SOL    HW131787   5.080   2.408   0.452
10296SOL    HW231788   5.042   2.271   0.534
10297SOL     OW31789   2.216   7.013   6.898
10297SOL    HW131790   2.285   6.941   6.889
10297SOL    HW231791   2.259   0.082   6.883
10298SOL     OW31792   2.891   4.581   1.397
10298SOL    HW131793   2.947   4.535   1.466
10298SOL    HW231794   2.810   4.620   1.440
10299SOL     OW31795   4.842   5.082   2.946
10299SOL    HW131796   4.935   5.047   2.932
10299SOL    HW231797   4.786   5.012   2.990
10300SOL     OW31798   0.979   3.754   3.399
10300SOL    HW131799   0.953   3.695   3.476
10300SOL    HW231800   1.038   3.703   3.337
10301SOL     OW31801   5.498   2.490   4.331
10301SOL    HW131802   5.444   2.425   4.277
10301SOL    HW231803   5.446   2.575   4.342
10302SOL     OW31804   2.161   6.522   4.055
10302SOL    HW131805   2.205   6.482   3.975
10302SOL    HW231806   2.182   6.467   4.136
10303SOL     OW31807   1.769   6.346   2.559
10303SOL    HW131808   1.798   6.426   2.507
10303SOL    HW231809   1.787   6.360   2.656
10304SOL     OW31810   4.820   0.172   2.019
10304SOL    HW131811   4.758   0.199   2.092
10304SOL    HW231812   4.866   0.253   1.982
10305SOL     OW31813   0.922   4.270   0.117
10305SOL    HW131814   0.902   4.190   0.174
10305SOL    HW231815   0.962   4.239   0.031
10306SOL     OW31816   4.671   6.847   6.347
10306SOL    HW131817   4.705   6.797   6.426
10306SOL    HW231818   4.572   6.851   6.350
10307SOL     OW31819   2.281   1.969   5.430
10307SOL    HW131820   2.346   2.002   5.361
10307SOL    HW231821   2.233   2.047   5.470
10308SOL     OW31822   2.296   4.792   3.682
10308SOL    HW131823   2.351   4.710   3.695
10308SOL    HW231824   2.341   4.870   3.725
10309SOL     OW31825   6.279   1.789   4.719
10309SOL    HW131826   6.333   1.867   4.752
10309SOL    HW231827   6.186   1.795   4.757
10310SOL     OW31828   3.235   3.380   1.596
10310SOL    HW131829   3.268   3.345   1.509
10310SOL    HW231830   3.135   3.378   1.597
10311SOL     OW31831   0.702   6.446   0.404
10311SOL    HW131832   0.789   6.488   0.378
10311SOL    HW231833   0.629   6.482   0.346
10312SOL     OW31834   2.842   6.299   1.570
10312SOL    HW131835   2.889   6.215   1.597
10312SOL    HW231836   2.872   6.374   1.629
10313SOL     OW31837   5.039   0.010   1.649
10313SOL    HW131838   5.031   0.109   1.664
10313SOL    HW231839   5.033   6.982   1.736
10314SOL     OW31840   6.181   0.220   1.680
10314SOL    HW131841   6.266   0.168   1.676
10314SOL    HW231842   6.128   0.190   1.759
10315SOL     OW31843   5.447   5.996   4.577
10315SOL    HW131844   5.493   6.071   4.624
10315SOL    HW231845   5.349   6.004   4.590
10316SOL     OW31846   6.548   3.005   4.755
10316SOL    HW131847   6.523   2.971   4.846
10316SOL    HW231848   6.587   2.931   4.701
10317SOL     OW31849   3.102   6.108   5.209
10317SOL    HW131850   3.159   6.048   5.264
10317SOL    HW231851   3.008   6.106   5.242
10318SOL     OW31852   5.776   5.413   6.397
10318SOL    HW131853   5.790   5.314   6.392
10318SOL    HW231854   5.823   5.450   6.477
10319SOL     OW31855   1.365   2.120   5.644
10319SOL    HW131856   1.356   2.084   5.551
10319SOL    HW231857   1.445   2.179   5.649
10320SOL     OW31858   0.756   0.035   2.957
10320SOL    HW131859   0.704   7.009   2.884
10320SOL    HW231860   0.698   0.104   3.001
10321SOL     OW31861   4.429   0.446   2.399
10321SOL    HW131862   4.441   0.457   2.498
10321SOL    HW231863   4.345   0.395   2.381
10322SOL     OW31864   6.220   5.407   6.781
10322SOL    HW131865   6.179   5.324   6.742
10322SOL    HW231866   6.308   5.384   6.822
10323SOL     OW31867   6.307   3.763   5.677
10323SOL    HW131868   6.243   3.714   5.618
10323SOL    HW231869   6.395   3.771   5.631
10324SOL     OW31870   3.287   2.883   2.747
10324SOL    HW131871   3.193   2.918   2.745
10324SOL    HW231872   3.351   2.959   2.742
10325SOL     OW31873   0.382   3.505   2.956
10325SOL    HW131874   0.337   3.486   3.043
10325SOL    HW231875   0.454   3.573   2.970
10326SOL     OW31876   3.935   3.253   0.904
10326SOL    HW131877   3.845   3.272   0.866
10326SOL    HW231878   4.004   3.262   0.832
10327SOL     OW31879   2.596   2.425   1.857
10327SOL    HW131880   2.684   2.419   1.904
10327SOL    HW231881   2.529   2.366   1.903
10328SOL     OW31882   6.397   2.351   1.855
10328SOL    HW131883   6.452   2.434   1.848
10328SOL    HW231884   6.416   2.292   1.776
10329SOL     OW31885   3.464   0.291   2.974
10329SOL    HW131886   3.518   0.228   3.030
10329SOL    HW231887   3.499   0.291   2.880
10330SOL     OW31888   3.975   6.268   1.867
10330SOL    HW131889   4.070   6.262   1.835
10330SOL    HW231890   3.970   6.334   1.942
10331SOL     OW31891   6.783   1.053   4.275
10331SOL    HW131892   6.842   1.089   4.203
10331SOL    HW231893   6.835   0.987   4.330
10332SOL     OW31894   6.463   1.005   1.142
10332SOL    HW131895   6.491   1.101   1.148
10332SOL    HW231896   6.409   0.982   1.223
10333SOL     OW31897   6.598   4.776   4.638
10333SOL    HW131898   6.627   4.681   4.651
10333SOL    HW231899   6.678   4.837   4.647
10334SOL     OW31900   3.225   6.623   4.267
10334SOL    HW131901   3.127   6.635   4.278
10334SOL    HW231902   3.251   6.531   4.296
10335SOL     OW31903   2.925   4.434   6.289
10335SOL    HW131904   2.927   4.425   6.189
10335SOL    HW231905   2.951   4.527   6.314
10336SOL     OW31906   5.880   0.224   2.857
10336SOL    HW131907   5.906   0.303   2.802
10336SOL    HW231908   5.956   0.160   2.861
10337SOL     OW31909   6.837   6.615   5.538
10337SOL    HW131910   6.931   6.583   5.548
10337SOL    HW231911   6.794   6.567   5.461
10338SOL     OW31912   2.213   6.183   1.525
10338SOL    HW131913   2.262   6.183   1.437
10338SOL    HW231914   2.120   6.150   1.511
10339SOL     OW31915   2.583   5.544   0.237
10339SOL    HW131916   2.611   5.457   0.198
10339SOL    HW231917   2.519   5.528   0.313
10340SOL     OW31918   1.268   5.654   0.719
10340SOL    HW131919   1.200   5.613   0.658
10340SOL    HW231920   1.335   5.705   0.665
10341SOL     OW31921   2.075   3.577   2.223
10341SOL    HW131922   2.145   3.533   2.167
10341SOL    HW231923   1.985   3.545   2.195
10342SOL     OW31924   1.485   6.692   5.008
10342SOL    HW131925   1.513   6.609   4.959
10342SOL    HW231926   1.428   6.667   5.086
10343SOL     OW31927   2.387   5.114   0.728
10343SOL    HW131928   2.471   5.140   0.680
10343SOL    HW231929   2.309   5.157   0.683
10344SOL     OW31930   4.097   4.082   1.479
10344SOL    HW131931   4.178   4.133   1.510
10344SOL    HW231932   4.045   4.050   1.558
10345SOL     OW31933   1.773   0.785   0.047
10345SOL    HW131934   1.714   0.748   0.118
10345SOL    HW231935   1.764   0.885   0.045
10346SOL     OW31936   5.944   0.204   1.515
10346SOL    HW131937   6.037   0.187   1.548
10346SOL    HW231938   5.898   0.267   1.577
10347SOL     OW31939   5.365   2.676   2.380
10347SOL    HW131940   5.356   2.718   2.470
10347SOL    HW231941   5.276   2.643   2.349
10348SOL     OW31942   6.165   1.270   0.248
10348SOL    HW131943   6.120   1.355   0.274
10348SOL    HW231944   6.165   1.206   0.325
10349SOL     OW31945   6.448   1.540   1.472
10349SOL    HW131946   6.515   1.591   1.527
10349SOL    HW231947   6.429   1.452   1.515
10350SOL     OW31948   1.992   5.811   5.576
10350SOL    HW131949   1.980   5.744   5.649
10350SOL    HW231950   1.927   5.885   5.587
10351SOL     OW31951   4.815   4.847   6.669
10351SOL    HW131952   4.845   4.943   6.663
10351SOL    HW231953   4.719   4.841   6.642
10352SOL     OW31954   4.937   2.205   6.980
10352SOL    HW131955   4.985   2.131   6.934
10352SOL    HW231956   4.990   2.237   0.039
10353SOL     OW31957   6.792   2.891   5.706
10353SOL    HW131958   6.842   2.804   5.712
10353SOL    HW231959   6.854   2.963   5.674
10354SOL     OW31960   6.380   2.011   2.194
10354SOL    HW131961   6.307   1.944   2.208
10354SOL    HW231962   6.345   2.086   2.138
10355SOL     OW31963   1.947   0.140   1.603
10355SOL    HW131964   1.986   0.164   1.693
10355SOL    HW231965   1.848   0.145   1.607
10356SOL     OW31966   6.843   4.106   5.876
10356SOL    HW131967   6.934   4.125   5.840
10356SOL    HW231968   6.838   4.010   5.904
10357SOL     OW31969   3.225   2.999   6.758
10357SOL    HW131970   3.291   3.026   6.828
10357SOL    HW231971   3.219   3.070   6.688
10358SOL     OW31972   6.218   3.487   3.661
10358SOL    HW131973   6.278   3.457   3.735
10358SOL    HW231974   6.264   3.475   3.573
10359SOL     OW31975   5.787   1.693   1.639
10359SOL    HW131976   5.767   1.729   1.730
10359SOL    HW231977   5.886   1.685   1.628
10360SOL     OW31978   4.509   5.434   1.810
10360SOL    HW131979   4.526   5.336   1.812
10360SOL    HW231980   4.411   5.451   1.804
10361SOL     OW31981   2.930   1.533   3.018
10361SOL    HW131982   3.000   1.584   3.067
10361SOL    HW231983   2.949   1.435   3.023
10362SOL     OW31984   0.142   5.536   3.359
10362SOL    HW131985   0.167   5.583   3.444
10362SOL    HW231986   0.222   5.491   3.321
10363SOL     OW31987   4.586   2.647   0.959
10363SOL    HW131988   4.600   2.560   0.911
10363SOL    HW231989   4.628   2.721   0.906
10364SOL     OW31990   3.509   3.948   1.534
10364SOL    HW131991   3.420   3.939   1.580
10364SOL    HW231992   3.530   4.044   1.520
10365SOL     OW31993   4.943   4.431   5.790
10365SOL    HW131994   4.890   4.420   5.875
10365SOL    HW231995   5.033   4.390   5.802
10366SOL     OW31996   3.852   7.002   4.057
10366SOL    HW131997   3.775   6.938   4.055
10366SOL    HW231998   3.871   0.009   4.152
10367SOL     OW31999   0.123   2.258   2.175
10367SOL    HW132000   0.074   2.238   2.090
10367SOL    HW232001   0.142   2.356   2.179
10368SOL     OW32002   2.597   0.949   2.664
10368SOL    HW132003   2.542   1.018   2.710
10368SOL    HW232004   2.691   0.982   2.655
10369SOL     OW32005   2.409   0.890   5.306
10369SOL    HW132006   2.401   0.983   5.270
10369SOL    HW232007   2.405   0.824   5.231
10370SOL     OW32008   5.638   1.186   5.123
10370SOL    HW132009   5.714   1.121   5.117
10370SOL    HW232010   5.664   1.272   5.080
10371SOL     OW32011   2.111   6.094   4.569
10371SOL    HW132012   2.061   6.180   4.553
10371SOL    HW232013   2.165   6.072   4.488
10372SOL     OW32014   1.804   1.074   0.061
10372SOL    HW132015   1.897   1.083   0.024
10372SOL    HW232016   1.779   1.158   0.109
10373SOL     OW32017   1.772   6.666   5.303
10373SOL    HW132018   1.685   6.711   5.322
10373SOL    HW232019   1.755   6.580   5.256
10374SOL     OW32020   3.015   0.673   3.949
10374SOL    HW132021   2.920   0.701   3.935
10374SOL    HW232022   3.059   0.737   4.012
10375SOL     OW32023   2.336   1.782   6.318
10375SOL    HW132024   2.342   1.868   6.267
10375SOL    HW232025   2.418   1.727   6.300
10376SOL     OW32026   1.056   5.392   4.073
10376SOL    HW132027   1.108   5.322   4.122
10376SOL    HW232028   0.958   5.371   4.080
10377SOL     OW32029   6.597   0.781   3.420
10377SOL    HW132030   6.549   0.851   3.366
10377SOL    HW232031   6.613   0.701   3.363
10378SOL     OW32032   5.583   6.475   5.699
10378SOL    HW132033   5.596   6.451   5.795
10378SOL    HW232034   5.660   6.532   5.669
10379SOL     OW32035   3.635   6.843   4.009
10379SOL    HW132036   3.553   6.896   3.987
10379SOL    HW232037   3.652   6.776   3.936
10380SOL     OW32038   0.571   2.513   4.794
10380SOL    HW132039   0.529   2.436   4.840
10380SOL    HW232040   0.510   2.593   4.798
10381SOL     OW32041   4.170   4.444   0.824
10381SOL    HW132042   4.093   4.440   0.888
10381SOL    HW232043   4.175   4.358   0.773
10382SOL     OW32044   1.643   4.763   1.062
10382SOL    HW132045   1.650   4.834   1.132
10382SOL    HW232046   1.708   4.690   1.083
10383SOL     OW32047   0.856   3.991   1.159
10383SOL    HW132048   0.895   3.901   1.175
10383SOL    HW232049   0.912   4.041   1.093
10384SOL     OW32050   6.663   0.256   1.729
10384SOL    HW132051   6.575   0.212   1.715
10384SOL    HW232052   6.736   0.188   1.722
10385SOL     OW32053   3.865   5.989   6.012
10385SOL    HW132054   3.778   5.969   6.058
10385SOL    HW232055   3.890   6.085   6.029
10386SOL     OW32056   6.580   2.003   5.552
10386SOL    HW132057   6.532   2.031   5.635
10386SOL    HW232058   6.559   1.907   5.532
10387SOL     OW32059   4.174   1.726   2.722
10387SOL    HW132060   4.092   1.703   2.775
10387SOL    HW232061   4.252   1.676   2.758
10388SOL     OW32062   1.692   5.714   2.228
10388SOL    HW132063   1.786   5.683   2.216
10388SOL    HW232064   1.684   5.809   2.196
10389SOL     OW32065   6.572   5.857   1.352
10389SOL    HW132066   6.508   5.846   1.275
10389SOL    HW232067   6.601   5.767   1.383
10390SOL     OW32068   1.621   2.741   1.195
10390SOL    HW132069   1.710   2.707   1.225
10390SOL    HW232070   1.577   2.789   1.271
10391SOL     OW32071   0.233   6.568   3.967
10391SOL    HW132072   0.328   6.598   3.957
10391SOL    HW232073   0.227   6.470   3.950
10392SOL     OW32074   6.759   4.438   5.844
10392SOL    HW132075   6.786   4.342   5.840
10392SOL    HW232076   6.813   4.490   5.778
10393SOL     OW32077   2.513   2.347   3.007
10393SOL    HW132078   2.499   2.444   3.027
10393SOL    HW232079   2.434   2.295   3.041
10394SOL     OW32080   2.492   5.849   4.822
10394SOL    HW132081   2.528   5.868   4.731
10394SOL    HW232082   2.414   5.909   4.840
10395SOL     OW32083   6.837   0.939   3.336
10395SOL    HW132084   6.763   0.880   3.367
10395SOL    HW232085   6.889   0.893   3.264
10396SOL     OW32086   3.321   1.356   3.729
10396SOL    HW132087   3.296   1.284   3.794
10396SOL    HW232088   3.245   1.419   3.718
10397SOL     OW32089   2.348   1.430   4.514
10397SOL    HW132090   2.268   1.450   4.570
10397SOL    HW232091   2.328   1.352   4.454
10398SOL     OW32092   4.829   2.469   0.600
10398SOL    HW132093   4.868   2.402   0.537
10398SOL    HW232094   4.841   2.561   0.562
10399SOL     OW32095   4.770   1.830   4.110
10399SOL    HW132096   4.783   1.914   4.058
10399SOL    HW232097   4.676   1.827   4.145
10400SOL     OW32098   4.222   5.690   0.155
10400SOL    HW132099   4.147   5.723   0.212
10400SOL    HW232100   4.260   5.607   0.195
10401SOL     OW32101   0.262   6.901   2.523
10401SOL    HW132102   0.250   6.832   2.451
10401SOL    HW232103   0.199   6.881   2.598
10402SOL     OW32104   6.470   1.745   5.460
10402SOL    HW132105   6.479   1.648   5.486
10402SOL    HW232106   6.373   1.766   5.446
10403SOL     OW32107   4.535   1.761   3.061
10403SOL    HW132108   4.537   1.735   2.965
10403SOL    HW232109   4.490   1.689   3.114
10404SOL     OW32110   6.882   6.792   4.403
10404SOL    HW132111   6.924   6.841   4.479
10404SOL    HW232112   6.800   6.745   4.435
10405SOL     OW32113   1.132   6.008   4.294
10405SOL    HW132114   1.048   5.963   4.324
10405SOL    HW232115   1.117   6.048   4.203
10406SOL     OW32116   2.267   3.422   5.423
10406SOL    HW132117   2.181   3.469   5.402
10406SOL    HW232118   2.324   3.480   5.481
10407SOL     OW32119   2.524   0.564   6.938
10407SOL    HW132120   2.459   0.634   6.968
10407SOL    HW232121   2.593   0.605   6.879
10408SOL     OW32122   4.129   6.576   1.819
10408SOL    HW132123   4.217   6.560   1.865
10408SOL    HW232124   4.056   6.577   1.887
10409SOL     OW32125   0.342   3.685   0.261
10409SOL    HW132126   0.403   3.736   0.200
10409SOL    HW232127   0.394   3.654   0.341
10410SOL     OW32128   6.151   2.494   1.860
10410SOL    HW132129   6.174   2.566   1.793
10410SOL    HW232130   6.232   2.437   1.875
10411SOL     OW32131   3.290   6.364   4.328
10411SOL    HW132132   3.249   6.279   4.361
10411SOL    HW232133   3.366   6.343   4.266
10412SOL     OW32134   6.732   1.043   6.825
10412SOL    HW132135   6.668   1.120   6.824
10412SOL    HW232136   6.714   0.985   6.746
10413SOL     OW32137   6.722   2.348   1.930
10413SOL    HW132138   6.647   2.324   1.869
10413SOL    HW232139   6.690   2.352   2.024
10414SOL     OW32140   3.588   5.459   6.003
10414SOL    HW132141   3.537   5.519   5.943
10414SOL    HW232142   3.654   5.513   6.056
10415SOL     OW32143   1.943   4.379   4.228
10415SOL    HW132144   1.923   4.475   4.246
10415SOL    HW232145   1.931   4.360   4.130
10416SOL     OW32146   6.256   6.746   5.415
10416SOL    HW132147   6.326   6.717   5.481
10416SOL    HW232148   6.197   6.815   5.457
10417SOL     OW32149   4.778   5.443   4.904
10417SOL    HW132150   4.728   5.357   4.908
10417SOL    HW232151   4.738   5.508   4.968
10418SOL     OW32152   6.651   4.276   6.258
10418SOL    HW132153   6.573   4.264   6.319
10418SOL    HW232154   6.647   4.366   6.215
10419SOL     OW32155   3.292   6.978   5.657
10419SOL    HW132156   3.207   6.929   5.640
10419SOL    HW232157   3.305   0.029   5.587
10420SOL     OW32158   6.953   4.247   4.192
10420SOL    HW132159   6.864   4.259   4.236
10420SOL    HW232160   7.019   4.310   4.232
10421SOL     OW32161   1.740   3.903   4.224
10421SOL    HW132162   1.704   3.818   4.186
10421SOL    HW232163   1.768   3.888   4.319
10422SOL     OW32164   6.858   3.111   5.291
10422SOL    HW132165   6.777   3.074   5.337
10422SOL    HW232166   6.895   3.186   5.346
10423SOL     OW32167   5.314   5.456   5.593
10423SOL    HW132168   5.376   5.534   5.602
10423SOL    HW232169   5.264   5.442   5.678
10424SOL     OW32170   3.814   2.998   0.717
10424SOL    HW132171   3.808   2.986   0.617
10424SOL    HW232172   3.857   3.086   0.737
10425SOL     OW32173   0.733   6.144   2.446
10425SOL    HW132174   0.682   6.218   2.489
10425SOL    HW232175   0.813   6.122   2.502
10426SOL     OW32176   5.252   4.295   6.616
10426SOL    HW132177   5.308   4.238   6.677
10426SOL    HW232178   5.159   4.258   6.612
10427SOL     OW32179   4.987   0.625   0.355
10427SOL    HW132180   4.927   0.587   0.285
10427SOL    HW232181   5.035   0.551   0.401
10428SOL     OW32182   3.054   1.398   3.787
10428SOL    HW132183   3.060   1.425   3.883
10428SOL    HW232184   3.018   1.474   3.733
10429SOL     OW32185   0.370   3.975   3.019
10429SOL    HW132186   0.382   4.052   2.956
10429SOL    HW232187   0.338   3.895   2.968
10430SOL     OW32188   3.602   6.557   4.912
10430SOL    HW132189   3.684   6.506   4.937
10430SOL    HW232190   3.553   6.509   4.840
10431SOL     OW32191   2.508   6.784   4.228
10431SOL    HW132192   2.536   6.689   4.240
10431SOL    HW232193   2.419   6.799   4.272
10432SOL     OW32194   6.422   0.759   4.744
10432SOL    HW132195   6.434   0.687   4.813
10432SOL    HW232196   6.500   0.821   4.745
10433SOL     OW32197   0.586   6.689   2.540
10433SOL    HW132198   0.648   6.665   2.614
10433SOL    HW232199   0.516   6.752   2.573
10434SOL     OW32200   3.095   6.573   3.566
10434SOL    HW132201   3.065   6.664   3.593
10434SOL    HW232202   3.066   6.506   3.635
10435SOL     OW32203   1.987   2.089   5.170
10435SOL    HW132204   2.019   2.135   5.087
10435SOL    HW232205   2.003   2.147   5.249
10436SOL     OW32206   5.895   4.173   4.611
10436SOL    HW132207   5.979   4.215   4.575
10436SOL    HW232208   5.817   4.233   4.593
10437SOL     OW32209   5.945   4.802   6.177
10437SOL    HW132210   5.852   4.838   6.172
10437SOL    HW232211   5.949   4.714   6.129
10438SOL     OW32212   0.697   5.657   6.039
10438SOL    HW132213   0.792   5.675   6.016
10438SOL    HW232214   0.637   5.708   5.977
10439SOL     OW32215   4.699   0.933   4.669
10439SOL    HW132216   4.698   0.949   4.571
10439SOL    HW232217   4.626   0.985   4.712
10440SOL     OW32218   0.256   6.774   0.123
10440SOL    HW132219   0.323   6.788   0.196
10440SOL    HW232220   0.173   6.826   0.143
10441SOL     OW32221   3.279   1.509   1.234
10441SOL    HW132222   3.296   1.484   1.138
10441SOL    HW232223   3.187   1.545   1.244
10442SOL     OW32224   4.188   6.580   5.306
10442SOL    HW132225   4.260   6.635   5.348
10442SOL    HW232226   4.190   6.593   5.207
10443SOL     OW32227   5.240   2.474   3.394
10443SOL    HW132228   5.259   2.571   3.377
10443SOL    HW232229   5.216   2.429   3.308
10444SOL     OW32230   4.279   5.818   2.956
10444SOL    HW132231   4.355   5.816   2.892
10444SOL    HW232232   4.217   5.893   2.932
10445SOL     OW32233   0.487   3.981   3.275
10445SOL    HW132234   0.584   3.973   3.298
10445SOL    HW232235   0.473   3.959   3.179
10446SOL     OW32236   2.245   2.985   6.408
10446SOL    HW132237   2.283   3.078   6.399
10446SOL    HW232238   2.150   2.985   6.375
10447SOL     OW32239   0.113   0.275   2.923
10447SOL    HW132240   0.150   0.259   3.015
10447SOL    HW232241   0.029   0.221   2.912
10448SOL     OW32242   4.123   0.687   2.212
10448SOL    HW132243   4.207   0.673   2.264
10448SOL    HW232244   4.128   0.775   2.163
10449SOL     OW32245   1.921   5.683   6.227
10449SOL    HW132246   2.014   5.699   6.259
10449SOL    HW232247   1.922   5.660   6.130
10450SOL     OW32248   0.470   1.214   6.736
10450SOL    HW132249   0.403   1.153   6.780
10450SOL    HW232250   0.514   1.271   6.805
10451SOL     OW32251   2.197   5.774   2.232
10451SOL    HW132252   2.276   5.716   2.253
10451SOL    HW232253   2.228   5.862   2.197
10452SOL     OW32254   6.218   2.781   2.736
10452SOL    HW132255   6.301   2.812   2.783
10452SOL    HW232256   6.243   2.741   2.648
10453SOL     OW32257   5.910   6.435   1.742
10453SOL    HW132258   5.836   6.415   1.806
10453SOL    HW232259   5.872   6.447   1.650
10454SOL     OW32260   5.563   2.716   0.494
10454SOL    HW132261   5.501   2.780   0.448
10454SOL    HW232262   5.646   2.765   0.522
10455SOL     OW32263   0.158   6.335   3.856
10455SOL    HW132264   0.112   6.322   3.768
10455SOL    HW232265   0.211   6.253   3.878
10456SOL     OW32266   1.336   5.457   0.913
10456SOL    HW132267   1.341   5.536   0.852
10456SOL    HW232268   1.242   5.446   0.945
10457SOL     OW32269   3.508   2.726   0.341
10457SOL    HW132270   3.558   2.800   0.295
10457SOL    HW232271   3.494   2.651   0.278
10458SOL     OW32272   6.431   6.936   5.729
10458SOL    HW132273   6.351   6.971   5.778
10458SOL    HW232274   6.478   7.011   5.684
10459SOL     OW32275   4.314   5.974   1.363
10459SOL    HW132276   4.351   6.067   1.362
10459SOL    HW232277   4.223   5.974   1.322
10460SOL     OW32278   1.330   4.057   1.428
10460SOL    HW132279   1.426   4.033   1.415
10460SOL    HW232280   1.322   4.130   1.496
10461SOL     OW32281   5.837   5.223   5.114
10461SOL    HW132282   5.806   5.308   5.071
10461SOL    HW232283   5.929   5.201   5.081
10462SOL     OW32284   5.184   2.314   3.134
10462SOL    HW132285   5.191   2.289   3.037
10462SOL    HW232286   5.089   2.304   3.164
10463SOL     OW32287   4.533   2.618   6.028
10463SOL    HW132288   4.442   2.653   6.048
10463SOL    HW232289   4.602   2.672   6.077
10464SOL     OW32290   6.377   6.217   2.159
10464SOL    HW132291   6.415   6.215   2.251
10464SOL    HW232292   6.438   6.168   2.097
10465SOL     OW32293   6.101   5.694   0.912
10465SOL    HW132294   6.064   5.787   0.904
10465SOL    HW232295   6.159   5.675   0.833
10466SOL     OW32296   4.451   4.845   5.249
10466SOL    HW132297   4.443   4.849   5.348
10466SOL    HW232298   4.543   4.875   5.221
10467SOL     OW32299   2.207   1.875   0.123
10467SOL    HW132300   2.275   1.856   0.053
10467SOL    HW232301   2.243   1.849   0.213
10468SOL     OW32302   3.645   5.115   3.192
10468SOL    HW132303   3.669   5.137   3.287
10468SOL    HW232304   3.707   5.164   3.131
10469SOL     OW32305   4.039   3.702   5.612
10469SOL    HW132306   4.013   3.651   5.531
10469SOL    HW232307   3.958   3.745   5.652
10470SOL     OW32308   1.661   2.339   4.070
10470SOL    HW132309   1.629   2.297   4.155
10470SOL    HW232310   1.585   2.346   4.006
10471SOL     OW32311   2.562   0.494   0.656
10471SOL    HW132312   2.500   0.572   0.651
10471SOL    HW232313   2.564   0.459   0.750
10472SOL     OW32314   3.383   6.013   0.575
10472SOL    HW132315   3.480   6.014   0.552
10472SOL    HW232316   3.364   6.088   0.640
10473SOL     OW32317   6.387   0.406   6.863
10473SOL    HW132318   6.318   0.464   6.820
10473SOL    HW232319   6.439   0.461   6.929
10474SOL     OW32320   4.211   1.037   4.034
10474SOL    HW132321   4.218   1.023   3.935
10474SOL    HW232322   4.296   1.078   4.068
10475SOL     OW32323   4.417   6.610   1.259
10475SOL    HW132324   4.355   6.682   1.228
10475SOL    HW232325   4.372   6.557   1.331
10476SOL     OW32326   6.559   6.402   6.640
10476SOL    HW132327   6.554   6.425   6.543
10476SOL    HW232328   6.519   6.312   6.656
10477SOL     OW32329   6.522   1.011   4.282
10477SOL    HW132330   6.450   1.036   4.218
10477SOL    HW232331   6.610   1.008   4.234
10478SOL     OW32332   6.707   0.695   0.923
10478SOL    HW132333   6.698   0.759   0.847
10478SOL    HW232334   6.652   0.614   0.906
10479SOL     OW32335   6.718   1.382   2.853
10479SOL    HW132336   6.800   1.432   2.825
10479SOL    HW232337   6.650   1.387   2.780
10480SOL     OW32338   0.648   0.934   1.810
10480SOL    HW132339   0.595   1.005   1.855
10480SOL    HW232340   0.635   0.847   1.858
10481SOL     OW32341   1.889   6.435   3.989
10481SOL    HW132342   1.845   6.458   3.903
10481SOL    HW232343   1.979   6.477   3.994
10482SOL     OW32344   6.685   5.215   4.161
10482SOL    HW132345   6.652   5.236   4.069
10482SOL    HW232346   6.744   5.134   4.158
10483SOL     OW32347   6.444   5.044   0.306
10483SOL    HW132348   6.497   5.078   0.229
10483SOL    HW232349   6.490   4.966   0.347
10484SOL     OW32350   6.008   1.688   1.339
10484SOL    HW132351   6.099   1.660   1.308
10484SOL    HW232352   5.958   1.731   1.264
10485SOL     OW32353   3.393   4.142   0.492
10485SOL    HW132354   3.409   4.213   0.560
10485SOL    HW232355   3.402   4.052   0.535
10486SOL     OW32356   0.056   0.712   0.410
10486SOL    HW132357   0.076   0.668   0.322
10486SOL    HW232358   0.062   0.811   0.399
10487SOL     OW32359   4.602   0.730   1.092
10487SOL    HW132360   4.559   0.815   1.122
10487SOL    HW232361   4.668   0.749   1.019
10488SOL     OW32362   3.226   0.910   5.992
10488SOL    HW132363   3.184   0.953   5.912
10488SOL    HW232364   3.309   0.960   6.016
10489SOL     OW32365   0.751   6.941   5.511
10489SOL    HW132366   0.825   6.938   5.443
10489SOL    HW232367   0.789   6.972   5.598
10490SOL     OW32368   5.830   1.304   1.324
10490SOL    HW132369   5.790   1.370   1.260
10490SOL    HW232370   5.795   1.213   1.305
10491SOL     OW32371   1.784   2.396   6.941
10491SOL    HW132372   1.881   2.393   6.963
10491SOL    HW232373   1.731   2.418   0.004
10492SOL     OW32374   6.030   4.674   6.575
10492SOL    HW132375   5.964   4.736   6.532
10492SOL    HW232376   5.999   4.652   6.668
10493SOL     OW32377   3.547   0.707   1.975
10493SOL    HW132378   3.483   0.650   2.028
10493SOL    HW232379   3.633   0.715   2.025
10494SOL     OW32380   5.177   4.309   5.782
10494SOL    HW132381   5.206   4.235   5.722
10494SOL    HW232382   5.253   4.373   5.794
10495SOL     OW32383   1.559   0.063   0.502
10495SOL    HW132384   1.472   0.034   0.542
10495SOL    HW232385   1.632   0.003   0.535
10496SOL     OW32386   6.762   3.645   5.582
10496SOL    HW132387   6.775   3.711   5.508
10496SOL    HW232388   6.850   3.626   5.626
10497SOL     OW32389   2.088   6.292   2.501
10497SOL    HW132390   2.070   6.329   2.410
10497SOL    HW232391   2.111   6.366   2.564
10498SOL     OW32392   4.584   5.875   0.410
10498SOL    HW132393   4.610   5.938   0.483
10498SOL    HW232394   4.522   5.806   0.446
10499SOL     OW32395   3.979   6.788   1.670
10499SOL    HW132396   3.985   6.690   1.685
10499SOL    HW232397   4.071   6.826   1.662
10500SOL     OW32398   5.963   1.636   6.312
10500SOL    HW132399   5.970   1.663   6.216
10500SOL    HW232400   6.050   1.653   6.358
10501SOL     OW32401   2.288   5.413   2.285
10501SOL    HW132402   2.292   5.368   2.374
10501SOL    HW232403   2.313   5.509   2.296
10502SOL     OW32404   2.538   0.513   1.726
10502SOL    HW132405   2.620   0.565   1.704
10502SOL    HW232406   2.457   0.570   1.713
10503SOL     OW32407   4.085   2.589   0.749
10503SOL    HW132408   4.002   2.556   0.793
10503SOL    HW232409   4.107   2.530   0.672
10504SOL     OW32410   0.341   2.116   5.405
10504SOL    HW132411   0.345   2.040   5.470
10504SOL    HW232412   0.434   2.151   5.390
10505SOL     OW32413   5.534   5.243   0.546
10505SOL    HW132414   5.584   5.325   0.518
10505SOL    HW232415   5.445   5.241   0.500
10506SOL     OW32416   6.902   4.886   0.671
10506SOL    HW132417   6.970   4.910   0.740
10506SOL    HW232418   6.915   4.791   0.642
10507SOL     OW32419   2.295   6.977   0.234
10507SOL    HW132420   2.270   6.910   0.304
10507SOL    HW232421   2.213   0.007   0.205
10508SOL     OW32422   6.223   6.420   4.650
10508SOL    HW132423   6.156   6.397   4.579
10508SOL    HW232424   6.196   6.376   4.736
10509SOL     OW32425   0.692   5.413   4.361
10509SOL    HW132426   0.604   5.456   4.382
10509SOL    HW232427   0.713   5.345   4.431
10510SOL     OW32428   4.684   5.602   6.022
10510SOL    HW132429   4.618   5.598   6.097
10510SOL    HW232430   4.732   5.689   6.024
10511SOL     OW32431   3.728   0.958   2.081
10511SOL    HW132432   3.796   0.981   2.151
10511SOL    HW232433   3.682   0.873   2.106
10512SOL     OW32434   4.010   0.487   6.360
10512SOL    HW132435   3.968   0.420   6.421
10512SOL    HW232436   3.943   0.557   6.336
10513SOL     OW32437   5.787   2.527   4.586
10513SOL    HW132438   5.692   2.518   4.617
10513SOL    HW232439   5.791   2.586   4.505
10514SOL     OW32440   0.683   3.750   1.484
10514SOL    HW132441   0.650   3.773   1.392
10514SOL    HW232442   0.672   3.652   1.501
10515SOL     OW32443   0.966   3.463   3.495
10515SOL    HW132444   0.965   3.368   3.527
10515SOL    HW232445   0.950   3.465   3.396
10516SOL     OW32446   3.761   1.112   0.289
10516SOL    HW132447   3.718   1.125   0.378
10516SOL    HW232448   3.727   1.028   0.247
10517SOL     OW32449   1.061   2.791   2.624
10517SOL    HW132450   1.006   2.752   2.698
10517SOL    HW232451   1.156   2.762   2.633
10518SOL     OW32452   0.775   6.022   6.331
10518SOL    HW132453   0.752   5.943   6.389
10518SOL    HW232454   0.761   6.106   6.383
10519SOL     OW32455   2.677   3.810   6.837
10519SOL    HW132456   2.755   3.773   6.787
10519SOL    HW232457   2.666   3.906   6.815
10520SOL     OW32458   0.671   2.552   6.092
10520SOL    HW132459   0.742   2.482   6.088
10520SOL    HW232460   0.712   2.640   6.117
10521SOL     OW32461   6.146   5.991   2.145
10521SOL    HW132462   6.232   6.039   2.162
10521SOL    HW232463   6.070   6.053   2.163
10522SOL     OW32464   0.581   0.684   5.396
10522SOL    HW132465   0.607   0.692   5.300
10522SOL    HW232466   0.636   0.613   5.440
10523SOL     OW32467   0.492   4.815   3.620
10523SOL    HW132468   0.512   4.804   3.717
10523SOL    HW232469   0.557   4.761   3.566
10524SOL     OW32470   1.717   0.395   4.700
10524SOL    HW132471   1.664   0.476   4.676
10524SOL    HW232472   1.785   0.418   4.770
10525SOL     OW32473   3.604   6.689   6.734
10525SOL    HW132474   3.639   6.774   6.697
10525SOL    HW232475   3.631   6.680   6.830
10526SOL     OW32476   1.550   0.376   3.736
10526SOL    HW132477   1.491   0.371   3.655
10526SOL    HW232478   1.556   0.286   3.779
10527SOL     OW32479   0.244   1.578   5.412
10527SOL    HW132480   0.240   1.489   5.458
10527SOL    HW232481   0.151   1.612   5.397
10528SOL     OW32482   1.934   3.238   5.911
10528SOL    HW132483   1.976   3.147   5.906
10528SOL    HW232484   1.964   3.283   5.996
10529SOL     OW32485   3.267   5.728   3.688
10529SOL    HW132486   3.305   5.811   3.728
10529SOL    HW232487   3.309   5.648   3.731
10530SOL     OW32488   1.842   7.007   6.642
10530SOL    HW132489   1.911   6.950   6.685
10530SOL    HW232490   1.751   6.977   6.671
10531SOL     OW32491   1.407   2.588   4.443
10531SOL    HW132492   1.474   2.661   4.456
10531SOL    HW232493   1.375   2.555   4.533
10532SOL     OW32494   1.105   6.146   5.809
10532SOL    HW132495   1.029   6.180   5.753
10532SOL    HW232496   1.070   6.110   5.896
10533SOL     OW32497   3.292   0.149   4.484
10533SOL    HW132498   3.268   0.246   4.474
10533SOL    HW232499   3.302   0.108   4.393
10534SOL     OW32500   6.625   6.119   1.431
10534SOL    HW132501   6.716   6.142   1.397
10534SOL    HW232502   6.601   6.026   1.403
10535SOL     OW32503   1.334   2.116   1.665
10535SOL    HW132504   1.363   2.022   1.647
10535SOL    HW232505   1.394   2.157   1.733
10536SOL     OW32506   4.323   0.109   3.671
10536SOL    HW132507   4.238   0.150   3.704
10536SOL    HW232508   4.366   0.169   3.605
10537SOL     OW32509   3.824   5.847   4.036
10537SOL    HW132510   3.858   5.767   3.986
10537SOL    HW232511   3.792   5.916   3.971
10538SOL     OW32512   5.093   2.106   1.077
10538SOL    HW132513   5.084   2.205   1.062
10538SOL    HW232514   5.157   2.067   1.011
10539SOL     OW32515   0.642   4.459   0.079
10539SOL    HW132516   0.573   4.529   0.098
10539SOL    HW232517   0.682   4.474   7.008
10540SOL     OW32518   1.515   1.864   5.138
10540SOL    HW132519   1.558   1.779   5.167
10540SOL    HW232520   1.584   1.934   5.123
10541SOL     OW32521   3.306   4.153   2.302
10541SOL    HW132522   3.242   4.227   2.324
10541SOL    HW232523   3.270   4.066   2.338
10542SOL     OW32524   6.795   0.061   5.431
10542SOL    HW132525   6.842   6.993   5.413
10542SOL    HW232526   6.824   0.098   5.519
10543SOL     OW32527   0.372   0.943   4.352
10543SOL    HW132528   0.317   1.022   4.380
10543SOL    HW232529   0.468   0.972   4.343
10544SOL     OW32530   2.497   6.458   1.880
10544SOL    HW132531   2.428   6.486   1.947
10544SOL    HW232532   2.533   6.368   1.905
10545SOL     OW32533   6.842   2.022   2.121
10545SOL    HW132534   6.888   2.006   2.209
10545SOL    HW232535   6.902   2.075   2.062
10546SOL     OW32536   2.050   0.649   0.306
10546SOL    HW132537   1.990   0.620   0.381
10546SOL    HW232538   2.074   0.569   0.251
10547SOL     OW32539   5.697   3.011   2.566
10547SOL    HW132540   5.624   2.996   2.499
10547SOL    HW232541   5.782   3.034   2.518
10548SOL     OW32542   5.414   4.172   4.143
10548SOL    HW132543   5.478   4.192   4.217
10548SOL    HW232544   5.326   4.145   4.183
10549SOL     OW32545   0.838   0.025   2.134
10549SOL    HW132546   0.911   0.068   2.082
10549SOL    HW232547   0.786   6.982   2.075
10550SOL     OW32548   4.426   5.990   3.695
10550SOL    HW132549   4.369   6.069   3.675
10550SOL    HW232550   4.522   6.013   3.682
10551SOL     OW32551   1.122   2.313   6.685
10551SOL    HW132552   1.169   2.389   6.729
10551SOL    HW232553   1.028   2.339   6.665
10552SOL     OW32554   3.176   0.761   6.224
10552SOL    HW132555   3.183   0.823   6.301
10552SOL    HW232556   3.207   0.807   6.141
10553SOL     OW32557   0.474   4.573   2.100
10553SOL    HW132558   0.443   4.667   2.117
10553SOL    HW232559   0.460   4.518   2.183
10554SOL     OW32560   5.325   5.067   0.184
10554SOL    HW132561   5.402   5.065   0.247
10554SOL    HW232562   5.275   4.980   0.190
10555SOL     OW32563   1.832   2.890   0.437
10555SOL    HW132564   1.760   2.903   0.504
10555SOL    HW232565   1.921   2.894   0.483
10556SOL     OW32566   1.784   1.958   5.788
10556SOL    HW132567   1.852   1.886   5.778
10556SOL    HW232568   1.694   1.923   5.764
10557SOL     OW32569   2.264   2.758   3.128
10557SOL    HW132570   2.245   2.688   3.197
10557SOL    HW232571   2.184   2.818   3.119
10558SOL     OW32572   3.693   0.929   3.045
10558SOL    HW132573   3.747   0.858   3.092
10558SOL    HW232574   3.734   1.018   3.062
10559SOL     OW32575   4.890   0.788   1.278
10559SOL    HW132576   4.898   0.755   1.184
10559SOL    HW232577   4.798   0.770   1.312
10560SOL     OW32578   3.975   6.558   2.941
10560SOL    HW132579   3.924   6.617   3.003
10560SOL    HW232580   3.914   6.525   2.869
10561SOL     OW32581   3.205   4.012   1.288
10561SOL    HW132582   3.172   4.022   1.382
10561SOL    HW232583   3.233   3.917   1.273
10562SOL     OW32584   4.823   4.775   0.219
10562SOL    HW132585   4.890   4.771   0.145
10562SOL    HW232586   4.731   4.762   0.181
10563SOL     OW32587   0.445   1.681   3.405
10563SOL    HW132588   0.419   1.699   3.500
10563SOL    HW232589   0.540   1.707   3.391
10564SOL     OW32590   5.850   6.240   2.231
10564SOL    HW132591   5.861   6.217   2.135
10564SOL    HW232592   5.753   6.240   2.255
10565SOL     OW32593   0.895   0.332   5.904
10565SOL    HW132594   0.836   0.282   5.967
10565SOL    HW232595   0.848   0.415   5.873
10566SOL     OW32596   3.315   1.739   6.513
10566SOL    HW132597   3.375   1.732   6.592
10566SOL    HW232598   3.250   1.663   6.514
10567SOL     OW32599   3.419   2.127   4.360
10567SOL    HW132600   3.392   2.128   4.457
10567SOL    HW232601   3.380   2.046   4.316
10568SOL     OW32602   6.541   3.152   1.637
10568SOL    HW132603   6.563   3.243   1.602
10568SOL    HW232604   6.513   3.159   1.733
10569SOL     OW32605   5.456   2.115   1.775
10569SOL    HW132606   5.525   2.187   1.768
10569SOL    HW232607   5.446   2.069   1.687
10570SOL     OW32608   1.472   5.361   3.734
10570SOL    HW132609   1.382   5.317   3.735
10570SOL    HW232610   1.521   5.334   3.652
10571SOL     OW32611   0.029   4.202   5.747
10571SOL    HW132612   0.114   4.201   5.799
10571SOL    HW232613   0.039   4.261   5.667
10572SOL     OW32614   0.358   4.120   3.503
10572SOL    HW132615   0.425   4.056   3.467
10572SOL    HW232616   0.267   4.098   3.468
10573SOL     OW32617   4.563   0.149   5.137
10573SOL    HW132618   4.662   0.140   5.132
10573SOL    HW232619   4.523   0.131   5.047
10574SOL     OW32620   1.846   1.264   4.245
10574SOL    HW132621   1.773   1.281   4.311
10574SOL    HW232622   1.822   1.307   4.158
10575SOL     OW32623   0.264   1.039   3.218
10575SOL    HW132624   0.279   1.098   3.139
10575SOL    HW232625   0.275   0.944   3.191
10576SOL     OW32626   0.169   6.387   4.804
10576SOL    HW132627   0.206   6.386   4.711
10576SOL    HW232628   0.126   6.299   4.824
10577SOL     OW32629   1.761   4.268   0.071
10577SOL    HW132630   1.717   4.273   7.000
10577SOL    HW232631   1.706   4.318   0.137
10578SOL     OW32632   5.142   1.703   2.334
10578SOL    HW132633   5.127   1.794   2.295
10578SOL    HW232634   5.219   1.707   2.398
10579SOL     OW32635   4.236   2.761   1.500
10579SOL    HW132636   4.275   2.736   1.411
10579SOL    HW232637   4.306   2.752   1.571
10580SOL     OW32638   6.768   0.401   6.853
10580SOL    HW132639   6.713   0.447   6.923
10580SOL    HW232640   6.756   0.302   6.862
10581SOL     OW32641   6.716   6.829   3.151
10581SOL    HW132642   6.692   6.731   3.149
10581SOL    HW232643   6.778   6.847   3.226
10582SOL     OW32644   5.592   5.154   6.132
10582SOL    HW132645   5.548   5.244   6.134
10582SOL    HW232646   5.683   5.160   6.174
10583SOL     OW32647   3.875   1.196   4.288
10583SOL    HW132648   3.812   1.274   4.292
10583SOL    HW232649   3.935   1.205   4.208
10584SOL     OW32650   6.417   6.918   1.534
10584SOL    HW132651   6.512   6.920   1.565
10584SOL    HW232652   6.414   6.935   1.436
10585SOL     OW32653   1.783   2.461   5.484
10585SOL    HW132654   1.877   2.484   5.457
10585SOL    HW232655   1.741   2.541   5.528
10586SOL     OW32656   6.330   5.716   5.089
10586SOL    HW132657   6.293   5.808   5.100
10586SOL    HW232658   6.311   5.662   5.171
10587SOL     OW32659   6.106   4.681   0.422
10587SOL    HW132660   6.183   4.628   0.387
10587SOL    HW232661   6.068   4.636   0.502
10588SOL     OW32662   1.002   3.011   4.185
10588SOL    HW132663   0.929   2.942   4.185
10588SOL    HW232664   1.071   2.986   4.118
10589SOL     OW32665   5.783   1.598   4.555
10589SOL    HW132666   5.774   1.499   4.547
10589SOL    HW232667   5.709   1.633   4.613
10590SOL     OW32668   0.721   0.338   1.972
10590SOL    HW132669   0.678   0.329   2.062
10590SOL    HW232670   0.660   0.301   1.903
10591SOL     OW32671   1.664   2.044   0.067
10591SOL    HW132672   1.679   1.949   0.094
10591SOL    HW232673   1.666   2.103   0.147
10592SOL     OW32674   5.267   3.900   2.096
10592SOL    HW132675   5.253   3.808   2.134
10592SOL    HW232676   5.363   3.912   2.071
10593SOL     OW32677   2.428   5.733   0.597
10593SOL    HW132678   2.432   5.788   0.513
10593SOL    HW232679   2.419   5.636   0.573
10594SOL     OW32680   5.186   0.600   2.335
10594SOL    HW132681   5.090   0.579   2.319
10594SOL    HW232682   5.231   0.520   2.375
10595SOL     OW32683   4.851   6.209   6.366
10595SOL    HW132684   4.822   6.183   6.274
10595SOL    HW232685   4.945   6.178   6.380
10596SOL     OW32686   4.092   6.557   0.031
10596SOL    HW132687   4.110   6.581   0.127
10596SOL    HW232688   4.051   6.635   7.004
10597SOL     OW32689   3.591   0.842   5.375
10597SOL    HW132690   3.638   0.911   5.320
10597SOL    HW232691   3.586   0.757   5.323
10598SOL     OW32692   2.652   2.982   0.337
10598SOL    HW132693   2.737   3.007   0.385
10598SOL    HW232694   2.586   2.947   0.403
10599SOL     OW32695   4.992   3.227   5.565
10599SOL    HW132696   4.929   3.173   5.510
10599SOL    HW232697   4.975   3.325   5.551
10600SOL     OW32698   2.174   3.128   0.265
10600SOL    HW132699   2.185   3.095   0.171
10600SOL    HW232700   2.115   3.210   0.265
10601SOL     OW32701   2.243   4.792   5.188
10601SOL    HW132702   2.287   4.848   5.117
10601SOL    HW232703   2.157   4.756   5.153
10602SOL     OW32704   3.483   1.295   1.957
10602SOL    HW132705   3.548   1.356   1.911
10602SOL    HW232706   3.394   1.301   1.913
10603SOL     OW32707   3.471   6.055   3.026
10603SOL    HW132708   3.505   6.008   3.107
10603SOL    HW232709   3.399   5.999   2.983
10604SOL     OW32710   6.109   5.698   5.460
10604SOL    HW132711   6.053   5.642   5.398
10604SOL    HW232712   6.056   5.722   5.541
10605SOL     OW32713   1.228   6.263   0.541
10605SOL    HW132714   1.325   6.276   0.562
10605SOL    HW232715   1.185   6.352   0.523
10606SOL     OW32716   6.608   0.542   2.331
10606SOL    HW132717   6.585   0.445   2.324
10606SOL    HW232718   6.538   0.590   2.384
10607SOL     OW32719   3.889   4.785   5.242
10607SOL    HW132720   3.912   4.826   5.330
10607SOL    HW232721   3.862   4.857   5.177
10608SOL     OW32722   5.158   2.325   5.938
10608SOL    HW132723   5.239   2.276   5.905
10608SOL    HW232724   5.131   2.289   6.027
10609SOL     OW32725   2.644   6.639   0.245
10609SOL    HW132726   2.604   6.552   0.274
10609SOL    HW232727   2.601   6.714   0.294
10610SOL     OW32728   0.654   2.422   5.163
10610SOL    HW132729   0.653   2.349   5.232
10610SOL    HW232730   0.665   2.511   5.209
10611SOL     OW32731   3.684   4.343   6.160
10611SOL    HW132732   3.783   4.361   6.160
10611SOL    HW232733   3.666   4.253   6.121
10612SOL     OW32734   3.226   0.869   4.628
10612SOL    HW132735   3.150   0.893   4.567
10612SOL    HW232736   3.307   0.849   4.574
10613SOL     OW32737   6.165   6.698   4.708
10613SOL    HW132738   6.211   6.610   4.696
10613SOL    HW232739   6.182   6.732   4.800
10614SOL     OW32740   6.232   2.189   4.579
10614SOL    HW132741   6.245   2.104   4.527
10614SOL    HW232742   6.139   2.223   4.563
10615SOL     OW32743   3.768   6.882   5.715
10615SOL    HW132744   3.788   6.827   5.796
10615SOL    HW232745   3.729   6.823   5.643
10616SOL     OW32746   3.156   6.347   1.298
10616SOL    HW132747   3.142   6.417   1.228
10616SOL    HW232748   3.149   6.256   1.256
10617SOL     OW32749   2.500   3.010   1.416
10617SOL    HW132750   2.458   3.074   1.352
10617SOL    HW232751   2.599   3.023   1.416
10618SOL     OW32752   0.331   3.745   6.362
10618SOL    HW132753   0.384   3.768   6.280
10618SOL    HW232754   0.238   3.722   6.336
10619SOL     OW32755   0.056   4.169   2.392
10619SOL    HW132756   7.013   4.106   2.345
10619SOL    HW232757   0.069   4.251   2.336
10620SOL     OW32758   1.591   5.395   5.002
10620SOL    HW132759   1.559   5.489   5.015
10620SOL    HW232760   1.610   5.380   4.905
10621SOL     OW32761   0.871   5.927   1.593
10621SOL    HW132762   0.865   6.014   1.544
10621SOL    HW232763   0.847   5.941   1.689
10622SOL     OW32764   5.453   2.020   1.228
10622SOL    HW132765   5.400   2.031   1.144
10622SOL    HW232766   5.550   2.027   1.208
10623SOL     OW32767   6.665   4.549   5.025
10623SOL    HW132768   6.721   4.521   4.947
10623SOL    HW232769   6.615   4.632   5.003
10624SOL     OW32770   0.420   2.745   4.786
10624SOL    HW132771   0.336   2.721   4.834
10624SOL    HW232772   0.404   2.823   4.726
10625SOL     OW32773   0.368   4.445   0.212
10625SOL    HW132774   0.463   4.422   0.230
10625SOL    HW232775   0.329   4.378   0.148
10626SOL     OW32776   2.591   3.156   0.604
10626SOL    HW132777   2.552   3.065   0.617
10626SOL    HW232778   2.542   3.204   0.532
10627SOL     OW32779   5.403   0.485   0.772
10627SOL    HW132780   5.380   0.401   0.820
10627SOL    HW232781   5.358   0.486   0.683
10628SOL     OW32782   4.887   6.378   0.248
10628SOL    HW132783   4.978   6.377   0.208
10628SOL    HW232784   4.824   6.329   0.188
10629SOL     OW32785   2.567   5.039   5.235
10629SOL    HW132786   2.620   4.955   5.243
10629SOL    HW232787   2.507   5.033   5.156
10630SOL     OW32788   6.524   1.036   3.322
10630SOL    HW132789   6.609   1.087   3.311
10630SOL    HW232790   6.487   1.053   3.413
10631SOL     OW32791   2.503   4.811   4.582
10631SOL    HW132792   2.435   4.803   4.655
10631SOL    HW232793   2.594   4.796   4.620
10632SOL     OW32794   6.064   1.954   4.020
10632SOL    HW132795   6.059   1.854   4.027
10632SOL    HW232796   6.145   1.980   3.968
10633SOL     OW32797   2.862   3.059   1.122
10633SOL    HW132798   2.851   2.968   1.081
10633SOL    HW232799   2.771   3.096   1.144
10634SOL     OW32800   3.596   5.590   0.499
10634SOL    HW132801   3.601   5.646   0.581
10634SOL    HW232802   3.687   5.576   0.462
10635SOL     OW32803   2.896   2.192   0.751
10635SOL    HW132804   2.955   2.240   0.686
10635SOL    HW232805   2.887   2.247   0.834
10636SOL     OW32806   1.074   1.807   1.721
10636SOL    HW132807   1.082   1.775   1.627
10636SOL    HW232808   1.050   1.904   1.722
10637SOL     OW32809   2.575   4.841   6.079
10637SOL    HW132810   2.567   4.780   6.158
10637SOL    HW232811   2.598   4.933   6.110
10638SOL     OW32812   6.667   5.531   2.809
10638SOL    HW132813   6.690   5.549   2.905
10638SOL    HW232814   6.576   5.566   2.789
10639SOL     OW32815   0.810   3.266   3.640
10639SOL    HW132816   0.849   3.228   3.724
10639SOL    HW232817   0.828   3.364   3.635
10640SOL     OW32818   3.876   0.216   5.469
10640SOL    HW132819   3.896   0.253   5.378
10640SOL    HW232820   3.805   0.147   5.462
10641SOL     OW32821   2.443   1.874   1.540
10641SOL    HW132822   2.361   1.917   1.577
10641SOL    HW232823   2.470   1.797   1.599
10642SOL     OW32824   0.253   3.408   2.105
10642SOL    HW132825   0.285   3.419   2.010
10642SOL    HW232826   0.153   3.415   2.108
10643SOL     OW32827   1.712   4.962   5.419
10643SOL    HW132828   1.728   4.912   5.504
10643SOL    HW232829   1.774   4.928   5.348
10644SOL     OW32830   5.519   2.644   3.221
10644SOL    HW132831   5.495   2.643   3.318
10644SOL    HW232832   5.578   2.722   3.202
10645SOL     OW32833   1.566   2.213   4.840
10645SOL    HW132834   1.470   2.203   4.867
10645SOL    HW232835   1.585   2.310   4.823
10646SOL     OW32836   6.451   0.731   6.831
10646SOL    HW132837   6.397   0.783   6.897
10646SOL    HW232838   6.441   0.773   6.740
10647SOL     OW32839   2.892   5.435   5.218
10647SOL    HW132840   2.857   5.417   5.310
10647SOL    HW232841   2.826   5.491   5.168
10648SOL     OW32842   5.763   4.529   6.438
10648SOL    HW132843   5.713   4.481   6.366
10648SOL    HW232844   5.844   4.574   6.399
10649SOL     OW32845   0.077   4.504   3.154
10649SOL    HW132846   0.074   4.598   3.122
10649SOL    HW232847   0.170   4.482   3.185
10650SOL     OW32848   0.682   6.457   3.838
10650SOL    HW132849   0.617   6.513   3.889
10650SOL    HW232850   0.659   6.459   3.741
10651SOL     OW32851   4.918   6.469   6.344
10651SOL    HW132852   4.890   6.374   6.341
10651SOL    HW232853   4.892   6.515   6.259
10652SOL     OW32854   3.546   6.752   5.950
10652SOL    HW132855   3.642   6.754   5.977
10652SOL    HW232856   3.506   6.844   5.961
10653SOL     OW32857   4.400   4.651   4.424
10653SOL    HW132858   4.333   4.660   4.351
10653SOL    HW232859   4.455   4.568   4.409
10654SOL     OW32860   4.779   0.777   0.627
10654SOL    HW132861   4.768   0.687   0.584
10654SOL    HW232862   4.839   0.834   0.571
10655SOL     OW32863   2.836   5.398   0.648
10655SOL    HW132864   2.859   5.489   0.683
10655SOL    HW232865   2.919   5.342   0.642
10656SOL     OW32866   6.624   1.962   2.248
10656SOL    HW132867   6.688   2.000   2.181
10656SOL    HW232868   6.532   1.996   2.230
10657SOL     OW32869   6.640   0.185   6.007
10657SOL    HW132870   6.573   0.189   6.082
10657SOL    HW232871   6.705   0.260   6.018
10658SOL     OW32872   5.867   4.565   5.143
10658SOL    HW132873   5.906   4.515   5.220
10658SOL    HW232874   5.813   4.642   5.177
10659SOL     OW32875   6.568   5.564   1.197
10659SOL    HW132876   6.510   5.485   1.219
10659SOL    HW232877   6.589   5.563   1.099
10660SOL     OW32878   5.428   3.738   6.927
10660SOL    HW132879   5.509   3.792   6.905
10660SOL    HW232880   5.445   3.642   6.906
10661SOL     OW32881   1.092   6.978   2.407
10661SOL    HW132882   1.061   0.053   2.396
10661SOL    HW232883   1.080   6.950   2.502
10662SOL     OW32884   5.529   0.828   3.621
10662SOL    HW132885   5.538   0.910   3.565
10662SOL    HW232886   5.499   0.853   3.713
10663SOL     OW32887   1.026   1.086   1.472
10663SOL    HW132888   0.987   1.164   1.423
10663SOL    HW232889   1.119   1.069   1.439
10664SOL     OW32890   0.865   4.896   5.419
10664SOL    HW132891   0.788   4.960   5.421
10664SOL    HW232892   0.949   4.946   5.398
10665SOL     OW32893   1.148   1.164   0.711
10665SOL    HW132894   1.115   1.071   0.691
10665SOL    HW232895   1.163   1.173   0.810
10666SOL     OW32896   3.106   3.998   0.735
10666SOL    HW132897   3.189   3.946   0.753
10666SOL    HW232898   3.127   4.095   0.733
10667SOL     OW32899   4.004   3.278   5.416
10667SOL    HW132900   3.969   3.291   5.508
10667SOL    HW232901   3.985   3.184   5.386
10668SOL     OW32902   1.483   1.018   5.032
10668SOL    HW132903   1.527   0.929   5.020
10668SOL    HW232904   1.493   1.048   5.127
10669SOL     OW32905   6.100   5.986   0.934
10669SOL    HW132906   6.183   5.961   0.883
10669SOL    HW232907   6.097   6.085   0.945
10670SOL     OW32908   5.470   4.009   5.168
10670SOL    HW132909   5.397   4.021   5.235
10670SOL    HW232910   5.486   4.095   5.120
10671SOL     OW32911   2.737   2.383   3.357
10671SOL    HW132912   2.710   2.306   3.299
10671SOL    HW232913   2.835   2.399   3.348
10672SOL     OW32914   6.013   2.684   0.127
10672SOL    HW132915   5.986   2.601   0.078
10672SOL    HW232916   5.966   2.689   0.215
10673SOL     OW32917   1.247   1.376   0.327
10673SOL    HW132918   1.336   1.409   0.358
10673SOL    HW232919   1.190   1.453   0.299
10674SOL     OW32920   3.252   3.747   1.140
10674SOL    HW132921   3.158   3.764   1.111
10674SOL    HW232922   3.253   3.689   1.221
10675SOL     OW32923   2.005   6.777   6.783
10675SOL    HW132924   2.103   6.796   6.775
10675SOL    HW232925   1.966   6.835   6.854
10676SOL     OW32926   6.063   6.833   5.742
10676SOL    HW132927   6.036   6.880   5.658
10676SOL    HW232928   5.981   6.815   5.798
10677SOL     OW32929   0.436   0.730   2.526
10677SOL    HW132930   0.390   0.780   2.599
10677SOL    HW232931   0.371   0.667   2.482
10678SOL     OW32932   3.495   5.404   3.165
10678SOL    HW132933   3.536   5.342   3.098
10678SOL    HW232934   3.527   5.497   3.147
10679SOL     OW32935   5.169   5.280   6.651
10679SOL    HW132936   5.162   5.288   6.750
10679SOL    HW232937   5.219   5.196   6.628
10680SOL     OW32938   2.942   1.694   3.442
10680SOL    HW132939   2.956   1.785   3.403
10680SOL    HW232940   2.846   1.682   3.466
10681SOL     OW32941   0.643   4.157   0.088
10681SOL    HW132942   0.656   4.256   0.080
10681SOL    HW232943   0.710   4.119   0.152
10682SOL     OW32944   1.704   1.806   4.214
10682SOL    HW132945   1.733   1.765   4.127
10682SOL    HW232946   1.766   1.880   4.238
10683SOL     OW32947   3.125   1.443   4.037
10683SOL    HW132948   3.111   1.425   4.135
10683SOL    HW232949   3.195   1.514   4.026
10684SOL     OW32950   5.275   4.250   1.027
10684SOL    HW132951   5.212   4.235   0.950
10684SOL    HW232952   5.353   4.188   1.019
10685SOL     OW32953   0.709   5.664   2.953
10685SOL    HW132954   0.748   5.699   3.038
10685SOL    HW232955   0.611   5.680   2.953
10686SOL     OW32956   1.273   4.598   6.480
10686SOL    HW132957   1.193   4.607   6.421
10686SOL    HW232958   1.350   4.564   6.428
10687SOL     OW32959   0.126   5.349   1.782
10687SOL    HW132960   0.113   5.408   1.862
10687SOL    HW232961   0.071   5.383   1.706
10688SOL     OW32962   6.492   4.085   3.176
10688SOL    HW132963   6.413   4.144   3.193
10688SOL    HW232964   6.542   4.070   3.262
10689SOL     OW32965   0.586   6.843   3.849
10689SOL    HW132966   0.586   6.896   3.934
10689SOL    HW232967   0.595   6.905   3.771
10690SOL     OW32968   0.141   5.993   3.067
10690SOL    HW132969   0.225   6.031   3.029
10690SOL    HW232970   0.164   5.919   3.131
10691SOL     OW32971   1.195   1.317   2.058
10691SOL    HW132972   1.208   1.310   2.157
10691SOL    HW232973   1.284   1.322   2.013
10692SOL     OW32974   3.506   4.912   2.625
10692SOL    HW132975   3.426   4.946   2.577
10692SOL    HW232976   3.581   4.898   2.561
10693SOL     OW32977   2.445   6.908   1.239
10693SOL    HW132978   2.454   6.936   1.144
10693SOL    HW232979   2.443   6.990   1.297
10694SOL     OW32980   4.521   6.394   1.060
10694SOL    HW132981   4.483   6.461   1.123
10694SOL    HW232982   4.511   6.302   1.099
10695SOL     OW32983   5.472   2.360   2.849
10695SOL    HW132984   5.502   2.374   2.755
10695SOL    HW232985   5.381   2.319   2.850
10696SOL     OW32986   6.709   3.825   3.454
10696SOL    HW132987   6.775   3.763   3.497
10696SOL    HW232988   6.705   3.805   3.356
10697SOL     OW32989   0.188   5.723   4.975
10697SOL    HW132990   0.201   5.636   5.022
10697SOL    HW232991   0.269   5.781   4.989
10698SOL     OW32992   3.720   5.656   4.226
10698SOL    HW132993   3.713   5.724   4.299
10698SOL    HW232994   3.774   5.693   4.150
10699SOL     OW32995   4.236   2.404   1.861
10699SOL    HW132996   4.178   2.340   1.910
10699SOL    HW232997   4.214   2.401   1.763
10700SOL     OW32998   0.554   6.893   0.512
10700SOL    HW132999   0.534   6.983   0.475
10700SOL    HW233000   0.521   6.887   0.607
10701SOL     OW33001   3.493   5.796   0.351
10701SOL    HW133002   3.521   5.713   0.399
10701SOL    HW233003   3.565   5.824   0.288
10702SOL     OW33004   6.199   2.361   2.634
10702SOL    HW133005   6.143   2.394   2.710
10702SOL    HW233006   6.145   2.298   2.578
10703SOL     OW33007   2.933   3.353   4.075
10703SOL    HW133008   2.998   3.292   4.121
10703SOL    HW233009   2.851   3.303   4.050
10704SOL     OW33010   6.063   5.376   1.826
10704SOL    HW133011   6.016   5.334   1.748
10704SOL    HW233012   6.141   5.429   1.793
10705SOL     OW33013   6.623   4.218   2.397
10705SOL    HW133014   6.617   4.269   2.311
10705SOL    HW233015   6.704   4.160   2.396
10706SOL     OW33016   4.443   6.396   2.056
10706SOL    HW133017   4.419   6.477   2.003
10706SOL    HW233018   4.468   6.423   2.149
10707SOL     OW33019   0.761   0.004   4.027
10707SOL    HW133020   0.822   0.015   3.949
10707SOL    HW233021   0.811   6.985   4.104
10708SOL     OW33022   4.392   0.765   2.318
10708SOL    HW133023   4.451   0.842   2.295
10708SOL    HW233024   4.448   0.682   2.325
10709SOL     OW33025   6.112   0.275   5.130
10709SOL    HW133026   6.188   0.261   5.066
10709SOL    HW233027   6.059   0.355   5.102
10710SOL     OW33028   0.492   6.444   4.223
10710SOL    HW133029   0.510   6.351   4.193
10710SOL    HW233030   0.574   6.500   4.210
10711SOL     OW33031   1.620   6.866   3.701
10711SOL    HW133032   1.582   6.791   3.755
10711SOL    HW233033   1.679   6.829   3.629
10712SOL     OW33034   3.552   1.079   1.329
10712SOL    HW133035   3.506   1.167   1.332
10712SOL    HW233036   3.629   1.078   1.392
10713SOL     OW33037   1.037   4.206   2.042
10713SOL    HW133038   0.998   4.255   2.121
10713SOL    HW233039   1.004   4.248   1.958
10714SOL     OW33040   5.820   3.421   5.757
10714SOL    HW133041   5.801   3.469   5.842
10714SOL    HW233042   5.781   3.472   5.680
10715SOL     OW33043   4.895   6.888   2.948
10715SOL    HW133044   4.823   6.820   2.945
10715SOL    HW233045   4.943   6.891   2.860
10716SOL     OW33046   6.640   2.364   4.241
10716SOL    HW133047   6.601   2.385   4.331
10716SOL    HW233048   6.568   2.368   4.172
10717SOL     OW33049   0.658   2.597   0.687
10717SOL    HW133050   0.667   2.548   0.600
10717SOL    HW233051   0.668   2.532   0.763
10718SOL     OW33052   6.899   3.845   6.626
10718SOL    HW133053   6.997   3.827   6.633
10718SOL    HW233054   6.853   3.765   6.587
10719SOL     OW33055   4.719   6.057   0.578
10719SOL    HW133056   4.686   6.060   0.672
10719SOL    HW233057   4.797   6.119   0.568
10720SOL     OW33058   0.029   2.868   5.224
10720SOL    HW133059   0.128   2.876   5.228
10720SOL    HW233060   7.007   2.959   5.226
10721SOL     OW33061   6.109   3.535   5.213
10721SOL    HW133062   6.074   3.517   5.305
10721SOL    HW233063   6.039   3.513   5.145
10722SOL     OW33064   0.030   2.815   0.376
10722SOL    HW133065   0.027   2.729   0.326
10722SOL    HW233066   0.082   2.882   0.323
10723SOL     OW33067   6.905   4.161   6.869
10723SOL    HW133068   6.897   4.088   6.801
10723SOL    HW233069   6.842   4.235   6.845
10724SOL     OW33070   3.380   0.266   6.447
10724SOL    HW133071   3.340   0.216   6.524
10724SOL    HW233072   3.314   0.331   6.411
10725SOL     OW33073   0.290   5.247   4.060
10725SOL    HW133074   0.219   5.181   4.083
10725SOL    HW233075   0.338   5.218   3.978
10726SOL     OW33076   5.948   6.442   5.452
10726SOL    HW133077   5.906   6.391   5.376
10726SOL    HW233078   6.036   6.480   5.421
10727SOL     OW33079   1.350   4.953   4.094
10727SOL    HW133080   1.286   4.931   4.169
10727SOL    HW233081   1.429   5.001   4.132
10728SOL     OW33082   6.284   6.513   2.381
10728SOL    HW133083   6.333   6.543   2.299
10728SOL    HW233084   6.193   6.480   2.356
10729SOL     OW33085   6.287   0.779   3.397
10729SOL    HW133086   6.227   0.724   3.455
10729SOL    HW233087   6.375   0.793   3.443
10730SOL     OW33088   2.834   0.220   1.342
10730SOL    HW133089   2.903   0.248   1.275
10730SOL    HW233090   2.851   0.265   1.429
10731SOL     OW33091   2.074   6.024   6.557
10731SOL    HW133092   2.029   6.004   6.644
10731SOL    HW233093   2.102   5.938   6.515
10732SOL     OW33094   5.564   0.025   2.523
10732SOL    HW133095   5.632   6.975   2.499
10732SOL    HW233096   5.506   7.010   2.597
10733SOL     OW33097   5.507   2.478   6.904
10733SOL    HW133098   5.576   2.512   6.839
10733SOL    HW233099   5.553   2.443   6.985
10734SOL     OW33100   1.355   0.785   6.294
10734SOL    HW133101   1.293   0.818   6.223
10734SOL    HW233102   1.450   0.806   6.269
10735SOL     OW33103   1.201   4.709   2.349
10735SOL    HW133104   1.211   4.626   2.295
10735SOL    HW233105   1.283   4.765   2.341
10736SOL     OW33106   0.978   1.483   3.732
10736SOL    HW133107   0.988   1.580   3.754
10736SOL    HW233108   1.038   1.429   3.791
10737SOL     OW33109   0.857   2.171   0.048
10737SOL    HW133110   0.865   2.158   0.146
10737SOL    HW233111   0.943   2.146   0.004
10738SOL     OW33112   3.266   0.531   1.708
10738SOL    HW133113   3.221   0.487   1.630
10738SOL    HW233114   3.365   0.529   1.695
10739SOL     OW33115   0.802   1.043   2.585
10739SOL    HW133116   0.762   0.980   2.653
10739SOL    HW233117   0.732   1.107   2.555
10740SOL     OW33118   1.514   4.771   5.885
10740SOL    HW133119   1.553   4.693   5.934
10740SOL    HW233120   1.415   4.761   5.881
10741SOL     OW33121   1.227   1.540   3.447
10741SOL    HW133122   1.289   1.532   3.369
10741SOL    HW233123   1.156   1.469   3.440
10742SOL     OW33124   6.038   0.139   1.890
10742SOL    HW133125   5.975   0.193   1.947
10742SOL    HW233126   6.032   0.043   1.917
10743SOL     OW33127   2.424   2.725   3.593
10743SOL    HW133128   2.494   2.725   3.521
10743SOL    HW233129   2.334   2.742   3.553
10744SOL     OW33130   3.508   1.751   2.464
10744SOL    HW133131   3.566   1.717   2.539
10744SOL    HW233132   3.484   1.846   2.482
10745SOL     OW33133   1.279   4.852   0.548
10745SOL    HW133134   1.305   4.929   0.488
10745SOL    HW233135   1.361   4.808   0.583
10746SOL     OW33136   1.653   4.469   0.786
10746SOL    HW133137   1.573   4.498   0.838
10746SOL    HW233138   1.734   4.518   0.819
10747SOL     OW33139   5.008   1.498   3.292
10747SOL    HW133140   5.071   1.532   3.221
10747SOL    HW233141   5.006   1.398   3.289
10748SOL     OW33142   5.727   6.930   1.190
10748SOL    HW133143   5.750   0.002   1.156
10748SOL    HW233144   5.694   6.937   1.284
10749SOL     OW33145   0.208   4.715   2.887
10749SOL    HW133146   0.143   4.743   2.957
10749SOL    HW233147   0.298   4.701   2.928
10750SOL     OW33148   5.054   5.282   4.316
10750SOL    HW133149   5.028   5.356   4.379
10750SOL    HW233150   5.044   5.194   4.363
10751SOL     OW33151   0.999   3.643   5.241
10751SOL    HW133152   0.992   3.547   5.270
10751SOL    HW233153   0.983   3.648   5.142
10752SOL     OW33154   6.296   3.781   6.322
10752SOL    HW133155   6.230   3.728   6.375
10752SOL    HW233156   6.297   3.748   6.228
10753SOL     OW33157   5.942   0.265   3.768
10753SOL    HW133158   5.907   0.355   3.791
10753SOL    HW233159   5.892   0.195   3.820
10754SOL     OW33160   2.302   1.836   3.347
10754SOL    HW133161   2.240   1.768   3.386
10754SOL    HW233162   2.250   1.898   3.288
10755SOL     OW33163   0.095   1.412   0.938
10755SOL    HW133164   0.161   1.421   1.012
10755SOL    HW233165   0.009   1.456   0.964
10756SOL     OW33166   5.891   3.876   0.447
10756SOL    HW133167   5.940   3.790   0.459
10756SOL    HW233168   5.857   3.882   0.353
10757SOL     OW33169   6.872   3.760   0.392
10757SOL    HW133170   6.945   3.822   0.363
10757SOL    HW233171   6.901   3.711   0.475
10758SOL     OW33172   1.549   6.115   4.907
10758SOL    HW133173   1.628   6.171   4.934
10758SOL    HW233174   1.568   6.019   4.928
10759SOL     OW33175   1.847   3.294   6.744
10759SOL    HW133176   1.807   3.213   6.788
10759SOL    HW233177   1.859   3.366   6.812
10760SOL     OW33178   0.087   0.279   1.017
10760SOL    HW133179   0.135   0.366   1.024
10760SOL    HW233180   7.008   0.294   1.029
10761SOL     OW33181   0.744   1.733   6.211
10761SOL    HW133182   0.792   1.646   6.200
10761SOL    HW233183   0.807   1.801   6.249
10762SOL     OW33184   4.201   0.981   5.211
10762SOL    HW133185   4.139   0.941   5.143
10762SOL    HW233186   4.243   1.063   5.174
10763SOL     OW33187   4.817   6.403   1.387
10763SOL    HW133188   4.898   6.436   1.437
10763SOL    HW233189   4.757   6.481   1.368
10764SOL     OW33190   5.799   1.854   6.382
10764SOL    HW133191   5.776   1.902   6.298
10764SOL    HW233192   5.856   1.774   6.361
10765SOL     OW33193   5.805   2.462   1.015
10765SOL    HW133194   5.788   2.415   1.102
10765SOL    HW233195   5.847   2.551   1.033
10766SOL     OW33196   2.965   3.281   0.390
10766SOL    HW133197   3.022   3.353   0.351
10766SOL    HW233198   2.871   3.291   0.358
10767SOL     OW33199   1.137   0.762   0.751
10767SOL    HW133200   1.204   0.829   0.716
10767SOL    HW233201   1.162   0.735   0.843
10768SOL     OW33202   5.552   5.660   0.271
10768SOL    HW133203   5.614   5.623   0.202
10768SOL    HW233204   5.479   5.712   0.226
10769SOL     OW33205   2.588   5.261   4.672
10769SOL    HW133206   2.662   5.279   4.607
10769SOL    HW233207   2.501   5.258   4.623
10770SOL     OW33208   5.747   0.006   4.624
10770SOL    HW133209   5.779   6.955   4.687
10770SOL    HW233210   5.811   0.083   4.625
10771SOL     OW33211   4.746   0.029   5.433
10771SOL    HW133212   4.774   0.026   5.337
10771SOL    HW233213   4.693   0.112   5.450
10772SOL     OW33214   6.023   6.828   4.258
10772SOL    HW133215   6.033   6.824   4.357
10772SOL    HW233216   6.042   6.738   4.218
10773SOL     OW33217   6.791   4.896   6.801
10773SOL    HW133218   6.799   4.994   6.821
10773SOL    HW233219   6.791   4.881   6.702
10774SOL     OW33220   1.612   2.113   0.310
10774SOL    HW133221   1.628   2.173   0.388
10774SOL    HW233222   1.649   2.022   0.329
10775SOL     OW33223   0.990   3.589   0.593
10775SOL    HW133224   1.015   3.685   0.606
10775SOL    HW233225   1.061   3.544   0.538
10776SOL     OW33226   1.286   6.450   0.889
10776SOL    HW133227   1.190   6.470   0.868
10776SOL    HW233228   1.303   6.352   0.875
10777SOL     OW33229   4.087   0.033   3.932
10777SOL    HW133230   3.999   0.035   3.978
10777SOL    HW233231   4.094   0.109   3.867
10778SOL     OW33232   5.288   0.058   5.036
10778SOL    HW133233   5.330   0.116   4.967
10778SOL    HW233234   5.309   6.981   5.016
10779SOL     OW33235   6.583   4.722   3.120
10779SOL    HW133236   6.617   4.653   3.056
10779SOL    HW233237   6.545   4.676   3.200
10780SOL     OW33238   1.261   6.581   2.624
10780SOL    HW133239   1.234   6.628   2.540
10780SOL    HW233240   1.322   6.639   2.677
10781SOL     OW33241   3.552   1.637   3.784
10781SOL    HW133242   3.477   1.685   3.738
10781SOL    HW233243   3.591   1.697   3.854
10782SOL     OW33244   6.184   2.504   3.668
10782SOL    HW133245   6.179   2.587   3.613
10782SOL    HW233246   6.123   2.512   3.747
10783SOL     OW33247   1.403   3.180   3.229
10783SOL    HW133248   1.405   3.174   3.129
10783SOL    HW233249   1.492   3.211   3.263
10784SOL     OW33250   2.763   6.958   2.122
10784SOL    HW133251   2.666   6.977   2.139
10784SOL    HW233252   2.785   6.866   2.155
10785SOL     OW33253   0.976   4.776   1.821
10785SOL    HW133254   0.934   4.765   1.730
10785SOL    HW233255   0.920   4.730   1.889
10786SOL     OW33256   5.534   3.348   1.902
10786SOL    HW133257   5.474   3.292   1.845
10786SOL    HW233258   5.495   3.353   1.995
10787SOL     OW33259   3.376   2.059   4.628
10787SOL    HW133260   3.454   2.112   4.661
10787SOL    HW233261   3.311   2.046   4.703
10788SOL     OW33262   2.487   4.671   0.234
10788SOL    HW133263   2.583   4.643   0.242
10788SOL    HW233264   2.430   4.613   0.292
10789SOL     OW33265   5.744   1.947   0.816
10789SOL    HW133266   5.702   1.943   0.725
10789SOL    HW233267   5.699   2.017   0.871
10790SOL     OW33268   0.900   0.699   4.307
10790SOL    HW133269   0.927   0.689   4.403
10790SOL    HW233270   0.836   0.626   4.282
10791SOL     OW33271   0.558   0.931   1.437
10791SOL    HW133272   0.521   0.946   1.345
10791SOL    HW233273   0.649   0.971   1.443
10792SOL     OW33274   3.055   2.932   1.740
10792SOL    HW133275   3.068   2.833   1.736
10792SOL    HW233276   3.120   2.977   1.678
10793SOL     OW33277   5.285   2.325   4.208
10793SOL    HW133278   5.318   2.292   4.120
10793SOL    HW233279   5.310   2.259   4.280
10794SOL     OW33280   3.539   3.761   2.176
10794SOL    HW133281   3.508   3.710   2.257
10794SOL    HW233282   3.474   3.746   2.101
10795SOL     OW33283   6.047   3.965   3.840
10795SOL    HW133284   6.142   3.939   3.826
10795SOL    HW233285   6.039   4.065   3.835
10796SOL     OW33286   3.911   6.416   6.481
10796SOL    HW133287   3.817   6.401   6.509
10796SOL    HW233288   3.967   6.336   6.506
10797SOL     OW33289   4.272   2.288   0.733
10797SOL    HW133290   4.342   2.358   0.744
10797SOL    HW233291   4.307   2.214   0.675
10798SOL     OW33292   1.969   0.060   0.434
10798SOL    HW133293   1.911   0.139   0.451
10798SOL    HW233294   2.041   0.056   0.504
10799SOL     OW33295   3.723   1.692   1.522
10799SOL    HW133296   3.651   1.657   1.462
10799SOL    HW233297   3.693   1.778   1.562
10800SOL     OW33298   1.241   6.843   0.249
10800SOL    HW133299   1.221   6.780   0.174
10800SOL    HW233300   1.307   6.801   0.311
10801SOL     OW33301   1.110   6.889   4.975
10801SOL    HW133302   1.134   6.971   5.027
10801SOL    HW233303   1.193   6.848   4.936
10802SOL     OW33304   1.988   3.385   4.831
10802SOL    HW133305   2.028   3.432   4.910
10802SOL    HW233306   2.000   3.286   4.842
10803SOL     OW33307   4.595   4.515   5.198
10803SOL    HW133308   4.565   4.434   5.145
10803SOL    HW233309   4.681   4.494   5.244
10804SOL     OW33310   0.003   4.311   1.441
10804SOL    HW133311   7.009   4.315   1.539
10804SOL    HW233312   6.976   4.231   1.404
10805SOL     OW33313   3.215   6.570   6.766
10805SOL    HW133314   3.249   6.659   6.735
10805SOL    HW233315   3.292   6.507   6.779
10806SOL     OW33316   5.262   4.438   6.929
10806SOL    HW133317   5.272   4.382   6.847
10806SOL    HW233318   5.333   4.413   6.995
10807SOL     OW33319   3.128   6.998   3.184
10807SOL    HW133320   3.122   0.077   3.170
10807SOL    HW233321   3.198   6.959   3.124
10808SOL     OW33322   0.188   4.025   6.900
10808SOL    HW133323   0.287   4.032   6.890
10808SOL    HW233324   0.147   4.116   6.890
10809SOL     OW33325   2.855   6.787   3.650
10809SOL    HW133326   2.894   6.820   3.564
10809SOL    HW233327   2.839   6.865   3.711
10810SOL     OW33328   1.284   0.655   5.631
10810SOL    HW133329   1.230   0.590   5.685
10810SOL    HW233330   1.252   0.748   5.648
10811SOL     OW33331   4.680   4.959   5.195
10811SOL    HW133332   4.729   4.928   5.113
10811SOL    HW233333   4.746   4.971   5.270
10812SOL     OW33334   0.615   3.382   2.652
10812SOL    HW133335   0.629   3.347   2.559
10812SOL    HW233336   0.668   3.466   2.665
10813SOL     OW33337   1.846   6.227   0.068
10813SOL    HW133338   1.920   6.293   0.055
10813SOL    HW233339   1.806   6.240   0.159
10814SOL     OW33340   1.834   6.862   6.413
10814SOL    HW133341   1.763   6.796   6.438
10814SOL    HW233342   1.836   6.936   6.480
10815SOL     OW33343   5.131   4.899   3.284
10815SOL    HW133344   5.080   4.862   3.206
10815SOL    HW233345   5.202   4.962   3.251
10816SOL     OW33346   1.558   1.637   2.439
10816SOL    HW133347   1.519   1.727   2.422
10816SOL    HW233348   1.617   1.611   2.363
10817SOL     OW33349   5.168   0.041   2.877
10817SOL    HW133350   5.088   0.099   2.861
10817SOL    HW233351   5.157   7.011   2.963
10818SOL     OW33352   4.681   3.953   5.482
10818SOL    HW133353   4.630   3.898   5.416
10818SOL    HW233354   4.625   3.969   5.563
10819SOL     OW33355   6.829   4.636   6.880
10819SOL    HW133356   6.756   4.587   6.930
10819SOL    HW233357   6.817   4.734   6.892
10820SOL     OW33358   6.201   6.366   4.157
10820SOL    HW133359   6.238   6.291   4.211
10820SOL    HW233360   6.268   6.393   4.088
10821SOL     OW33361   5.110   6.122   1.921
10821SOL    HW133362   5.059   6.038   1.940
10821SOL    HW233363   5.059   6.201   1.952
10822SOL     OW33364   1.247   2.691   3.299
10822SOL    HW133365   1.310   2.681   3.376
10822SOL    HW233366   1.271   2.773   3.246
10823SOL     OW33367   1.360   5.047   1.488
10823SOL    HW133368   1.438   5.095   1.448
10823SOL    HW233369   1.384   4.951   1.504
10824SOL     OW33370   4.914   0.071   4.210
10824SOL    HW133371   4.981   0.097   4.279
10824SOL    HW233372   4.823   0.103   4.238
10825SOL     OW33373   2.712   0.772   0.470
10825SOL    HW133374   2.679   0.697   0.413
10825SOL    HW233375   2.654   0.852   0.458
10826SOL     OW33376   0.401   3.803   4.193
10826SOL    HW133377   0.497   3.814   4.164
10826SOL    HW233378   0.342   3.803   4.113
10827SOL     OW33379   5.381   4.025   4.595
10827SOL    HW133380   5.448   3.975   4.540
10827SOL    HW233381   5.420   4.113   4.622
10828SOL     OW33382   0.936   5.735   2.575
10828SOL    HW133383   0.931   5.703   2.670
10828SOL    HW233384   0.919   5.658   2.513
10829SOL     OW33385   3.689   2.614   6.966
10829SOL    HW133386   3.608   2.671   6.958
10829SOL    HW233387   3.720   2.614   0.042
10830SOL     OW33388   4.760   1.562   3.156
10830SOL    HW133389   4.825   1.512   3.214
10830SOL    HW233390   4.777   1.539   3.060
10831SOL     OW33391   3.981   5.490   1.935
10831SOL    HW133392   3.888   5.506   1.902
10831SOL    HW233393   4.017   5.572   1.978
10832SOL     OW33394   0.295   1.860   0.687
10832SOL    HW133395   0.242   1.775   0.687
10832SOL    HW233396   0.303   1.894   0.594
10833SOL     OW33397   1.651   0.794   4.241
10833SOL    HW133398   1.680   0.767   4.150
10833SOL    HW233399   1.722   0.852   4.283
10834SOL     OW33400   1.336   1.976   6.136
10834SOL    HW133401   1.305   2.003   6.045
10834SOL    HW233402   1.270   1.910   6.174
10835SOL     OW33403   5.870   1.901   1.174
10835SOL    HW133404   5.958   1.924   1.133
10835SOL    HW233405   5.819   1.842   1.112
10836SOL     OW33406   6.430   1.349   4.961
10836SOL    HW133407   6.485   1.273   4.997
10836SOL    HW233408   6.385   1.395   5.037
10837SOL     OW33409   0.836   4.891   0.003
10837SOL    HW133410   0.749   4.910   0.049
10837SOL    HW233411   0.824   4.903   6.923
10838SOL     OW33412   5.806   6.602   4.479
10838SOL    HW133413   5.734   6.613   4.546
10838SOL    HW233414   5.766   6.588   4.388
10839SOL     OW33415   3.075   3.033   0.417
10839SOL    HW133416   3.033   3.120   0.392
10839SOL    HW233417   3.024   2.990   0.491
10840SOL     OW33418   4.063   5.920   1.292
10840SOL    HW133419   3.983   5.914   1.352
10840SOL    HW233420   4.043   5.872   1.206
10841SOL     OW33421   3.974   6.609   6.658
10841SOL    HW133422   3.949   6.570   6.747
10841SOL    HW233423   3.950   6.545   6.585
10842SOL     OW33424   6.018   3.426   0.793
10842SOL    HW133425   6.080   3.384   0.860
10842SOL    HW233426   6.046   3.398   0.701
10843SOL     OW33427   0.811   1.876   1.777
10843SOL    HW133428   0.868   1.928   1.841
10843SOL    HW233429   0.795   1.784   1.813
10844SOL     OW33430   0.495   6.653   4.008
10844SOL    HW133431   0.504   6.722   3.936
10844SOL    HW233432   0.565   6.669   4.078
10845SOL     OW33433   2.311   1.122   0.541
10845SOL    HW133434   2.406   1.120   0.573
10845SOL    HW233435   2.251   1.088   0.613
10846SOL     OW33436   4.403   2.938   0.851
10846SOL    HW133437   4.497   2.924   0.883
10846SOL    HW233438   4.362   3.016   0.899
10847SOL     OW33439   3.025   1.944   6.318
10847SOL    HW133440   2.927   1.942   6.333
10847SOL    HW233441   3.064   2.028   6.357
10848SOL     OW33442   3.330   2.305   6.567
10848SOL    HW133443   3.396   2.236   6.597
10848SOL    HW233444   3.378   2.386   6.535
10849SOL     OW33445   3.113   4.857   3.329
10849SOL    HW133446   3.206   4.844   3.364
10849SOL    HW233447   3.070   4.935   3.374
10850SOL     OW33448   4.717   6.169   6.598
10850SOL    HW133449   4.760   6.191   6.510
10850SOL    HW233450   4.764   6.092   6.641
10851SOL     OW33451   2.880   3.074   6.506
10851SOL    HW133452   2.841   3.158   6.470
10851SOL    HW233453   2.840   2.995   6.458
10852SOL     OW33454   0.393   6.257   5.699
10852SOL    HW133455   0.420   6.344   5.656
10852SOL    HW233456   0.402   6.183   5.632
10853SOL     OW33457   3.649   1.963   5.703
10853SOL    HW133458   3.690   1.887   5.653
10853SOL    HW233459   3.663   1.951   5.801
10854SOL     OW33460   6.058   6.941   5.481
10854SOL    HW133461   5.968   6.942   5.439
10854SOL    HW233462   6.083   0.015   5.508
10855SOL     OW33463   2.994   6.262   2.423
10855SOL    HW133464   2.988   6.290   2.327
10855SOL    HW233465   2.975   6.341   2.482
10856SOL     OW33466   5.971   1.722   2.077
10856SOL    HW133467   5.902   1.738   2.007
10856SOL    HW233468   6.023   1.640   2.054
10857SOL     OW33469   5.410   2.979   3.905
10857SOL    HW133470   5.477   2.998   3.834
10857SOL    HW233471   5.387   2.882   3.904
10858SOL     OW33472   1.457   2.693   6.496
10858SOL    HW133473   1.448   2.676   6.398
10858SOL    HW233474   1.368   2.681   6.541
10859SOL     OW33475   2.285   4.273   4.458
10859SOL    HW133476   2.239   4.228   4.382
10859SOL    HW233477   2.255   4.233   4.545
10860SOL     OW33478   6.453   1.198   5.768
10860SOL    HW133479   6.389   1.269   5.739
10860SOL    HW233480   6.423   1.160   5.855
10861SOL     OW33481   3.715   2.923   2.324
10861SOL    HW133482   3.667   3.009   2.308
10861SOL    HW233483   3.781   2.935   2.399
10862SOL     OW33484   2.423   1.263   6.728
10862SOL    HW133485   2.402   1.334   6.794
10862SOL    HW233486   2.430   1.175   6.775
10863SOL     OW33487   3.921   0.456   2.133
10863SOL    HW133488   3.873   0.399   2.066
10863SOL    HW233489   3.869   0.457   2.219
10864SOL     OW33490   2.666   4.825   1.192
10864SOL    HW133491   2.761   4.797   1.183
10864SOL    HW233492   2.628   4.845   1.102
10865SOL     OW33493   5.410   2.228   3.974
10865SOL    HW133494   5.488   2.167   3.987
10865SOL    HW233495   5.442   2.321   3.958
10866SOL     OW33496   5.671   4.386   0.652
10866SOL    HW133497   5.741   4.320   0.680
10866SOL    HW233498   5.583   4.340   0.644
10867SOL     OW33499   2.877   3.995   0.521
10867SOL    HW133500   2.846   3.971   0.613
10867SOL    HW233501   2.863   3.917   0.460
10868SOL     OW33502   2.114   1.588   3.376
10868SOL    HW133503   2.066   1.565   3.461
10868SOL    HW233504   2.072   1.669   3.335
10869NA      NA33505   0.450   2.506   6.038
10870NA      NA33506   4.366   4.626   5.205
10871NA      NA33507   2.334   4.490   2.258
10872NA      NA33508   4.945   4.371   3.702
10873NA      NA33509   4.211   2.308   5.263
10874NA      NA33510   3.492   4.394   1.555
10875NA      NA33511   0.848   4.491   0.179
10876NA      NA33512   3.809   3.786   1.746
10877NA      NA33513   5.081   4.664   0.862
10878NA      NA33514   3.783   0.372   5.640
10879NA      NA33515   6.000   5.493   1.012
10880NA      NA33516   1.766   0.879   5.622
10881NA      NA33517   4.561   4.816   2.216
10882NA      NA33518   3.816   2.909   1.168
   7.01916   7.01916   7.01916
