Generated by trjconv : CNT in water t= 328.00000
33518
    1C        C    1   2.838   2.764   4.750
    1C        C    2   2.893   2.711   4.869
    1C        C    3   2.837   2.767   4.985
    1C        C    4   2.846   2.772   4.259
    1C        C    5   2.900   2.729   4.383
    1C        C    6   2.844   2.771   4.506
    1C        C    7   3.008   2.635   4.624
    1C        C    8   2.895   2.721   4.628
    1C        C    9   3.073   2.597   4.743
    1C        C   10   3.008   2.630   4.864
    1C        C   11   3.179   2.492   4.977
    1C        C   12   3.059   2.564   4.977
    1C        C   13   2.841   2.768   3.770
    1C        C   14   2.894   2.720   3.892
    1C        C   15   2.848   2.772   4.015
    1C        C   16   3.016   2.644   4.140
    1C        C   17   2.902   2.728   4.138
    1C        C   18   3.081   2.612   4.262
    1C        C   19   3.016   2.649   4.381
    1C        C   20   3.207   2.559   4.504
    1C        C   21   3.075   2.609   4.503
    1C        C   22   3.278   2.540   4.625
    1C        C   23   3.207   2.549   4.746
    1C        C   24   3.411   2.488   4.864
    1C        C   25   3.269   2.508   4.867
    1C        C   26   3.489   2.489   4.981
    1C        C   27   2.850   2.765   3.281
    1C        C   28   2.901   2.720   3.405
    1C        C   29   2.850   2.770   3.527
    1C        C   30   3.015   2.639   3.650
    1C        C   31   2.899   2.720   3.650
    1C        C   32   3.076   2.607   3.773
    1C        C   33   3.012   2.642   3.895
    1C        C   34   3.206   2.556   4.018
    1C        C   35   3.074   2.607   4.017
    1C        C   36   3.278   2.535   4.138
    1C        C   37   3.214   2.564   4.261
    1C        C   38   3.418   2.512   4.382
    1C        C   39   3.279   2.541   4.384
    1C        C   40   3.489   2.503   4.504
    1C        C   41   3.416   2.510   4.624
    1C        C   42   3.630   2.488   4.746
    1C        C   43   3.488   2.492   4.745
    1C        C   44   3.705   2.493   4.866
    1C        C   45   3.628   2.482   4.983
    1C        C   46   2.838   2.754   2.793
    1C        C   47   2.891   2.709   2.916
    1C        C   48   2.843   2.764   3.037
    1C        C   49   3.015   2.637   3.161
    1C        C   50   2.897   2.715   3.158
    1C        C   51   3.079   2.606   3.283
    1C        C   52   3.017   2.641   3.405
    1C        C   53   3.209   2.553   3.528
    1C        C   54   3.079   2.608   3.528
    1C        C   55   3.275   2.534   3.651
    1C        C   56   3.208   2.557   3.774
    1C        C   57   3.414   2.510   3.894
    1C        C   58   3.274   2.533   3.896
    1C        C   59   3.486   2.506   4.016
    1C        C   60   3.417   2.512   4.139
    1C        C   61   3.629   2.496   4.260
    1C        C   62   3.488   2.502   4.260
    1C        C   63   3.702   2.508   4.381
    1C        C   64   3.631   2.503   4.502
    1C        C   65   3.836   2.542   4.625
    1C        C   66   3.701   2.500   4.625
    1C        C   67   3.905   2.566   4.745
    1C        C   68   3.841   2.531   4.866
    1C        C   69   4.053   2.587   4.981
    1C        C   70   3.926   2.528   4.978
    1C        C   71   2.823   2.729   2.310
    1C        C   72   2.880   2.687   2.432
    1C        C   73   2.826   2.740   2.551
    1C        C   74   3.002   2.618   2.674
    1C        C   75   2.886   2.698   2.672
    1C        C   76   3.068   2.589   2.795
    1C        C   77   3.010   2.634   2.916
    1C        C   78   3.202   2.542   3.039
    1C        C   79   3.073   2.599   3.038
    1C        C   80   3.274   2.528   3.160
    1C        C   81   3.209   2.553   3.284
    1C        C   82   3.415   2.499   3.406
    1C        C   83   3.277   2.530   3.406
    1C        C   84   3.485   2.496   3.529
    1C        C   85   3.414   2.508   3.650
    1C        C   86   3.626   2.502   3.771
    1C        C   87   3.484   2.500   3.773
    1C        C   88   3.697   2.512   3.892
    1C        C   89   3.627   2.506   4.015
    1C        C   90   3.834   2.551   4.138
    1C        C   91   3.698   2.512   4.138
    1C        C   92   3.904   2.573   4.258
    1C        C   93   3.837   2.550   4.380
    1C        C   94   4.030   2.633   4.500
    1C        C   95   3.901   2.575   4.504
    1C        C   96   4.091   2.670   4.622
    1C        C   97   4.033   2.629   4.744
    1C        C   98   4.199   2.762   4.865
    1C        C   99   4.098   2.660   4.866
    1C        C  100   4.217   2.843   4.978
    1C        C  101   2.821   2.726   2.071
    1C        C  102   2.996   2.597   2.190
    1C        C  103   2.876   2.675   2.190
    1C        C  104   3.063   2.574   2.313
    1C        C  105   3.005   2.621   2.433
    1C        C  106   3.200   2.533   2.552
    1C        C  107   3.070   2.588   2.554
    1C        C  108   3.270   2.523   2.675
    1C        C  109   3.199   2.537   2.796
    1C        C  110   3.410   2.507   2.916
    1C        C  111   3.270   2.518   2.917
    1C        C  112   3.482   2.493   3.037
    1C        C  113   3.412   2.500   3.160
    1C        C  114   3.624   2.498   3.282
    1C        C  115   3.483   2.492   3.282
    1C        C  116   3.692   2.517   3.404
    1C        C  117   3.626   2.506   3.528
    1C        C  118   3.835   2.547   3.646
    1C        C  119   3.698   2.511   3.650
    1C        C  120   3.897   2.576   3.770
    1C        C  121   3.833   2.549   3.893
    1C        C  122   4.025   2.638   4.015
    1C        C  123   3.901   2.571   4.015
    1C        C  124   4.089   2.674   4.136
    1C        C  125   4.032   2.634   4.259
    1C        C  126   4.200   2.764   4.380
    1C        C  127   4.095   2.670   4.380
    1C        C  128   4.245   2.819   4.502
    1C        C  129   4.195   2.766   4.624
    1C        C  130   4.331   2.932   4.741
    1C        C  131   4.249   2.816   4.744
    1C        C  132   4.361   3.001   4.861
    1C        C  133   4.284   2.965   4.972
    1C        C  134   3.175   2.476   2.079
    1C        C  135   3.039   2.509   2.086
    1C        C  136   3.259   2.485   2.191
    1C        C  137   3.194   2.518   2.312
    1C        C  138   3.406   2.479   2.432
    1C        C  139   3.266   2.500   2.432
    1C        C  140   3.481   2.482   2.552
    1C        C  141   3.409   2.497   2.673
    1C        C  142   3.622   2.492   2.792
    1C        C  143   3.481   2.496   2.794
    1C        C  144   3.692   2.503   2.915
    1C        C  145   3.623   2.499   3.038
    1C        C  146   3.833   2.535   3.157
    1C        C  147   3.695   2.505   3.160
    1C        C  148   3.900   2.561   3.279
    1C        C  149   3.831   2.543   3.401
    1C        C  150   4.028   2.627   3.523
    1C        C  151   3.900   2.566   3.522
    1C        C  152   4.085   2.665   3.647
    1C        C  153   4.023   2.639   3.771
    1C        C  154   4.198   2.761   3.890
    1C        C  155   4.082   2.679   3.893
    1C        C  156   4.253   2.809   4.011
    1C        C  157   4.201   2.761   4.134
    1C        C  158   4.338   2.920   4.255
    1C        C  159   4.251   2.809   4.256
    1C        C  160   4.377   2.984   4.375
    1C        C  161   4.330   2.931   4.497
    1C        C  162   4.442   3.112   4.618
    1C        C  163   4.368   2.992   4.619
    1C        C  164   4.471   3.183   4.737
    1C        C  165   4.433   3.122   4.859
    1C        C  166   4.510   3.323   4.977
    1C        C  167   4.475   3.188   4.975
    1C        C  168   3.476   2.433   2.079
    1C        C  169   3.398   2.461   2.192
    1C        C  170   3.618   2.477   2.307
    1C        C  171   3.475   2.471   2.310
    1C        C  172   3.692   2.491   2.426
    1C        C  173   3.622   2.486   2.548
    1C        C  174   3.829   2.536   2.666
    1C        C  175   3.692   2.501   2.670
    1C        C  176   3.892   2.562   2.790
    1C        C  177   3.827   2.544   2.914
    1C        C  178   4.025   2.621   3.033
    1C        C  179   3.898   2.560   3.035
    1C        C  180   4.086   2.659   3.156
    1C        C  181   4.028   2.620   3.279
    1C        C  182   4.198   2.748   3.400
    1C        C  183   4.089   2.659   3.400
    1C        C  184   4.245   2.803   3.522
    1C        C  185   4.193   2.756   3.644
    1C        C  186   4.337   2.915   3.765
    1C        C  187   4.244   2.809   3.765
    1C        C  188   4.380   2.973   3.887
    1C        C  189   4.343   2.917   4.011
    1C        C  190   4.448   3.103   4.131
    1C        C  191   4.379   2.980   4.133
    1C        C  192   4.470   3.172   4.252
    1C        C  193   4.443   3.109   4.376
    1C        C  194   4.508   3.313   4.493
    1C        C  195   4.475   3.176   4.496
    1C        C  196   4.528   3.383   4.614
    1C        C  197   4.519   3.317   4.739
    1C        C  198   4.552   3.534   4.851
    1C        C  199   4.534   3.392   4.858
    1C        C  200   4.576   3.618   4.965
    1C        C  201   3.616   2.422   2.077
    1C        C  202   3.830   2.512   2.182
    1C        C  203   3.694   2.470   2.187
    1C        C  204   3.900   2.540   2.303
    1C        C  205   3.830   2.521   2.424
    1C        C  206   4.025   2.616   2.544
    1C        C  207   3.897   2.555   2.544
    1C        C  208   4.086   2.650   2.667
    1C        C  209   4.021   2.619   2.789
    1C        C  210   4.195   2.744   2.908
    1C        C  211   4.084   2.657   2.910
    1C        C  212   4.246   2.794   3.030
    1C        C  213   4.196   2.747   3.154
    1C        C  214   4.333   2.908   3.272
    1C        C  215   4.249   2.794   3.276
    1C        C  216   4.374   2.968   3.394
    1C        C  217   4.332   2.914   3.517
    1C        C  218   4.427   3.101   3.641
    1C        C  219   4.370   2.972   3.640
    1C        C  220   4.458   3.166   3.763
    1C        C  221   4.440   3.101   3.887
    1C        C  222   4.494   3.307   4.003
    1C        C  223   4.472   3.167   4.007
    1C        C  224   4.501   3.378   4.125
    1C        C  225   4.500   3.310   4.249
    1C        C  226   4.516   3.523   4.366
    1C        C  227   4.516   3.381   4.370
    1C        C  228   4.514   3.594   4.488
    1C        C  229   4.533   3.524   4.610
    1C        C  230   4.505   3.740   4.724
    1C        C  231   4.538   3.602   4.727
    1C        C  232   4.500   3.820   4.841
    1C        C  233   4.549   3.756   4.956
    1C        C  234   4.021   2.610   2.061
    1C        C  235   3.899   2.543   2.064
    1C        C  236   4.090   2.642   2.179
    1C        C  237   4.024   2.610   2.300
    1C        C  238   4.198   2.736   2.420
    1C        C  239   4.085   2.649   2.421
    1C        C  240   4.252   2.785   2.542
    1C        C  241   4.195   2.740   2.663
    1C        C  242   4.333   2.901   2.784
    1C        C  243   4.243   2.792   2.785
    1C        C  244   4.376   2.959   2.906
    1C        C  245   4.336   2.903   3.029
    1C        C  246   4.438   3.091   3.150
    1C        C  247   4.373   2.966   3.150
    1C        C  248   4.454   3.161   3.271
    1C        C  249   4.431   3.097   3.395
    1C        C  250   4.492   3.300   3.516
    1C        C  251   4.454   3.164   3.518
    1C        C  252   4.501   3.372   3.638
    1C        C  253   4.494   3.303   3.761
    1C        C  254   4.519   3.517   3.876
    1C        C  255   4.506   3.377   3.881
    1C        C  256   4.517   3.587   3.999
    1C        C  257   4.516   3.518   4.123
    1C        C  258   4.489   3.730   4.243
    1C        C  259   4.518   3.592   4.243
    1C        C  260   4.465   3.801   4.362
    1C        C  261   4.485   3.732   4.484
    1C        C  262   4.419   3.937   4.604
    1C        C  263   4.476   3.808   4.603
    1C        C  264   4.401   4.010   4.723
    1C        C  265   4.434   3.944   4.844
    1C        C  266   4.320   4.130   4.956
    1C        C  267   4.397   4.015   4.959
    1C        C  268   4.263   2.776   2.062
    1C        C  269   4.200   2.730   2.178
    1C        C  270   4.350   2.885   2.298
    1C        C  271   4.252   2.782   2.298
    1C        C  272   4.384   2.951   2.417
    1C        C  273   4.342   2.893   2.539
    1C        C  274   4.436   3.084   2.661
    1C        C  275   4.375   2.956   2.661
    1C        C  276   4.464   3.151   2.782
    1C        C  277   4.441   3.085   2.905
    1C        C  278   4.499   3.290   3.024
    1C        C  279   4.469   3.152   3.026
    1C        C  280   4.503   3.363   3.145
    1C        C  281   4.487   3.299   3.270
    1C        C  282   4.514   3.507   3.387
    1C        C  283   4.506   3.366   3.392
    1C        C  284   4.509   3.577   3.509
    1C        C  285   4.512   3.513   3.635
    1C        C  286   4.491   3.727   3.753
    1C        C  287   4.519   3.588   3.754
    1C        C  288   4.471   3.793   3.876
    1C        C  289   4.487   3.725   3.999
    1C        C  290   4.428   3.932   4.115
    1C        C  291   4.470   3.797   4.119
    1C        C  292   4.397   3.998   4.236
    1C        C  293   4.422   3.936   4.360
    1C        C  294   4.323   4.125   4.478
    1C        C  295   4.391   4.001   4.481
    1C        C  296   4.280   4.185   4.599
    1C        C  297   4.326   4.131   4.721
    1C        C  298   4.203   4.316   4.839
    1C        C  299   4.283   4.197   4.839
    1C        C  300   4.168   4.403   4.948
    1C        C  301   4.351   2.884   2.062
    1C        C  302   4.472   3.068   2.173
    1C        C  303   4.400   2.944   2.178
    1C        C  304   4.479   3.140   2.295
    1C        C  305   4.451   3.076   2.417
    1C        C  306   4.508   3.282   2.537
    1C        C  307   4.471   3.145   2.539
    1C        C  308   4.511   3.357   2.656
    1C        C  309   4.492   3.289   2.779
    1C        C  310   4.518   3.500   2.900
    1C        C  311   4.505   3.359   2.901
    1C        C  312   4.517   3.574   3.021
    1C        C  313   4.515   3.504   3.144
    1C        C  314   4.489   3.716   3.265
    1C        C  315   4.517   3.578   3.264
    1C        C  316   4.475   3.789   3.386
    1C        C  317   4.489   3.717   3.507
    1C        C  318   4.423   3.922   3.626
    1C        C  319   4.470   3.789   3.628
    1C        C  320   4.394   3.988   3.748
    1C        C  321   4.423   3.925   3.872
    1C        C  322   4.321   4.113   3.992
    1C        C  323   4.399   3.995   3.992
    1C        C  324   4.281   4.173   4.114
    1C        C  325   4.325   4.120   4.237
    1C        C  326   4.190   4.288   4.352
    1C        C  327   4.289   4.187   4.356
    1C        C  328   4.135   4.335   4.473
    1C        C  329   4.190   4.294   4.597
    1C        C  330   4.028   4.437   4.714
    1C        C  331   4.146   4.357   4.715
    1C        C  332   3.968   4.491   4.829
    1C        C  333   4.050   4.479   4.942
    1C        C  334   4.550   3.267   2.058
    1C        C  335   4.543   3.128   2.064
    1C        C  336   4.536   3.346   2.174
    1C        C  337   4.519   3.277   2.296
    1C        C  338   4.525   3.493   2.413
    1C        C  339   4.527   3.351   2.416
    1C        C  340   4.520   3.567   2.533
    1C        C  341   4.518   3.498   2.656
    1C        C  342   4.490   3.709   2.775
    1C        C  343   4.517   3.570   2.778
    1C        C  344   4.478   3.781   2.895
    1C        C  345   4.491   3.712   3.018
    1C        C  346   4.422   3.912   3.138
    1C        C  347   4.467   3.778   3.140
    1C        C  348   4.394   3.980   3.258
    1C        C  349   4.423   3.920   3.382
    1C        C  350   4.321   4.107   3.501
    1C        C  351   4.393   3.986   3.504
    1C        C  352   4.281   4.166   3.623
    1C        C  353   4.320   4.108   3.746
    1C        C  354   4.180   4.267   3.863
    1C        C  355   4.276   4.163   3.868
    1C        C  356   4.129   4.320   3.984
    1C        C  357   4.181   4.273   4.107
    1C        C  358   4.012   4.400   4.227
    1C        C  359   4.132   4.325   4.229
    1C        C  360   3.954   4.444   4.348
    1C        C  361   4.019   4.415   4.470
    1C        C  362   3.834   4.519   4.590
    1C        C  363   3.962   4.461   4.591
    1C        C  364   3.764   4.546   4.710
    1C        C  365   3.837   4.543   4.831
    1C        C  366   3.626   4.597   4.949
    1C        C  367   3.763   4.572   4.947
    1C        C  368   4.515   3.561   2.054
    1C        C  369   4.529   3.487   2.172
    1C        C  370   4.504   3.704   2.286
    1C        C  371   4.517   3.563   2.290
    1C        C  372   4.488   3.775   2.407
    1C        C  373   4.501   3.707   2.530
    1C        C  374   4.430   3.909   2.649
    1C        C  375   4.478   3.776   2.651
    1C        C  376   4.400   3.977   2.769
    1C        C  377   4.426   3.913   2.892
    1C        C  378   4.323   4.098   3.012
    1C        C  379   4.396   3.976   3.015
    1C        C  380   4.281   4.157   3.133
    1C        C  381   4.325   4.104   3.256
    1C        C  382   4.188   4.268   3.375
    1C        C  383   4.281   4.162   3.377
    1C        C  384   4.127   4.310   3.495
    1C        C  385   4.179   4.264   3.618
    1C        C  386   4.009   4.390   3.740
    1C        C  387   4.124   4.308   3.741
    1C        C  388   3.946   4.427   3.862
    1C        C  389   4.009   4.393   3.984
    1C        C  390   3.820   4.491   4.106
    1C        C  391   3.951   4.436   4.105
    1C        C  392   3.754   4.513   4.229
    1C        C  393   3.823   4.497   4.351
    1C        C  394   3.617   4.551   4.472
    1C        C  395   3.756   4.527   4.473
    1C        C  396   3.548   4.563   4.594
    1C        C  397   3.624   4.560   4.714
    1C        C  398   3.411   4.549   4.837
    1C        C  399   3.551   4.571   4.834
    1C        C  400   3.343   4.518   4.955
    1C        C  401   4.504   3.700   2.054
    1C        C  402   4.458   3.916   2.166
    1C        C  403   4.497   3.781   2.168
    1C        C  404   4.414   3.977   2.285
    1C        C  405   4.435   3.906   2.405
    1C        C  406   4.327   4.091   2.522
    1C        C  407   4.402   3.972   2.526
    1C        C  408   4.282   4.149   2.643
    1C        C  409   4.327   4.098   2.767
    1C        C  410   4.181   4.253   2.887
    1C        C  411   4.280   4.152   2.889
    1C        C  412   4.124   4.296   3.009
    1C        C  413   4.176   4.251   3.133
    1C        C  414   4.007   4.381   3.251
    1C        C  415   4.127   4.307   3.254
    1C        C  416   3.943   4.411   3.373
    1C        C  417   4.004   4.381   3.497
    1C        C  418   3.815   4.478   3.617
    1C        C  419   3.946   4.424   3.618
    1C        C  420   3.746   4.498   3.739
    1C        C  421   3.816   4.482   3.860
    1C        C  422   3.613   4.531   3.986
    1C        C  423   3.752   4.509   3.983
    1C        C  424   3.542   4.538   4.108
    1C        C  425   3.614   4.533   4.229
    1C        C  426   3.403   4.550   4.355
    1C        C  427   3.544   4.552   4.351
    1C        C  428   3.332   4.547   4.477
    1C        C  429   3.407   4.557   4.596
    1C        C  430   3.196   4.519   4.723
    1C        C  431   3.335   4.547   4.718
    1C        C  432   3.126   4.500   4.845
    1C        C  433   3.205   4.501   4.960
    1C        C  434   4.387   4.117   2.048
    1C        C  435   4.454   3.994   2.049
    1C        C  436   4.304   4.157   2.157
    1C        C  437   4.335   4.096   2.281
    1C        C  438   4.184   4.249   2.399
    1C        C  439   4.288   4.153   2.401
    1C        C  440   4.129   4.295   2.521
    1C        C  441   4.178   4.244   2.643
    1C        C  442   4.007   4.373   2.768
    1C        C  443   4.123   4.292   2.765
    1C        C  444   3.942   4.411   2.887
    1C        C  445   4.007   4.375   3.007
    1C        C  446   3.813   4.463   3.132
    1C        C  447   3.945   4.414   3.128
    1C        C  448   3.747   4.490   3.254
    1C        C  449   3.814   4.468   3.376
    1C        C  450   3.606   4.524   3.498
    1C        C  451   3.745   4.499   3.496
    1C        C  452   3.539   4.535   3.622
    1C        C  453   3.609   4.531   3.745
    1C        C  454   3.396   4.537   3.864
    1C        C  455   3.537   4.539   3.866
    1C        C  456   3.328   4.534   3.988
    1C        C  457   3.401   4.541   4.109
    1C        C  458   3.196   4.504   4.236
    1C        C  459   3.334   4.532   4.233
    1C        C  460   3.129   4.481   4.359
    1C        C  461   3.195   4.513   4.479
    1C        C  462   3.001   4.430   4.608
    1C        C  463   3.129   4.491   4.602
    1C        C  464   2.936   4.392   4.727
    1C        C  465   2.995   4.442   4.846
    1C        C  466   2.800   4.334   4.962
    1C        C  467   2.904   4.428   4.956
    1C        C  468   4.124   4.285   2.042
    1C        C  469   4.190   4.244   2.159
    1C        C  470   4.008   4.368   2.278
    1C        C  471   4.130   4.295   2.277
    1C        C  472   3.945   4.399   2.401
    1C        C  473   4.009   4.369   2.523
    1C        C  474   3.815   4.458   2.644
    1C        C  475   3.945   4.403   2.644
    1C        C  476   3.747   4.488   2.764
    1C        C  477   3.814   4.470   2.887
    1C        C  478   3.607   4.513   3.011
    1C        C  479   3.745   4.487   3.010
    1C        C  480   3.536   4.520   3.133
    1C        C  481   3.608   4.514   3.254
    1C        C  482   3.396   4.536   3.376
    1C        C  483   3.537   4.532   3.375
    1C        C  484   3.327   4.525   3.498
    1C        C  485   3.398   4.531   3.621
    1C        C  486   3.188   4.500   3.747
    1C        C  487   3.326   4.531   3.742
    1C        C  488   3.124   4.474   3.870
    1C        C  489   3.192   4.497   3.992
    1C        C  490   3.003   4.411   4.113
    1C        C  491   3.125   4.482   4.116
    1C        C  492   2.945   4.378   4.238
    1C        C  493   3.000   4.423   4.360
    1C        C  494   2.834   4.300   4.482
    1C        C  495   2.944   4.389   4.485
    1C        C  496   2.777   4.254   4.602
    1C        C  497   2.821   4.308   4.725
    1C        C  498   2.669   4.160   4.845
    1C        C  499   2.756   4.271   4.845
    1C        C  500   2.593   4.119   4.955
    1C        C  501   4.003   4.354   2.043
    1C        C  502   3.814   4.463   2.158
    1C        C  503   3.941   4.403   2.159
    1C        C  504   3.743   4.478   2.280
    1C        C  505   3.814   4.451   2.399
    1C        C  506   3.608   4.501   2.520
    1C        C  507   3.747   4.477   2.521
    1C        C  508   3.535   4.507   2.641
    1C        C  509   3.607   4.508   2.762
    1C        C  510   3.399   4.522   2.885
    1C        C  511   3.540   4.519   2.886
    1C        C  512   3.327   4.515   3.007
    1C        C  513   3.394   4.528   3.130
    1C        C  514   3.188   4.492   3.255
    1C        C  515   3.325   4.527   3.254
    1C        C  516   3.124   4.466   3.378
    1C        C  517   3.190   4.490   3.500
    1C        C  518   2.999   4.408   3.625
    1C        C  519   3.123   4.475   3.624
    1C        C  520   2.940   4.369   3.747
    1C        C  521   3.001   4.406   3.869
    1C        C  522   2.830   4.283   3.995
    1C        C  523   2.942   4.369   3.993
    1C        C  524   2.787   4.234   4.121
    1C        C  525   2.836   4.289   4.242
    1C        C  526   2.695   4.132   4.365
    1C        C  527   2.778   4.246   4.364
    1C        C  528   2.651   4.075   4.486
    1C        C  529   2.691   4.142   4.604
    1C        C  530   2.589   3.957   4.733
    1C        C  531   2.648   4.086   4.726
    1C        C  532   2.548   3.896   4.854
    1C        C  533   2.533   3.993   4.959
    1C        C  534   3.618   4.558   2.041
    1C        C  535   3.749   4.509   2.042
    1C        C  536   3.536   4.540   2.157
    1C        C  537   3.606   4.515   2.278
    1C        C  538   3.394   4.521   2.402
    1C        C  539   3.535   4.515   2.400
    1C        C  540   3.322   4.508   2.522
    1C        C  541   3.393   4.510   2.644
    1C        C  542   3.185   4.487   2.765
    1C        C  543   3.323   4.516   2.766
    1C        C  544   3.122   4.466   2.890
    1C        C  545   3.189   4.484   3.013
    1C        C  546   2.993   4.403   3.134
    1C        C  547   3.120   4.466   3.134
    1C        C  548   2.937   4.367   3.258
    1C        C  549   2.995   4.408   3.380
    1C        C  550   2.826   4.283   3.505
    1C        C  551   2.938   4.370   3.504
    1C        C  552   2.774   4.234   3.627
    1C        C  553   2.830   4.281   3.748
    1C        C  554   2.700   4.117   3.878
    1C        C  555   2.785   4.230   3.872
    1C        C  556   2.657   4.062   4.000
    1C        C  557   2.700   4.123   4.120
    1C        C  558   2.602   3.939   4.246
    1C        C  559   2.661   4.067   4.244
    1C        C  560   2.569   3.877   4.369
    1C        C  561   2.592   3.947   4.490
    1C        C  562   2.536   3.746   4.614
    1C        C  563   2.570   3.883   4.614
    1C        C  564   2.517   3.678   4.736
    1C        C  565   2.523   3.755   4.855
    1C        C  566   2.528   3.542   4.977
    1C        C  567   2.521   3.680   4.974
    1C        C  568   3.326   4.478   2.042
    1C        C  569   3.396   4.515   2.157
    1C        C  570   3.186   4.478   2.280
    1C        C  571   3.324   4.512   2.279
    1C        C  572   3.114   4.462   2.400
    1C        C  573   3.183   4.483   2.522
    1C        C  574   2.987   4.404   2.649
    1C        C  575   3.116   4.462   2.644
    1C        C  576   2.933   4.361   2.772
    1C        C  577   2.997   4.399   2.892
    1C        C  578   2.823   4.276   3.016
    1C        C  579   2.932   4.366   3.012
    1C        C  580   2.777   4.225   3.140
    1C        C  581   2.831   4.273   3.261
    1C        C  582   2.699   4.110   3.387
    1C        C  583   2.780   4.226   3.384
    1C        C  584   2.660   4.055   3.511
    1C        C  585   2.694   4.117   3.634
    1C        C  586   2.597   3.930   3.756
    1C        C  587   2.658   4.058   3.757
    1C        C  588   2.570   3.870   3.881
    1C        C  589   2.596   3.934   4.004
    1C        C  590   2.538   3.731   4.129
    1C        C  591   2.575   3.868   4.127
    1C        C  592   2.530   3.664   4.253
    1C        C  593   2.535   3.740   4.372
    1C        C  594   2.515   3.532   4.496
    1C        C  595   2.519   3.673   4.495
    1C        C  596   2.521   3.460   4.618
    1C        C  597   2.514   3.536   4.737
    1C        C  598   2.533   3.325   4.863
    1C        C  599   2.522   3.466   4.859
    1C        C  600   2.536   3.247   4.980
    1C        C  601   3.196   4.432   2.041
    1C        C  602   2.984   4.398   2.161
    1C        C  603   3.122   4.437   2.160
    1C        C  604   2.925   4.361   2.285
    1C        C  605   2.989   4.397   2.406
    1C        C  606   2.819   4.272   2.530
    1C        C  607   2.924   4.366   2.528
    1C        C  608   2.773   4.218   2.652
    1C        C  609   2.826   4.269   2.773
    1C        C  610   2.687   4.110   2.898
    1C        C  611   2.777   4.219   2.896
    1C        C  612   2.655   4.049   3.021
    1C        C  613   2.695   4.110   3.142
    1C        C  614   2.593   3.926   3.266
    1C        C  615   2.661   4.050   3.265
    1C        C  616   2.568   3.864   3.391
    1C        C  617   2.598   3.929   3.513
    1C        C  618   2.529   3.728   3.639
    1C        C  619   2.570   3.863   3.635
    1C        C  620   2.518   3.663   3.764
    1C        C  621   2.534   3.733   3.885
    1C        C  622   2.509   3.521   4.010
    1C        C  623   2.524   3.662   4.007
    1C        C  624   2.508   3.451   4.133
    1C        C  625   2.508   3.524   4.253
    1C        C  626   2.530   3.315   4.381
    1C        C  627   2.512   3.455   4.377
    1C        C  628   2.551   3.246   4.502
    1C        C  629   2.540   3.321   4.621
    1C        C  630   2.593   3.116   4.743
    1C        C  631   2.548   3.251   4.744
    1C        C  632   2.617   3.049   4.866
    1C        C  633   2.561   3.110   4.983
    1C        C  634   2.785   4.302   2.053
    1C        C  635   2.894   4.389   2.051
    1C        C  636   2.750   4.229   2.168
    1C        C  637   2.813   4.274   2.286
    1C        C  638   2.689   4.104   2.410
    1C        C  639   2.766   4.222   2.409
    1C        C  640   2.650   4.043   2.532
    1C        C  641   2.694   4.100   2.653
    1C        C  642   2.591   3.919   2.778
    1C        C  643   2.652   4.046   2.776
    1C        C  644   2.561   3.857   2.901
    1C        C  645   2.587   3.925   3.022
    1C        C  646   2.530   3.722   3.148
    1C        C  647   2.561   3.860   3.145
    1C        C  648   2.519   3.656   3.273
    1C        C  649   2.532   3.728   3.394
    1C        C  650   2.504   3.519   3.521
    1C        C  651   2.512   3.660   3.516
    1C        C  652   2.507   3.448   3.643
    1C        C  653   2.506   3.522   3.764
    1C        C  654   2.522   3.312   3.892
    1C        C  655   2.503   3.452   3.887
    1C        C  656   2.547   3.242   4.012
    1C        C  657   2.531   3.312   4.134
    1C        C  658   2.602   3.116   4.256
    1C        C  659   2.550   3.247   4.259
    1C        C  660   2.628   3.051   4.379
    1C        C  661   2.597   3.112   4.502
    1C        C  662   2.707   2.931   4.625
    1C        C  663   2.628   3.048   4.624
    1C        C  664   2.744   2.871   4.748
    1C        C  665   2.692   2.927   4.867
    1C        C  666   2.740   2.866   4.984
    1C        C  667   2.687   4.021   2.054
    1C        C  668   2.694   4.100   2.170
    1C        C  669   2.596   3.908   2.292
    1C        C  670   2.653   4.038   2.290
    1C        C  671   2.566   3.845   2.415
    1C        C  672   2.585   3.918   2.535
    1C        C  673   2.521   3.716   2.659
    1C        C  674   2.567   3.849   2.657
    1C        C  675   2.507   3.648   2.782
    1C        C  676   2.525   3.720   2.902
    1C        C  677   2.509   3.511   3.030
    1C        C  678   2.520   3.652   3.026
    1C        C  679   2.510   3.444   3.155
    1C        C  680   2.504   3.516   3.276
    1C        C  681   2.535   3.309   3.402
    1C        C  682   2.508   3.447   3.400
    1C        C  683   2.552   3.242   3.526
    1C        C  684   2.528   3.309   3.649
    1C        C  685   2.597   3.111   3.770
    1C        C  686   2.537   3.239   3.771
    1C        C  687   2.620   3.043   3.891
    1C        C  688   2.584   3.106   4.013
    1C        C  689   2.709   2.934   4.137
    1C        C  690   2.625   3.048   4.135
    1C        C  691   2.751   2.876   4.259
    1C        C  692   2.706   2.933   4.381
    1C        C  693   2.752   2.878   4.502
    1C        C  694   2.630   3.893   2.055
    1C        C  695   2.535   3.701   2.175
    1C        C  696   2.586   3.832   2.173
    1C        C  697   2.509   3.634   2.296
    1C        C  698   2.525   3.710   2.414
    1C        C  699   2.495   3.504   2.540
    1C        C  700   2.505   3.645   2.538
    1C        C  701   2.502   3.435   2.663
    1C        C  702   2.499   3.506   2.784
    1C        C  703   2.529   3.300   2.910
    1C        C  704   2.508   3.440   2.908
    1C        C  705   2.548   3.234   3.033
    1C        C  706   2.532   3.304   3.155
    1C        C  707   2.599   3.107   3.279
    1C        C  708   2.550   3.240   3.279
    1C        C  709   2.631   3.045   3.402
    1C        C  710   2.607   3.112   3.524
    1C        C  711   2.711   2.931   3.647
    1C        C  712   2.635   3.051   3.648
    1C        C  713   2.750   2.876   3.771
    1C        C  714   2.704   2.930   3.893
    1C        C  715   2.756   2.879   4.015
    1C        C  716   2.452   3.498   2.058
    1C        C  717   2.493   3.632   2.060
    1C        C  718   2.467   3.418   2.176
    1C        C  719   2.486   3.493   2.295
    1C        C  720   2.511   3.289   2.426
    1C        C  721   2.487   3.428   2.420
    1C        C  722   2.534   3.220   2.547
    1C        C  723   2.522   3.295   2.666
    1C        C  724   2.594   3.097   2.788
    1C        C  725   2.541   3.228   2.789
    1C        C  726   2.627   3.038   2.912
    1C        C  727   2.598   3.101   3.035
    1C        C  728   2.707   2.924   3.160
    1C        C  729   2.625   3.039   3.159
    1C        C  730   2.753   2.868   3.282
    1C        C  731   2.705   2.924   3.403
    1C        C  732   2.752   2.871   3.525
    1C        C  733   2.487   3.192   2.069
    1C        C  734   2.488   3.277   2.181
    1C        C  735   2.578   3.086   2.304
    1C        C  736   2.521   3.216   2.305
    1C        C  737   2.614   3.022   2.425
    1C        C  738   2.587   3.089   2.547
    1C        C  739   2.702   2.909   2.668
    1C        C  740   2.624   3.028   2.668
    1C        C  741   2.738   2.854   2.793
    1C        C  742   2.697   2.915   2.914
    1C        C  743   2.745   2.866   3.037
    1C        C  744   2.547   3.066   2.071
    1C        C  745   2.683   2.895   2.186
    1C        C  746   2.608   3.014   2.186
    1C        C  747   2.731   2.838   2.305
    1C        C  748   2.691   2.904   2.424
    1C        C  749   2.733   2.846   2.546
    1C        C  750   2.731   2.832   2.070
    1C        C  751   3.661   2.304   2.000
    1C        O  752   3.701   2.195   2.048
    1C        O  753   3.686   2.296   1.863
    1C        C  754   4.641   3.047   1.987
    1C        O  755   4.635   3.020   1.864
    1C        O  756   4.762   3.002   2.042
    1C        C  757   4.447   4.211   1.950
    1C        O  758   4.530   4.300   1.980
    1C        O  759   4.404   4.213   1.817
    1C        C  760   3.598   4.670   1.946
    1C        O  761   3.533   4.774   1.978
    1C        O  762   3.574   4.637   1.813
    1C        C  763   2.882   4.517   1.976
    1C        O  764   2.871   4.503   1.851
    1C        O  765   2.783   4.601   2.027
    1C        C  766   2.368   3.469   1.940
    1C        O  767   2.403   3.489   1.821
    1C        O  768   2.228   3.481   1.949
    1C        C  769   4.678   3.576   5.063
    1C        O  770   4.654   3.565   5.186
    1C        O  771   4.817   3.587   5.049
    1C        C  772   4.273   4.461   5.034
    1C        O  773   4.252   4.483   5.156
    1C        O  774   4.369   4.551   4.985
    1C        C  775   4.153   2.514   5.062
    1C        O  776   4.200   2.398   5.045
    1C        O  777   4.164   2.552   5.197
    1C        C  778   2.868   4.554   5.025
    1C        O  779   2.799   4.644   4.969
    1C        O  780   2.949   4.612   5.124
    1C        C  781   2.463   3.039   5.069
    1C        O  782   2.371   2.971   5.016
    1C        O  783   2.475   3.046   5.207
    1C        C  784   2.401   4.013   5.024
    1C        O  785   2.318   4.096   4.979
    1C        O  786   2.394   3.995   5.163
    1C        C  787   2.941   2.416   2.026
    1C        O  788   2.882   2.439   1.917
    1C        O  789   2.880   2.312   2.094
    1C        C  790   3.182   2.363   5.051
    1C        O  791   3.132   2.270   4.982
    1C        O  792   3.138   2.357   5.183
    1C        H  793   4.266   3.042   5.044
    1C        H  794   4.170   2.820   5.071
    1C        H  795   4.496   3.134   5.065
    1C        H  796   4.565   3.350   5.065
    1C        H  797   4.521   3.799   5.049
    1C        H  798   4.413   3.969   5.054
    1C        H  799   4.258   4.143   5.043
    1C        H  800   4.035   4.546   5.025
    1C        H  801   3.813   4.599   5.037
    1C        H  802   3.580   4.648   5.031
    1C        H  803   3.395   4.464   5.031
    1C        H  804   3.157   4.507   5.056
    1C        H  805   3.895   2.474   5.064
    1C        H  806   3.661   2.412   5.057
    1C        H  807   3.005   2.549   5.068
    1C        H  808   3.443   2.504   5.076
    1C        H  809   2.861   2.717   5.077
    1C        H  810   2.725   2.927   5.070
    1C        H  811   2.502   3.286   5.073
    1C        H  812   2.493   3.494   5.066
    1C        H  813   2.495   3.729   5.065
    1C        H  814   2.568   4.201   5.020
    1C        H  815   2.740   4.342   5.050
    1C        H  816   2.666   2.825   1.985
    1C        H  817   2.838   2.672   1.980
    1C        H  818   3.214   2.477   1.979
    1C        H  819   3.437   2.460   1.984
    1C        H  820   3.869   2.483   1.981
    1C        H  821   4.070   2.618   1.966
    1C        H  822   4.293   2.701   1.992
    1C        H  823   4.359   2.937   1.969
    1C        H  824   4.598   3.309   1.972
    1C        H  825   4.523   3.515   1.958
    1C        H  826   4.486   3.735   1.954
    1C        H  827   3.799   4.509   1.948
    1C        H  828   3.974   4.391   1.947
    1C        H  829   4.178   4.308   1.952
    1C        H  830   4.496   3.953   1.960
    1C        H  831   2.582   3.860   1.965
    1C        H  832   2.770   4.026   1.988
    1C        H  833   2.729   4.298   1.962
    1C        H  834   3.361   4.514   1.947
    1C        H  835   3.176   4.351   1.972
    1C        H  836   2.581   3.028   1.977
    1C        H  837   2.391   3.185   2.023
    1C        H  838   2.507   3.676   1.963
    2V3OU   H29  839   2.809   3.555   3.480
    2V3OU   C27  840   2.789   3.507   3.580
    2V3OU   H27  841   2.736   3.575   3.651
    2V3OU   H28  842   2.738   3.408   3.564
    2V3OU   O11  843   2.914   3.479   3.643
    2V3OU   C15  844   2.928   3.403   3.757
    2V3OU   C13  845   3.057   3.374   3.807
    2V3OU   C14  846   3.083   3.268   3.895
    2V3OU   C16  847   2.982   3.188   3.945
    2V3OU    H6  848   3.000   3.096   4.002
    2V3OU   C12  849   3.219   3.225   3.936
    2V3OU    O2  850   3.242   3.129   4.012
    2V3OU   C10  851   3.328   3.311   3.887
    2V3OU    C8  852   3.460   3.277   3.914
    2V3OU   O10  853   3.488   3.154   3.966
    2V3OU   H26  854   3.404   3.117   3.999
    2V3OU    C6  855   3.568   3.350   3.858
    2V3OU    C5  856   3.540   3.467   3.788
    2V3OU    C4  857   3.706   3.294   3.847
    2V3OU    H4  858   3.725   3.233   3.940
    2V3OU    H5  859   3.712   3.227   3.756
    2V3OU    C2  860   3.818   3.399   3.846
    2V3OU    O6  861   3.812   3.475   3.967
    2V3OU   H21  862   3.765   3.556   3.942
    2V3OU    C3  863   3.784   3.501   3.738
    2V3OU    H2  864   3.861   3.581   3.730
    2V3OU    H3  865   3.780   3.443   3.642
    2V3OU   C25  866   3.954   3.331   3.828
    2V3OU    O7  867   3.995   3.301   3.716
    2V3OU   C26  868   4.034   3.289   3.951
    2V3OU   H22  869   4.055   3.381   4.012
    2V3OU   H23  870   4.125   3.232   3.919
    2V3OU    O8  871   3.961   3.209   4.041
    2V3OU   H24  872   3.922   3.265   4.109
    2V3OU    C1  873   3.650   3.567   3.767
    2V3OU    H1  874   3.624   3.623   3.673
    2V3OU    O3  875   3.652   3.655   3.880
    2V3OU   C19  876   3.616   3.793   3.871
    2V3OU    H9  877   3.520   3.814   3.815
    2V3OU    O4  878   3.718   3.845   3.788
    2V3OU   C20  879   3.847   3.874   3.843
    2V3OU   H10  880   3.892   3.771   3.851
    2V3OU   C24  881   3.611   3.853   4.012
    2V3OU   H16  882   3.541   3.796   4.079
    2V3OU   H17  883   3.567   3.953   3.989
    2V3OU   C23  884   3.750   3.875   4.071
    2V3OU   H15  885   3.795   3.771   4.082
    2V3OU    N1  886   3.733   3.951   4.194
    2V3OU   H19  887   3.807   3.921   4.254
    2V3OU   H20  888   3.644   3.935   4.235
    2V3OU   C21  889   3.848   3.950   3.976
    2V3OU   H11  890   3.953   3.931   4.011
    2V3OU    O5  891   3.823   4.089   3.987
    2V3OU   H18  892   3.771   4.108   4.067
    2V3OU   C22  893   3.913   3.951   3.729
    2V3OU   H12  894   3.853   4.042   3.701
    2V3OU   H13  895   3.909   3.889   3.636
    2V3OU   H14  896   4.020   3.972   3.753
    2V3OU   C11  897   3.163   3.475   3.789
    2V3OU    O1  898   3.134   3.593   3.760
    2V3OU    C9  899   3.300   3.423   3.805
    2V3OU    C7  900   3.405   3.502   3.758
    2V3OU    O9  901   3.385   3.627   3.702
    2V3OU   H25  902   3.289   3.632   3.711
    2V3OU   C17  903   2.830   3.319   3.814
    2V3OU    H7  904   2.730   3.355   3.791
    2V3OU   C18  905   2.851   3.220   3.909
    2V3OU    H8  906   2.788   3.171   3.985
    3SOL     OW  907   2.846   4.468   5.969
    3SOL    HW1  908   2.849   4.526   5.888
    3SOL    HW2  909   2.939   4.440   5.993
    4SOL     OW  910   6.565   0.209   6.535
    4SOL    HW1  911   6.561   0.306   6.559
    4SOL    HW2  912   6.543   0.197   6.438
    5SOL     OW  913   4.841   2.169   2.503
    5SOL    HW1  914   4.792   2.228   2.439
    5SOL    HW2  915   4.813   2.074   2.488
    6SOL     OW  916   4.757   1.905   2.389
    6SOL    HW1  917   4.764   1.922   2.291
    6SOL    HW2  918   4.671   1.858   2.408
    7SOL     OW  919   1.065   4.014   4.117
    7SOL    HW1  920   1.094   3.969   4.032
    7SOL    HW2  921   0.974   3.983   4.141
    8SOL     OW  922   2.816   2.076   5.232
    8SOL    HW1  923   2.813   2.047   5.328
    8SOL    HW2  924   2.826   2.176   5.228
    9SOL     OW  925   6.082   2.202   5.805
    9SOL    HW1  926   6.051   2.216   5.711
    9SOL    HW2  927   6.178   2.175   5.806
   10SOL     OW  928   2.730   4.730   4.511
   10SOL    HW1  929   2.651   4.683   4.472
   10SOL    HW2  930   2.723   4.731   4.610
   11SOL     OW  931   2.006   1.072   6.453
   11SOL    HW1  932   1.913   1.039   6.438
   11SOL    HW2  933   2.060   1.000   6.498
   12SOL     OW  934   2.825   4.776   3.914
   12SOL    HW1  935   2.831   4.867   3.875
   12SOL    HW2  936   2.917   4.741   3.933
   13SOL     OW  937   3.947   6.379   3.473
   13SOL    HW1  938   4.026   6.430   3.438
   13SOL    HW2  939   3.910   6.426   3.553
   14SOL     OW  940   3.908   4.024   6.449
   14SOL    HW1  941   3.878   4.118   6.436
   14SOL    HW2  942   4.003   4.023   6.481
   15SOL     OW  943   0.921   0.106   0.042
   15SOL    HW1  944   0.914   0.018   0.089
   15SOL    HW2  945   0.866   0.174   0.092
   16SOL     OW  946   5.688   2.651   6.727
   16SOL    HW1  947   5.761   2.715   6.704
   16SOL    HW2  948   5.660   2.666   6.822
   17SOL     OW  949   4.871   0.347   6.178
   17SOL    HW1  950   4.914   0.308   6.260
   17SOL    HW2  951   4.855   0.445   6.192
   18SOL     OW  952   3.585   1.035   4.685
   18SOL    HW1  953   3.505   1.017   4.743
   18SOL    HW2  954   3.665   0.987   4.722
   19SOL     OW  955   0.569   2.684   2.018
   19SOL    HW1  956   0.584   2.604   1.960
   19SOL    HW2  957   0.652   2.702   2.072
   20SOL     OW  958   4.873   2.318   5.366
   20SOL    HW1  959   4.947   2.369   5.410
   20SOL    HW2  960   4.785   2.358   5.394
   21SOL     OW  961   2.647   0.580   2.988
   21SOL    HW1  962   2.643   0.649   2.915
   21SOL    HW2  963   2.677   0.623   3.073
   22SOL     OW  964   1.077   6.550   0.291
   22SOL    HW1  965   1.050   6.454   0.292
   22SOL    HW2  966   1.159   6.562   0.347
   23SOL     OW  967   4.138   5.164   2.430
   23SOL    HW1  968   4.085   5.152   2.514
   23SOL    HW2  969   4.080   5.152   2.351
   24SOL     OW  970   3.596   0.464   2.418
   24SOL    HW1  971   3.695   0.469   2.425
   24SOL    HW2  972   3.554   0.525   2.486
   25SOL     OW  973   1.833   0.207   3.730
   25SOL    HW1  974   1.930   0.233   3.727
   25SOL    HW2  975   1.790   0.231   3.643
   26SOL     OW  976   6.744   1.913   0.032
   26SOL    HW1  977   6.729   1.888   0.128
   26SOL    HW2  978   6.708   2.005   0.016
   27SOL     OW  979   1.993   1.278   2.207
   27SOL    HW1  980   2.006   1.221   2.126
   27SOL    HW2  981   1.904   1.325   2.201
   28SOL     OW  982   0.072   0.963   4.826
   28SOL    HW1  983   7.006   0.995   4.796
   28SOL    HW2  984   0.137   0.969   4.750
   29SOL     OW  985   6.868   0.820   1.034
   29SOL    HW1  986   6.888   0.736   0.983
   29SOL    HW2  987   6.952   0.872   1.047
   30SOL     OW  988   4.399   0.440   5.325
   30SOL    HW1  989   4.458   0.365   5.356
   30SOL    HW2  990   4.450   0.498   5.262
   31SOL     OW  991   0.703   2.031   5.574
   31SOL    HW1  992   0.777   2.037   5.507
   31SOL    HW2  993   0.616   2.015   5.526
   32SOL     OW  994   1.491   1.719   2.232
   32SOL    HW1  995   1.563   1.651   2.241
   32SOL    HW2  996   1.530   1.803   2.195
   33SOL     OW  997   1.037   4.501   5.316
   33SOL    HW1  998   0.992   4.563   5.252
   33SOL    HW2  999   1.089   4.554   5.383
   34SOL     OW 1000   2.638   5.492   4.770
   34SOL    HW1 1001   2.670   5.401   4.745
   34SOL    HW2 1002   2.710   5.540   4.822
   35SOL     OW 1003   4.266   2.223   5.503
   35SOL    HW1 1004   4.252   2.236   5.601
   35SOL    HW2 1005   4.352   2.175   5.488
   36SOL     OW 1006   4.608   1.527   3.980
   36SOL    HW1 1007   4.638   1.485   4.066
   36SOL    HW2 1008   4.627   1.625   3.983
   37SOL     OW 1009   1.828   1.855   5.259
   37SOL    HW1 1010   1.842   1.793   5.337
   37SOL    HW2 1011   1.851   1.948   5.286
   38SOL     OW 1012   1.992   3.892   1.828
   38SOL    HW1 1013   2.006   3.984   1.865
   38SOL    HW2 1014   2.066   3.832   1.858
   39SOL     OW 1015   5.801   4.751   6.185
   39SOL    HW1 1016   5.860   4.791   6.114
   39SOL    HW2 1017   5.831   4.658   6.204
   40SOL     OW 1018   3.620   2.009   0.037
   40SOL    HW1 1019   3.574   1.969   6.981
   40SOL    HW2 1020   3.554   2.062   0.091
   41SOL     OW 1021   6.427   3.508   2.720
   41SOL    HW1 1022   6.339   3.554   2.711
   41SOL    HW2 1023   6.415   3.423   2.771
   42SOL     OW 1024   3.268   5.829   4.695
   42SOL    HW1 1025   3.366   5.806   4.692
   42SOL    HW2 1026   3.257   5.922   4.731
   43SOL     OW 1027   4.203   0.720   5.561
   43SOL    HW1 1028   4.302   0.704   5.552
   43SOL    HW2 1029   4.162   0.645   5.614
   44SOL     OW 1030   6.076   2.082   5.195
   44SOL    HW1 1031   6.078   2.101   5.097
   44SOL    HW2 1032   6.150   2.131   5.240
   45SOL     OW 1033   4.310   5.421   1.600
   45SOL    HW1 1034   4.324   5.359   1.677
   45SOL    HW2 1035   4.317   5.516   1.631
   46SOL     OW 1036   1.200   2.314   4.210
   46SOL    HW1 1037   1.144   2.277   4.136
   46SOL    HW2 1038   1.283   2.354   4.172
   47SOL     OW 1039   4.010   4.213   1.631
   47SOL    HW1 1040   4.010   4.184   1.535
   47SOL    HW2 1041   3.968   4.142   1.687
   48SOL     OW 1042   6.809   2.393   6.907
   48SOL    HW1 1043   6.718   2.411   6.945
   48SOL    HW2 1044   6.874   2.460   6.944
   49SOL     OW 1045   5.220   2.071   1.665
   49SOL    HW1 1046   5.263   2.105   1.749
   49SOL    HW2 1047   5.288   2.065   1.592
   50SOL     OW 1048   6.333   1.455   5.511
   50SOL    HW1 1049   6.299   1.549   5.514
   50SOL    HW2 1050   6.289   1.406   5.435
   51SOL     OW 1051   1.996   6.349   2.663
   51SOL    HW1 1052   2.034   6.332   2.572
   51SOL    HW2 1053   2.002   6.446   2.684
   52SOL     OW 1054   5.557   2.743   1.787
   52SOL    HW1 1055   5.504   2.659   1.800
   52SOL    HW2 1056   5.506   2.820   1.825
   53SOL     OW 1057   5.540   0.468   3.391
   53SOL    HW1 1058   5.556   0.552   3.443
   53SOL    HW2 1059   5.626   0.421   3.375
   54SOL     OW 1060   5.084   0.023   0.430
   54SOL    HW1 1061   5.156   6.994   0.476
   54SOL    HW2 1062   4.995   7.014   0.461
   55SOL     OW 1063   2.064   2.402   5.262
   55SOL    HW1 1064   2.098   2.402   5.168
   55SOL    HW2 1065   2.131   2.444   5.323
   56SOL     OW 1066   1.105   1.628   1.122
   56SOL    HW1 1067   1.137   1.578   1.042
   56SOL    HW2 1068   1.012   1.661   1.107
   57SOL     OW 1069   3.520   1.425   0.876
   57SOL    HW1 1070   3.579   1.451   0.952
   57SOL    HW2 1071   3.575   1.381   0.805
   58SOL     OW 1072   0.718   6.283   5.693
   58SOL    HW1 1073   0.738   6.309   5.599
   58SOL    HW2 1074   0.621   6.297   5.712
   59SOL     OW 1075   6.996   3.622   6.208
   59SOL    HW1 1076   6.968   3.718   6.205
   59SOL    HW2 1077   6.914   3.564   6.202
   60SOL     OW 1078   4.899   2.376   3.706
   60SOL    HW1 1079   4.976   2.396   3.646
   60SOL    HW2 1080   4.818   2.425   3.673
   61SOL     OW 1081   6.877   1.040   4.686
   61SOL    HW1 1082   6.903   1.127   4.643
   61SOL    HW2 1083   6.912   0.964   4.631
   62SOL     OW 1084   2.216   0.878   1.802
   62SOL    HW1 1085   2.215   0.920   1.711
   62SOL    HW2 1086   2.289   0.920   1.856
   63SOL     OW 1087   4.130   0.525   3.465
   63SOL    HW1 1088   4.111   0.428   3.478
   63SOL    HW2 1089   4.088   0.577   3.540
   64SOL     OW 1090   0.537   3.084   6.492
   64SOL    HW1 1091   0.530   3.071   6.393
   64SOL    HW2 1092   0.632   3.071   6.520
   65SOL     OW 1093   1.316   6.407   5.881
   65SOL    HW1 1094   1.217   6.389   5.882
   65SOL    HW2 1095   1.332   6.505   5.867
   66SOL     OW 1096   3.303   0.153   3.624
   66SOL    HW1 1097   3.364   0.121   3.551
   66SOL    HW2 1098   3.354   0.157   3.710
   67SOL     OW 1099   0.452   3.400   6.227
   67SOL    HW1 1100   0.395   3.455   6.166
   67SOL    HW2 1101   0.418   3.408   6.320
   68SOL     OW 1102   6.940   1.908   6.207
   68SOL    HW1 1103   6.867   1.907   6.275
   68SOL    HW2 1104   6.965   1.813   6.185
   69SOL     OW 1105   1.736   2.992   4.953
   69SOL    HW1 1106   1.816   2.937   4.977
   69SOL    HW2 1107   1.718   3.058   5.026
   70SOL     OW 1108   5.303   5.149   4.678
   70SOL    HW1 1109   5.262   5.203   4.605
   70SOL    HW2 1110   5.231   5.097   4.725
   71SOL     OW 1111   4.820   1.553   3.352
   71SOL    HW1 1112   4.749   1.505   3.301
   71SOL    HW2 1113   4.908   1.508   3.337
   72SOL     OW 1114   0.456   1.556   3.322
   72SOL    HW1 1115   0.394   1.633   3.303
   72SOL    HW2 1116   0.544   1.574   3.278
   73SOL     OW 1117   2.958   0.700   1.180
   73SOL    HW1 1118   2.911   0.777   1.137
   73SOL    HW2 1119   2.946   0.618   1.124
   74SOL     OW 1120   2.692   1.355   6.285
   74SOL    HW1 1121   2.790   1.355   6.269
   74SOL    HW2 1122   2.655   1.447   6.272
   75SOL     OW 1123   4.043   1.488   1.635
   75SOL    HW1 1124   4.004   1.569   1.592
   75SOL    HW2 1125   4.101   1.516   1.712
   76SOL     OW 1126   2.248   3.708   5.966
   76SOL    HW1 1127   2.325   3.682   6.024
   76SOL    HW2 1128   2.244   3.808   5.961
   77SOL     OW 1129   1.820   5.856   3.199
   77SOL    HW1 1130   1.768   5.826   3.278
   77SOL    HW2 1131   1.769   5.928   3.151
   78SOL     OW 1132   4.090   1.470   1.246
   78SOL    HW1 1133   4.120   1.528   1.170
   78SOL    HW2 1134   4.158   1.472   1.319
   79SOL     OW 1135   2.739   5.989   1.721
   79SOL    HW1 1136   2.711   6.021   1.630
   79SOL    HW2 1137   2.670   5.927   1.758
   80SOL     OW 1138   4.557   1.375   4.678
   80SOL    HW1 1139   4.539   1.422   4.765
   80SOL    HW2 1140   4.470   1.346   4.638
   81SOL     OW 1141   1.858   6.713   1.569
   81SOL    HW1 1142   1.802   6.725   1.487
   81SOL    HW2 1143   1.919   6.792   1.579
   82SOL     OW 1144   6.832   5.760   1.333
   82SOL    HW1 1145   6.892   5.710   1.271
   82SOL    HW2 1146   6.885   5.833   1.378
   83SOL     OW 1147   0.797   1.123   6.283
   83SOL    HW1 1148   0.822   1.218   6.262
   83SOL    HW2 1149   0.877   1.074   6.317
   84SOL     OW 1150   6.423   4.385   3.444
   84SOL    HW1 1151   6.367   4.327   3.384
   84SOL    HW2 1152   6.513   4.343   3.456
   85SOL     OW 1153   1.484   0.912   3.486
   85SOL    HW1 1154   1.458   0.894   3.392
   85SOL    HW2 1155   1.410   0.961   3.533
   86SOL     OW 1156   6.997   1.481   6.652
   86SOL    HW1 1157   0.011   1.508   6.741
   86SOL    HW2 1158   7.019   1.385   6.634
   87SOL     OW 1159   3.714   3.818   0.568
   87SOL    HW1 1160   3.753   3.735   0.528
   87SOL    HW2 1161   3.757   3.835   0.656
   88SOL     OW 1162   3.128   2.222   6.635
   88SOL    HW1 1163   3.043   2.212   6.583
   88SOL    HW2 1164   3.180   2.300   6.600
   89SOL     OW 1165   3.553   3.476   0.393
   89SOL    HW1 1166   3.511   3.502   0.479
   89SOL    HW2 1167   3.518   3.535   0.319
   90SOL     OW 1168   4.235   4.684   2.474
   90SOL    HW1 1169   4.171   4.607   2.461
   90SOL    HW2 1170   4.283   4.672   2.561
   91SOL     OW 1171   5.993   4.959   6.088
   91SOL    HW1 1172   6.028   5.045   6.125
   91SOL    HW2 1173   5.962   4.973   5.994
   92SOL     OW 1174   5.224   4.092   0.740
   92SOL    HW1 1175   5.216   4.060   0.646
   92SOL    HW2 1176   5.159   4.042   0.798
   93SOL     OW 1177   3.189   3.463   0.096
   93SOL    HW1 1178   3.210   3.445   0.000
   93SOL    HW2 1179   3.139   3.385   0.135
   94SOL     OW 1180   2.057   5.755   0.536
   94SOL    HW1 1181   1.996   5.683   0.569
   94SOL    HW2 1182   2.024   5.844   0.567
   95SOL     OW 1183   1.360   0.863   3.249
   95SOL    HW1 1184   1.266   0.839   3.226
   95SOL    HW2 1185   1.388   0.943   3.195
   96SOL     OW 1186   4.906   5.445   6.516
   96SOL    HW1 1187   4.868   5.536   6.498
   96SOL    HW2 1188   5.001   5.442   6.486
   97SOL     OW 1189   2.207   3.830   5.259
   97SOL    HW1 1190   2.250   3.882   5.185
   97SOL    HW2 1191   2.133   3.774   5.222
   98SOL     OW 1192   1.222   1.432   0.927
   98SOL    HW1 1193   1.263   1.380   0.852
   98SOL    HW2 1194   1.293   1.460   0.992
   99SOL     OW 1195   3.732   4.104   2.492
   99SOL    HW1 1196   3.762   4.014   2.459
   99SOL    HW2 1197   3.692   4.156   2.417
  100SOL     OW 1198   6.972   0.013   4.288
  100SOL    HW1 1199   7.013   6.985   4.212
  100SOL    HW2 1200   0.008   0.008   4.368
  101SOL     OW 1201   0.395   5.497   2.431
  101SOL    HW1 1202   0.365   5.422   2.490
  101SOL    HW2 1203   0.466   5.551   2.477
  102SOL     OW 1204   3.146   5.806   2.251
  102SOL    HW1 1205   3.058   5.802   2.299
  102SOL    HW2 1206   3.211   5.745   2.296
  103SOL     OW 1207   1.551   2.050   2.682
  103SOL    HW1 1208   1.595   2.130   2.642
  103SOL    HW2 1209   1.566   1.971   2.624
  104SOL     OW 1210   1.786   4.710   1.639
  104SOL    HW1 1211   1.701   4.711   1.586
  104SOL    HW2 1212   1.830   4.799   1.633
  105SOL     OW 1213   5.204   1.509   5.961
  105SOL    HW1 1214   5.232   1.516   6.057
  105SOL    HW2 1215   5.285   1.498   5.904
  106SOL     OW 1216   4.510   5.993   2.530
  106SOL    HW1 1217   4.587   5.940   2.566
  106SOL    HW2 1218   4.482   5.954   2.442
  107SOL     OW 1219   0.059   0.960   6.885
  107SOL    HW1 1220   0.011   1.035   6.931
  107SOL    HW2 1221   0.069   0.981   6.788
  108SOL     OW 1222   3.649   0.221   5.690
  108SOL    HW1 1223   3.711   0.173   5.752
  108SOL    HW2 1224   3.557   0.220   5.728
  109SOL     OW 1225   2.483   0.663   2.312
  109SOL    HW1 1226   2.501   0.571   2.349
  109SOL    HW2 1227   2.564   0.720   2.326
  110SOL     OW 1228   2.666   5.262   4.250
  110SOL    HW1 1229   2.719   5.196   4.196
  110SOL    HW2 1230   2.592   5.214   4.296
  111SOL     OW 1231   1.387   1.677   3.278
  111SOL    HW1 1232   1.487   1.688   3.276
  111SOL    HW2 1233   1.351   1.717   3.362
  112SOL     OW 1234   5.098   6.833   0.227
  112SOL    HW1 1235   5.062   6.903   0.289
  112SOL    HW2 1236   5.103   6.870   0.134
  113SOL     OW 1237   0.522   6.239   2.721
  113SOL    HW1 1238   0.570   6.308   2.776
  113SOL    HW2 1239   0.585   6.166   2.696
  114SOL     OW 1240   1.379   6.030   1.949
  114SOL    HW1 1241   1.324   5.980   2.016
  114SOL    HW2 1242   1.470   5.989   1.944
  115SOL     OW 1243   5.774   0.656   3.487
  115SOL    HW1 1244   5.754   0.630   3.581
  115SOL    HW2 1245   5.811   0.749   3.484
  116SOL     OW 1246   0.050   5.936   1.388
  116SOL    HW1 1247   0.097   5.848   1.387
  116SOL    HW2 1248   0.065   5.981   1.476
  117SOL     OW 1249   1.821   0.552   0.446
  117SOL    HW1 1250   1.781   0.626   0.501
  117SOL    HW2 1251   1.804   0.570   0.349
  118SOL     OW 1252   1.902   2.431   3.063
  118SOL    HW1 1253   1.941   2.521   3.046
  118SOL    HW2 1254   1.963   2.378   3.122
  119SOL     OW 1255   0.518   0.291   6.496
  119SOL    HW1 1256   0.495   0.260   6.588
  119SOL    HW2 1257   0.476   0.230   6.429
  120SOL     OW 1258   5.020   0.132   4.337
  120SOL    HW1 1259   4.988   0.093   4.251
  120SOL    HW2 1260   5.116   0.158   4.327
  121SOL     OW 1261   1.419   4.067   0.324
  121SOL    HW1 1262   1.383   4.098   0.236
  121SOL    HW2 1263   1.406   3.968   0.332
  122SOL     OW 1264   1.546   3.541   0.086
  122SOL    HW1 1265   1.605   3.523   0.008
  122SOL    HW2 1266   1.544   3.639   0.106
  123SOL     OW 1267   0.960   1.174   2.075
  123SOL    HW1 1268   1.056   1.183   2.101
  123SOL    HW2 1269   0.951   1.171   1.976
  124SOL     OW 1270   3.350   2.319   0.743
  124SOL    HW1 1271   3.259   2.287   0.772
  124SOL    HW2 1272   3.418   2.250   0.768
  125SOL     OW 1273   3.164   2.681   0.689
  125SOL    HW1 1274   3.176   2.701   0.592
  125SOL    HW2 1275   3.105   2.752   0.730
  126SOL     OW 1276   3.839   3.382   3.028
  126SOL    HW1 1277   3.759   3.323   3.043
  126SOL    HW2 1278   3.813   3.477   3.042
  127SOL     OW 1279   6.634   6.385   5.962
  127SOL    HW1 1280   6.708   6.445   5.991
  127SOL    HW2 1281   6.636   6.301   6.015
  128SOL     OW 1282   5.407   2.958   1.881
  128SOL    HW1 1283   5.402   2.937   1.979
  128SOL    HW2 1284   5.317   2.943   1.839
  129SOL     OW 1285   3.020   4.160   0.787
  129SOL    HW1 1286   3.070   4.192   0.868
  129SOL    HW2 1287   3.031   4.061   0.778
  130SOL     OW 1288   6.496   0.506   4.942
  130SOL    HW1 1289   6.402   0.538   4.954
  130SOL    HW2 1290   6.559   0.584   4.943
  131SOL     OW 1291   5.918   0.777   4.416
  131SOL    HW1 1292   5.924   0.807   4.511
  131SOL    HW2 1293   5.825   0.748   4.395
  132SOL     OW 1294   3.369   3.332   1.656
  132SOL    HW1 1295   3.354   3.330   1.557
  132SOL    HW2 1296   3.284   3.308   1.703
  133SOL     OW 1297   5.362   1.676   3.857
  133SOL    HW1 1298   5.324   1.589   3.887
  133SOL    HW2 1299   5.292   1.747   3.863
  134SOL     OW 1300   0.745   0.236   2.668
  134SOL    HW1 1301   0.685   0.158   2.648
  134SOL    HW2 1302   0.745   0.255   2.766
  135SOL     OW 1303   5.335   2.951   4.059
  135SOL    HW1 1304   5.351   2.942   3.960
  135SOL    HW2 1305   5.241   2.925   4.080
  136SOL     OW 1306   1.980   6.417   4.532
  136SOL    HW1 1307   2.019   6.389   4.444
  136SOL    HW2 1308   1.888   6.381   4.540
  137SOL     OW 1309   4.555   1.196   4.210
  137SOL    HW1 1310   4.498   1.277   4.223
  137SOL    HW2 1311   4.650   1.218   4.230
  138SOL     OW 1312   0.802   4.343   3.561
  138SOL    HW1 1313   0.802   4.348   3.661
  138SOL    HW2 1314   0.716   4.302   3.530
  139SOL     OW 1315   2.531   5.919   6.112
  139SOL    HW1 1316   2.516   5.928   6.210
  139SOL    HW2 1317   2.540   5.822   6.088
  140SOL     OW 1318   1.439   6.627   2.686
  140SOL    HW1 1319   1.348   6.668   2.684
  140SOL    HW2 1320   1.497   6.676   2.751
  141SOL     OW 1321   6.898   2.653   6.247
  141SOL    HW1 1322   6.886   2.709   6.165
  141SOL    HW2 1323   6.847   2.693   6.323
  142SOL     OW 1324   2.216   3.738   1.916
  142SOL    HW1 1325   2.207   3.639   1.923
  142SOL    HW2 1326   2.268   3.761   1.833
  143SOL     OW 1327   5.808   5.817   1.092
  143SOL    HW1 1328   5.823   5.888   1.161
  143SOL    HW2 1329   5.780   5.732   1.137
  144SOL     OW 1330   2.437   4.935   4.690
  144SOL    HW1 1331   2.529   4.900   4.674
  144SOL    HW2 1332   2.381   4.865   4.733
  145SOL     OW 1333   1.454   5.437   1.659
  145SOL    HW1 1334   1.372   5.421   1.714
  145SOL    HW2 1335   1.474   5.535   1.657
  146SOL     OW 1336   4.959   1.005   6.016
  146SOL    HW1 1337   5.020   0.938   5.975
  146SOL    HW2 1338   5.004   1.094   6.017
  147SOL     OW 1339   5.098   1.540   5.439
  147SOL    HW1 1340   5.106   1.506   5.532
  147SOL    HW2 1341   5.168   1.498   5.382
  148SOL     OW 1342   0.978   5.793   1.338
  148SOL    HW1 1343   0.933   5.724   1.395
  148SOL    HW2 1344   1.077   5.788   1.353
  149SOL     OW 1345   3.368   1.661   4.527
  149SOL    HW1 1346   3.397   1.593   4.461
  149SOL    HW2 1347   3.304   1.725   4.483
  150SOL     OW 1348   4.570   0.401   6.207
  150SOL    HW1 1349   4.669   0.414   6.208
  150SOL    HW2 1350   4.545   0.328   6.271
  151SOL     OW 1351   4.001   0.962   1.684
  151SOL    HW1 1352   3.922   0.961   1.745
  151SOL    HW2 1353   4.085   0.969   1.737
  152SOL     OW 1354   6.484   1.538   0.415
  152SOL    HW1 1355   6.547   1.550   0.492
  152SOL    HW2 1356   6.489   1.617   0.355
  153SOL     OW 1357   2.671   0.347   3.231
  153SOL    HW1 1358   2.642   0.414   3.163
  153SOL    HW2 1359   2.714   0.393   3.308
  154SOL     OW 1360   6.680   2.991   0.882
  154SOL    HW1 1361   6.768   3.030   0.911
  154SOL    HW2 1362   6.688   2.891   0.878
  155SOL     OW 1363   1.112   0.001   2.646
  155SOL    HW1 1364   1.081   0.096   2.642
  155SOL    HW2 1365   1.036   6.963   2.626
  156SOL     OW 1366   6.040   1.126   0.025
  156SOL    HW1 1367   6.103   1.187   6.999
  156SOL    HW2 1368   6.082   1.096   0.110
  157SOL     OW 1369   5.504   2.768   0.182
  157SOL    HW1 1370   5.460   2.727   0.103
  157SOL    HW2 1371   5.572   2.835   0.152
  158SOL     OW 1372   1.707   2.110   1.143
  158SOL    HW1 1373   1.751   2.023   1.121
  158SOL    HW2 1374   1.646   2.136   1.069
  159SOL     OW 1375   4.369   4.893   0.990
  159SOL    HW1 1376   4.342   4.967   1.051
  159SOL    HW2 1377   4.322   4.809   1.015
  160SOL     OW 1378   6.167   0.150   1.225
  160SOL    HW1 1379   6.117   0.063   1.233
  160SOL    HW2 1380   6.135   0.213   1.296
  161SOL     OW 1381   1.740   0.289   2.228
  161SOL    HW1 1382   1.753   0.367   2.166
  161SOL    HW2 1383   1.707   0.323   2.316
  162SOL     OW 1384   2.763   0.009   0.077
  162SOL    HW1 1385   2.703   6.978   0.018
  162SOL    HW2 1386   2.818   0.071   0.021
  163SOL     OW 1387   0.409   4.743   2.922
  163SOL    HW1 1388   0.501   4.780   2.913
  163SOL    HW2 1389   0.369   4.774   3.008
  164SOL     OW 1390   0.691   2.917   3.092
  164SOL    HW1 1391   0.599   2.882   3.108
  164SOL    HW2 1392   0.699   3.009   3.129
  165SOL     OW 1393   6.037   5.244   0.621
  165SOL    HW1 1394   6.026   5.318   0.555
  165SOL    HW2 1395   6.083   5.280   0.703
  166SOL     OW 1396   6.534   3.426   1.984
  166SOL    HW1 1397   6.473   3.388   1.914
  166SOL    HW2 1398   6.497   3.512   2.018
  167SOL     OW 1399   6.038   1.819   6.094
  167SOL    HW1 1400   6.063   1.887   6.163
  167SOL    HW2 1401   5.987   1.863   6.020
  168SOL     OW 1402   4.233   1.852   1.635
  168SOL    HW1 1403   4.219   1.790   1.558
  168SOL    HW2 1404   4.147   1.898   1.656
  169SOL     OW 1405   5.748   2.948   0.108
  169SOL    HW1 1406   5.784   2.914   0.194
  169SOL    HW2 1407   5.784   2.892   0.032
  170SOL     OW 1408   6.894   5.777   2.666
  170SOL    HW1 1409   6.932   5.811   2.579
  170SOL    HW2 1410   6.796   5.795   2.669
  171SOL     OW 1411   1.751   3.583   6.909
  171SOL    HW1 1412   1.740   3.680   6.885
  171SOL    HW2 1413   1.798   3.575   6.997
  172SOL     OW 1414   6.654   2.321   2.360
  172SOL    HW1 1415   6.637   2.321   2.458
  172SOL    HW2 1416   6.575   2.282   2.312
  173SOL     OW 1417   5.909   0.899   4.692
  173SOL    HW1 1418   5.851   0.965   4.739
  173SOL    HW2 1419   5.973   0.858   4.757
  174SOL     OW 1420   4.893   5.172   4.500
  174SOL    HW1 1421   4.820   5.180   4.432
  174SOL    HW2 1422   4.862   5.212   4.587
  175SOL     OW 1423   3.496   0.903   1.698
  175SOL    HW1 1424   3.523   0.899   1.602
  175SOL    HW2 1425   3.431   0.978   1.711
  176SOL     OW 1426   5.162   4.273   3.139
  176SOL    HW1 1427   5.251   4.240   3.107
  176SOL    HW2 1428   5.114   4.199   3.185
  177SOL     OW 1429   5.331   2.487   4.926
  177SOL    HW1 1430   5.376   2.574   4.907
  177SOL    HW2 1431   5.255   2.474   4.863
  178SOL     OW 1432   3.245   4.922   4.893
  178SOL    HW1 1433   3.298   4.940   4.975
  178SOL    HW2 1434   3.154   4.889   4.918
  179SOL     OW 1435   4.107   6.984   6.715
  179SOL    HW1 1436   4.184   7.021   6.663
  179SOL    HW2 1437   4.141   6.935   6.795
  180SOL     OW 1438   2.715   0.032   0.540
  180SOL    HW1 1439   2.624   7.013   0.531
  180SOL    HW2 1440   2.750   0.016   0.632
  181SOL     OW 1441   3.651   3.002   5.965
  181SOL    HW1 1442   3.572   2.956   6.004
  181SOL    HW2 1443   3.621   3.085   5.917
  182SOL     OW 1444   4.738   2.763   6.814
  182SOL    HW1 1445   4.803   2.719   6.875
  182SOL    HW2 1446   4.657   2.705   6.803
  183SOL     OW 1447   4.009   2.199   3.430
  183SOL    HW1 1448   4.077   2.196   3.503
  183SOL    HW2 1449   4.018   2.283   3.377
  184SOL     OW 1450   0.500   6.586   3.853
  184SOL    HW1 1451   0.426   6.615   3.914
  184SOL    HW2 1452   0.509   6.651   3.778
  185SOL     OW 1453   0.989   1.145   3.897
  185SOL    HW1 1454   1.007   1.226   3.842
  185SOL    HW2 1455   0.929   1.082   3.847
  186SOL     OW 1456   5.681   0.136   4.406
  186SOL    HW1 1457   5.748   0.125   4.479
  186SOL    HW2 1458   5.595   0.094   4.434
  187SOL     OW 1459   5.020   6.218   2.503
  187SOL    HW1 1460   5.060   6.130   2.479
  187SOL    HW2 1461   4.920   6.212   2.500
  188SOL     OW 1462   0.655   2.699   3.500
  188SOL    HW1 1463   0.602   2.783   3.504
  188SOL    HW2 1464   0.596   2.620   3.514
  189SOL     OW 1465   0.810   4.900   6.931
  189SOL    HW1 1466   0.732   4.845   6.902
  189SOL    HW2 1467   0.872   4.913   6.853
  190SOL     OW 1468   6.151   4.657   6.750
  190SOL    HW1 1469   6.095   4.614   6.822
  190SOL    HW2 1470   6.241   4.612   6.748
  191SOL     OW 1471   6.428   1.374   5.765
  191SOL    HW1 1472   6.460   1.447   5.825
  191SOL    HW2 1473   6.364   1.412   5.697
  192SOL     OW 1474   0.218   5.039   1.790
  192SOL    HW1 1475   0.261   4.957   1.827
  192SOL    HW2 1476   0.210   5.030   1.691
  193SOL     OW 1477   5.030   4.021   5.234
  193SOL    HW1 1478   4.943   4.018   5.184
  193SOL    HW2 1479   5.038   3.939   5.290
  194SOL     OW 1480   4.135   6.585   3.042
  194SOL    HW1 1481   4.183   6.638   3.112
  194SOL    HW2 1482   4.201   6.530   2.991
  195SOL     OW 1483   1.727   1.145   3.252
  195SOL    HW1 1484   1.742   1.092   3.169
  195SOL    HW2 1485   1.760   1.094   3.331
  196SOL     OW 1486   3.368   6.939   0.073
  196SOL    HW1 1487   3.381   0.014   0.061
  196SOL    HW2 1488   3.456   6.892   0.062
  197SOL     OW 1489   2.879   6.108   0.239
  197SOL    HW1 1490   2.974   6.137   0.253
  197SOL    HW2 1491   2.841   6.073   0.325
  198SOL     OW 1492   4.680   6.683   1.286
  198SOL    HW1 1493   4.613   6.683   1.212
  198SOL    HW2 1494   4.635   6.708   1.371
  199SOL     OW 1495   6.650   1.121   2.779
  199SOL    HW1 1496   6.615   1.156   2.866
  199SOL    HW2 1497   6.748   1.105   2.787
  200SOL     OW 1498   0.943   4.347   2.548
  200SOL    HW1 1499   0.931   4.316   2.642
  200SOL    HW2 1500   0.913   4.442   2.540
  201SOL     OW 1501   3.494   6.749   5.910
  201SOL    HW1 1502   3.533   6.730   5.820
  201SOL    HW2 1503   3.486   6.664   5.962
  202SOL     OW 1504   4.928   0.519   5.168
  202SOL    HW1 1505   4.855   0.482   5.111
  202SOL    HW2 1506   4.925   0.619   5.165
  203SOL     OW 1507   4.708   2.214   5.027
  203SOL    HW1 1508   4.678   2.309   5.033
  203SOL    HW2 1509   4.795   2.204   5.075
  204SOL     OW 1510   0.897   0.375   6.577
  204SOL    HW1 1511   0.859   0.334   6.660
  204SOL    HW2 1512   0.824   0.384   6.508
  205SOL     OW 1513   0.830   1.365   1.753
  205SOL    HW1 1514   0.837   1.265   1.749
  205SOL    HW2 1515   0.883   1.405   1.679
  206SOL     OW 1516   0.549   4.741   2.626
  206SOL    HW1 1517   0.569   4.743   2.528
  206SOL    HW2 1518   0.461   4.785   2.643
  207SOL     OW 1519   3.719   0.287   5.299
  207SOL    HW1 1520   3.629   0.289   5.343
  207SOL    HW2 1521   3.716   0.229   5.218
  208SOL     OW 1522   4.893   3.475   6.255
  208SOL    HW1 1523   4.896   3.408   6.181
  208SOL    HW2 1524   4.986   3.502   6.280
  209SOL     OW 1525   1.217   5.768   6.109
  209SOL    HW1 1526   1.286   5.706   6.147
  209SOL    HW2 1527   1.149   5.714   6.059
  210SOL     OW 1528   4.189   1.679   2.393
  210SOL    HW1 1529   4.103   1.729   2.381
  210SOL    HW2 1530   4.196   1.648   2.488
  211SOL     OW 1531   0.960   6.306   4.032
  211SOL    HW1 1532   0.953   6.222   4.086
  211SOL    HW2 1533   0.873   6.355   4.036
  212SOL     OW 1534   2.276   4.179   2.205
  212SOL    HW1 1535   2.293   4.081   2.211
  212SOL    HW2 1536   2.248   4.214   2.295
  213SOL     OW 1537   4.187   0.863   6.662
  213SOL    HW1 1538   4.284   0.838   6.656
  213SOL    HW2 1539   4.167   0.892   6.756
  214SOL     OW 1540   2.962   6.005   2.531
  214SOL    HW1 1541   2.939   6.011   2.434
  214SOL    HW2 1542   2.879   5.999   2.586
  215SOL     OW 1543   3.182   3.998   1.850
  215SOL    HW1 1544   3.109   3.991   1.781
  215SOL    HW2 1545   3.149   3.963   1.937
  216SOL     OW 1546   1.442   6.943   5.057
  216SOL    HW1 1547   1.368   6.902   5.005
  216SOL    HW2 1548   1.410   0.007   5.095
  217SOL     OW 1549   2.062   2.661   4.905
  217SOL    HW1 1550   2.008   2.735   4.945
  217SOL    HW2 1551   2.140   2.699   4.856
  218SOL     OW 1552   1.267   2.780   5.441
  218SOL    HW1 1553   1.212   2.730   5.507
  218SOL    HW2 1554   1.277   2.726   5.357
  219SOL     OW 1555   3.745   5.562   6.164
  219SOL    HW1 1556   3.829   5.594   6.208
  219SOL    HW2 1557   3.712   5.632   6.101
  220SOL     OW 1558   3.122   5.986   6.697
  220SOL    HW1 1559   3.112   5.911   6.763
  220SOL    HW2 1560   3.209   5.975   6.649
  221SOL     OW 1561   6.460   3.987   2.666
  221SOL    HW1 1562   6.470   3.897   2.622
  221SOL    HW2 1563   6.490   4.058   2.602
  222SOL     OW 1564   2.026   4.916   5.550
  222SOL    HW1 1565   2.124   4.905   5.564
  222SOL    HW2 1566   1.998   5.008   5.578
  223SOL     OW 1567   0.026   3.833   0.704
  223SOL    HW1 1568   0.066   3.909   0.755
  223SOL    HW2 1569   6.972   3.866   0.649
  224SOL     OW 1570   2.641   2.280   3.545
  224SOL    HW1 1571   2.684   2.254   3.631
  224SOL    HW2 1572   2.601   2.200   3.501
  225SOL     OW 1573   5.134   1.329   6.324
  225SOL    HW1 1574   5.218   1.376   6.298
  225SOL    HW2 1575   5.097   1.370   6.408
  226SOL     OW 1576   0.463   6.629   0.176
  226SOL    HW1 1577   0.501   6.635   0.083
  226SOL    HW2 1578   0.467   6.535   0.208
  227SOL     OW 1579   1.236   4.332   2.528
  227SOL    HW1 1580   1.138   4.342   2.546
  227SOL    HW2 1581   1.279   4.422   2.528
  228SOL     OW 1582   2.835   6.176   3.773
  228SOL    HW1 1583   2.913   6.236   3.757
  228SOL    HW2 1584   2.766   6.190   3.701
  229SOL     OW 1585   6.119   5.571   0.567
  229SOL    HW1 1586   6.032   5.619   0.575
  229SOL    HW2 1587   6.151   5.574   0.472
  230SOL     OW 1588   3.369   4.967   3.651
  230SOL    HW1 1589   3.407   4.908   3.722
  230SOL    HW2 1590   3.335   4.911   3.576
  231SOL     OW 1591   5.923   2.184   5.559
  231SOL    HW1 1592   5.850   2.252   5.555
  231SOL    HW2 1593   5.901   2.108   5.498
  232SOL     OW 1594   0.890   4.564   6.254
  232SOL    HW1 1595   0.807   4.619   6.249
  232SOL    HW2 1596   0.953   4.592   6.181
  233SOL     OW 1597   2.239   1.228   4.659
  233SOL    HW1 1598   2.201   1.136   4.669
  233SOL    HW2 1599   2.210   1.267   4.571
  234SOL     OW 1600   2.804   6.157   5.174
  234SOL    HW1 1601   2.833   6.169   5.079
  234SOL    HW2 1602   2.875   6.108   5.225
  235SOL     OW 1603   3.040   3.446   2.807
  235SOL    HW1 1604   3.000   3.531   2.773
  235SOL    HW2 1605   3.017   3.371   2.746
  236SOL     OW 1606   5.942   2.551   6.446
  236SOL    HW1 1607   5.879   2.488   6.490
  236SOL    HW2 1608   5.903   2.643   6.446
  237SOL     OW 1609   0.224   6.926   0.712
  237SOL    HW1 1610   0.227   7.013   0.663
  237SOL    HW2 1611   0.281   6.932   0.794
  238SOL     OW 1612   6.436   2.767   0.320
  238SOL    HW1 1613   6.441   2.752   0.419
  238SOL    HW2 1614   6.527   2.759   0.280
  239SOL     OW 1615   6.770   4.693   6.977
  239SOL    HW1 1616   6.838   4.765   6.975
  239SOL    HW2 1617   6.720   4.690   6.890
  240SOL     OW 1618   0.504   3.049   5.016
  240SOL    HW1 1619   0.445   3.128   5.030
  240SOL    HW2 1620   0.481   3.005   4.930
  241SOL     OW 1621   0.611   0.576   3.727
  241SOL    HW1 1622   0.590   0.625   3.643
  241SOL    HW2 1623   0.556   0.611   3.802
  242SOL     OW 1624   1.883   2.944   5.723
  242SOL    HW1 1625   1.853   2.849   5.725
  242SOL    HW2 1626   1.835   2.992   5.649
  243SOL     OW 1627   4.917   0.149   5.487
  243SOL    HW1 1628   4.987   0.114   5.424
  243SOL    HW2 1629   4.863   0.219   5.441
  244SOL     OW 1630   4.788   2.961   4.382
  244SOL    HW1 1631   4.770   2.954   4.481
  244SOL    HW2 1632   4.818   2.872   4.347
  245SOL     OW 1633   6.772   2.854   4.579
  245SOL    HW1 1634   6.855   2.903   4.607
  245SOL    HW2 1635   6.786   2.756   4.593
  246SOL     OW 1636   5.734   3.514   3.309
  246SOL    HW1 1637   5.782   3.428   3.290
  246SOL    HW2 1638   5.635   3.497   3.310
  247SOL     OW 1639   1.899   1.931   2.808
  247SOL    HW1 1640   1.801   1.950   2.815
  247SOL    HW2 1641   1.919   1.845   2.857
  248SOL     OW 1642   4.623   2.683   4.401
  248SOL    HW1 1643   4.560   2.656   4.329
  248SOL    HW2 1644   4.572   2.726   4.476
  249SOL     OW 1645   4.125   0.430   5.395
  249SOL    HW1 1646   4.223   0.433   5.373
  249SOL    HW2 1647   4.112   0.441   5.493
  250SOL     OW 1648   4.672   2.111   5.475
  250SOL    HW1 1649   4.735   2.086   5.402
  250SOL    HW2 1650   4.667   2.211   5.483
  251SOL     OW 1651   3.875   4.796   6.265
  251SOL    HW1 1652   3.836   4.840   6.346
  251SOL    HW2 1653   3.953   4.849   6.232
  252SOL     OW 1654   6.880   1.190   5.934
  252SOL    HW1 1655   6.798   1.208   5.988
  252SOL    HW2 1656   6.884   1.093   5.911
  253SOL     OW 1657   2.767   4.475   0.244
  253SOL    HW1 1658   2.698   4.430   0.187
  253SOL    HW2 1659   2.763   4.574   0.229
  254SOL     OW 1660   6.744   2.826   3.974
  254SOL    HW1 1661   6.802   2.830   4.056
  254SOL    HW2 1662   6.768   2.901   3.913
  255SOL     OW 1663   2.426   2.014   3.686
  255SOL    HW1 1664   2.414   1.918   3.658
  255SOL    HW2 1665   2.349   2.068   3.652
  256SOL     OW 1666   6.510   4.427   6.943
  256SOL    HW1 1667   6.501   4.428   0.020
  256SOL    HW2 1668   6.482   4.337   6.909
  257SOL     OW 1669   3.312   5.274   5.492
  257SOL    HW1 1670   3.380   5.251   5.562
  257SOL    HW2 1671   3.222   5.281   5.535
  258SOL     OW 1672   5.213   3.807   4.834
  258SOL    HW1 1673   5.236   3.884   4.893
  258SOL    HW2 1674   5.150   3.746   4.881
  259SOL     OW 1675   1.888   2.962   2.399
  259SOL    HW1 1676   1.928   2.870   2.397
  259SOL    HW2 1677   1.807   2.964   2.341
  260SOL     OW 1678   4.650   0.654   0.840
  260SOL    HW1 1679   4.708   0.735   0.828
  260SOL    HW2 1680   4.554   0.679   0.829
  261SOL     OW 1681   0.282   3.935   0.991
  261SOL    HW1 1682   0.341   3.900   0.918
  261SOL    HW2 1683   0.209   3.869   1.010
  262SOL     OW 1684   0.571   3.749   1.956
  262SOL    HW1 1685   0.551   3.772   2.052
  262SOL    HW2 1686   0.630   3.819   1.916
  263SOL     OW 1687   0.185   1.787   4.154
  263SOL    HW1 1688   0.134   1.786   4.239
  263SOL    HW2 1689   0.245   1.707   4.150
  264SOL     OW 1690   6.478   4.135   5.657
  264SOL    HW1 1691   6.528   4.215   5.624
  264SOL    HW2 1692   6.384   4.162   5.679
  265SOL     OW 1693   5.276   3.917   3.481
  265SOL    HW1 1694   5.297   3.869   3.566
  265SOL    HW2 1695   5.361   3.939   3.433
  266SOL     OW 1696   3.466   2.878   6.596
  266SOL    HW1 1697   3.556   2.868   6.554
  266SOL    HW2 1698   3.395   2.859   6.528
  267SOL     OW 1699   0.244   2.896   7.021
  267SOL    HW1 1700   0.310   2.829   6.988
  267SOL    HW2 1701   0.181   2.920   6.947
  268SOL     OW 1702   4.923   5.594   5.115
  268SOL    HW1 1703   4.880   5.672   5.158
  268SOL    HW2 1704   5.022   5.596   5.133
  269SOL     OW 1705   1.463   1.667   0.632
  269SOL    HW1 1706   1.479   1.764   0.650
  269SOL    HW2 1707   1.366   1.652   0.616
  270SOL     OW 1708   6.405   1.043   1.821
  270SOL    HW1 1709   6.446   1.125   1.862
  270SOL    HW2 1710   6.343   1.000   1.887
  271SOL     OW 1711   2.876   1.426   0.655
  271SOL    HW1 1712   2.906   1.506   0.707
  271SOL    HW2 1713   2.776   1.425   0.651
  272SOL     OW 1714   3.609   5.302   3.944
  272SOL    HW1 1715   3.588   5.232   4.013
  272SOL    HW2 1716   3.685   5.271   3.887
  273SOL     OW 1717   1.713   5.509   5.614
  273SOL    HW1 1718   1.639   5.516   5.547
  273SOL    HW2 1719   1.674   5.494   5.705
  274SOL     OW 1720   4.736   2.598   4.112
  274SOL    HW1 1721   4.718   2.530   4.183
  274SOL    HW2 1722   4.666   2.592   4.041
  275SOL     OW 1723   0.960   6.117   6.425
  275SOL    HW1 1724   0.958   6.089   6.521
  275SOL    HW2 1725   1.034   6.069   6.377
  276SOL     OW 1726   6.461   5.430   4.248
  276SOL    HW1 1727   6.517   5.506   4.284
  276SOL    HW2 1728   6.413   5.460   4.166
  277SOL     OW 1729   3.462   1.010   6.183
  277SOL    HW1 1730   3.380   0.953   6.182
  277SOL    HW2 1731   3.496   1.018   6.277
  278SOL     OW 1732   5.839   3.462   2.004
  278SOL    HW1 1733   5.853   3.364   2.018
  278SOL    HW2 1734   5.873   3.488   1.914
  279SOL     OW 1735   6.122   3.263   4.187
  279SOL    HW1 1736   6.198   3.306   4.235
  279SOL    HW2 1737   6.138   3.164   4.182
  280SOL     OW 1738   4.482   0.194   3.385
  280SOL    HW1 1739   4.561   0.185   3.446
  280SOL    HW2 1740   4.408   0.135   3.418
  281SOL     OW 1741   2.927   5.139   3.485
  281SOL    HW1 1742   2.937   5.127   3.386
  281SOL    HW2 1743   2.835   5.172   3.506
  282SOL     OW 1744   3.756   2.675   5.636
  282SOL    HW1 1745   3.764   2.770   5.669
  282SOL    HW2 1746   3.835   2.623   5.667
  283SOL     OW 1747   5.656   0.302   5.418
  283SOL    HW1 1748   5.697   0.223   5.372
  283SOL    HW2 1749   5.681   0.301   5.515
  284SOL     OW 1750   1.339   4.342   4.616
  284SOL    HW1 1751   1.282   4.399   4.558
  284SOL    HW2 1752   1.430   4.384   4.626
  285SOL     OW 1753   5.492   5.761   0.275
  285SOL    HW1 1754   5.517   5.832   0.211
  285SOL    HW2 1755   5.392   5.753   0.279
  286SOL     OW 1756   4.292   4.966   5.468
  286SOL    HW1 1757   4.268   4.917   5.385
  286SOL    HW2 1758   4.263   4.913   5.548
  287SOL     OW 1759   1.735   5.494   0.004
  287SOL    HW1 1760   1.676   5.444   6.965
  287SOL    HW2 1761   1.810   5.435   0.034
  288SOL     OW 1762   4.045   0.938   0.468
  288SOL    HW1 1763   3.964   0.879   0.461
  288SOL    HW2 1764   4.057   0.988   0.382
  289SOL     OW 1765   1.673   5.188   5.744
  289SOL    HW1 1766   1.649   5.091   5.746
  289SOL    HW2 1767   1.643   5.231   5.829
  290SOL     OW 1768   4.498   0.694   3.728
  290SOL    HW1 1769   4.400   0.672   3.733
  290SOL    HW2 1770   4.520   0.726   3.636
  291SOL     OW 1771   4.571   1.329   3.793
  291SOL    HW1 1772   4.522   1.259   3.846
  291SOL    HW2 1773   4.608   1.398   3.856
  292SOL     OW 1774   4.721   1.564   3.617
  292SOL    HW1 1775   4.646   1.503   3.642
  292SOL    HW2 1776   4.738   1.556   3.518
  293SOL     OW 1777   4.348   6.301   1.134
  293SOL    HW1 1778   4.442   6.276   1.112
  293SOL    HW2 1779   4.286   6.230   1.100
  294SOL     OW 1780   6.668   5.862   6.490
  294SOL    HW1 1781   6.623   5.931   6.434
  294SOL    HW2 1782   6.736   5.906   6.548
  295SOL     OW 1783   1.958   2.549   5.577
  295SOL    HW1 1784   1.964   2.569   5.479
  295SOL    HW2 1785   1.905   2.466   5.591
  296SOL     OW 1786   6.862   2.552   1.394
  296SOL    HW1 1787   6.780   2.592   1.353
  296SOL    HW2 1788   6.838   2.508   1.481
  297SOL     OW 1789   3.679   4.976   3.695
  297SOL    HW1 1790   3.663   5.015   3.605
  297SOL    HW2 1791   3.745   4.901   3.689
  298SOL     OW 1792   4.401   0.256   0.085
  298SOL    HW1 1793   4.442   0.321   0.150
  298SOL    HW2 1794   4.472   0.223   0.022
  299SOL     OW 1795   4.024   1.924   0.386
  299SOL    HW1 1796   4.083   1.995   0.346
  299SOL    HW2 1797   3.954   1.898   0.320
  300SOL     OW 1798   3.867   0.471   2.403
  300SOL    HW1 1799   3.939   0.460   2.471
  300SOL    HW2 1800   3.872   0.396   2.336
  301SOL     OW 1801   5.192   0.953   1.143
  301SOL    HW1 1802   5.168   0.948   1.046
  301SOL    HW2 1803   5.292   0.955   1.151
  302SOL     OW 1804   0.746   1.025   2.209
  302SOL    HW1 1805   0.801   1.102   2.177
  302SOL    HW2 1806   0.759   0.947   2.147
  303SOL     OW 1807   6.506   6.057   1.755
  303SOL    HW1 1808   6.450   6.134   1.723
  303SOL    HW2 1809   6.471   5.972   1.717
  304SOL     OW 1810   2.236   6.169   6.291
  304SOL    HW1 1811   2.190   6.235   6.231
  304SOL    HW2 1812   2.192   6.169   6.381
  305SOL     OW 1813   1.436   2.665   0.575
  305SOL    HW1 1814   1.516   2.634   0.524
  305SOL    HW2 1815   1.463   2.736   0.639
  306SOL     OW 1816   0.244   1.666   2.929
  306SOL    HW1 1817   0.323   1.615   2.895
  306SOL    HW2 1818   0.249   1.673   3.029
  307SOL     OW 1819   3.982   4.022   0.024
  307SOL    HW1 1820   3.907   4.026   0.090
  307SOL    HW2 1821   4.055   4.085   0.052
  308SOL     OW 1822   5.773   2.890   4.034
  308SOL    HW1 1823   5.766   2.901   3.935
  308SOL    HW2 1824   5.741   2.974   4.079
  309SOL     OW 1825   1.503   6.130   0.984
  309SOL    HW1 1826   1.469   6.193   0.914
  309SOL    HW2 1827   1.595   6.159   1.012
  310SOL     OW 1828   5.146   6.798   4.343
  310SOL    HW1 1829   5.200   6.768   4.422
  310SOL    HW2 1830   5.073   6.859   4.374
  311SOL     OW 1831   2.609   4.926   2.835
  311SOL    HW1 1832   2.686   4.866   2.813
  311SOL    HW2 1833   2.641   5.000   2.894
  312SOL     OW 1834   3.599   2.170   3.851
  312SOL    HW1 1835   3.594   2.197   3.947
  312SOL    HW2 1836   3.560   2.079   3.840
  313SOL     OW 1837   3.158   4.084   2.769
  313SOL    HW1 1838   3.233   4.141   2.801
  313SOL    HW2 1839   3.136   4.016   2.839
  314SOL     OW 1840   2.179   4.948   4.874
  314SOL    HW1 1841   2.183   4.898   4.788
  314SOL    HW2 1842   2.148   5.041   4.857
  315SOL     OW 1843   0.723   2.092   4.167
  315SOL    HW1 1844   0.638   2.039   4.170
  315SOL    HW2 1845   0.797   2.033   4.136
  316SOL     OW 1846   4.092   0.938   4.529
  316SOL    HW1 1847   4.050   1.019   4.486
  316SOL    HW2 1848   4.086   0.947   4.629
  317SOL     OW 1849   0.516   1.436   1.739
  317SOL    HW1 1850   0.557   1.360   1.790
  317SOL    HW2 1851   0.577   1.516   1.745
  318SOL     OW 1852   6.467   0.505   6.649
  318SOL    HW1 1853   6.496   0.580   6.589
  318SOL    HW2 1854   6.374   0.477   6.625
  319SOL     OW 1855   6.906   2.251   3.727
  319SOL    HW1 1856   6.966   2.174   3.751
  319SOL    HW2 1857   6.828   2.217   3.675
  320SOL     OW 1858   6.098   3.102   0.070
  320SOL    HW1 1859   6.107   3.072   6.999
  320SOL    HW2 1860   6.101   3.023   0.131
  321SOL     OW 1861   4.257   2.090   0.335
  321SOL    HW1 1862   4.324   2.077   0.262
  321SOL    HW2 1863   4.253   2.186   0.360
  322SOL     OW 1864   3.630   2.913   4.634
  322SOL    HW1 1865   3.532   2.921   4.613
  322SOL    HW2 1866   3.646   2.945   4.727
  323SOL     OW 1867   1.325   2.623   5.226
  323SOL    HW1 1868   1.322   2.582   5.134
  323SOL    HW2 1869   1.372   2.561   5.288
  324SOL     OW 1870   2.598   0.096   3.261
  324SOL    HW1 1871   2.621   0.192   3.242
  324SOL    HW2 1872   2.580   0.049   3.174
  325SOL     OW 1873   0.854   3.526   2.733
  325SOL    HW1 1874   0.856   3.468   2.651
  325SOL    HW2 1875   0.944   3.526   2.776
  326SOL     OW 1876   0.957   4.305   6.212
  326SOL    HW1 1877   0.902   4.288   6.130
  326SOL    HW2 1878   0.954   4.402   6.235
  327SOL     OW 1879   2.422   4.530   3.049
  327SOL    HW1 1880   2.483   4.452   3.063
  327SOL    HW2 1881   2.471   4.614   3.069
  328SOL     OW 1882   2.266   4.792   1.696
  328SOL    HW1 1883   2.343   4.803   1.759
  328SOL    HW2 1884   2.227   4.701   1.708
  329SOL     OW 1885   2.593   3.790   5.869
  329SOL    HW1 1886   2.567   3.785   5.965
  329SOL    HW2 1887   2.586   3.699   5.828
  330SOL     OW 1888   3.359   6.244   0.411
  330SOL    HW1 1889   3.334   6.306   0.485
  330SOL    HW2 1890   3.448   6.203   0.431
  331SOL     OW 1891   5.512   5.683   0.719
  331SOL    HW1 1892   5.510   5.766   0.775
  331SOL    HW2 1893   5.420   5.662   0.687
  332SOL     OW 1894   6.002   2.392   4.458
  332SOL    HW1 1895   6.094   2.353   4.470
  332SOL    HW2 1896   5.956   2.346   4.382
  333SOL     OW 1897   3.932   0.468   5.193
  333SOL    HW1 1898   3.846   0.434   5.232
  333SOL    HW2 1899   4.001   0.474   5.266
  334SOL     OW 1900   3.427   2.116   0.209
  334SOL    HW1 1901   3.456   2.212   0.209
  334SOL    HW2 1902   3.328   2.112   0.223
  335SOL     OW 1903   3.354   0.508   6.839
  335SOL    HW1 1904   3.414   0.535   6.764
  335SOL    HW2 1905   3.259   0.509   6.807
  336SOL     OW 1906   2.958   0.719   3.375
  336SOL    HW1 1907   2.894   0.645   3.397
  336SOL    HW2 1908   3.013   0.693   3.295
  337SOL     OW 1909   0.087   3.298   5.931
  337SOL    HW1 1910   0.129   3.233   5.868
  337SOL    HW2 1911   0.127   3.388   5.918
  338SOL     OW 1912   3.381   2.554   1.405
  338SOL    HW1 1913   3.324   2.633   1.383
  338SOL    HW2 1914   3.383   2.541   1.504
  339SOL     OW 1915   4.768   5.492   4.934
  339SOL    HW1 1916   4.697   5.438   4.980
  339SOL    HW2 1917   4.827   5.534   5.003
  340SOL     OW 1918   4.956   3.312   4.553
  340SOL    HW1 1919   4.932   3.409   4.541
  340SOL    HW2 1920   5.041   3.305   4.604
  341SOL     OW 1921   5.805   6.812   4.647
  341SOL    HW1 1922   5.781   6.817   4.744
  341SOL    HW2 1923   5.722   6.795   4.594
  342SOL     OW 1924   5.105   3.319   0.499
  342SOL    HW1 1925   5.081   3.345   0.592
  342SOL    HW2 1926   5.024   3.280   0.453
  343SOL     OW 1927   0.248   6.401   2.242
  343SOL    HW1 1928   0.274   6.377   2.148
  343SOL    HW2 1929   0.207   6.492   2.242
  344SOL     OW 1930   0.831   3.307   1.759
  344SOL    HW1 1931   0.795   3.214   1.753
  344SOL    HW2 1932   0.759   3.368   1.794
  345SOL     OW 1933   5.768   2.516   3.885
  345SOL    HW1 1934   5.670   2.500   3.894
  345SOL    HW2 1935   5.807   2.537   3.974
  346SOL     OW 1936   1.701   0.651   2.324
  346SOL    HW1 1937   1.797   0.628   2.339
  346SOL    HW2 1938   1.658   0.582   2.266
  347SOL     OW 1939   3.046   5.784   0.345
  347SOL    HW1 1940   2.976   5.794   0.415
  347SOL    HW2 1941   3.096   5.870   0.335
  348SOL     OW 1942   4.961   4.210   2.729
  348SOL    HW1 1943   4.861   4.214   2.720
  348SOL    HW2 1944   5.002   4.221   2.639
  349SOL     OW 1945   6.701   4.860   2.131
  349SOL    HW1 1946   6.672   4.936   2.188
  349SOL    HW2 1947   6.742   4.789   2.187
  350SOL     OW 1948   2.498   2.603   0.983
  350SOL    HW1 1949   2.520   2.660   1.062
  350SOL    HW2 1950   2.563   2.622   0.909
  351SOL     OW 1951   2.146   3.146   0.740
  351SOL    HW1 1952   2.118   3.110   0.651
  351SOL    HW2 1953   2.077   3.211   0.772
  352SOL     OW 1954   3.500   6.936   3.726
  352SOL    HW1 1955   3.484   6.849   3.773
  352SOL    HW2 1956   3.471   7.011   3.786
  353SOL     OW 1957   2.890   0.147   6.748
  353SOL    HW1 1958   2.811   0.183   6.798
  353SOL    HW2 1959   2.975   0.181   6.790
  354SOL     OW 1960   4.456   1.993   1.575
  354SOL    HW1 1961   4.532   1.941   1.536
  354SOL    HW2 1962   4.397   1.932   1.628
  355SOL     OW 1963   1.609   4.125   2.787
  355SOL    HW1 1964   1.643   4.052   2.727
  355SOL    HW2 1965   1.602   4.090   2.880
  356SOL     OW 1966   2.336   0.856   5.737
  356SOL    HW1 1967   2.432   0.878   5.752
  356SOL    HW2 1968   2.324   0.819   5.645
  357SOL     OW 1969   6.915   6.123   5.303
  357SOL    HW1 1970   7.014   6.111   5.309
  357SOL    HW2 1971   6.873   6.097   5.390
  358SOL     OW 1972   4.831   6.397   1.003
  358SOL    HW1 1973   4.904   6.416   1.068
  358SOL    HW2 1974   4.765   6.334   1.045
  359SOL     OW 1975   3.177   1.395   2.387
  359SOL    HW1 1976   3.194   1.493   2.391
  359SOL    HW2 1977   3.250   1.347   2.436
  360SOL     OW 1978   1.487   4.309   5.496
  360SOL    HW1 1979   1.453   4.364   5.420
  360SOL    HW2 1980   1.431   4.227   5.505
  361SOL     OW 1981   6.591   6.462   3.378
  361SOL    HW1 1982   6.682   6.473   3.417
  361SOL    HW2 1983   6.596   6.400   3.299
  362SOL     OW 1984   3.455   2.904   1.705
  362SOL    HW1 1985   3.545   2.883   1.666
  362SOL    HW2 1986   3.411   2.819   1.733
  363SOL     OW 1987   5.901   4.395   3.348
  363SOL    HW1 1988   5.970   4.421   3.280
  363SOL    HW2 1989   5.863   4.478   3.389
  364SOL     OW 1990   0.042   5.136   6.693
  364SOL    HW1 1991   7.013   5.107   6.614
  364SOL    HW2 1992   0.103   5.063   6.723
  365SOL     OW 1993   5.066   0.100   1.478
  365SOL    HW1 1994   5.114   0.055   1.554
  365SOL    HW2 1995   4.976   0.130   1.509
  366SOL     OW 1996   6.052   1.926   6.761
  366SOL    HW1 1997   6.010   1.837   6.782
  366SOL    HW2 1998   6.011   1.964   6.678
  367SOL     OW 1999   5.975   2.403   0.403
  367SOL    HW1 2000   6.062   2.438   0.438
  367SOL    HW2 2001   5.993   2.338   0.330
  368SOL     OW 2002   0.442   2.348   5.223
  368SOL    HW1 2003   0.411   2.268   5.172
  368SOL    HW2 2004   0.532   2.377   5.189
  369SOL     OW 2005   5.850   5.240   2.384
  369SOL    HW1 2006   5.919   5.168   2.376
  369SOL    HW2 2007   5.765   5.201   2.418
  370SOL     OW 2008   1.382   1.758   4.570
  370SOL    HW1 2009   1.391   1.740   4.668
  370SOL    HW2 2010   1.355   1.854   4.556
  371SOL     OW 2011   1.680   4.627   6.617
  371SOL    HW1 2012   1.612   4.667   6.678
  371SOL    HW2 2013   1.653   4.642   6.522
  372SOL     OW 2014   1.712   6.886   5.813
  372SOL    HW1 2015   1.659   6.970   5.810
  372SOL    HW2 2016   1.804   6.906   5.847
  373SOL     OW 2017   5.893   6.077   5.056
  373SOL    HW1 2018   5.927   6.089   4.963
  373SOL    HW2 2019   5.849   5.988   5.064
  374SOL     OW 2020   2.800   2.356   3.331
  374SOL    HW1 2021   2.753   2.336   3.417
  374SOL    HW2 2022   2.881   2.298   3.322
  375SOL     OW 2023   0.659   3.884   4.114
  375SOL    HW1 2024   0.593   3.951   4.149
  375SOL    HW2 2025   0.751   3.911   4.141
  376SOL     OW 2026   1.130   1.413   5.011
  376SOL    HW1 2027   1.070   1.434   4.934
  376SOL    HW2 2028   1.075   1.381   5.088
  377SOL     OW 2029   1.549   1.955   0.531
  377SOL    HW1 2030   1.562   1.998   0.620
  377SOL    HW2 2031   1.452   1.956   0.507
  378SOL     OW 2032   4.395   1.765   0.369
  378SOL    HW1 2033   4.352   1.853   0.347
  378SOL    HW2 2034   4.422   1.719   0.284
  379SOL     OW 2035   5.606   2.431   0.695
  379SOL    HW1 2036   5.520   2.434   0.746
  379SOL    HW2 2037   5.674   2.380   0.748
  380SOL     OW 2038   3.140   1.434   1.026
  380SOL    HW1 2039   3.194   1.358   1.063
  380SOL    HW2 2040   3.191   1.478   0.952
  381SOL     OW 2041   1.793   3.444   3.800
  381SOL    HW1 2042   1.881   3.485   3.777
  381SOL    HW2 2043   1.771   3.464   3.895
  382SOL     OW 2044   5.745   0.506   0.397
  382SOL    HW1 2045   5.737   0.550   0.487
  382SOL    HW2 2046   5.672   0.539   0.337
  383SOL     OW 2047   3.490   3.232   6.558
  383SOL    HW1 2048   3.453   3.221   6.650
  383SOL    HW2 2049   3.585   3.261   6.563
  384SOL     OW 2050   6.660   5.416   4.526
  384SOL    HW1 2051   6.728   5.489   4.531
  384SOL    HW2 2052   6.682   5.354   4.451
  385SOL     OW 2053   3.006   4.799   4.934
  385SOL    HW1 2054   2.957   4.744   5.002
  385SOL    HW2 2055   3.014   4.747   4.849
  386SOL     OW 2056   3.039   5.779   4.211
  386SOL    HW1 2057   3.090   5.757   4.128
  386SOL    HW2 2058   2.944   5.751   4.201
  387SOL     OW 2059   0.877   5.975   2.996
  387SOL    HW1 2060   0.966   5.981   3.041
  387SOL    HW2 2061   0.834   5.888   3.018
  388SOL     OW 2062   1.277   2.068   5.935
  388SOL    HW1 2063   1.254   1.998   5.867
  388SOL    HW2 2064   1.337   2.028   6.004
  389SOL     OW 2065   3.807   3.782   1.964
  389SOL    HW1 2066   3.812   3.700   2.020
  389SOL    HW2 2067   3.792   3.862   2.023
  390SOL     OW 2068   2.565   1.494   2.181
  390SOL    HW1 2069   2.610   1.583   2.179
  390SOL    HW2 2070   2.593   1.441   2.101
  391SOL     OW 2071   2.583   1.791   6.465
  391SOL    HW1 2072   2.555   1.885   6.484
  391SOL    HW2 2073   2.581   1.738   6.550
  392SOL     OW 2074   2.013   4.832   0.930
  392SOL    HW1 2075   2.086   4.899   0.943
  392SOL    HW2 2076   2.046   4.759   0.871
  393SOL     OW 2077   0.952   4.162   6.449
  393SOL    HW1 2078   0.921   4.232   6.513
  393SOL    HW2 2079   0.942   4.196   6.356
  394SOL     OW 2080   6.718   1.236   0.347
  394SOL    HW1 2081   6.752   1.285   0.427
  394SOL    HW2 2082   6.658   1.161   0.376
  395SOL     OW 2083   5.043   3.741   3.067
  395SOL    HW1 2084   5.052   3.813   2.999
  395SOL    HW2 2085   5.081   3.772   3.154
  396SOL     OW 2086   3.689   4.202   1.821
  396SOL    HW1 2087   3.606   4.149   1.840
  396SOL    HW2 2088   3.664   4.285   1.772
  397SOL     OW 2089   4.825   2.022   5.853
  397SOL    HW1 2090   4.895   2.065   5.796
  397SOL    HW2 2091   4.779   1.950   5.800
  398SOL     OW 2092   0.394   6.396   2.518
  398SOL    HW1 2093   0.423   6.322   2.579
  398SOL    HW2 2094   0.301   6.378   2.486
  399SOL     OW 2095   5.644   6.223   2.592
  399SOL    HW1 2096   5.713   6.215   2.521
  399SOL    HW2 2097   5.682   6.273   2.670
  400SOL     OW 2098   6.336   6.823   5.983
  400SOL    HW1 2099   6.307   6.918   5.971
  400SOL    HW2 2100   6.315   6.771   5.900
  401SOL     OW 2101   4.800   0.377   5.356
  401SOL    HW1 2102   4.854   0.436   5.296
  401SOL    HW2 2103   4.813   0.406   5.451
  402SOL     OW 2104   5.739   0.305   3.232
  402SOL    HW1 2105   5.680   0.225   3.227
  402SOL    HW2 2106   5.826   0.280   3.274
  403SOL     OW 2107   3.942   2.178   4.367
  403SOL    HW1 2108   4.016   2.138   4.421
  403SOL    HW2 2109   3.858   2.180   4.421
  404SOL     OW 2110   1.239   5.387   4.890
  404SOL    HW1 2111   1.339   5.396   4.888
  404SOL    HW2 2112   1.201   5.454   4.954
  405SOL     OW 2113   1.759   3.498   1.685
  405SOL    HW1 2114   1.722   3.538   1.769
  405SOL    HW2 2115   1.804   3.411   1.707
  406SOL     OW 2116   1.124   4.568   4.791
  406SOL    HW1 2117   1.127   4.639   4.861
  406SOL    HW2 2118   1.213   4.522   4.785
  407SOL     OW 2119   1.435   0.882   3.956
  407SOL    HW1 2120   1.455   0.979   3.941
  407SOL    HW2 2121   1.380   0.847   3.881
  408SOL     OW 2122   1.141   2.712   2.930
  408SOL    HW1 2123   1.092   2.778   2.986
  408SOL    HW2 2124   1.212   2.759   2.878
  409SOL     OW 2125   6.725   2.809   1.343
  409SOL    HW1 2126   6.750   2.853   1.429
  409SOL    HW2 2127   6.648   2.858   1.302
  410SOL     OW 2128   1.632   1.262   1.890
  410SOL    HW1 2129   1.685   1.187   1.852
  410SOL    HW2 2130   1.582   1.230   1.970
  411SOL     OW 2131   5.409   0.194   1.081
  411SOL    HW1 2132   5.371   0.115   1.129
  411SOL    HW2 2133   5.343   0.269   1.082
  412SOL     OW 2134   4.446   6.389   3.545
  412SOL    HW1 2135   4.473   6.306   3.594
  412SOL    HW2 2136   4.433   6.367   3.448
  413SOL     OW 2137   5.027   4.468   1.878
  413SOL    HW1 2138   4.949   4.430   1.928
  413SOL    HW2 2139   5.052   4.406   1.804
  414SOL     OW 2140   3.775   5.387   3.483
  414SOL    HW1 2141   3.788   5.289   3.491
  414SOL    HW2 2142   3.724   5.420   3.563
  415SOL     OW 2143   0.912   5.887   6.813
  415SOL    HW1 2144   0.960   5.814   6.861
  415SOL    HW2 2145   0.907   5.968   6.872
  416SOL     OW 2146   5.255   6.438   4.189
  416SOL    HW1 2147   5.205   6.517   4.154
  416SOL    HW2 2148   5.231   6.424   4.285
  417SOL     OW 2149   2.879   5.200   0.322
  417SOL    HW1 2150   2.844   5.224   0.231
  417SOL    HW2 2151   2.959   5.141   0.312
  418SOL     OW 2152   4.015   6.609   0.519
  418SOL    HW1 2153   3.945   6.572   0.581
  418SOL    HW2 2154   4.076   6.535   0.491
  419SOL     OW 2155   1.805   0.606   1.595
  419SOL    HW1 2156   1.764   0.521   1.562
  419SOL    HW2 2157   1.766   0.683   1.545
  420SOL     OW 2158   5.415   1.058   0.063
  420SOL    HW1 2159   5.462   1.006   7.014
  420SOL    HW2 2160   5.479   1.123   0.104
  421SOL     OW 2161   6.965   4.257   5.984
  421SOL    HW1 2162   6.884   4.262   6.043
  421SOL    HW2 2163   6.968   4.167   5.939
  422SOL     OW 2164   5.954   3.470   0.954
  422SOL    HW1 2165   5.949   3.374   0.927
  422SOL    HW2 2166   6.031   3.513   0.907
  423SOL     OW 2167   0.970   2.163   6.775
  423SOL    HW1 2168   0.972   2.073   6.732
  423SOL    HW2 2169   0.879   2.181   6.812
  424SOL     OW 2170   2.133   4.403   1.099
  424SOL    HW1 2171   2.155   4.392   1.196
  424SOL    HW2 2172   2.072   4.481   1.087
  425SOL     OW 2173   5.723   1.443   3.117
  425SOL    HW1 2174   5.655   1.482   3.055
  425SOL    HW2 2175   5.677   1.384   3.184
  426SOL     OW 2176   4.253   1.780   4.743
  426SOL    HW1 2177   4.178   1.841   4.769
  426SOL    HW2 2178   4.322   1.833   4.692
  427SOL     OW 2179   4.742   5.812   3.206
  427SOL    HW1 2180   4.724   5.730   3.151
  427SOL    HW2 2181   4.657   5.843   3.248
  428SOL     OW 2182   4.190   0.274   4.716
  428SOL    HW1 2183   4.095   0.294   4.695
  428SOL    HW2 2184   4.243   0.271   4.631
  429SOL     OW 2185   1.391   3.221   1.265
  429SOL    HW1 2186   1.471   3.259   1.217
  429SOL    HW2 2187   1.336   3.168   1.200
  430SOL     OW 2188   7.013   0.545   5.589
  430SOL    HW1 2189   6.931   0.550   5.647
  430SOL    HW2 2190   0.050   0.473   5.623
  431SOL     OW 2191   3.456   6.958   0.543
  431SOL    HW1 2192   3.426   6.864   0.534
  431SOL    HW2 2193   3.383   7.020   0.513
  432SOL     OW 2194   6.526   1.420   0.917
  432SOL    HW1 2195   6.567   1.402   0.828
  432SOL    HW2 2196   6.598   1.436   0.985
  433SOL     OW 2197   2.671   6.319   4.788
  433SOL    HW1 2198   2.633   6.384   4.722
  433SOL    HW2 2199   2.620   6.325   4.874
  434SOL     OW 2200   3.463   5.909   3.176
  434SOL    HW1 2201   3.482   5.816   3.208
  434SOL    HW2 2202   3.376   5.940   3.214
  435SOL     OW 2203   5.242   2.514   6.190
  435SOL    HW1 2204   5.331   2.472   6.169
  435SOL    HW2 2205   5.170   2.464   6.143
  436SOL     OW 2206   2.739   6.403   1.257
  436SOL    HW1 2207   2.762   6.496   1.286
  436SOL    HW2 2208   2.686   6.358   1.329
  437SOL     OW 2209   1.191   0.858   0.443
  437SOL    HW1 2210   1.205   0.864   0.344
  437SOL    HW2 2211   1.148   0.942   0.476
  438SOL     OW 2212   1.923   3.989   3.047
  438SOL    HW1 2213   2.012   4.014   3.085
  438SOL    HW2 2214   1.908   3.891   3.059
  439SOL     OW 2215   5.929   5.057   2.730
  439SOL    HW1 2216   5.945   5.041   2.827
  439SOL    HW2 2217   6.012   5.091   2.687
  440SOL     OW 2218   1.677   1.275   5.274
  440SOL    HW1 2219   1.762   1.320   5.247
  440SOL    HW2 2220   1.696   1.180   5.299
  441SOL     OW 2221   1.167   2.677   4.533
  441SOL    HW1 2222   1.259   2.674   4.493
  441SOL    HW2 2223   1.101   2.703   4.462
  442SOL     OW 2224   3.571   5.460   5.837
  442SOL    HW1 2225   3.641   5.501   5.896
  442SOL    HW2 2226   3.484   5.455   5.887
  443SOL     OW 2227   6.165   4.048   4.356
  443SOL    HW1 2228   6.175   4.086   4.448
  443SOL    HW2 2229   6.255   4.046   4.311
  444SOL     OW 2230   5.062   1.521   5.708
  444SOL    HW1 2231   5.096   1.539   5.800
  444SOL    HW2 2232   5.006   1.598   5.677
  445SOL     OW 2233   0.677   5.726   2.839
  445SOL    HW1 2234   0.588   5.763   2.812
  445SOL    HW2 2235   0.715   5.671   2.764
  446SOL     OW 2236   3.702   5.609   3.666
  446SOL    HW1 2237   3.652   5.624   3.752
  446SOL    HW2 2238   3.786   5.558   3.685
  447SOL     OW 2239   0.301   2.753   6.255
  447SOL    HW1 2240   0.276   2.793   6.343
  447SOL    HW2 2241   0.285   2.819   6.182
  448SOL     OW 2242   1.792   0.639   3.168
  448SOL    HW1 2243   1.806   0.703   3.243
  448SOL    HW2 2244   1.846   0.667   3.089
  449SOL     OW 2245   4.029   1.464   4.120
  449SOL    HW1 2246   4.077   1.425   4.197
  449SOL    HW2 2247   4.090   1.469   4.041
  450SOL     OW 2248   1.380   5.677   3.465
  450SOL    HW1 2249   1.400   5.629   3.551
  450SOL    HW2 2250   1.282   5.678   3.449
  451SOL     OW 2251   1.126   2.486   3.572
  451SOL    HW1 2252   1.183   2.563   3.602
  451SOL    HW2 2253   1.033   2.498   3.605
  452SOL     OW 2254   5.910   6.100   0.789
  452SOL    HW1 2255   5.983   6.159   0.755
  452SOL    HW2 2256   5.824   6.122   0.743
  453SOL     OW 2257   3.429   1.374   5.757
  453SOL    HW1 2258   3.362   1.402   5.688
  453SOL    HW2 2259   3.419   1.276   5.776
  454SOL     OW 2260   6.787   4.796   6.137
  454SOL    HW1 2261   6.804   4.707   6.094
  454SOL    HW2 2262   6.750   4.860   6.070
  455SOL     OW 2263   6.137   2.694   3.511
  455SOL    HW1 2264   6.194   2.684   3.429
  455SOL    HW2 2265   6.041   2.698   3.485
  456SOL     OW 2266   6.177   6.225   4.017
  456SOL    HW1 2267   6.165   6.262   3.925
  456SOL    HW2 2268   6.186   6.300   4.082
  457SOL     OW 2269   1.415   2.435   4.030
  457SOL    HW1 2270   1.450   2.521   4.066
  457SOL    HW2 2271   1.490   2.384   3.987
  458SOL     OW 2272   3.910   5.749   3.490
  458SOL    HW1 2273   3.813   5.743   3.516
  458SOL    HW2 2274   3.939   5.662   3.450
  459SOL     OW 2275   2.062   6.240   5.297
  459SOL    HW1 2276   2.126   6.314   5.318
  459SOL    HW2 2277   2.044   6.187   5.380
  460SOL     OW 2278   1.639   6.542   3.812
  460SOL    HW1 2279   1.728   6.498   3.823
  460SOL    HW2 2280   1.587   6.535   3.897
  461SOL     OW 2281   6.590   6.761   6.056
  461SOL    HW1 2282   6.625   6.846   6.094
  461SOL    HW2 2283   6.498   6.775   6.021
  462SOL     OW 2284   3.740   3.349   6.625
  462SOL    HW1 2285   3.811   3.280   6.611
  462SOL    HW2 2286   3.710   3.346   6.721
  463SOL     OW 2287   5.572   6.025   3.344
  463SOL    HW1 2288   5.567   5.935   3.387
  463SOL    HW2 2289   5.668   6.050   3.332
  464SOL     OW 2290   2.837   1.391   4.747
  464SOL    HW1 2291   2.805   1.329   4.675
  464SOL    HW2 2292   2.934   1.413   4.732
  465SOL     OW 2293   1.070   3.195   6.423
  465SOL    HW1 2294   1.150   3.252   6.434
  465SOL    HW2 2295   1.097   3.098   6.425
  466SOL     OW 2296   0.958   6.363   3.031
  466SOL    HW1 2297   1.049   6.375   2.991
  466SOL    HW2 2298   0.967   6.349   3.130
  467SOL     OW 2299   2.075   1.166   0.737
  467SOL    HW1 2300   2.040   1.129   0.651
  467SOL    HW2 2301   2.057   1.265   0.740
  468SOL     OW 2302   3.667   0.388   6.106
  468SOL    HW1 2303   3.623   0.423   6.189
  468SOL    HW2 2304   3.767   0.397   6.115
  469SOL     OW 2305   3.043   3.142   6.642
  469SOL    HW1 2306   3.091   3.179   6.562
  469SOL    HW2 2307   2.986   3.065   6.613
  470SOL     OW 2308   4.511   6.866   1.753
  470SOL    HW1 2309   4.548   6.925   1.681
  470SOL    HW2 2310   4.411   6.867   1.747
  471SOL     OW 2311   2.386   2.260   3.799
  471SOL    HW1 2312   2.456   2.309   3.850
  471SOL    HW2 2313   2.430   2.187   3.746
  472SOL     OW 2314   4.539   3.352   6.311
  472SOL    HW1 2315   4.627   3.319   6.344
  472SOL    HW2 2316   4.515   3.304   6.226
  473SOL     OW 2317   1.061   3.091   3.124
  473SOL    HW1 2318   1.072   3.126   3.216
  473SOL    HW2 2319   1.145   3.105   3.072
  474SOL     OW 2320   5.025   5.435   4.309
  474SOL    HW1 2321   5.032   5.528   4.272
  474SOL    HW2 2322   5.047   5.370   4.237
  475SOL     OW 2323   5.633   0.993   6.171
  475SOL    HW1 2324   5.697   1.054   6.123
  475SOL    HW2 2325   5.649   0.999   6.269
  476SOL     OW 2326   0.422   3.551   3.741
  476SOL    HW1 2327   0.475   3.635   3.749
  476SOL    HW2 2328   0.461   3.493   3.669
  477SOL     OW 2329   1.724   6.067   3.449
  477SOL    HW1 2330   1.787   6.022   3.512
  477SOL    HW2 2331   1.643   6.096   3.499
  478SOL     OW 2332   3.407   5.710   1.778
  478SOL    HW1 2333   3.426   5.805   1.799
  478SOL    HW2 2334   3.308   5.693   1.786
  479SOL     OW 2335   4.176   1.901   5.800
  479SOL    HW1 2336   4.102   1.846   5.841
  479SOL    HW2 2337   4.191   1.869   5.706
  480SOL     OW 2338   2.636   0.664   6.801
  480SOL    HW1 2339   2.583   0.678   6.718
  480SOL    HW2 2340   2.596   0.590   6.854
  481SOL     OW 2341   2.289   6.734   1.087
  481SOL    HW1 2342   2.301   6.770   1.179
  481SOL    HW2 2343   2.218   6.785   1.039
  482SOL     OW 2344   4.108   5.101   2.099
  482SOL    HW1 2345   4.028   5.068   2.149
  482SOL    HW2 2346   4.184   5.036   2.111
  483SOL     OW 2347   6.833   1.666   2.766
  483SOL    HW1 2348   6.762   1.600   2.790
  483SOL    HW2 2349   6.890   1.685   2.847
  484SOL     OW 2350   2.018   3.499   4.693
  484SOL    HW1 2351   2.007   3.577   4.754
  484SOL    HW2 2352   1.938   3.439   4.701
  485SOL     OW 2353   3.499   5.321   3.034
  485SOL    HW1 2354   3.455   5.277   3.113
  485SOL    HW2 2355   3.589   5.354   3.060
  486SOL     OW 2356   6.753   1.368   6.921
  486SOL    HW1 2357   6.778   1.272   6.933
  486SOL    HW2 2358   6.744   1.411   7.011
  487SOL     OW 2359   0.819   0.704   2.537
  487SOL    HW1 2360   0.805   0.608   2.513
  487SOL    HW2 2361   0.793   0.719   2.632
  488SOL     OW 2362   1.179   1.501   1.872
  488SOL    HW1 2363   1.089   1.480   1.912
  488SOL    HW2 2364   1.210   1.590   1.905
  489SOL     OW 2365   3.971   6.135   5.988
  489SOL    HW1 2366   3.908   6.212   5.991
  489SOL    HW2 2367   4.041   6.152   5.919
  490SOL     OW 2368   7.009   6.061   2.628
  490SOL    HW1 2369   0.030   6.150   2.618
  490SOL    HW2 2370   0.018   5.999   2.557
  491SOL     OW 2371   1.302   3.284   2.804
  491SOL    HW1 2372   1.282   3.286   2.706
  491SOL    HW2 2373   1.269   3.197   2.842
  492SOL     OW 2374   1.492   0.763   5.134
  492SOL    HW1 2375   1.592   0.760   5.144
  492SOL    HW2 2376   1.455   0.671   5.143
  493SOL     OW 2377   4.809   6.207   5.594
  493SOL    HW1 2378   4.800   6.158   5.681
  493SOL    HW2 2379   4.906   6.213   5.569
  494SOL     OW 2380   0.630   6.899   6.938
  494SOL    HW1 2381   0.633   6.801   6.957
  494SOL    HW2 2382   0.539   6.924   6.904
  495SOL     OW 2383   4.808   5.869   3.818
  495SOL    HW1 2384   4.860   5.949   3.848
  495SOL    HW2 2385   4.810   5.865   3.718
  496SOL     OW 2386   5.037   2.983   2.063
  496SOL    HW1 2387   5.070   2.932   1.983
  496SOL    HW2 2388   4.941   2.962   2.079
  497SOL     OW 2389   2.741   1.168   4.402
  497SOL    HW1 2390   2.833   1.144   4.431
  497SOL    HW2 2391   2.741   1.188   4.304
  498SOL     OW 2392   1.142   4.277   1.630
  498SOL    HW1 2393   1.075   4.350   1.615
  498SOL    HW2 2394   1.095   4.194   1.659
  499SOL     OW 2395   1.564   5.878   4.585
  499SOL    HW1 2396   1.600   5.814   4.518
  499SOL    HW2 2397   1.558   5.833   4.674
  500SOL     OW 2398   0.283   2.896   5.248
  500SOL    HW1 2399   0.222   2.966   5.285
  500SOL    HW2 2400   0.280   2.897   5.149
  501SOL     OW 2401   3.210   6.140   0.822
  501SOL    HW1 2402   3.264   6.146   0.906
  501SOL    HW2 2403   3.259   6.085   0.755
  502SOL     OW 2404   0.744   4.141   6.803
  502SOL    HW1 2405   0.717   4.047   6.782
  502SOL    HW2 2406   0.662   4.194   6.826
  503SOL     OW 2407   0.331   5.696   6.908
  503SOL    HW1 2408   0.248   5.692   6.964
  503SOL    HW2 2409   0.359   5.791   6.897
  504SOL     OW 2410   1.430   5.068   2.247
  504SOL    HW1 2411   1.355   5.016   2.207
  504SOL    HW2 2412   1.506   5.074   2.182
  505SOL     OW 2413   2.995   6.058   5.340
  505SOL    HW1 2414   2.999   5.958   5.350
  505SOL    HW2 2415   2.989   6.100   5.431
  506SOL     OW 2416   2.960   4.842   4.275
  506SOL    HW1 2417   2.860   4.852   4.280
  506SOL    HW2 2418   2.987   4.834   4.179
  507SOL     OW 2419   3.379   6.940   3.109
  507SOL    HW1 2420   3.411   0.011   3.104
  507SOL    HW2 2421   3.420   6.895   3.189
  508SOL     OW 2422   7.007   3.649   2.330
  508SOL    HW1 2423   6.925   3.621   2.281
  508SOL    HW2 2424   7.023   3.588   2.407
  509SOL     OW 2425   3.349   1.268   1.117
  509SOL    HW1 2426   3.381   1.311   1.202
  509SOL    HW2 2427   3.428   1.243   1.061
  510SOL     OW 2428   6.431   4.567   6.723
  510SOL    HW1 2429   6.450   4.541   6.818
  510SOL    HW2 2430   6.497   4.522   6.662
  511SOL     OW 2431   1.169   1.592   6.030
  511SOL    HW1 2432   1.076   1.555   6.028
  511SOL    HW2 2433   1.203   1.604   5.937
  512SOL     OW 2434   6.444   3.075   0.166
  512SOL    HW1 2435   6.527   3.070   0.111
  512SOL    HW2 2436   6.456   3.019   0.249
  513SOL     OW 2437   5.741   0.008   2.833
  513SOL    HW1 2438   5.672   6.961   2.815
  513SOL    HW2 2439   5.823   7.013   2.778
  514SOL     OW 2440   6.437   1.904   4.168
  514SOL    HW1 2441   6.420   1.815   4.210
  514SOL    HW2 2442   6.515   1.948   4.212
  515SOL     OW 2443   0.984   0.452   6.194
  515SOL    HW1 2444   0.888   0.460   6.223
  515SOL    HW2 2445   1.024   0.370   6.233
  516SOL     OW 2446   2.539   4.524   2.127
  516SOL    HW1 2447   2.483   4.606   2.112
  516SOL    HW2 2448   2.629   4.537   2.085
  517SOL     OW 2449   4.832   5.821   1.252
  517SOL    HW1 2450   4.831   5.886   1.329
  517SOL    HW2 2451   4.926   5.809   1.221
  518SOL     OW 2452   3.066   2.138   3.302
  518SOL    HW1 2453   3.029   2.170   3.214
  518SOL    HW2 2454   3.123   2.057   3.287
  519SOL     OW 2455   0.071   6.770   4.733
  519SOL    HW1 2456   0.156   6.723   4.710
  519SOL    HW2 2457   0.089   6.868   4.744
  520SOL     OW 2458   5.850   4.113   0.375
  520SOL    HW1 2459   5.876   4.117   0.472
  520SOL    HW2 2460   5.932   4.119   0.318
  521SOL     OW 2461   6.396   5.572   5.223
  521SOL    HW1 2462   6.409   5.656   5.171
  521SOL    HW2 2463   6.315   5.524   5.189
  522SOL     OW 2464   3.499   3.539   4.481
  522SOL    HW1 2465   3.474   3.448   4.448
  522SOL    HW2 2466   3.538   3.592   4.405
  523SOL     OW 2467   0.486   5.786   1.750
  523SOL    HW1 2468   0.492   5.874   1.797
  523SOL    HW2 2469   0.425   5.725   1.800
  524SOL     OW 2470   0.392   1.807   2.319
  524SOL    HW1 2471   0.373   1.826   2.223
  524SOL    HW2 2472   0.376   1.889   2.374
  525SOL     OW 2473   2.162   3.447   5.754
  525SOL    HW1 2474   2.075   3.476   5.714
  525SOL    HW2 2475   2.145   3.403   5.842
  526SOL     OW 2476   4.237   6.766   3.808
  526SOL    HW1 2477   4.189   6.850   3.779
  526SOL    HW2 2478   4.257   6.710   3.728
  527SOL     OW 2479   6.036   2.634   0.239
  527SOL    HW1 2480   6.049   2.550   0.292
  527SOL    HW2 2481   6.006   2.610   0.146
  528SOL     OW 2482   0.679   2.546   3.827
  528SOL    HW1 2483   0.622   2.628   3.812
  528SOL    HW2 2484   0.761   2.572   3.878
  529SOL     OW 2485   1.215   6.840   4.659
  529SOL    HW1 2486   1.288   6.772   4.649
  529SOL    HW2 2487   1.171   6.856   4.571
  530SOL     OW 2488   3.679   3.115   4.264
  530SOL    HW1 2489   3.713   3.038   4.209
  530SOL    HW2 2490   3.602   3.085   4.319
  531SOL     OW 2491   0.456   1.847   3.519
  531SOL    HW1 2492   0.496   1.825   3.607
  531SOL    HW2 2493   0.523   1.894   3.462
  532SOL     OW 2494   1.147   2.812   6.762
  532SOL    HW1 2495   1.154   2.738   6.695
  532SOL    HW2 2496   1.239   2.843   6.787
  533SOL     OW 2497   4.003   6.636   4.356
  533SOL    HW1 2498   4.084   6.628   4.298
  533SOL    HW2 2499   4.027   6.684   4.441
  534SOL     OW 2500   5.198   6.479   2.310
  534SOL    HW1 2501   5.099   6.489   2.322
  534SOL    HW2 2502   5.244   6.525   2.386
  535SOL     OW 2503   0.577   3.455   4.986
  535SOL    HW1 2504   0.651   3.437   4.921
  535SOL    HW2 2505   0.615   3.493   5.070
  536SOL     OW 2506   6.554   5.212   1.967
  536SOL    HW1 2507   6.520   5.149   1.897
  536SOL    HW2 2508   6.651   5.194   1.983
  537SOL     OW 2509   2.815   6.393   4.520
  537SOL    HW1 2510   2.716   6.403   4.515
  537SOL    HW2 2511   2.856   6.432   4.438
  538SOL     OW 2512   1.147   4.403   3.258
  538SOL    HW1 2513   1.152   4.499   3.230
  538SOL    HW2 2514   1.130   4.398   3.357
  539SOL     OW 2515   1.477   5.710   1.343
  539SOL    HW1 2516   1.492   5.757   1.256
  539SOL    HW2 2517   1.503   5.613   1.333
  540SOL     OW 2518   1.359   0.601   3.117
  540SOL    HW1 2519   1.377   0.695   3.146
  540SOL    HW2 2520   1.385   0.538   3.190
  541SOL     OW 2521   5.089   5.762   4.025
  541SOL    HW1 2522   5.148   5.833   3.987
  541SOL    HW2 2523   5.091   5.766   4.124
  542SOL     OW 2524   6.037   6.503   6.828
  542SOL    HW1 2525   6.064   6.407   6.832
  542SOL    HW2 2526   6.001   6.524   6.738
  543SOL     OW 2527   1.326   3.830   5.209
  543SOL    HW1 2528   1.374   3.775   5.140
  543SOL    HW2 2529   1.352   3.926   5.198
  544SOL     OW 2530   2.609   4.067   0.089
  544SOL    HW1 2531   2.557   4.013   0.155
  544SOL    HW2 2532   2.581   4.043   7.020
  545SOL     OW 2533   2.677   1.574   1.799
  545SOL    HW1 2534   2.629   1.643   1.852
  545SOL    HW2 2535   2.774   1.598   1.793
  546SOL     OW 2536   2.123   2.777   0.298
  546SOL    HW1 2537   2.034   2.741   0.324
  546SOL    HW2 2538   2.136   2.867   0.339
  547SOL     OW 2539   3.096   0.853   0.163
  547SOL    HW1 2540   3.121   0.950   0.162
  547SOL    HW2 2541   3.164   0.801   0.112
  548SOL     OW 2542   3.441   3.576   2.644
  548SOL    HW1 2543   3.357   3.562   2.590
  548SOL    HW2 2544   3.521   3.555   2.588
  549SOL     OW 2545   5.029   2.698   1.323
  549SOL    HW1 2546   4.955   2.636   1.349
  549SOL    HW2 2547   4.994   2.766   1.258
  550SOL     OW 2548   0.089   5.515   3.782
  550SOL    HW1 2549   0.042   5.594   3.823
  550SOL    HW2 2550   0.032   5.433   3.792
  551SOL     OW 2551   0.748   0.416   2.449
  551SOL    HW1 2552   0.770   0.346   2.517
  551SOL    HW2 2553   0.669   0.386   2.395
  552SOL     OW 2554   5.275   4.237   0.123
  552SOL    HW1 2555   5.182   4.271   0.110
  552SOL    HW2 2556   5.272   4.139   0.141
  553SOL     OW 2557   2.359   6.451   2.494
  553SOL    HW1 2558   2.411   6.388   2.436
  553SOL    HW2 2559   2.392   6.544   2.479
  554SOL     OW 2560   5.610   0.280   6.215
  554SOL    HW1 2561   5.529   0.294   6.158
  554SOL    HW2 2562   5.593   0.205   6.279
  555SOL     OW 2563   1.874   5.393   3.541
  555SOL    HW1 2564   1.854   5.302   3.578
  555SOL    HW2 2565   1.902   5.454   3.615
  556SOL     OW 2566   4.477   2.558   3.385
  556SOL    HW1 2567   4.440   2.545   3.293
  556SOL    HW2 2568   4.431   2.496   3.448
  557SOL     OW 2569   0.312   5.292   0.710
  557SOL    HW1 2570   0.244   5.364   0.694
  557SOL    HW2 2571   0.299   5.218   0.644
  558SOL     OW 2572   3.064   3.087   4.259
  558SOL    HW1 2573   3.152   3.042   4.249
  558SOL    HW2 2574   3.029   3.072   4.352
  559SOL     OW 2575   6.742   6.018   0.126
  559SOL    HW1 2576   6.814   5.960   0.090
  559SOL    HW2 2577   6.698   5.974   0.204
  560SOL     OW 2578   4.699   4.833   6.973
  560SOL    HW1 2579   4.790   4.808   6.942
  560SOL    HW2 2580   4.705   4.909   0.015
  561SOL     OW 2581   0.040   1.292   0.821
  561SOL    HW1 2582   0.114   1.350   0.853
  561SOL    HW2 2583   0.073   1.233   0.747
  562SOL     OW 2584   4.921   0.695   5.984
  562SOL    HW1 2585   5.006   0.745   5.969
  562SOL    HW2 2586   4.920   0.613   5.926
  563SOL     OW 2587   2.142   0.653   3.739
  563SOL    HW1 2588   2.097   0.606   3.664
  563SOL    HW2 2589   2.214   0.713   3.703
  564SOL     OW 2590   1.677   1.911   6.787
  564SOL    HW1 2591   1.754   1.949   6.735
  564SOL    HW2 2592   1.629   1.985   6.834
  565SOL     OW 2593   3.737   2.932   5.277
  565SOL    HW1 2594   3.695   2.842   5.289
  565SOL    HW2 2595   3.673   3.003   5.307
  566SOL     OW 2596   6.473   5.294   3.904
  566SOL    HW1 2597   6.525   5.208   3.905
  566SOL    HW2 2598   6.389   5.282   3.958
  567SOL     OW 2599   3.138   3.267   1.768
  567SOL    HW1 2600   3.175   3.256   1.860
  567SOL    HW2 2601   3.039   3.249   1.770
  568SOL     OW 2602   4.848   1.444   7.002
  568SOL    HW1 2603   4.759   1.411   6.969
  568SOL    HW2 2604   4.921   1.389   6.961
  569SOL     OW 2605   1.471   2.468   6.727
  569SOL    HW1 2606   1.544   2.509   6.782
  569SOL    HW2 2607   1.389   2.457   6.783
  570SOL     OW 2608   3.065   6.366   6.845
  570SOL    HW1 2609   3.124   6.412   6.778
  570SOL    HW2 2610   3.090   6.396   6.937
  571SOL     OW 2611   3.055   0.451   2.199
  571SOL    HW1 2612   3.076   0.389   2.274
  571SOL    HW2 2613   2.978   0.415   2.146
  572SOL     OW 2614   2.977   5.122   5.739
  572SOL    HW1 2615   2.904   5.181   5.702
  572SOL    HW2 2616   2.951   5.090   5.830
  573SOL     OW 2617   5.389   2.055   5.795
  573SOL    HW1 2618   5.369   1.961   5.823
  573SOL    HW2 2619   5.488   2.069   5.795
  574SOL     OW 2620   3.126   2.177   3.942
  574SOL    HW1 2621   3.068   2.175   3.860
  574SOL    HW2 2622   3.220   2.198   3.916
  575SOL     OW 2623   5.337   3.719   1.087
  575SOL    HW1 2624   5.376   3.627   1.084
  575SOL    HW2 2625   5.239   3.714   1.102
  576SOL     OW 2626   1.071   2.168   2.972
  576SOL    HW1 2627   1.127   2.143   2.893
  576SOL    HW2 2628   1.085   2.264   2.993
  577SOL     OW 2629   1.305   1.453   2.424
  577SOL    HW1 2630   1.234   1.386   2.440
  577SOL    HW2 2631   1.271   1.544   2.447
  578SOL     OW 2632   6.543   5.326   3.336
  578SOL    HW1 2633   6.565   5.253   3.400
  578SOL    HW2 2634   6.545   5.415   3.383
  579SOL     OW 2635   1.555   2.798   2.144
  579SOL    HW1 2636   1.593   2.709   2.116
  579SOL    HW2 2637   1.629   2.863   2.158
  580SOL     OW 2638   6.731   5.251   6.914
  580SOL    HW1 2639   6.684   5.182   6.859
  580SOL    HW2 2640   6.808   5.208   6.962
  581SOL     OW 2641   3.002   3.446   2.417
  581SOL    HW1 2642   2.980   3.452   2.320
  581SOL    HW2 2643   2.941   3.507   2.468
  582SOL     OW 2644   4.813   6.960   1.739
  582SOL    HW1 2645   4.756   6.925   1.813
  582SOL    HW2 2646   4.798   6.905   1.657
  583SOL     OW 2647   3.018   5.322   5.481
  583SOL    HW1 2648   2.987   5.326   5.576
  583SOL    HW2 2649   3.037   5.414   5.448
  584SOL     OW 2650   2.726   3.810   6.158
  584SOL    HW1 2651   2.706   3.903   6.189
  584SOL    HW2 2652   2.818   3.807   6.118
  585SOL     OW 2653   5.451   2.996   6.130
  585SOL    HW1 2654   5.357   2.984   6.162
  585SOL    HW2 2655   5.458   3.080   6.077
  586SOL     OW 2656   3.708   2.129   6.122
  586SOL    HW1 2657   3.655   2.158   6.042
  586SOL    HW2 2658   3.791   2.184   6.129
  587SOL     OW 2659   3.605   1.087   5.589
  587SOL    HW1 2660   3.532   1.068   5.655
  587SOL    HW2 2661   3.606   1.184   5.567
  588SOL     OW 2662   2.301   4.805   1.282
  588SOL    HW1 2663   2.220   4.790   1.338
  588SOL    HW2 2664   2.304   4.738   1.208
  589SOL     OW 2665   2.990   5.320   1.462
  589SOL    HW1 2666   3.043   5.268   1.529
  589SOL    HW2 2667   2.898   5.335   1.497
  590SOL     OW 2668   4.864   3.429   2.814
  590SOL    HW1 2669   4.865   3.380   2.901
  590SOL    HW2 2670   4.865   3.364   2.739
  591SOL     OW 2671   3.626   5.698   3.954
  591SOL    HW1 2672   3.549   5.636   3.971
  591SOL    HW2 2673   3.712   5.647   3.963
  592SOL     OW 2674   3.470   0.535   1.578
  592SOL    HW1 2675   3.548   0.478   1.603
  592SOL    HW2 2676   3.500   0.608   1.517
  593SOL     OW 2677   4.410   2.489   3.136
  593SOL    HW1 2678   4.372   2.417   3.078
  593SOL    HW2 2679   4.454   2.559   3.079
  594SOL     OW 2680   5.431   2.401   6.873
  594SOL    HW1 2681   5.525   2.371   6.858
  594SOL    HW2 2682   5.409   2.394   6.971
  595SOL     OW 2683   5.526   6.687   3.901
  595SOL    HW1 2684   5.567   6.775   3.927
  595SOL    HW2 2685   5.476   6.698   3.815
  596SOL     OW 2686   1.955   4.288   3.123
  596SOL    HW1 2687   1.962   4.242   3.035
  596SOL    HW2 2688   1.916   4.379   3.110
  597SOL     OW 2689   3.883   6.840   6.633
  597SOL    HW1 2690   3.956   6.901   6.664
  597SOL    HW2 2691   3.870   6.766   6.699
  598SOL     OW 2692   3.053   4.083   5.868
  598SOL    HW1 2693   3.009   3.994   5.853
  598SOL    HW2 2694   3.152   4.070   5.874
  599SOL     OW 2695   2.008   6.624   2.604
  599SOL    HW1 2696   2.020   6.659   2.696
  599SOL    HW2 2697   2.073   6.669   2.542
  600SOL     OW 2698   1.055   1.101   0.548
  600SOL    HW1 2699   1.099   1.142   0.467
  600SOL    HW2 2700   0.957   1.117   0.544
  601SOL     OW 2701   3.144   6.584   4.043
  601SOL    HW1 2702   3.158   6.659   3.978
  601SOL    HW2 2703   3.193   6.604   4.128
  602SOL     OW 2704   2.105   2.773   6.132
  602SOL    HW1 2705   2.178   2.730   6.187
  602SOL    HW2 2706   2.099   2.870   6.155
  603SOL     OW 2707   3.469   1.516   3.657
  603SOL    HW1 2708   3.516   1.428   3.662
  603SOL    HW2 2709   3.437   1.543   3.748
  604SOL     OW 2710   0.490   3.426   1.621
  604SOL    HW1 2711   0.538   3.428   1.708
  604SOL    HW2 2712   0.546   3.378   1.553
  605SOL     OW 2713   6.910   6.383   2.427
  605SOL    HW1 2714   6.822   6.427   2.446
  605SOL    HW2 2715   6.895   6.287   2.405
  606SOL     OW 2716   4.940   0.617   6.588
  606SOL    HW1 2717   4.851   0.639   6.548
  606SOL    HW2 2718   4.986   0.549   6.530
  607SOL     OW 2719   5.708   0.658   5.539
  607SOL    HW1 2720   5.631   0.644   5.600
  607SOL    HW2 2721   5.784   0.699   5.590
  608SOL     OW 2722   3.366   6.324   6.435
  608SOL    HW1 2723   3.329   6.319   6.342
  608SOL    HW2 2724   3.420   6.242   6.453
  609SOL     OW 2725   4.059   3.311   3.461
  609SOL    HW1 2726   4.035   3.219   3.429
  609SOL    HW2 2727   4.042   3.318   3.559
  610SOL     OW 2728   4.982   3.262   2.040
  610SOL    HW1 2729   4.910   3.284   1.974
  610SOL    HW2 2730   4.983   3.163   2.056
  611SOL     OW 2731   3.342   0.205   0.158
  611SOL    HW1 2732   3.427   0.254   0.174
  611SOL    HW2 2733   3.266   0.270   0.153
  612SOL     OW 2734   3.411   6.507   6.028
  612SOL    HW1 2735   3.419   6.418   6.072
  612SOL    HW2 2736   3.403   6.578   6.098
  613SOL     OW 2737   4.061   6.762   5.648
  613SOL    HW1 2738   4.038   6.734   5.741
  613SOL    HW2 2739   3.982   6.806   5.606
  614SOL     OW 2740   4.529   4.500   1.377
  614SOL    HW1 2741   4.492   4.569   1.439
  614SOL    HW2 2742   4.488   4.411   1.399
  615SOL     OW 2743   0.555   2.305   1.404
  615SOL    HW1 2744   0.497   2.229   1.432
  615SOL    HW2 2745   0.634   2.311   1.465
  616SOL     OW 2746   0.362   2.174   3.869
  616SOL    HW1 2747   0.383   2.243   3.940
  616SOL    HW2 2748   0.406   2.088   3.893
  617SOL     OW 2749   6.411   3.169   6.248
  617SOL    HW1 2750   6.481   3.123   6.302
  617SOL    HW2 2751   6.376   3.248   6.299
  618SOL     OW 2752   6.343   2.719   6.611
  618SOL    HW1 2753   6.399   2.729   6.529
  618SOL    HW2 2754   6.252   2.756   6.594
  619SOL     OW 2755   4.805   0.343   6.987
  619SOL    HW1 2756   4.896   0.375   6.960
  619SOL    HW2 2757   4.758   0.413   0.017
  620SOL     OW 2758   5.015   2.316   2.082
  620SOL    HW1 2759   5.052   2.408   2.099
  620SOL    HW2 2760   4.915   2.322   2.072
  621SOL     OW 2761   2.177   6.670   5.388
  621SOL    HW1 2762   2.146   6.637   5.477
  621SOL    HW2 2763   2.101   6.713   5.340
  622SOL     OW 2764   0.726   1.307   4.426
  622SOL    HW1 2765   0.761   1.392   4.386
  622SOL    HW2 2766   0.799   1.261   4.477
  623SOL     OW 2767   1.733   6.181   5.811
  623SOL    HW1 2768   1.797   6.105   5.823
  623SOL    HW2 2769   1.769   6.245   5.744
  624SOL     OW 2770   0.354   1.815   1.225
  624SOL    HW1 2771   0.448   1.839   1.248
  624SOL    HW2 2772   0.323   1.870   1.148
  625SOL     OW 2773   1.934   2.061   1.474
  625SOL    HW1 2774   1.931   1.977   1.528
  625SOL    HW2 2775   2.029   2.091   1.464
  626SOL     OW 2776   1.116   5.977   3.120
  626SOL    HW1 2777   1.152   6.043   3.187
  626SOL    HW2 2778   1.188   5.912   3.095
  627SOL     OW 2779   6.893   6.218   0.758
  627SOL    HW1 2780   6.838   6.195   0.838
  627SOL    HW2 2781   6.873   6.312   0.730
  628SOL     OW 2782   5.759   5.691   5.776
  628SOL    HW1 2783   5.737   5.788   5.776
  628SOL    HW2 2784   5.725   5.649   5.691
  629SOL     OW 2785   0.706   0.655   6.554
  629SOL    HW1 2786   0.715   0.668   6.652
  629SOL    HW2 2787   0.730   0.739   6.507
  630SOL     OW 2788   0.407   1.564   0.643
  630SOL    HW1 2789   0.483   1.607   0.595
  630SOL    HW2 2790   0.326   1.621   0.637
  631SOL     OW 2791   3.643   1.361   5.545
  631SOL    HW1 2792   3.682   1.452   5.527
  631SOL    HW2 2793   3.585   1.366   5.626
  632SOL     OW 2794   4.170   1.799   1.361
  632SOL    HW1 2795   4.238   1.787   1.289
  632SOL    HW2 2796   4.084   1.756   1.334
  633SOL     OW 2797   2.991   3.915   6.456
  633SOL    HW1 2798   2.981   4.010   6.488
  633SOL    HW2 2799   3.039   3.862   6.526
  634SOL     OW 2800   3.974   3.882   2.918
  634SOL    HW1 2801   3.942   3.875   2.823
  634SOL    HW2 2802   4.024   3.800   2.942
  635SOL     OW 2803   4.628   5.873   0.850
  635SOL    HW1 2804   4.724   5.902   0.849
  635SOL    HW2 2805   4.579   5.921   0.778
  636SOL     OW 2806   3.634   6.841   0.124
  636SOL    HW1 2807   3.622   6.921   0.183
  636SOL    HW2 2808   3.729   6.837   0.092
  637SOL     OW 2809   0.102   3.062   3.302
  637SOL    HW1 2810   0.111   3.143   3.360
  637SOL    HW2 2811   0.022   3.010   3.330
  638SOL     OW 2812   5.778   3.255   3.204
  638SOL    HW1 2813   5.850   3.205   3.154
  638SOL    HW2 2814   5.690   3.212   3.188
  639SOL     OW 2815   4.868   3.752   2.722
  639SOL    HW1 2816   4.810   3.680   2.761
  639SOL    HW2 2817   4.938   3.711   2.665
  640SOL     OW 2818   0.431   5.172   3.856
  640SOL    HW1 2819   0.409   5.081   3.892
  640SOL    HW2 2820   0.483   5.163   3.771
  641SOL     OW 2821   0.716   4.629   5.400
  641SOL    HW1 2822   0.702   4.717   5.445
  641SOL    HW2 2823   0.783   4.575   5.452
  642SOL     OW 2824   0.040   3.549   4.340
  642SOL    HW1 2825   0.091   3.583   4.420
  642SOL    HW2 2826   0.068   3.599   4.259
  643SOL     OW 2827   6.432   0.163   6.261
  643SOL    HW1 2828   6.335   0.145   6.274
  643SOL    HW2 2829   6.447   0.207   6.173
  644SOL     OW 2830   1.440   6.811   4.011
  644SOL    HW1 2831   1.464   6.715   3.995
  644SOL    HW2 2832   1.489   6.869   3.946
  645SOL     OW 2833   4.089   0.316   5.007
  645SOL    HW1 2834   4.134   0.323   4.918
  645SOL    HW2 2835   4.051   0.405   5.032
  646SOL     OW 2836   3.140   0.543   4.252
  646SOL    HW1 2837   3.223   0.489   4.267
  646SOL    HW2 2838   3.161   0.640   4.260
  647SOL     OW 2839   4.919   2.003   4.901
  647SOL    HW1 2840   4.864   2.079   4.936
  647SOL    HW2 2841   4.879   1.971   4.815
  648SOL     OW 2842   0.396   3.938   3.883
  648SOL    HW1 2843   0.373   3.890   3.968
  648SOL    HW2 2844   0.474   3.998   3.899
  649SOL     OW 2845   1.914   3.936   1.162
  649SOL    HW1 2846   1.964   3.901   1.241
  649SOL    HW2 2847   1.856   4.013   1.189
  650SOL     OW 2848   5.792   4.631   0.738
  650SOL    HW1 2849   5.877   4.681   0.757
  650SOL    HW2 2850   5.806   4.572   0.659
  651SOL     OW 2851   1.499   6.492   6.468
  651SOL    HW1 2852   1.451   6.505   6.381
  651SOL    HW2 2853   1.433   6.476   6.541
  652SOL     OW 2854   5.222   0.115   4.052
  652SOL    HW1 2855   5.132   0.088   4.019
  652SOL    HW2 2856   5.227   0.215   4.056
  653SOL     OW 2857   1.440   5.691   0.048
  653SOL    HW1 2858   1.368   5.748   0.009
  653SOL    HW2 2859   1.527   5.712   0.002
  654SOL     OW 2860   0.818   6.048   0.344
  654SOL    HW1 2861   0.903   6.006   0.313
  654SOL    HW2 2862   0.809   6.037   0.443
  655SOL     OW 2863   0.010   5.899   1.002
  655SOL    HW1 2864   6.942   5.895   0.963
  655SOL    HW2 2865   0.044   5.806   1.016
  656SOL     OW 2866   2.313   5.840   0.904
  656SOL    HW1 2867   2.325   5.774   0.830
  656SOL    HW2 2868   2.402   5.867   0.939
  657SOL     OW 2869   2.601   3.601   1.241
  657SOL    HW1 2870   2.512   3.563   1.215
  657SOL    HW2 2871   2.590   3.660   1.321
  658SOL     OW 2872   1.331   3.524   6.770
  658SOL    HW1 2873   1.317   3.548   6.866
  658SOL    HW2 2874   1.244   3.499   6.728
  659SOL     OW 2875   1.888   6.363   5.078
  659SOL    HW1 2876   1.788   6.367   5.079
  659SOL    HW2 2877   1.921   6.319   5.161
  660SOL     OW 2878   6.191   3.961   2.627
  660SOL    HW1 2879   6.194   3.960   2.527
  660SOL    HW2 2880   6.284   3.966   2.663
  661SOL     OW 2881   4.867   3.885   3.491
  661SOL    HW1 2882   4.785   3.939   3.475
  661SOL    HW2 2883   4.853   3.826   3.570
  662SOL     OW 2884   4.146   0.162   5.234
  662SOL    HW1 2885   4.095   0.204   5.309
  662SOL    HW2 2886   4.140   0.220   5.153
  663SOL     OW 2887   1.272   3.631   0.021
  663SOL    HW1 2888   1.243   3.727   0.011
  663SOL    HW2 2889   1.345   3.626   0.089
  664SOL     OW 2890   0.483   5.327   6.711
  664SOL    HW1 2891   0.531   5.403   6.754
  664SOL    HW2 2892   0.451   5.354   6.621
  665SOL     OW 2893   4.567   5.008   0.743
  665SOL    HW1 2894   4.472   5.013   0.771
  665SOL    HW2 2895   4.597   5.098   0.711
  666SOL     OW 2896   4.903   1.836   2.756
  666SOL    HW1 2897   4.919   1.901   2.830
  666SOL    HW2 2898   4.963   1.858   2.679
  667SOL     OW 2899   6.311   4.205   3.243
  667SOL    HW1 2900   6.367   4.177   3.165
  667SOL    HW2 2901   6.238   4.267   3.212
  668SOL     OW 2902   5.358   6.225   6.790
  668SOL    HW1 2903   5.438   6.279   6.815
  668SOL    HW2 2904   5.281   6.286   6.773
  669SOL     OW 2905   3.821   5.983   3.672
  669SOL    HW1 2906   3.782   5.969   3.581
  669SOL    HW2 2907   3.916   6.014   3.663
  670SOL     OW 2908   2.988   3.351   1.317
  670SOL    HW1 2909   3.008   3.253   1.313
  670SOL    HW2 2910   3.038   3.398   1.244
  671SOL     OW 2911   2.625   5.826   6.878
  671SOL    HW1 2912   2.663   5.904   6.927
  671SOL    HW2 2913   2.696   5.782   6.823
  672SOL     OW 2914   0.769   4.796   2.082
  672SOL    HW1 2915   0.837   4.829   2.016
  672SOL    HW2 2916   0.687   4.853   2.077
  673SOL     OW 2917   6.518   0.678   1.548
  673SOL    HW1 2918   6.453   0.630   1.488
  673SOL    HW2 2919   6.474   0.699   1.635
  674SOL     OW 2920   0.308   3.612   4.900
  674SOL    HW1 2921   0.221   3.610   4.949
  674SOL    HW2 2922   0.340   3.519   4.884
  675SOL     OW 2923   0.333   0.903   5.034
  675SOL    HW1 2924   0.347   0.807   5.010
  675SOL    HW2 2925   0.372   0.961   4.963
  676SOL     OW 2926   4.063   5.764   2.965
  676SOL    HW1 2927   3.997   5.840   2.963
  676SOL    HW2 2928   4.115   5.763   2.880
  677SOL     OW 2929   5.984   1.451   6.716
  677SOL    HW1 2930   5.931   1.531   6.745
  677SOL    HW2 2931   6.078   1.479   6.696
  678SOL     OW 2932   0.950   1.563   4.798
  678SOL    HW1 2933   0.898   1.478   4.792
  678SOL    HW2 2934   0.905   1.626   4.861
  679SOL     OW 2935   4.917   1.739   4.187
  679SOL    HW1 2936   4.931   1.734   4.088
  679SOL    HW2 2937   5.003   1.760   4.233
  680SOL     OW 2938   5.457   5.019   6.392
  680SOL    HW1 2939   5.366   5.055   6.412
  680SOL    HW2 2940   5.476   5.027   6.294
  681SOL     OW 2941   5.667   6.421   1.443
  681SOL    HW1 2942   5.676   6.330   1.484
  681SOL    HW2 2943   5.758   6.455   1.417
  682SOL     OW 2944   1.855   6.616   0.453
  682SOL    HW1 2945   1.802   6.668   0.385
  682SOL    HW2 2946   1.930   6.569   0.408
  683SOL     OW 2947   3.658   2.538   6.668
  683SOL    HW1 2948   3.602   2.526   6.586
  683SOL    HW2 2949   3.690   2.448   6.699
  684SOL     OW 2950   6.252   0.761   6.814
  684SOL    HW1 2951   6.239   0.719   6.724
  684SOL    HW2 2952   6.182   0.831   6.829
  685SOL     OW 2953   4.376   0.998   4.171
  685SOL    HW1 2954   4.375   0.945   4.256
  685SOL    HW2 2955   4.448   1.067   4.176
  686SOL     OW 2956   6.039   2.982   3.478
  686SOL    HW1 2957   6.080   2.940   3.559
  686SOL    HW2 2958   5.949   2.941   3.461
  687SOL     OW 2959   0.368   3.288   4.983
  687SOL    HW1 2960   0.354   3.239   4.897
  687SOL    HW2 2961   0.455   3.338   4.979
  688SOL     OW 2962   1.552   2.598   6.509
  688SOL    HW1 2963   1.503   2.548   6.438
  688SOL    HW2 2964   1.533   2.558   6.598
  689SOL     OW 2965   7.002   4.533   6.286
  689SOL    HW1 2966   0.079   4.536   6.288
  689SOL    HW2 2967   6.966   4.568   6.373
  690SOL     OW 2968   0.752   3.829   3.812
  690SOL    HW1 2969   0.678   3.837   3.879
  690SOL    HW2 2970   0.790   3.919   3.792
  691SOL     OW 2971   2.539   0.227   6.516
  691SOL    HW1 2972   2.456   0.171   6.521
  691SOL    HW2 2973   2.517   0.315   6.475
  692SOL     OW 2974   3.691   6.361   3.327
  692SOL    HW1 2975   3.770   6.363   3.388
  692SOL    HW2 2976   3.652   6.269   3.326
  693SOL     OW 2977   6.270   0.714   3.335
  693SOL    HW1 2978   6.316   0.772   3.268
  693SOL    HW2 2979   6.223   0.772   3.403
  694SOL     OW 2980   3.532   6.380   2.709
  694SOL    HW1 2981   3.597   6.387   2.633
  694SOL    HW2 2982   3.549   6.455   2.774
  695SOL     OW 2983   4.448   5.213   5.438
  695SOL    HW1 2984   4.454   5.210   5.338
  695SOL    HW2 2985   4.383   5.144   5.469
  696SOL     OW 2986   3.009   5.289   2.426
  696SOL    HW1 2987   2.973   5.339   2.505
  696SOL    HW2 2988   2.975   5.331   2.342
  697SOL     OW 2989   2.194   3.130   4.482
  697SOL    HW1 2990   2.202   3.163   4.576
  697SOL    HW2 2991   2.170   3.206   4.422
  698SOL     OW 2992   5.667   0.248   6.930
  698SOL    HW1 2993   5.706   0.234   6.839
  698SOL    HW2 2994   5.665   0.161   6.979
  699SOL     OW 2995   1.235   4.319   6.744
  699SOL    HW1 2996   1.149   4.343   6.790
  699SOL    HW2 2997   1.228   4.342   6.647
  700SOL     OW 2998   2.664   1.588   3.688
  700SOL    HW1 2999   2.731   1.661   3.702
  700SOL    HW2 3000   2.711   1.504   3.660
  701SOL     OW 3001   5.736   3.599   5.366
  701SOL    HW1 3002   5.737   3.499   5.355
  701SOL    HW2 3003   5.714   3.642   5.278
  702SOL     OW 3004   6.826   6.490   6.237
  702SOL    HW1 3005   6.840   6.565   6.172
  702SOL    HW2 3006   6.744   6.508   6.291
  703SOL     OW 3007   3.670   3.840   6.244
  703SOL    HW1 3008   3.740   3.776   6.213
  703SOL    HW2 3009   3.613   3.796   6.314
  704SOL     OW 3010   1.583   1.322   6.156
  704SOL    HW1 3011   1.634   1.402   6.188
  704SOL    HW2 3012   1.510   1.352   6.093
  705SOL     OW 3013   6.195   6.806   3.350
  705SOL    HW1 3014   6.205   6.860   3.434
  705SOL    HW2 3015   6.264   6.734   3.349
  706SOL     OW 3016   4.211   2.246   4.116
  706SOL    HW1 3017   4.248   2.339   4.122
  706SOL    HW2 3018   4.204   2.207   4.208
  707SOL     OW 3019   4.626   6.685   2.374
  707SOL    HW1 3020   4.598   6.760   2.434
  707SOL    HW2 3021   4.678   6.721   2.297
  708SOL     OW 3022   4.082   0.876   1.220
  708SOL    HW1 3023   4.174   0.915   1.219
  708SOL    HW2 3024   4.086   0.781   1.249
  709SOL     OW 3025   0.942   5.300   0.605
  709SOL    HW1 3026   1.036   5.276   0.630
  709SOL    HW2 3027   0.934   5.399   0.594
  710SOL     OW 3028   3.877   2.978   2.683
  710SOL    HW1 3029   3.968   2.996   2.646
  710SOL    HW2 3030   3.813   2.960   2.609
  711SOL     OW 3031   0.157   2.414   6.002
  711SOL    HW1 3032   0.108   2.431   6.088
  711SOL    HW2 3033   0.137   2.322   5.969
  712SOL     OW 3034   3.474   3.814   1.300
  712SOL    HW1 3035   3.552   3.752   1.302
  712SOL    HW2 3036   3.502   3.905   1.331
  713SOL     OW 3037   3.512   2.503   6.455
  713SOL    HW1 3038   3.477   2.580   6.401
  713SOL    HW2 3039   3.563   2.441   6.395
  714SOL     OW 3040   6.405   4.566   3.968
  714SOL    HW1 3041   6.314   4.561   3.928
  714SOL    HW2 3042   6.437   4.473   3.989
  715SOL     OW 3043   5.903   5.981   0.077
  715SOL    HW1 3044   5.907   6.056   0.143
  715SOL    HW2 3045   5.928   5.895   0.122
  716SOL     OW 3046   1.309   0.209   0.686
  716SOL    HW1 3047   1.383   0.247   0.743
  716SOL    HW2 3048   1.282   0.276   0.618
  717SOL     OW 3049   5.830   4.471   6.248
  717SOL    HW1 3050   5.814   4.493   6.344
  717SOL    HW2 3051   5.783   4.385   6.225
  718SOL     OW 3052   4.695   2.356   6.223
  718SOL    HW1 3053   4.676   2.269   6.179
  718SOL    HW2 3054   4.685   2.346   6.322
  719SOL     OW 3055   6.839   1.874   1.450
  719SOL    HW1 3056   6.863   1.970   1.463
  719SOL    HW2 3057   6.748   1.868   1.410
  720SOL     OW 3058   3.802   0.519   6.444
  720SOL    HW1 3059   3.713   0.542   6.404
  720SOL    HW2 3060   3.803   0.423   6.472
  721SOL     OW 3061   2.172   0.753   4.318
  721SOL    HW1 3062   2.122   0.713   4.241
  721SOL    HW2 3063   2.267   0.770   4.290
  722SOL     OW 3064   2.885   0.105   4.304
  722SOL    HW1 3065   2.921   0.014   4.283
  722SOL    HW2 3066   2.820   0.133   4.233
  723SOL     OW 3067   2.100   3.583   3.014
  723SOL    HW1 3068   2.108   3.647   2.937
  723SOL    HW2 3069   2.106   3.634   3.100
  724SOL     OW 3070   1.412   2.750   4.684
  724SOL    HW1 3071   1.455   2.672   4.638
  724SOL    HW2 3072   1.319   2.761   4.650
  725SOL     OW 3073   4.015   6.006   0.826
  725SOL    HW1 3074   4.076   6.024   0.904
  725SOL    HW2 3075   4.062   6.031   0.741
  726SOL     OW 3076   4.313   4.846   0.569
  726SOL    HW1 3077   4.359   4.758   0.569
  726SOL    HW2 3078   4.353   4.905   0.499
  727SOL     OW 3079   5.552   5.727   6.160
  727SOL    HW1 3080   5.469   5.702   6.210
  727SOL    HW2 3081   5.632   5.710   6.218
  728SOL     OW 3082   6.675   3.576   5.039
  728SOL    HW1 3083   6.608   3.521   5.090
  728SOL    HW2 3084   6.628   3.650   4.992
  729SOL     OW 3085   0.916   1.948   0.358
  729SOL    HW1 3086   0.824   1.917   0.330
  729SOL    HW2 3087   0.937   1.911   0.449
  730SOL     OW 3088   5.560   1.806   3.006
  730SOL    HW1 3089   5.532   1.859   2.926
  730SOL    HW2 3090   5.660   1.797   3.007
  731SOL     OW 3091   5.534   3.851   5.557
  731SOL    HW1 3092   5.525   3.942   5.599
  731SOL    HW2 3093   5.628   3.838   5.525
  732SOL     OW 3094   0.622   2.789   0.803
  732SOL    HW1 3095   0.699   2.728   0.789
  732SOL    HW2 3096   0.601   2.795   0.901
  733SOL     OW 3097   6.091   5.913   5.670
  733SOL    HW1 3098   6.024   5.977   5.707
  733SOL    HW2 3099   6.118   5.942   5.578
  734SOL     OW 3100   6.637   4.510   2.466
  734SOL    HW1 3101   6.707   4.475   2.529
  734SOL    HW2 3102   6.568   4.561   2.518
  735SOL     OW 3103   3.640   2.740   0.512
  735SOL    HW1 3104   3.573   2.768   0.444
  735SOL    HW2 3105   3.662   2.644   0.500
  736SOL     OW 3106   0.199   0.276   2.879
  736SOL    HW1 3107   0.237   0.223   2.955
  736SOL    HW2 3108   0.239   0.368   2.880
  737SOL     OW 3109   5.120   2.374   5.939
  737SOL    HW1 3110   5.051   2.390   6.010
  737SOL    HW2 3111   5.074   2.350   5.854
  738SOL     OW 3112   1.952   4.034   2.341
  738SOL    HW1 3113   1.913   3.978   2.268
  738SOL    HW2 3114   1.950   4.130   2.314
  739SOL     OW 3115   4.058   0.336   3.955
  739SOL    HW1 3116   4.008   0.415   3.992
  739SOL    HW2 3117   4.045   0.257   4.015
  740SOL     OW 3118   5.034   0.618   1.006
  740SOL    HW1 3119   4.944   0.654   1.029
  740SOL    HW2 3120   5.042   0.608   0.907
  741SOL     OW 3121   2.117   6.646   3.526
  741SOL    HW1 3122   2.158   6.728   3.565
  741SOL    HW2 3123   2.152   6.633   3.433
  742SOL     OW 3124   1.992   6.268   1.806
  742SOL    HW1 3125   1.893   6.260   1.819
  742SOL    HW2 3126   2.017   6.365   1.798
  743SOL     OW 3127   0.353   4.125   4.551
  743SOL    HW1 3128   0.256   4.144   4.566
  743SOL    HW2 3129   0.397   4.100   4.638
  744SOL     OW 3130   5.396   0.277   6.570
  744SOL    HW1 3131   5.305   0.304   6.539
  744SOL    HW2 3132   5.431   0.344   6.635
  745SOL     OW 3133   1.034   5.277   4.742
  745SOL    HW1 3134   0.977   5.348   4.701
  745SOL    HW2 3135   1.112   5.319   4.788
  746SOL     OW 3136   0.225   5.340   6.252
  746SOL    HW1 3137   0.155   5.272   6.275
  746SOL    HW2 3138   0.222   5.359   6.154
  747SOL     OW 3139   4.133   6.651   4.752
  747SOL    HW1 3140   4.099   6.579   4.811
  747SOL    HW2 3141   4.151   6.733   4.805
  748SOL     OW 3142   3.531   5.257   2.328
  748SOL    HW1 3143   3.503   5.321   2.257
  748SOL    HW2 3144   3.567   5.174   2.285
  749SOL     OW 3145   6.274   4.645   5.087
  749SOL    HW1 3146   6.318   4.665   5.175
  749SOL    HW2 3147   6.185   4.690   5.084
  750SOL     OW 3148   2.315   2.138   0.968
  750SOL    HW1 3149   2.335   2.132   0.870
  750SOL    HW2 3150   2.389   2.094   1.019
  751SOL     OW 3151   3.905   2.448   6.317
  751SOL    HW1 3152   3.942   2.505   6.244
  751SOL    HW2 3153   3.911   2.498   6.404
  752SOL     OW 3154   3.387   1.262   2.465
  752SOL    HW1 3155   3.419   1.237   2.373
  752SOL    HW2 3156   3.466   1.269   2.526
  753SOL     OW 3157   1.788   3.343   4.684
  753SOL    HW1 3158   1.688   3.346   4.694
  753SOL    HW2 3159   1.820   3.250   4.700
  754SOL     OW 3160   5.477   3.008   5.627
  754SOL    HW1 3161   5.479   3.106   5.647
  754SOL    HW2 3162   5.461   2.995   5.529
  755SOL     OW 3163   1.553   4.439   5.827
  755SOL    HW1 3164   1.580   4.490   5.746
  755SOL    HW2 3165   1.613   4.359   5.837
  756SOL     OW 3166   3.539   0.375   0.935
  756SOL    HW1 3167   3.592   0.416   0.861
  756SOL    HW2 3168   3.530   0.441   1.010
  757SOL     OW 3169   0.975   6.917   4.085
  757SOL    HW1 3170   1.068   6.945   4.062
  757SOL    HW2 3171   0.967   6.818   4.078
  758SOL     OW 3172   3.805   6.795   1.885
  758SOL    HW1 3173   3.790   6.851   1.804
  758SOL    HW2 3174   3.793   6.850   1.967
  759SOL     OW 3175   1.117   1.055   1.183
  759SOL    HW1 3176   1.037   1.043   1.243
  759SOL    HW2 3177   1.160   1.143   1.202
  760SOL     OW 3178   5.180   0.287   5.591
  760SOL    HW1 3179   5.252   0.252   5.531
  760SOL    HW2 3180   5.127   0.357   5.542
  761SOL     OW 3181   5.739   3.195   5.802
  761SOL    HW1 3182   5.773   3.139   5.727
  761SOL    HW2 3183   5.640   3.203   5.796
  762SOL     OW 3184   2.835   0.460   4.977
  762SOL    HW1 3185   2.918   0.419   4.939
  762SOL    HW2 3186   2.804   0.533   4.916
  763SOL     OW 3187   4.180   4.775   6.547
  763SOL    HW1 3188   4.202   4.863   6.503
  763SOL    HW2 3189   4.215   4.701   6.490
  764SOL     OW 3190   5.199   1.215   4.945
  764SOL    HW1 3191   5.147   1.130   4.944
  764SOL    HW2 3192   5.181   1.266   4.862
  765SOL     OW 3193   1.023   6.240   1.225
  765SOL    HW1 3194   0.969   6.170   1.271
  765SOL    HW2 3195   1.012   6.327   1.274
  766SOL     OW 3196   2.380   3.787   6.801
  766SOL    HW1 3197   2.293   3.792   6.752
  766SOL    HW2 3198   2.447   3.737   6.746
  767SOL     OW 3199   6.153   5.933   1.970
  767SOL    HW1 3200   6.132   5.950   1.874
  767SOL    HW2 3201   6.223   5.863   1.978
  768SOL     OW 3202   1.940   6.450   1.510
  768SOL    HW1 3203   1.980   6.449   1.418
  768SOL    HW2 3204   1.905   6.542   1.529
  769SOL     OW 3205   3.155   0.775   4.523
  769SOL    HW1 3206   3.116   0.755   4.612
  769SOL    HW2 3207   3.196   0.866   4.524
  770SOL     OW 3208   2.203   4.010   3.101
  770SOL    HW1 3209   2.229   4.053   3.188
  770SOL    HW2 3210   2.238   4.064   3.025
  771SOL     OW 3211   2.586   5.310   2.742
  771SOL    HW1 3212   2.622   5.283   2.832
  771SOL    HW2 3213   2.549   5.230   2.695
  772SOL     OW 3214   5.229   5.138   0.667
  772SOL    HW1 3215   5.164   5.063   0.658
  772SOL    HW2 3216   5.249   5.153   0.764
  773SOL     OW 3217   0.446   3.797   4.773
  773SOL    HW1 3218   0.501   3.763   4.698
  773SOL    HW2 3219   0.402   3.720   4.820
  774SOL     OW 3220   1.717   1.610   1.365
  774SOL    HW1 3221   1.784   1.618   1.291
  774SOL    HW2 3222   1.634   1.660   1.339
  775SOL     OW 3223   0.655   2.387   2.660
  775SOL    HW1 3224   0.556   2.388   2.655
  775SOL    HW2 3225   0.686   2.445   2.735
  776SOL     OW 3226   0.698   6.588   5.932
  776SOL    HW1 3227   0.643   6.581   5.849
  776SOL    HW2 3228   0.689   6.680   5.970
  777SOL     OW 3229   2.561   4.933   1.257
  777SOL    HW1 3230   2.461   4.931   1.270
  777SOL    HW2 3231   2.603   4.987   1.330
  778SOL     OW 3232   3.188   1.438   2.781
  778SOL    HW1 3233   3.220   1.510   2.843
  778SOL    HW2 3234   3.092   1.453   2.758
  779SOL     OW 3235   0.501   3.045   2.411
  779SOL    HW1 3236   0.514   3.024   2.508
  779SOL    HW2 3237   0.409   3.020   2.383
  780SOL     OW 3238   6.304   3.957   3.434
  780SOL    HW1 3239   6.283   4.030   3.368
  780SOL    HW2 3240   6.236   3.885   3.427
  781SOL     OW 3241   5.749   0.892   0.268
  781SOL    HW1 3242   5.664   0.927   0.307
  781SOL    HW2 3243   5.757   0.794   0.287
  782SOL     OW 3244   1.525   4.182   6.950
  782SOL    HW1 3245   1.490   4.260   6.898
  782SOL    HW2 3246   1.451   4.141   7.003
  783SOL     OW 3247   3.775   5.246   1.129
  783SOL    HW1 3248   3.683   5.215   1.103
  783SOL    HW2 3249   3.768   5.332   1.180
  784SOL     OW 3250   5.276   6.631   0.296
  784SOL    HW1 3251   5.249   6.573   0.371
  784SOL    HW2 3252   5.220   6.714   0.296
  785SOL     OW 3253   0.681   2.556   2.861
  785SOL    HW1 3254   0.636   2.644   2.846
  785SOL    HW2 3255   0.721   2.554   2.952
  786SOL     OW 3256   1.260   0.860   1.284
  786SOL    HW1 3257   1.207   0.788   1.328
  786SOL    HW2 3258   1.199   0.919   1.231
  787SOL     OW 3259   3.489   6.999   6.760
  787SOL    HW1 3260   3.586   7.015   6.779
  787SOL    HW2 3261   3.436   0.058   6.784
  788SOL     OW 3262   3.988   2.957   5.375
  788SOL    HW1 3263   3.981   3.039   5.432
  788SOL    HW2 3264   3.897   2.928   5.346
  789SOL     OW 3265   5.543   3.959   0.632
  789SOL    HW1 3266   5.511   3.970   0.538
  789SOL    HW2 3267   5.486   3.892   0.679
  790SOL     OW 3268   1.532   1.229   4.216
  790SOL    HW1 3269   1.602   1.283   4.263
  790SOL    HW2 3270   1.449   1.284   4.206
  791SOL     OW 3271   3.532   5.148   4.136
  791SOL    HW1 3272   3.577   5.151   4.225
  791SOL    HW2 3273   3.452   5.089   4.141
  792SOL     OW 3274   0.708   0.306   1.639
  792SOL    HW1 3275   0.684   0.209   1.638
  792SOL    HW2 3276   0.785   0.321   1.577
  793SOL     OW 3277   4.704   5.119   3.728
  793SOL    HW1 3278   4.784   5.096   3.674
  793SOL    HW2 3279   4.723   5.104   3.825
  794SOL     OW 3280   3.202   3.573   5.420
  794SOL    HW1 3281   3.137   3.520   5.474
  794SOL    HW2 3282   3.270   3.512   5.381
  795SOL     OW 3283   3.789   6.511   4.493
  795SOL    HW1 3284   3.839   6.545   4.414
  795SOL    HW2 3285   3.691   6.508   4.472
  796SOL     OW 3286   0.929   1.721   6.487
  796SOL    HW1 3287   1.026   1.709   6.509
  796SOL    HW2 3288   0.886   1.631   6.477
  797SOL     OW 3289   5.207   2.739   1.538
  797SOL    HW1 3290   5.140   2.695   1.478
  797SOL    HW2 3291   5.279   2.781   1.483
  798SOL     OW 3292   4.402   0.308   1.953
  798SOL    HW1 3293   4.337   0.293   2.027
  798SOL    HW2 3294   4.483   0.355   1.988
  799SOL     OW 3295   6.141   0.632   5.643
  799SOL    HW1 3296   6.220   0.692   5.660
  799SOL    HW2 3297   6.135   0.564   5.717
  800SOL     OW 3298   5.266   1.986   2.696
  800SOL    HW1 3299   5.354   2.008   2.738
  800SOL    HW2 3300   5.192   2.024   2.751
  801SOL     OW 3301   1.429   3.278   4.289
  801SOL    HW1 3302   1.333   3.298   4.271
  801SOL    HW2 3303   1.486   3.326   4.223
  802SOL     OW 3304   4.316   1.153   0.421
  802SOL    HW1 3305   4.265   1.222   0.472
  802SOL    HW2 3306   4.327   1.071   0.477
  803SOL     OW 3307   0.187   6.936   5.314
  803SOL    HW1 3308   0.114   6.872   5.291
  803SOL    HW2 3309   0.150   7.009   5.372
  804SOL     OW 3310   5.332   5.376   6.615
  804SOL    HW1 3311   5.422   5.419   6.608
  804SOL    HW2 3312   5.299   5.354   6.523
  805SOL     OW 3313   3.019   1.235   5.375
  805SOL    HW1 3314   2.989   1.316   5.426
  805SOL    HW2 3315   3.002   1.153   5.429
  806SOL     OW 3316   5.336   1.352   4.218
  806SOL    HW1 3317   5.399   1.410   4.268
  806SOL    HW2 3318   5.343   1.372   4.120
  807SOL     OW 3319   1.091   2.069   4.541
  807SOL    HW1 3320   1.037   2.050   4.460
  807SOL    HW2 3321   1.039   2.042   4.623
  808SOL     OW 3322   4.310   3.241   6.456
  808SOL    HW1 3323   4.256   3.321   6.433
  808SOL    HW2 3324   4.408   3.263   6.451
  809SOL     OW 3325   0.143   5.271   2.181
  809SOL    HW1 3326   0.118   5.271   2.084
  809SOL    HW2 3327   0.120   5.360   2.221
  810SOL     OW 3328   3.559   3.093   1.318
  810SOL    HW1 3329   3.559   3.022   1.248
  810SOL    HW2 3330   3.609   3.060   1.398
  811SOL     OW 3331   3.599   5.887   5.261
  811SOL    HW1 3332   3.606   5.790   5.239
  811SOL    HW2 3333   3.688   5.930   5.247
  812SOL     OW 3334   0.228   1.349   1.825
  812SOL    HW1 3335   0.166   1.381   1.753
  812SOL    HW2 3336   0.310   1.407   1.827
  813SOL     OW 3337   3.492   6.368   5.702
  813SOL    HW1 3338   3.431   6.343   5.627
  813SOL    HW2 3339   3.438   6.398   5.781
  814SOL     OW 3340   6.141   6.586   2.727
  814SOL    HW1 3341   6.135   6.498   2.773
  814SOL    HW2 3342   6.206   6.645   2.776
  815SOL     OW 3343   0.241   4.027   2.832
  815SOL    HW1 3344   0.239   4.039   2.732
  815SOL    HW2 3345   0.318   3.969   2.857
  816SOL     OW 3346   6.149   6.410   0.224
  816SOL    HW1 3347   6.077   6.476   0.200
  816SOL    HW2 3348   6.206   6.448   0.296
  817SOL     OW 3349   1.985   3.451   1.349
  817SOL    HW1 3350   1.919   3.389   1.308
  817SOL    HW2 3351   2.059   3.398   1.390
  818SOL     OW 3352   6.257   2.822   1.800
  818SOL    HW1 3353   6.160   2.829   1.827
  818SOL    HW2 3354   6.288   2.728   1.811
  819SOL     OW 3355   5.795   2.952   2.979
  819SOL    HW1 3356   5.781   2.910   2.890
  819SOL    HW2 3357   5.877   3.010   2.976
  820SOL     OW 3358   2.929   2.759   5.852
  820SOL    HW1 3359   2.845   2.758   5.906
  820SOL    HW2 3360   2.924   2.689   5.781
  821SOL     OW 3361   1.181   3.902   0.911
  821SOL    HW1 3362   1.278   3.895   0.932
  821SOL    HW2 3363   1.168   3.907   0.812
  822SOL     OW 3364   1.845   4.394   5.187
  822SOL    HW1 3365   1.893   4.311   5.217
  822SOL    HW2 3366   1.908   4.472   5.190
  823SOL     OW 3367   5.302   4.033   6.434
  823SOL    HW1 3368   5.282   4.126   6.404
  823SOL    HW2 3369   5.318   4.033   6.533
  824SOL     OW 3370   5.293   1.370   5.379
  824SOL    HW1 3371   5.345   1.303   5.326
  824SOL    HW2 3372   5.355   1.437   5.419
  825SOL     OW 3373   1.101   4.322   1.309
  825SOL    HW1 3374   1.133   4.231   1.333
  825SOL    HW2 3375   1.179   4.380   1.283
  826SOL     OW 3376   5.338   2.996   5.377
  826SOL    HW1 3377   5.432   2.993   5.342
  826SOL    HW2 3378   5.276   3.021   5.303
  827SOL     OW 3379   3.680   4.749   5.634
  827SOL    HW1 3380   3.637   4.687   5.568
  827SOL    HW2 3381   3.779   4.746   5.623
  828SOL     OW 3382   4.967   6.968   6.499
  828SOL    HW1 3383   4.906   6.889   6.510
  828SOL    HW2 3384   4.983   6.984   6.402
  829SOL     OW 3385   2.907   3.718   3.108
  829SOL    HW1 3386   2.895   3.705   3.207
  829SOL    HW2 3387   2.968   3.647   3.073
  830SOL     OW 3388   4.357   4.465   6.637
  830SOL    HW1 3389   4.456   4.461   6.652
  830SOL    HW2 3390   4.314   4.518   6.710
  831SOL     OW 3391   5.545   0.928   6.541
  831SOL    HW1 3392   5.465   0.869   6.533
  831SOL    HW2 3393   5.628   0.872   6.545
  832SOL     OW 3394   3.250   0.996   1.980
  832SOL    HW1 3395   3.284   0.906   1.953
  832SOL    HW2 3396   3.182   0.986   2.052
  833SOL     OW 3397   0.382   3.984   5.566
  833SOL    HW1 3398   0.480   3.988   5.549
  833SOL    HW2 3399   0.338   4.065   5.529
  834SOL     OW 3400   3.409   3.902   0.884
  834SOL    HW1 3401   3.336   3.869   0.943
  834SOL    HW2 3402   3.394   3.869   0.791
  835SOL     OW 3403   3.514   0.485   5.018
  835SOL    HW1 3404   3.520   0.579   4.986
  835SOL    HW2 3405   3.577   0.428   4.965
  836SOL     OW 3406   3.829   6.294   6.781
  836SOL    HW1 3407   3.829   6.295   6.881
  836SOL    HW2 3408   3.920   6.271   6.747
  837SOL     OW 3409   5.490   6.472   0.410
  837SOL    HW1 3410   5.577   6.428   0.387
  837SOL    HW2 3411   5.442   6.497   0.327
  838SOL     OW 3412   1.995   0.414   4.574
  838SOL    HW1 3413   1.916   0.369   4.532
  838SOL    HW2 3414   2.006   0.381   4.668
  839SOL     OW 3415   2.599   2.416   1.858
  839SOL    HW1 3416   2.589   2.499   1.803
  839SOL    HW2 3417   2.695   2.405   1.884
  840SOL     OW 3418   5.674   6.597   0.084
  840SOL    HW1 3419   5.623   6.659   0.143
  840SOL    HW2 3420   5.755   6.644   0.049
  841SOL     OW 3421   4.386   4.941   0.122
  841SOL    HW1 3422   4.296   4.910   0.151
  841SOL    HW2 3423   4.412   4.895   0.038
  842SOL     OW 3424   3.979   6.442   4.882
  842SOL    HW1 3425   3.913   6.418   4.811
  842SOL    HW2 3426   4.016   6.358   4.922
  843SOL     OW 3427   1.853   1.531   0.799
  843SOL    HW1 3428   1.755   1.523   0.816
  843SOL    HW2 3429   1.903   1.490   0.875
  844SOL     OW 3430   5.987   0.676   0.785
  844SOL    HW1 3431   5.966   0.767   0.820
  844SOL    HW2 3432   6.085   0.658   0.797
  845SOL     OW 3433   5.715   4.240   4.806
  845SOL    HW1 3434   5.774   4.173   4.762
  845SOL    HW2 3435   5.736   4.331   4.771
  846SOL     OW 3436   2.228   1.770   6.922
  846SOL    HW1 3437   2.137   1.747   6.957
  846SOL    HW2 3438   2.293   1.775   6.998
  847SOL     OW 3439   1.307   3.038   0.814
  847SOL    HW1 3440   1.385   2.975   0.814
  847SOL    HW2 3441   1.237   3.005   0.751
  848SOL     OW 3442   5.813   0.463   6.156
  848SOL    HW1 3443   5.741   0.396   6.177
  848SOL    HW2 3444   5.772   0.554   6.149
  849SOL     OW 3445   0.544   4.408   6.111
  849SOL    HW1 3446   0.463   4.399   6.053
  849SOL    HW2 3447   0.520   4.458   6.194
  850SOL     OW 3448   5.257   1.246   3.583
  850SOL    HW1 3449   5.213   1.158   3.567
  850SOL    HW2 3450   5.354   1.239   3.560
  851SOL     OW 3451   0.714   1.838   2.182
  851SOL    HW1 3452   0.617   1.861   2.193
  851SOL    HW2 3453   0.759   1.838   2.271
  852SOL     OW 3454   1.446   2.191   0.280
  852SOL    HW1 3455   1.374   2.261   0.286
  852SOL    HW2 3456   1.486   2.191   0.189
  853SOL     OW 3457   1.918   4.160   2.645
  853SOL    HW1 3458   1.973   4.221   2.588
  853SOL    HW2 3459   1.876   4.213   2.719
  854SOL     OW 3460   4.589   6.148   1.769
  854SOL    HW1 3461   4.496   6.162   1.804
  854SOL    HW2 3462   4.619   6.231   1.722
  855SOL     OW 3463   0.484   0.474   1.668
  855SOL    HW1 3464   0.429   0.408   1.720
  855SOL    HW2 3465   0.573   0.435   1.647
  856SOL     OW 3466   1.196   1.408   5.357
  856SOL    HW1 3467   1.217   1.339   5.288
  856SOL    HW2 3468   1.103   1.442   5.343
  857SOL     OW 3469   6.001   4.643   2.000
  857SOL    HW1 3470   6.030   4.643   1.904
  857SOL    HW2 3471   6.075   4.606   2.057
  858SOL     OW 3472   3.020   3.844   1.157
  858SOL    HW1 3473   2.949   3.892   1.104
  858SOL    HW2 3474   2.980   3.813   1.244
  859SOL     OW 3475   4.670   5.833   5.918
  859SOL    HW1 3476   4.688   5.871   6.008
  859SOL    HW2 3477   4.646   5.737   5.926
  860SOL     OW 3478   4.388   3.782   0.871
  860SOL    HW1 3479   4.302   3.832   0.861
  860SOL    HW2 3480   4.414   3.778   0.968
  861SOL     OW 3481   2.605   0.483   3.633
  861SOL    HW1 3482   2.627   0.417   3.704
  861SOL    HW2 3483   2.508   0.475   3.609
  862SOL     OW 3484   0.117   3.915   5.893
  862SOL    HW1 3485   0.180   3.855   5.843
  862SOL    HW2 3486   0.169   3.979   5.949
  863SOL     OW 3487   0.250   0.287   0.570
  863SOL    HW1 3488   0.178   0.248   0.628
  863SOL    HW2 3489   0.338   0.244   0.593
  864SOL     OW 3490   4.157   4.811   3.511
  864SOL    HW1 3491   4.197   4.792   3.601
  864SOL    HW2 3492   4.208   4.761   3.441
  865SOL     OW 3493   1.749   5.871   6.207
  865SOL    HW1 3494   1.837   5.917   6.209
  865SOL    HW2 3495   1.679   5.934   6.174
  866SOL     OW 3496   1.593   2.209   2.045
  866SOL    HW1 3497   1.588   2.114   2.077
  866SOL    HW2 3498   1.501   2.246   2.038
  867SOL     OW 3499   3.817   3.568   0.493
  867SOL    HW1 3500   3.858   3.533   0.576
  867SOL    HW2 3501   3.728   3.524   0.479
  868SOL     OW 3502   5.765   6.916   1.308
  868SOL    HW1 3503   5.762   7.011   1.275
  868SOL    HW2 3504   5.853   6.899   1.352
  869SOL     OW 3505   6.297   5.578   2.834
  869SOL    HW1 3506   6.210   5.577   2.785
  869SOL    HW2 3507   6.369   5.541   2.775
  870SOL     OW 3508   4.632   3.159   0.894
  870SOL    HW1 3509   4.594   3.075   0.857
  870SOL    HW2 3510   4.710   3.138   0.954
  871SOL     OW 3511   4.961   3.376   3.072
  871SOL    HW1 3512   5.009   3.454   3.032
  871SOL    HW2 3513   4.945   3.393   3.169
  872SOL     OW 3514   5.489   4.398   3.666
  872SOL    HW1 3515   5.584   4.370   3.649
  872SOL    HW2 3516   5.488   4.470   3.735
  873SOL     OW 3517   5.630   6.567   4.363
  873SOL    HW1 3518   5.609   6.635   4.294
  873SOL    HW2 3519   5.729   6.552   4.366
  874SOL     OW 3520   0.892   4.836   5.686
  874SOL    HW1 3521   0.813   4.778   5.707
  874SOL    HW2 3522   0.929   4.874   5.771
  875SOL     OW 3523   3.831   2.874   0.676
  875SOL    HW1 3524   3.929   2.870   0.655
  875SOL    HW2 3525   3.781   2.811   0.617
  876SOL     OW 3526   0.690   5.553   3.040
  876SOL    HW1 3527   0.635   5.486   2.991
  876SOL    HW2 3528   0.713   5.629   2.979
  877SOL     OW 3529   4.168   3.326   6.867
  877SOL    HW1 3530   4.182   3.424   6.853
  877SOL    HW2 3531   4.228   3.294   6.941
  878SOL     OW 3532   4.411   5.733   5.509
  878SOL    HW1 3533   4.446   5.759   5.419
  878SOL    HW2 3534   4.437   5.802   5.576
  879SOL     OW 3535   2.820   2.052   2.095
  879SOL    HW1 3536   2.761   2.046   2.176
  879SOL    HW2 3537   2.826   2.147   2.065
  880SOL     OW 3538   2.967   3.809   5.775
  880SOL    HW1 3539   2.874   3.823   5.741
  880SOL    HW2 3540   3.031   3.806   5.698
  881SOL     OW 3541   4.528   4.138   5.311
  881SOL    HW1 3542   4.600   4.175   5.253
  881SOL    HW2 3543   4.450   4.201   5.311
  882SOL     OW 3544   1.564   1.690   4.075
  882SOL    HW1 3545   1.490   1.635   4.037
  882SOL    HW2 3546   1.550   1.701   4.174
  883SOL     OW 3547   4.570   5.348   6.098
  883SOL    HW1 3548   4.582   5.420   6.030
  883SOL    HW2 3549   4.513   5.275   6.059
  884SOL     OW 3550   0.088   4.052   0.349
  884SOL    HW1 3551   0.011   3.988   0.352
  884SOL    HW2 3552   0.167   4.010   0.395
  885SOL     OW 3553   4.953   5.699   6.053
  885SOL    HW1 3554   4.998   5.623   6.100
  885SOL    HW2 3555   4.934   5.773   6.118
  886SOL     OW 3556   3.401   0.584   0.717
  886SOL    HW1 3557   3.387   0.633   0.631
  886SOL    HW2 3558   3.334   0.511   0.725
  887SOL     OW 3559   4.216   6.934   4.217
  887SOL    HW1 3560   4.174   7.013   4.261
  887SOL    HW2 3561   4.312   6.927   4.245
  888SOL     OW 3562   5.866   5.876   2.588
  888SOL    HW1 3563   5.797   5.819   2.635
  888SOL    HW2 3564   5.947   5.821   2.570
  889SOL     OW 3565   1.748   6.332   5.443
  889SOL    HW1 3566   1.662   6.331   5.493
  889SOL    HW2 3567   1.824   6.348   5.507
  890SOL     OW 3568   2.332   4.786   2.078
  890SOL    HW1 3569   2.298   4.763   2.170
  890SOL    HW2 3570   2.257   4.824   2.024
  891SOL     OW 3571   6.478   4.159   1.062
  891SOL    HW1 3572   6.419   4.226   1.108
  891SOL    HW2 3573   6.518   4.098   1.131
  892SOL     OW 3574   3.986   3.949   6.176
  892SOL    HW1 3575   3.990   3.849   6.175
  892SOL    HW2 3576   3.928   3.980   6.252
  893SOL     OW 3577   1.995   1.040   2.637
  893SOL    HW1 3578   1.919   1.100   2.615
  893SOL    HW2 3579   2.070   1.055   2.572
  894SOL     OW 3580   1.159   2.605   3.937
  894SOL    HW1 3581   1.194   2.624   3.845
  894SOL    HW2 3582   1.159   2.506   3.953
  895SOL     OW 3583   1.046   5.867   4.850
  895SOL    HW1 3584   1.117   5.936   4.864
  895SOL    HW2 3585   1.066   5.815   4.767
  896SOL     OW 3586   5.445   0.419   1.907
  896SOL    HW1 3587   5.499   0.496   1.943
  896SOL    HW2 3588   5.470   0.336   1.957
  897SOL     OW 3589   4.946   0.870   0.165
  897SOL    HW1 3590   4.869   0.930   0.187
  897SOL    HW2 3591   4.912   0.788   0.119
  898SOL     OW 3592   4.147   5.772   2.705
  898SOL    HW1 3593   4.080   5.776   2.631
  898SOL    HW2 3594   4.215   5.845   2.693
  899SOL     OW 3595   0.110   4.956   0.349
  899SOL    HW1 3596   0.174   4.989   0.280
  899SOL    HW2 3597   0.017   4.954   0.310
  900SOL     OW 3598   4.998   6.074   1.619
  900SOL    HW1 3599   4.921   6.026   1.577
  900SOL    HW2 3600   5.066   6.096   1.549
  901SOL     OW 3601   0.754   1.169   5.724
  901SOL    HW1 3602   0.690   1.232   5.768
  901SOL    HW2 3603   0.754   1.082   5.773
  902SOL     OW 3604   0.070   2.333   6.970
  902SOL    HW1 3605   0.041   2.428   6.963
  902SOL    HW2 3606   0.102   2.300   6.881
  903SOL     OW 3607   6.766   3.908   6.447
  903SOL    HW1 3608   6.697   3.836   6.450
  903SOL    HW2 3609   6.841   3.884   6.509
  904SOL     OW 3610   1.795   2.652   3.901
  904SOL    HW1 3611   1.770   2.573   3.957
  904SOL    HW2 3612   1.884   2.687   3.931
  905SOL     OW 3613   4.502   3.633   6.290
  905SOL    HW1 3614   4.531   3.538   6.297
  905SOL    HW2 3615   4.433   3.642   6.218
  906SOL     OW 3616   0.474   3.522   5.965
  906SOL    HW1 3617   0.400   3.589   5.969
  906SOL    HW2 3618   0.536   3.536   6.041
  907SOL     OW 3619   5.985   3.154   3.010
  907SOL    HW1 3620   6.082   3.131   3.016
  907SOL    HW2 3621   5.972   3.227   2.943
  908SOL     OW 3622   1.989   6.306   3.212
  908SOL    HW1 3623   1.937   6.323   3.296
  908SOL    HW2 3624   2.008   6.208   3.205
  909SOL     OW 3625   2.452   6.449   1.997
  909SOL    HW1 3626   2.489   6.460   1.905
  909SOL    HW2 3627   2.388   6.524   2.016
  910SOL     OW 3628   2.405   0.446   0.863
  910SOL    HW1 3629   2.479   0.504   0.898
  910SOL    HW2 3630   2.425   0.419   0.769
  911SOL     OW 3631   7.019   5.388   1.129
  911SOL    HW1 3632   6.990   5.325   1.202
  911SOL    HW2 3633   0.079   5.353   1.086
  912SOL     OW 3634   6.488   0.838   4.828
  912SOL    HW1 3635   6.435   0.785   4.763
  912SOL    HW2 3636   6.427   0.877   4.897
  913SOL     OW 3637   1.870   0.416   3.356
  913SOL    HW1 3638   1.785   0.383   3.396
  913SOL    HW2 3639   1.849   0.478   3.280
  914SOL     OW 3640   3.132   5.827   5.048
  914SOL    HW1 3641   3.061   5.894   5.025
  914SOL    HW2 3642   3.096   5.735   5.032
  915SOL     OW 3643   1.593   3.180   7.017
  915SOL    HW1 3644   1.574   3.244   6.942
  915SOL    HW2 3645   1.628   3.231   0.072
  916SOL     OW 3646   1.676   2.460   1.846
  916SOL    HW1 3647   1.700   2.528   1.776
  916SOL    HW2 3648   1.718   2.372   1.822
  917SOL     OW 3649   5.296   0.580   1.757
  917SOL    HW1 3650   5.273   0.662   1.810
  917SOL    HW2 3651   5.359   0.523   1.810
  918SOL     OW 3652   2.563   6.535   6.640
  918SOL    HW1 3653   2.481   6.564   6.690
  918SOL    HW2 3654   2.619   6.476   6.698
  919SOL     OW 3655   6.651   5.583   2.222
  919SOL    HW1 3656   6.599   5.650   2.275
  919SOL    HW2 3657   6.733   5.556   2.273
  920SOL     OW 3658   1.708   6.129   3.155
  920SOL    HW1 3659   1.659   6.216   3.150
  920SOL    HW2 3660   1.745   6.116   3.247
  921SOL     OW 3661   4.660   4.246   3.861
  921SOL    HW1 3662   4.602   4.288   3.790
  921SOL    HW2 3663   4.731   4.192   3.817
  922SOL     OW 3664   3.148   2.791   5.996
  922SOL    HW1 3665   3.082   2.790   5.921
  922SOL    HW2 3666   3.101   2.766   6.081
  923SOL     OW 3667   2.859   4.720   6.679
  923SOL    HW1 3668   2.905   4.711   6.767
  923SOL    HW2 3669   2.923   4.757   6.612
  924SOL     OW 3670   6.524   2.545   2.575
  924SOL    HW1 3671   6.451   2.477   2.566
  924SOL    HW2 3672   6.524   2.582   2.668
  925SOL     OW 3673   0.048   1.669   5.847
  925SOL    HW1 3674   6.983   1.630   5.823
  925SOL    HW2 3675   0.119   1.631   5.788
  926SOL     OW 3676   6.569   0.993   0.185
  926SOL    HW1 3677   6.520   1.016   0.269
  926SOL    HW2 3678   6.611   0.902   0.195
  927SOL     OW 3679   5.450   4.529   3.343
  927SOL    HW1 3680   5.501   4.520   3.429
  927SOL    HW2 3681   5.466   4.449   3.286
  928SOL     OW 3682   1.825   6.733   0.690
  928SOL    HW1 3683   1.836   6.686   0.602
  928SOL    HW2 3684   1.749   6.798   0.683
  929SOL     OW 3685   0.611   1.365   0.900
  929SOL    HW1 3686   0.648   1.458   0.897
  929SOL    HW2 3687   0.609   1.327   0.807
  930SOL     OW 3688   5.751   5.851   5.022
  930SOL    HW1 3689   5.719   5.852   4.927
  930SOL    HW2 3690   5.673   5.839   5.084
  931SOL     OW 3691   5.656   3.630   2.493
  931SOL    HW1 3692   5.676   3.609   2.397
  931SOL    HW2 3693   5.683   3.724   2.512
  932SOL     OW 3694   2.781   6.634   2.500
  932SOL    HW1 3695   2.693   6.639   2.453
  932SOL    HW2 3696   2.854   6.625   2.432
  933SOL     OW 3697   0.736   5.835   3.228
  933SOL    HW1 3698   0.779   5.754   3.268
  933SOL    HW2 3699   0.641   5.813   3.204
  934SOL     OW 3700   1.376   0.987   4.955
  934SOL    HW1 3701   1.391   0.892   4.983
  934SOL    HW2 3702   1.402   0.998   4.859
  935SOL     OW 3703   4.959   3.635   5.447
  935SOL    HW1 3704   4.921   3.580   5.521
  935SOL    HW2 3705   4.951   3.585   5.361
  936SOL     OW 3706   1.660   1.137   5.959
  936SOL    HW1 3707   1.624   1.174   6.044
  936SOL    HW2 3708   1.741   1.189   5.932
  937SOL     OW 3709   4.795   1.417   4.537
  937SOL    HW1 3710   4.798   1.480   4.460
  937SOL    HW2 3711   4.702   1.413   4.573
  938SOL     OW 3712   0.401   5.393   6.443
  938SOL    HW1 3713   0.323   5.371   6.384
  938SOL    HW2 3714   0.383   5.478   6.493
  939SOL     OW 3715   4.569   1.091   5.533
  939SOL    HW1 3716   4.469   1.087   5.537
  939SOL    HW2 3717   4.597   1.129   5.445
  940SOL     OW 3718   0.597   3.375   2.477
  940SOL    HW1 3719   0.638   3.336   2.560
  940SOL    HW2 3720   0.517   3.430   2.502
  941SOL     OW 3721   6.636   0.739   4.452
  941SOL    HW1 3722   6.610   0.661   4.509
  941SOL    HW2 3723   6.735   0.754   4.458
  942SOL     OW 3724   4.778   0.337   4.051
  942SOL    HW1 3725   4.727   0.388   4.120
  942SOL    HW2 3726   4.714   0.291   3.989
  943SOL     OW 3727   1.194   3.509   3.801
  943SOL    HW1 3728   1.222   3.576   3.733
  943SOL    HW2 3729   1.179   3.554   3.889
  944SOL     OW 3730   6.550   3.862   5.618
  944SOL    HW1 3731   6.499   3.840   5.534
  944SOL    HW2 3732   6.517   3.949   5.655
  945SOL     OW 3733   6.702   4.308   5.573
  945SOL    HW1 3734   6.718   4.374   5.647
  945SOL    HW2 3735   6.782   4.249   5.564
  946SOL     OW 3736   4.656   3.153   5.908
  946SOL    HW1 3737   4.599   3.200   5.975
  946SOL    HW2 3738   4.645   3.054   5.917
  947SOL     OW 3739   3.435   3.242   4.482
  947SOL    HW1 3740   3.444   3.256   4.580
  947SOL    HW2 3741   3.445   3.145   4.460
  948SOL     OW 3742   4.012   0.322   0.601
  948SOL    HW1 3743   4.038   0.408   0.557
  948SOL    HW2 3744   4.072   0.249   0.569
  949SOL     OW 3745   0.538   6.367   6.475
  949SOL    HW1 3746   0.603   6.291   6.477
  949SOL    HW2 3747   0.555   6.424   6.395
  950SOL     OW 3748   4.162   5.157   1.595
  950SOL    HW1 3749   4.177   5.239   1.540
  950SOL    HW2 3750   4.240   5.096   1.585
  951SOL     OW 3751   1.356   1.022   2.759
  951SOL    HW1 3752   1.321   1.076   2.682
  951SOL    HW2 3753   1.396   0.937   2.725
  952SOL     OW 3754   6.103   1.998   2.506
  952SOL    HW1 3755   6.092   1.901   2.486
  952SOL    HW2 3756   6.097   2.050   2.421
  953SOL     OW 3757   5.251   5.855   4.991
  953SOL    HW1 3758   5.230   5.779   5.053
  953SOL    HW2 3759   5.346   5.848   4.961
  954SOL     OW 3760   5.257   5.602   0.601
  954SOL    HW1 3761   5.236   5.628   0.507
  954SOL    HW2 3762   5.192   5.645   0.664
  955SOL     OW 3763   0.241   5.145   3.541
  955SOL    HW1 3764   0.272   5.237   3.519
  955SOL    HW2 3765   0.169   5.149   3.610
  956SOL     OW 3766   0.470   2.005   2.502
  956SOL    HW1 3767   0.557   2.002   2.550
  956SOL    HW2 3768   0.395   1.993   2.567
  957SOL     OW 3769   0.953   5.176   4.505
  957SOL    HW1 3770   0.979   5.191   4.600
  957SOL    HW2 3771   0.863   5.131   4.501
  958SOL     OW 3772   4.587   2.565   2.131
  958SOL    HW1 3773   4.524   2.550   2.054
  958SOL    HW2 3774   4.649   2.641   2.109
  959SOL     OW 3775   3.194   4.939   3.384
  959SOL    HW1 3776   3.112   4.883   3.395
  959SOL    HW2 3777   3.176   5.031   3.417
  960SOL     OW 3778   0.027   5.827   3.418
  960SOL    HW1 3779   0.071   5.760   3.478
  960SOL    HW2 3780   0.009   5.785   3.329
  961SOL     OW 3781   4.850   0.207   3.330
  961SOL    HW1 3782   4.925   0.269   3.351
  961SOL    HW2 3783   4.781   0.256   3.275
  962SOL     OW 3784   1.370   0.782   4.237
  962SOL    HW1 3785   1.380   0.867   4.289
  962SOL    HW2 3786   1.355   0.804   4.140
  963SOL     OW 3787   6.373   2.139   6.055
  963SOL    HW1 3788   6.445   2.072   6.068
  963SOL    HW2 3789   6.342   2.137   5.960
  964SOL     OW 3790   6.089   4.345   0.533
  964SOL    HW1 3791   6.128   4.336   0.624
  964SOL    HW2 3792   6.155   4.389   0.472
  965SOL     OW 3793   5.263   1.525   1.092
  965SOL    HW1 3794   5.173   1.566   1.084
  965SOL    HW2 3795   5.257   1.427   1.072
  966SOL     OW 3796   5.775   2.245   2.146
  966SOL    HW1 3797   5.744   2.178   2.213
  966SOL    HW2 3798   5.733   2.225   2.057
  967SOL     OW 3799   2.605   5.070   1.479
  967SOL    HW1 3800   2.617   5.077   1.578
  967SOL    HW2 3801   2.535   5.134   1.450
  968SOL     OW 3802   4.176   2.208   2.560
  968SOL    HW1 3803   4.204   2.210   2.464
  968SOL    HW2 3804   4.079   2.230   2.567
  969SOL     OW 3805   3.704   5.938   6.617
  969SOL    HW1 3806   3.797   5.964   6.592
  969SOL    HW2 3807   3.706   5.855   6.673
  970SOL     OW 3808   5.110   1.200   5.237
  970SOL    HW1 3809   5.122   1.266   5.311
  970SOL    HW2 3810   5.073   1.247   5.157
  971SOL     OW 3811   0.052   1.958   3.082
  971SOL    HW1 3812   0.104   2.010   3.014
  971SOL    HW2 3813   0.110   1.940   3.162
  972SOL     OW 3814   5.576   4.134   1.521
  972SOL    HW1 3815   5.634   4.202   1.566
  972SOL    HW2 3816   5.629   4.087   1.450
  973SOL     OW 3817   6.756   4.356   6.835
  973SOL    HW1 3818   6.665   4.392   6.815
  973SOL    HW2 3819   6.783   4.291   6.764
  974SOL     OW 3820   5.188   0.249   1.870
  974SOL    HW1 3821   5.132   0.300   1.935
  974SOL    HW2 3822   5.262   0.307   1.837
  975SOL     OW 3823   1.661   5.819   6.583
  975SOL    HW1 3824   1.594   5.797   6.654
  975SOL    HW2 3825   1.715   5.737   6.562
  976SOL     OW 3826   6.530   3.077   2.775
  976SOL    HW1 3827   6.610   3.033   2.735
  976SOL    HW2 3828   6.458   3.009   2.790
  977SOL     OW 3829   1.652   0.691   3.584
  977SOL    HW1 3830   1.633   0.648   3.672
  977SOL    HW2 3831   1.565   0.719   3.541
  978SOL     OW 3832   4.603   4.208   5.631
  978SOL    HW1 3833   4.583   4.157   5.714
  978SOL    HW2 3834   4.605   4.145   5.553
  979SOL     OW 3835   0.035   2.406   1.323
  979SOL    HW1 3836   6.976   2.458   1.344
  979SOL    HW2 3837   0.089   2.393   1.407
  980SOL     OW 3838   3.887   2.144   3.887
  980SOL    HW1 3839   3.815   2.205   3.854
  980SOL    HW2 3840   3.895   2.066   3.825
  981SOL     OW 3841   1.321   1.751   5.483
  981SOL    HW1 3842   1.347   1.663   5.523
  981SOL    HW2 3843   1.250   1.737   5.413
  982SOL     OW 3844   2.719   1.886   3.288
  982SOL    HW1 3845   2.796   1.904   3.350
  982SOL    HW2 3846   2.646   1.952   3.306
  983SOL     OW 3847   5.772   1.868   4.395
  983SOL    HW1 3848   5.827   1.871   4.479
  983SOL    HW2 3849   5.722   1.954   4.385
  984SOL     OW 3850   2.859   1.495   3.954
  984SOL    HW1 3851   2.828   1.471   3.862
  984SOL    HW2 3852   2.958   1.506   3.954
  985SOL     OW 3853   5.062   4.918   6.682
  985SOL    HW1 3854   5.058   4.858   6.603
  985SOL    HW2 3855   5.155   4.921   6.718
  986SOL     OW 3856   5.704   3.884   0.285
  986SOL    HW1 3857   5.755   3.968   0.305
  986SOL    HW2 3858   5.612   3.908   0.254
  987SOL     OW 3859   4.380   6.493   1.637
  987SOL    HW1 3860   4.422   6.544   1.712
  987SOL    HW2 3861   4.333   6.557   1.575
  988SOL     OW 3862   3.245   2.902   2.802
  988SOL    HW1 3863   3.210   2.994   2.822
  988SOL    HW2 3864   3.169   2.837   2.798
  989SOL     OW 3865   6.182   1.237   5.816
  989SOL    HW1 3866   6.280   1.246   5.800
  989SOL    HW2 3867   6.132   1.285   5.744
  990SOL     OW 3868   4.313   0.684   2.042
  990SOL    HW1 3869   4.258   0.686   1.958
  990SOL    HW2 3870   4.386   0.752   2.035
  991SOL     OW 3871   1.547   2.367   5.093
  991SOL    HW1 3872   1.489   2.423   5.035
  991SOL    HW2 3873   1.631   2.417   5.115
  992SOL     OW 3874   0.163   2.636   1.971
  992SOL    HW1 3875   0.245   2.677   2.011
  992SOL    HW2 3876   0.160   2.659   1.873
  993SOL     OW 3877   1.195   4.501   1.811
  993SOL    HW1 3878   1.174   4.450   1.894
  993SOL    HW2 3879   1.138   4.469   1.736
  994SOL     OW 3880   3.449   4.166   2.409
  994SOL    HW1 3881   3.359   4.206   2.428
  994SOL    HW2 3882   3.483   4.121   2.491
  995SOL     OW 3883   3.481   2.714   6.025
  995SOL    HW1 3884   3.424   2.793   6.004
  995SOL    HW2 3885   3.508   2.668   5.940
  996SOL     OW 3886   1.803   4.407   4.433
  996SOL    HW1 3887   1.741   4.348   4.381
  996SOL    HW2 3888   1.866   4.452   4.371
  997SOL     OW 3889   0.815   0.855   2.928
  997SOL    HW1 3890   0.835   0.882   3.021
  997SOL    HW2 3891   0.894   0.874   2.869
  998SOL     OW 3892   3.797   6.332   4.707
  998SOL    HW1 3893   3.843   6.252   4.668
  998SOL    HW2 3894   3.778   6.399   4.634
  999SOL     OW 3895   5.188   4.571   2.150
  999SOL    HW1 3896   5.141   4.490   2.115
  999SOL    HW2 3897   5.134   4.613   2.223
 1000SOL     OW 3898   0.901   0.938   1.293
 1000SOL    HW1 3899   0.935   0.844   1.295
 1000SOL    HW2 3900   0.819   0.943   1.236
 1001SOL     OW 3901   5.978   6.866   0.957
 1001SOL    HW1 3902   5.983   6.766   0.948
 1001SOL    HW2 3903   5.893   6.899   0.916
 1002SOL     OW 3904   6.210   1.598   0.555
 1002SOL    HW1 3905   6.184   1.525   0.618
 1002SOL    HW2 3906   6.283   1.565   0.495
 1003SOL     OW 3907   2.190   6.094   1.760
 1003SOL    HW1 3908   2.116   6.161   1.765
 1003SOL    HW2 3909   2.155   6.003   1.783
 1004SOL     OW 3910   0.470   0.139   1.454
 1004SOL    HW1 3911   0.503   0.216   1.401
 1004SOL    HW2 3912   0.448   0.063   1.393
 1005SOL     OW 3913   0.933   2.473   3.271
 1005SOL    HW1 3914   0.903   2.397   3.329
 1005SOL    HW2 3915   1.027   2.457   3.241
 1006SOL     OW 3916   1.370   4.659   1.119
 1006SOL    HW1 3917   1.371   4.759   1.126
 1006SOL    HW2 3918   1.433   4.630   1.046
 1007SOL     OW 3919   5.488   6.830   4.690
 1007SOL    HW1 3920   5.494   6.731   4.678
 1007SOL    HW2 3921   5.397   6.853   4.726
 1008SOL     OW 3922   2.207   3.283   4.705
 1008SOL    HW1 3923   2.288   3.327   4.745
 1008SOL    HW2 3924   2.131   3.349   4.704
 1009SOL     OW 3925   0.338   5.374   4.463
 1009SOL    HW1 3926   0.415   5.425   4.424
 1009SOL    HW2 3927   0.369   5.283   4.491
 1010SOL     OW 3928   3.763   2.545   5.966
 1010SOL    HW1 3929   3.853   2.527   6.005
 1010SOL    HW2 3930   3.699   2.567   6.039
 1011SOL     OW 3931   2.774   5.452   2.255
 1011SOL    HW1 3932   2.763   5.550   2.267
 1011SOL    HW2 3933   2.691   5.406   2.288
 1012SOL     OW 3934   6.971   0.205   0.682
 1012SOL    HW1 3935   6.937   0.280   0.625
 1012SOL    HW2 3936   7.012   0.242   0.765
 1013SOL     OW 3937   0.982   1.309   6.189
 1013SOL    HW1 3938   1.060   1.321   6.250
 1013SOL    HW2 3939   1.011   1.320   6.094
 1014SOL     OW 3940   5.053   6.116   6.509
 1014SOL    HW1 3941   5.042   6.016   6.505
 1014SOL    HW2 3942   5.110   6.139   6.588
 1015SOL     OW 3943   2.014   6.555   4.952
 1015SOL    HW1 3944   2.027   6.620   5.027
 1015SOL    HW2 3945   1.971   6.472   4.987
 1016SOL     OW 3946   3.899   3.361   6.927
 1016SOL    HW1 3947   3.996   3.365   6.904
 1016SOL    HW2 3948   3.883   3.407   7.014
 1017SOL     OW 3949   4.268   2.772   1.303
 1017SOL    HW1 3950   4.187   2.715   1.296
 1017SOL    HW2 3951   4.344   2.729   1.253
 1018SOL     OW 3952   1.166   3.311   4.244
 1018SOL    HW1 3953   1.102   3.274   4.311
 1018SOL    HW2 3954   1.138   3.285   4.152
 1019SOL     OW 3955   0.312   0.545   0.586
 1019SOL    HW1 3956   0.280   0.558   0.680
 1019SOL    HW2 3957   0.306   0.448   0.563
 1020SOL     OW 3958   0.714   6.809   1.586
 1020SOL    HW1 3959   0.803   6.785   1.626
 1020SOL    HW2 3960   0.650   6.734   1.602
 1021SOL     OW 3961   5.675   0.591   1.525
 1021SOL    HW1 3962   5.616   0.515   1.496
 1021SOL    HW2 3963   5.717   0.569   1.613
 1022SOL     OW 3964   3.311   4.619   6.320
 1022SOL    HW1 3965   3.354   4.556   6.254
 1022SOL    HW2 3966   3.338   4.713   6.299
 1023SOL     OW 3967   0.735   6.867   2.155
 1023SOL    HW1 3968   0.799   6.939   2.129
 1023SOL    HW2 3969   0.786   6.789   2.191
 1024SOL     OW 3970   6.897   3.369   4.421
 1024SOL    HW1 3971   6.838   3.343   4.345
 1024SOL    HW2 3972   6.964   3.436   4.390
 1025SOL     OW 3973   3.090   3.046   0.603
 1025SOL    HW1 3974   3.145   3.123   0.571
 1025SOL    HW2 3975   2.993   3.064   0.584
 1026SOL     OW 3976   2.511   2.742   1.220
 1026SOL    HW1 3977   2.457   2.818   1.184
 1026SOL    HW2 3978   2.597   2.778   1.258
 1027SOL     OW 3979   3.060   6.804   1.096
 1027SOL    HW1 3980   3.159   6.793   1.094
 1027SOL    HW2 3981   3.033   6.873   1.028
 1028SOL     OW 3982   3.331   6.222   6.742
 1028SOL    HW1 3983   3.232   6.219   6.735
 1028SOL    HW2 3984   3.366   6.129   6.755
 1029SOL     OW 3985   1.855   0.383   6.988
 1029SOL    HW1 3986   1.936   0.442   6.984
 1029SOL    HW2 3987   1.806   0.388   6.901
 1030SOL     OW 3988   3.594   3.606   1.802
 1030SOL    HW1 3989   3.618   3.569   1.892
 1030SOL    HW2 3990   3.618   3.541   1.731
 1031SOL     OW 3991   4.745   5.108   0.939
 1031SOL    HW1 3992   4.689   5.034   0.902
 1031SOL    HW2 3993   4.695   5.194   0.931
 1032SOL     OW 3994   2.109   1.653   5.079
 1032SOL    HW1 3995   2.078   1.730   5.023
 1032SOL    HW2 3996   2.168   1.594   5.024
 1033SOL     OW 3997   1.295   6.003   1.108
 1033SOL    HW1 3998   1.382   6.036   1.072
 1033SOL    HW2 3999   1.266   6.062   1.183
 1034SOL     OW 4000   0.488   5.428   5.154
 1034SOL    HW1 4001   0.559   5.392   5.214
 1034SOL    HW2 4002   0.487   5.376   5.069
 1035SOL     OW 4003   1.371   1.448   4.207
 1035SOL    HW1 4004   1.273   1.429   4.193
 1035SOL    HW2 4005   1.387   1.468   4.303
 1036SOL     OW 4006   2.736   1.073   2.164
 1036SOL    HW1 4007   2.793   0.990   2.169
 1036SOL    HW2 4008   2.795   1.154   2.166
 1037SOL     OW 4009   1.938   0.784   1.327
 1037SOL    HW1 4010   2.007   0.766   1.398
 1037SOL    HW2 4011   1.875   0.854   1.359
 1038SOL     OW 4012   1.278   6.909   5.829
 1038SOL    HW1 4013   1.223   6.873   5.754
 1038SOL    HW2 4014   1.227   6.982   5.875
 1039SOL     OW 4015   3.041   2.494   6.043
 1039SOL    HW1 4016   2.991   2.467   5.961
 1039SOL    HW2 4017   3.119   2.551   6.017
 1040SOL     OW 4018   4.746   2.816   2.435
 1040SOL    HW1 4019   4.769   2.902   2.389
 1040SOL    HW2 4020   4.723   2.747   2.367
 1041SOL     OW 4021   6.323   0.044   4.156
 1041SOL    HW1 4022   6.279   6.997   4.099
 1041SOL    HW2 4023   6.419   0.018   4.171
 1042SOL     OW 4024   3.728   5.145   2.518
 1042SOL    HW1 4025   3.678   5.219   2.474
 1042SOL    HW2 4026   3.668   5.065   2.527
 1043SOL     OW 4027   3.948   1.593   4.866
 1043SOL    HW1 4028   3.856   1.591   4.905
 1043SOL    HW2 4029   3.948   1.550   4.776
 1044SOL     OW 4030   4.815   4.579   2.237
 1044SOL    HW1 4031   4.861   4.633   2.167
 1044SOL    HW2 4032   4.872   4.575   2.319
 1045SOL     OW 4033   3.353   5.927   2.160
 1045SOL    HW1 4034   3.352   6.012   2.212
 1045SOL    HW2 4035   3.263   5.883   2.169
 1046SOL     OW 4036   1.254   6.954   0.747
 1046SOL    HW1 4037   1.271   0.019   0.702
 1046SOL    HW2 4038   1.266   6.880   0.680
 1047SOL     OW 4039   1.350   6.876   2.479
 1047SOL    HW1 4040   1.271   6.898   2.537
 1047SOL    HW2 4041   1.428   6.851   2.537
 1048SOL     OW 4042   5.010   6.303   5.393
 1048SOL    HW1 4043   5.100   6.338   5.370
 1048SOL    HW2 4044   4.971   6.256   5.313
 1049SOL     OW 4045   6.454   5.346   3.651
 1049SOL    HW1 4046   6.417   5.437   3.632
 1049SOL    HW2 4047   6.460   5.333   3.750
 1050SOL     OW 4048   4.088   5.486   0.897
 1050SOL    HW1 4049   4.006   5.540   0.915
 1050SOL    HW2 4050   4.168   5.545   0.903
 1051SOL     OW 4051   2.505   5.343   0.800
 1051SOL    HW1 4052   2.417   5.388   0.785
 1051SOL    HW2 4053   2.491   5.245   0.810
 1052SOL     OW 4054   3.773   0.480   4.451
 1052SOL    HW1 4055   3.676   0.493   4.470
 1052SOL    HW2 4056   3.821   0.566   4.464
 1053SOL     OW 4057   5.048   5.320   3.331
 1053SOL    HW1 4058   5.066   5.308   3.234
 1053SOL    HW2 4059   4.949   5.312   3.348
 1054SOL     OW 4060   2.332   3.718   5.482
 1054SOL    HW1 4061   2.329   3.622   5.455
 1054SOL    HW2 4062   2.266   3.770   5.427
 1055SOL     OW 4063   5.149   6.720   4.090
 1055SOL    HW1 4064   5.162   6.761   4.180
 1055SOL    HW2 4065   5.175   6.785   4.019
 1056SOL     OW 4066   1.666   4.908   6.138
 1056SOL    HW1 4067   1.578   4.872   6.109
 1056SOL    HW2 4068   1.729   4.910   6.060
 1057SOL     OW 4069   3.530   3.158   2.789
 1057SOL    HW1 4070   3.573   3.068   2.788
 1057SOL    HW2 4071   3.462   3.163   2.716
 1058SOL     OW 4072   5.150   1.569   2.409
 1058SOL    HW1 4073   5.056   1.591   2.434
 1058SOL    HW2 4074   5.202   1.653   2.393
 1059SOL     OW 4075   2.573   0.190   1.574
 1059SOL    HW1 4076   2.517   0.165   1.654
 1059SOL    HW2 4077   2.598   0.107   1.524
 1060SOL     OW 4078   6.889   4.103   4.316
 1060SOL    HW1 4079   6.907   4.018   4.366
 1060SOL    HW2 4080   6.960   4.115   4.246
 1061SOL     OW 4081   5.223   3.564   1.952
 1061SOL    HW1 4082   5.150   3.535   1.891
 1061SOL    HW2 4083   5.290   3.618   1.901
 1062SOL     OW 4084   5.990   4.619   5.380
 1062SOL    HW1 4085   5.894   4.612   5.355
 1062SOL    HW2 4086   6.035   4.683   5.318
 1063SOL     OW 4087   1.432   4.681   1.552
 1063SOL    HW1 4088   1.401   4.735   1.630
 1063SOL    HW2 4089   1.409   4.584   1.566
 1064SOL     OW 4090   1.562   4.308   2.098
 1064SOL    HW1 4091   1.632   4.237   2.087
 1064SOL    HW2 4092   1.529   4.336   2.007
 1065SOL     OW 4093   4.760   6.965   3.911
 1065SOL    HW1 4094   4.671   6.946   3.868
 1065SOL    HW2 4095   4.820   6.887   3.899
 1066SOL     OW 4096   4.922   0.300   3.720
 1066SOL    HW1 4097   4.823   0.290   3.705
 1066SOL    HW2 4098   4.969   0.220   3.683
 1067SOL     OW 4099   1.131   3.397   0.007
 1067SOL    HW1 4100   1.194   3.319   0.009
 1067SOL    HW2 4101   1.182   3.482   0.008
 1068SOL     OW 4102   4.820   5.139   3.041
 1068SOL    HW1 4103   4.823   5.049   3.085
 1068SOL    HW2 4104   4.761   5.200   3.093
 1069SOL     OW 4105   4.954   4.983   0.703
 1069SOL    HW1 4106   4.900   4.943   0.777
 1069SOL    HW2 4107   4.894   5.006   0.626
 1070SOL     OW 4108   0.628   0.876   1.799
 1070SOL    HW1 4109   0.592   0.907   1.711
 1070SOL    HW2 4110   0.582   0.791   1.826
 1071SOL     OW 4111   2.093   0.300   3.688
 1071SOL    HW1 4112   2.126   0.320   3.595
 1071SOL    HW2 4113   2.158   0.241   3.734
 1072SOL     OW 4114   1.787   6.204   1.054
 1072SOL    HW1 4115   1.781   6.280   1.118
 1072SOL    HW2 4116   1.782   6.117   1.104
 1073SOL     OW 4117   4.086   6.246   2.377
 1073SOL    HW1 4118   4.095   6.338   2.415
 1073SOL    HW2 4119   3.990   6.229   2.355
 1074SOL     OW 4120   2.880   5.133   0.816
 1074SOL    HW1 4121   2.855   5.072   0.741
 1074SOL    HW2 4122   2.867   5.228   0.787
 1075SOL     OW 4123   4.189   6.663   4.078
 1075SOL    HW1 4124   4.215   6.741   4.135
 1075SOL    HW2 4125   4.205   6.685   3.981
 1076SOL     OW 4126   6.845   4.672   5.230
 1076SOL    HW1 4127   6.885   4.602   5.289
 1076SOL    HW2 4128   6.892   4.759   5.245
 1077SOL     OW 4129   5.762   0.022   0.763
 1077SOL    HW1 4130   5.684   0.067   0.807
 1077SOL    HW2 4131   5.754   6.946   0.776
 1078SOL     OW 4132   0.891   1.263   2.592
 1078SOL    HW1 4133   0.868   1.166   2.588
 1078SOL    HW2 4134   0.957   1.285   2.519
 1079SOL     OW 4135   1.885   6.153   2.464
 1079SOL    HW1 4136   1.929   6.235   2.502
 1079SOL    HW2 4137   1.925   6.071   2.506
 1080SOL     OW 4138   1.884   4.488   3.358
 1080SOL    HW1 4139   1.978   4.486   3.325
 1080SOL    HW2 4140   1.883   4.503   3.456
 1081SOL     OW 4141   6.977   6.290   6.110
 1081SOL    HW1 4142   6.918   6.354   6.159
 1081SOL    HW2 4143   6.978   6.313   6.013
 1082SOL     OW 4144   3.701   1.897   6.442
 1082SOL    HW1 4145   3.617   1.844   6.445
 1082SOL    HW2 4146   3.777   1.840   6.472
 1083SOL     OW 4147   4.252   4.126   0.993
 1083SOL    HW1 4148   4.223   4.210   1.039
 1083SOL    HW2 4149   4.191   4.051   1.021
 1084SOL     OW 4150   6.447   5.690   1.192
 1084SOL    HW1 4151   6.369   5.666   1.134
 1084SOL    HW2 4152   6.484   5.607   1.233
 1085SOL     OW 4153   1.078   4.465   3.947
 1085SOL    HW1 4154   1.117   4.396   4.009
 1085SOL    HW2 4155   1.124   4.552   3.962
 1086SOL     OW 4156   6.808   5.848   2.269
 1086SOL    HW1 4157   6.843   5.828   2.178
 1086SOL    HW2 4158   6.709   5.864   2.264
 1087SOL     OW 4159   6.174   3.088   5.351
 1087SOL    HW1 4160   6.274   3.095   5.354
 1087SOL    HW2 4161   6.136   3.173   5.316
 1088SOL     OW 4162   5.878   4.945   3.389
 1088SOL    HW1 4163   5.978   4.947   3.396
 1088SOL    HW2 4164   5.842   5.037   3.400
 1089SOL     OW 4165   1.348   6.782   4.271
 1089SOL    HW1 4166   1.375   6.773   4.175
 1089SOL    HW2 4167   1.371   6.699   4.321
 1090SOL     OW 4168   2.223   1.426   3.775
 1090SOL    HW1 4169   2.217   1.526   3.773
 1090SOL    HW2 4170   2.146   1.388   3.724
 1091SOL     OW 4171   2.498   2.829   5.415
 1091SOL    HW1 4172   2.486   2.742   5.367
 1091SOL    HW2 4173   2.496   2.904   5.350
 1092SOL     OW 4174   1.750   3.647   0.413
 1092SOL    HW1 4175   1.775   3.743   0.395
 1092SOL    HW2 4176   1.736   3.634   0.511
 1093SOL     OW 4177   1.760   1.778   1.906
 1093SOL    HW1 4178   1.754   1.680   1.925
 1093SOL    HW2 4179   1.856   1.805   1.906
 1094SOL     OW 4180   1.012   5.960   3.771
 1094SOL    HW1 4181   1.039   5.983   3.677
 1094SOL    HW2 4182   0.949   6.029   3.805
 1095SOL     OW 4183   0.522   2.342   5.674
 1095SOL    HW1 4184   0.422   2.333   5.677
 1095SOL    HW2 4185   0.547   2.413   5.608
 1096SOL     OW 4186   3.327   4.656   1.740
 1096SOL    HW1 4187   3.420   4.665   1.777
 1096SOL    HW2 4188   3.308   4.560   1.721
 1097SOL     OW 4189   1.963   4.041   4.132
 1097SOL    HW1 4190   1.970   4.137   4.107
 1097SOL    HW2 4191   2.019   4.023   4.213
 1098SOL     OW 4192   4.863   3.190   1.073
 1098SOL    HW1 4193   4.882   3.281   1.036
 1098SOL    HW2 4194   4.893   3.186   1.169
 1099SOL     OW 4195   4.131   1.671   5.253
 1099SOL    HW1 4196   4.107   1.767   5.265
 1099SOL    HW2 4197   4.230   1.663   5.239
 1100SOL     OW 4198   3.474   1.740   6.552
 1100SOL    HW1 4199   3.411   1.687   6.609
 1100SOL    HW2 4200   3.449   1.837   6.555
 1101SOL     OW 4201   6.367   2.148   0.237
 1101SOL    HW1 4202   6.385   2.156   0.335
 1101SOL    HW2 4203   6.375   2.052   0.209
 1102SOL     OW 4204   0.588   5.751   4.059
 1102SOL    HW1 4205   0.563   5.732   4.154
 1102SOL    HW2 4206   0.627   5.843   4.053
 1103SOL     OW 4207   3.302   1.564   0.839
 1103SOL    HW1 4208   3.326   1.647   0.789
 1103SOL    HW2 4209   3.385   1.512   0.860
 1104SOL     OW 4210   2.168   3.383   5.472
 1104SOL    HW1 4211   2.197   3.289   5.455
 1104SOL    HW2 4212   2.169   3.402   5.570
 1105SOL     OW 4213   6.080   3.572   4.858
 1105SOL    HW1 4214   6.058   3.545   4.764
 1105SOL    HW2 4215   6.043   3.504   4.922
 1106SOL     OW 4216   0.487   2.050   1.090
 1106SOL    HW1 4217   0.490   2.010   0.998
 1106SOL    HW2 4218   0.579   2.049   1.129
 1107SOL     OW 4219   2.055   0.375   6.159
 1107SOL    HW1 4220   2.019   0.468   6.172
 1107SOL    HW2 4221   2.021   0.316   6.232
 1108SOL     OW 4222   2.988   1.070   5.916
 1108SOL    HW1 4223   3.066   1.032   5.866
 1108SOL    HW2 4224   3.012   1.159   5.954
 1109SOL     OW 4225   4.389   6.575   4.668
 1109SOL    HW1 4226   4.292   6.556   4.654
 1109SOL    HW2 4227   4.401   6.669   4.698
 1110SOL     OW 4228   2.967   2.041   2.881
 1110SOL    HW1 4229   2.894   1.977   2.904
 1110SOL    HW2 4230   3.050   1.990   2.859
 1111SOL     OW 4231   4.815   5.073   0.071
 1111SOL    HW1 4232   4.772   5.158   0.102
 1111SOL    HW2 4233   4.891   5.094   0.009
 1112SOL     OW 4234   6.287   1.165   2.425
 1112SOL    HW1 4235   6.279   1.119   2.337
 1112SOL    HW2 4236   6.352   1.116   2.483
 1113SOL     OW 4237   0.297   3.881   3.172
 1113SOL    HW1 4238   0.210   3.833   3.165
 1113SOL    HW2 4239   0.342   3.883   3.083
 1114SOL     OW 4240   4.555   1.609   6.493
 1114SOL    HW1 4241   4.576   1.528   6.547
 1114SOL    HW2 4242   4.624   1.620   6.421
 1115SOL     OW 4243   4.040   2.763   0.449
 1115SOL    HW1 4244   4.037   2.767   0.349
 1115SOL    HW2 4245   4.034   2.855   0.486
 1116SOL     OW 4246   5.388   5.957   5.386
 1116SOL    HW1 4247   5.467   5.944   5.446
 1116SOL    HW2 4248   5.356   5.868   5.354
 1117SOL     OW 4249   1.722   2.413   1.455
 1117SOL    HW1 4250   1.712   2.328   1.507
 1117SOL    HW2 4251   1.765   2.393   1.367
 1118SOL     OW 4252   2.348   4.090   1.483
 1118SOL    HW1 4253   2.347   4.092   1.583
 1118SOL    HW2 4254   2.337   3.996   1.451
 1119SOL     OW 4255   4.784   4.623   0.930
 1119SOL    HW1 4256   4.726   4.632   1.012
 1119SOL    HW2 4257   4.807   4.527   0.918
 1120SOL     OW 4258   5.762   6.774   4.948
 1120SOL    HW1 4259   5.776   6.863   4.990
 1120SOL    HW2 4260   5.846   6.720   4.955
 1121SOL     OW 4261   5.529   4.697   2.592
 1121SOL    HW1 4262   5.534   4.600   2.616
 1121SOL    HW2 4263   5.589   4.749   2.653
 1122SOL     OW 4264   4.408   3.202   6.797
 1122SOL    HW1 4265   4.344   3.274   6.768
 1122SOL    HW2 4266   4.386   3.117   6.749
 1123SOL     OW 4267   5.133   1.910   3.176
 1123SOL    HW1 4268   5.231   1.899   3.195
 1123SOL    HW2 4269   5.090   1.820   3.166
 1124SOL     OW 4270   6.243   4.348   5.055
 1124SOL    HW1 4271   6.310   4.415   5.089
 1124SOL    HW2 4272   6.164   4.347   5.116
 1125SOL     OW 4273   3.224   1.602   4.744
 1125SOL    HW1 4274   3.164   1.672   4.704
 1125SOL    HW2 4275   3.301   1.586   4.683
 1126SOL     OW 4276   5.469   6.135   0.140
 1126SOL    HW1 4277   5.510   6.044   0.135
 1126SOL    HW2 4278   5.530   6.202   0.099
 1127SOL     OW 4279   5.239   5.245   5.391
 1127SOL    HW1 4280   5.228   5.168   5.328
 1127SOL    HW2 4281   5.301   5.218   5.465
 1128SOL     OW 4282   5.326   2.284   5.366
 1128SOL    HW1 4283   5.406   2.339   5.392
 1128SOL    HW2 4284   5.279   2.253   5.448
 1129SOL     OW 4285   3.539   0.540   6.623
 1129SOL    HW1 4286   3.488   0.612   6.576
 1129SOL    HW2 4287   3.543   0.459   6.565
 1130SOL     OW 4288   1.951   4.618   1.117
 1130SOL    HW1 4289   1.939   4.640   1.213
 1130SOL    HW2 4290   1.924   4.696   1.061
 1131SOL     OW 4291   0.397   6.286   6.090
 1131SOL    HW1 4292   0.314   6.232   6.102
 1131SOL    HW2 4293   0.477   6.230   6.110
 1132SOL     OW 4294   5.202   7.011   1.267
 1132SOL    HW1 4295   5.153   0.022   1.187
 1132SOL    HW2 4296   5.159   0.023   1.350
 1133SOL     OW 4297   0.821   1.135   0.912
 1133SOL    HW1 4298   0.798   1.039   0.898
 1133SOL    HW2 4299   0.742   1.183   0.950
 1134SOL     OW 4300   4.854   1.186   1.672
 1134SOL    HW1 4301   4.949   1.216   1.658
 1134SOL    HW2 4302   4.800   1.262   1.709
 1135SOL     OW 4303   1.993   1.403   2.884
 1135SOL    HW1 4304   1.952   1.421   2.795
 1135SOL    HW2 4305   1.994   1.487   2.938
 1136SOL     OW 4306   3.586   5.346   4.896
 1136SOL    HW1 4307   3.621   5.439   4.910
 1136SOL    HW2 4308   3.571   5.303   4.984
 1137SOL     OW 4309   1.487   1.971   6.130
 1137SOL    HW1 4310   1.464   1.875   6.116
 1137SOL    HW2 4311   1.466   1.997   6.224
 1138SOL     OW 4312   0.395   1.421   6.693
 1138SOL    HW1 4313   0.467   1.473   6.740
 1138SOL    HW2 4314   0.418   1.413   6.596
 1139SOL     OW 4315   3.101   5.608   1.167
 1139SOL    HW1 4316   3.167   5.677   1.197
 1139SOL    HW2 4317   3.134   5.517   1.191
 1140SOL     OW 4318   3.468   1.118   2.096
 1140SOL    HW1 4319   3.408   1.051   2.053
 1140SOL    HW2 4320   3.448   1.209   2.060
 1141SOL     OW 4321   6.914   6.465   6.586
 1141SOL    HW1 4322   6.869   6.539   6.536
 1141SOL    HW2 4323   6.870   6.453   6.675
 1142SOL     OW 4324   3.486   0.572   4.171
 1142SOL    HW1 4325   3.565   0.633   4.177
 1142SOL    HW2 4326   3.431   0.581   4.253
 1143SOL     OW 4327   1.985   3.420   1.937
 1143SOL    HW1 4328   2.083   3.433   1.950
 1143SOL    HW2 4329   1.967   3.325   1.912
 1144SOL     OW 4330   6.183   4.845   5.600
 1144SOL    HW1 4331   6.248   4.802   5.538
 1144SOL    HW2 4332   6.126   4.775   5.643
 1145SOL     OW 4333   0.533   4.503   2.314
 1145SOL    HW1 4334   0.521   4.465   2.222
 1145SOL    HW2 4335   0.514   4.432   2.382
 1146SOL     OW 4336   6.151   0.703   1.544
 1146SOL    HW1 4337   6.159   0.797   1.578
 1146SOL    HW2 4338   6.203   0.642   1.604
 1147SOL     OW 4339   1.429   4.250   1.042
 1147SOL    HW1 4340   1.346   4.243   0.987
 1147SOL    HW2 4341   1.509   4.245   0.981
 1148SOL     OW 4342   4.803   6.730   6.492
 1148SOL    HW1 4343   4.735   6.797   6.462
 1148SOL    HW2 4344   4.767   6.638   6.480
 1149SOL     OW 4345   6.292   4.492   2.946
 1149SOL    HW1 4346   6.389   4.483   2.969
 1149SOL    HW2 4347   6.277   4.459   2.852
 1150SOL     OW 4348   2.730   4.161   0.804
 1150SOL    HW1 4349   2.829   4.175   0.801
 1150SOL    HW2 4350   2.709   4.066   0.778
 1151SOL     OW 4351   5.193   5.083   6.427
 1151SOL    HW1 4352   5.138   5.040   6.355
 1151SOL    HW2 4353   5.169   5.044   6.515
 1152SOL     OW 4354   0.327   5.802   5.779
 1152SOL    HW1 4355   0.276   5.844   5.855
 1152SOL    HW2 4356   0.282   5.717   5.752
 1153SOL     OW 4357   2.229   0.183   2.509
 1153SOL    HW1 4358   2.306   0.180   2.445
 1153SOL    HW2 4359   2.185   0.272   2.505
 1154SOL     OW 4360   0.346   4.102   1.716
 1154SOL    HW1 4361   0.261   4.109   1.663
 1154SOL    HW2 4362   0.362   4.006   1.741
 1155SOL     OW 4363   2.499   4.995   6.954
 1155SOL    HW1 4364   2.439   4.945   7.017
 1155SOL    HW2 4365   2.460   5.085   6.935
 1156SOL     OW 4366   2.454   0.892   5.058
 1156SOL    HW1 4367   2.538   0.837   5.061
 1156SOL    HW2 4368   2.463   0.963   4.988
 1157SOL     OW 4369   6.295   0.646   5.278
 1157SOL    HW1 4370   6.258   0.568   5.329
 1157SOL    HW2 4371   6.270   0.638   5.182
 1158SOL     OW 4372   0.186   5.585   5.772
 1158SOL    HW1 4373   0.100   5.545   5.740
 1158SOL    HW2 4374   0.216   5.536   5.854
 1159SOL     OW 4375   4.965   6.979   3.407
 1159SOL    HW1 4376   4.907   6.897   3.412
 1159SOL    HW2 4377   4.907   0.036   3.394
 1160SOL     OW 4378   4.013   3.306   1.468
 1160SOL    HW1 4379   4.091   3.285   1.411
 1160SOL    HW2 4380   3.949   3.365   1.418
 1161SOL     OW 4381   5.142   0.249   6.101
 1161SOL    HW1 4382   5.157   0.241   6.002
 1161SOL    HW2 4383   5.048   0.281   6.118
 1162SOL     OW 4384   2.940   2.569   6.958
 1162SOL    HW1 4385   3.014   2.631   6.983
 1162SOL    HW2 4386   2.860   2.587   7.015
 1163SOL     OW 4387   6.906   3.157   1.784
 1163SOL    HW1 4388   6.868   3.244   1.754
 1163SOL    HW2 4389   6.861   3.128   1.869
 1164SOL     OW 4390   5.316   2.224   4.262
 1164SOL    HW1 4391   5.272   2.283   4.329
 1164SOL    HW2 4392   5.388   2.274   4.215
 1165SOL     OW 4393   2.045   4.769   4.670
 1165SOL    HW1 4394   2.012   4.755   4.577
 1165SOL    HW2 4395   2.079   4.682   4.707
 1166SOL     OW 4396   3.752   0.381   0.697
 1166SOL    HW1 4397   3.841   0.360   0.656
 1166SOL    HW2 4398   3.752   0.476   0.731
 1167SOL     OW 4399   3.443   6.736   6.428
 1167SOL    HW1 4400   3.489   6.804   6.485
 1167SOL    HW2 4401   3.480   6.645   6.449
 1168SOL     OW 4402   6.161   1.791   3.512
 1168SOL    HW1 4403   6.186   1.885   3.536
 1168SOL    HW2 4404   6.226   1.756   3.444
 1169SOL     OW 4405   5.767   2.925   6.623
 1169SOL    HW1 4406   5.695   2.944   6.556
 1169SOL    HW2 4407   5.855   2.954   6.586
 1170SOL     OW 4408   5.709   0.829   2.237
 1170SOL    HW1 4409   5.637   0.896   2.253
 1170SOL    HW2 4410   5.689   0.779   2.153
 1171SOL     OW 4411   2.882   6.736   6.964
 1171SOL    HW1 4412   2.897   6.730   6.865
 1171SOL    HW2 4413   2.969   6.752   7.010
 1172SOL     OW 4414   3.333   3.762   1.900
 1172SOL    HW1 4415   3.318   3.849   1.853
 1172SOL    HW2 4416   3.423   3.726   1.875
 1173SOL     OW 4417   3.146   0.178   5.645
 1173SOL    HW1 4418   3.108   0.098   5.691
 1173SOL    HW2 4419   3.123   0.174   5.548
 1174SOL     OW 4420   3.119   4.318   0.562
 1174SOL    HW1 4421   3.091   4.260   0.639
 1174SOL    HW2 4422   3.218   4.332   0.566
 1175SOL     OW 4423   3.795   2.946   6.785
 1175SOL    HW1 4424   3.799   2.982   6.692
 1175SOL    HW2 4425   3.752   3.014   6.845
 1176SOL     OW 4426   5.582   4.662   0.926
 1176SOL    HW1 4427   5.558   4.567   0.949
 1176SOL    HW2 4428   5.657   4.662   0.860
 1177SOL     OW 4429   6.708   1.720   6.277
 1177SOL    HW1 4430   6.717   1.630   6.234
 1177SOL    HW2 4431   6.751   1.718   6.367
 1178SOL     OW 4432   3.743   3.725   1.196
 1178SOL    HW1 4433   3.691   3.792   1.143
 1178SOL    HW2 4434   3.786   3.659   1.134
 1179SOL     OW 4435   3.053   5.385   0.461
 1179SOL    HW1 4436   3.087   5.412   0.371
 1179SOL    HW2 4437   2.973   5.325   0.450
 1180SOL     OW 4438   2.432   6.879   4.063
 1180SOL    HW1 4439   2.471   6.918   3.980
 1180SOL    HW2 4440   2.340   6.845   4.044
 1181SOL     OW 4441   6.908   2.803   5.068
 1181SOL    HW1 4442   6.886   2.759   5.155
 1181SOL    HW2 4443   6.929   2.734   5.000
 1182SOL     OW 4444   2.654   5.354   3.680
 1182SOL    HW1 4445   2.735   5.411   3.664
 1182SOL    HW2 4446   2.657   5.274   3.620
 1183SOL     OW 4447   3.747   6.549   1.560
 1183SOL    HW1 4448   3.696   6.635   1.568
 1183SOL    HW2 4449   3.789   6.544   1.469
 1184SOL     OW 4450   4.151   0.367   5.929
 1184SOL    HW1 4451   4.217   0.408   5.992
 1184SOL    HW2 4452   4.198   0.299   5.872
 1185SOL     OW 4453   1.725   6.786   0.949
 1185SOL    HW1 4454   1.765   6.739   0.870
 1185SOL    HW2 4455   1.625   6.785   0.942
 1186SOL     OW 4456   5.803   5.973   6.370
 1186SOL    HW1 4457   5.739   6.044   6.401
 1186SOL    HW2 4458   5.874   6.014   6.313
 1187SOL     OW 4459   5.644   6.895   5.415
 1187SOL    HW1 4460   5.627   6.951   5.496
 1187SOL    HW2 4461   5.558   6.859   5.380
 1188SOL     OW 4462   3.359   5.905   6.579
 1188SOL    HW1 4463   3.400   5.837   6.640
 1188SOL    HW2 4464   3.431   5.955   6.532
 1189SOL     OW 4465   5.973   0.932   2.175
 1189SOL    HW1 4466   5.895   0.873   2.196
 1189SOL    HW2 4467   5.945   1.027   2.178
 1190SOL     OW 4468   3.900   4.840   4.240
 1190SOL    HW1 4469   3.971   4.774   4.215
 1190SOL    HW2 4470   3.939   4.912   4.297
 1191SOL     OW 4471   3.397   6.251   4.636
 1191SOL    HW1 4472   3.397   6.237   4.537
 1191SOL    HW2 4473   3.369   6.345   4.656
 1192SOL     OW 4474   5.539   6.042   2.950
 1192SOL    HW1 4475   5.501   6.095   3.026
 1192SOL    HW2 4476   5.468   6.025   2.882
 1193SOL     OW 4477   0.144   0.496   5.931
 1193SOL    HW1 4478   0.050   0.468   5.950
 1193SOL    HW2 4479   0.188   0.428   5.872
 1194SOL     OW 4480   6.724   1.835   0.917
 1194SOL    HW1 4481   6.657   1.869   0.851
 1194SOL    HW2 4482   6.737   1.904   0.989
 1195SOL     OW 4483   6.545   3.386   1.350
 1195SOL    HW1 4484   6.493   3.381   1.265
 1195SOL    HW2 4485   6.517   3.311   1.410
 1196SOL     OW 4486   6.452   5.004   1.814
 1196SOL    HW1 4487   6.399   4.935   1.863
 1196SOL    HW2 4488   6.492   4.963   1.732
 1197SOL     OW 4489   4.480   6.459   4.375
 1197SOL    HW1 4490   4.455   6.420   4.464
 1197SOL    HW2 4491   4.406   6.441   4.310
 1198SOL     OW 4492   1.484   3.278   2.263
 1198SOL    HW1 4493   1.493   3.218   2.342
 1198SOL    HW2 4494   1.430   3.359   2.289
 1199SOL     OW 4495   3.826   3.476   3.379
 1199SOL    HW1 4496   3.869   3.551   3.329
 1199SOL    HW2 4497   3.895   3.408   3.404
 1200SOL     OW 4498   3.836   3.864   4.735
 1200SOL    HW1 4499   3.805   3.782   4.783
 1200SOL    HW2 4500   3.874   3.839   4.646
 1201SOL     OW 4501   6.918   1.283   4.559
 1201SOL    HW1 4502   6.942   1.344   4.484
 1201SOL    HW2 4503   6.819   1.265   4.557
 1202SOL     OW 4504   6.027   1.061   5.962
 1202SOL    HW1 4505   6.073   1.119   5.894
 1202SOL    HW2 4506   6.079   1.064   6.048
 1203SOL     OW 4507   0.024   6.767   1.124
 1203SOL    HW1 4508   0.039   6.711   1.205
 1203SOL    HW2 4509   6.970   6.729   1.072
 1204SOL     OW 4510   4.537   1.689   1.733
 1204SOL    HW1 4511   4.615   1.731   1.778
 1204SOL    HW2 4512   4.458   1.691   1.795
 1205SOL     OW 4513   4.364   3.019   0.138
 1205SOL    HW1 4514   4.366   2.934   0.085
 1205SOL    HW2 4515   4.382   3.097   0.077
 1206SOL     OW 4516   1.385   2.291   4.781
 1206SOL    HW1 4517   1.414   2.358   4.713
 1206SOL    HW2 4518   1.292   2.312   4.811
 1207SOL     OW 4519   0.280   0.203   0.001
 1207SOL    HW1 4520   0.367   0.242   0.031
 1207SOL    HW2 4521   0.245   0.256   6.947
 1208SOL     OW 4522   3.483   3.922   1.623
 1208SOL    HW1 4523   3.402   3.864   1.631
 1208SOL    HW2 4524   3.565   3.866   1.625
 1209SOL     OW 4525   5.730   0.705   4.209
 1209SOL    HW1 4526   5.643   0.720   4.256
 1209SOL    HW2 4527   5.750   0.608   4.207
 1210SOL     OW 4528   4.189   0.118   3.525
 1210SOL    HW1 4529   4.192   0.018   3.514
 1210SOL    HW2 4530   4.132   0.140   3.604
 1211SOL     OW 4531   1.071   3.288   3.706
 1211SOL    HW1 4532   1.149   3.252   3.653
 1211SOL    HW2 4533   1.100   3.368   3.757
 1212SOL     OW 4534   6.651   1.033   5.626
 1212SOL    HW1 4535   6.728   1.077   5.581
 1212SOL    HW2 4536   6.585   1.002   5.558
 1213SOL     OW 4537   5.741   2.757   3.196
 1213SOL    HW1 4538   5.772   2.823   3.128
 1213SOL    HW2 4539   5.642   2.759   3.202
 1214SOL     OW 4540   0.342   2.158   6.089
 1214SOL    HW1 4541   0.379   2.068   6.067
 1214SOL    HW2 4542   0.266   2.148   6.154
 1215SOL     OW 4543   2.496   5.497   2.403
 1215SOL    HW1 4544   2.495   5.400   2.381
 1215SOL    HW2 4545   2.503   5.509   2.502
 1216SOL     OW 4546   0.215   0.935   0.094
 1216SOL    HW1 4547   0.173   0.950   0.004
 1216SOL    HW2 4548   0.291   0.999   0.105
 1217SOL     OW 4549   3.239   5.146   1.079
 1217SOL    HW1 4550   3.196   5.193   1.002
 1217SOL    HW2 4551   3.332   5.181   1.092
 1218SOL     OW 4552   0.774   3.789   5.885
 1218SOL    HW1 4553   0.845   3.754   5.946
 1218SOL    HW2 4554   0.730   3.712   5.837
 1219SOL     OW 4555   5.074   5.753   1.612
 1219SOL    HW1 4556   5.027   5.665   1.604
 1219SOL    HW2 4557   5.045   5.799   1.696
 1220SOL     OW 4558   6.543   4.353   2.961
 1220SOL    HW1 4559   6.593   4.317   3.040
 1220SOL    HW2 4560   6.580   4.313   2.877
 1221SOL     OW 4561   5.389   3.670   6.172
 1221SOL    HW1 4562   5.427   3.655   6.263
 1221SOL    HW2 4563   5.293   3.696   6.179
 1222SOL     OW 4564   0.661   0.708   0.233
 1222SOL    HW1 4565   0.680   0.771   0.309
 1222SOL    HW2 4566   0.580   0.654   0.254
 1223SOL     OW 4567   3.784   1.464   0.238
 1223SOL    HW1 4568   3.818   1.496   0.326
 1223SOL    HW2 4569   3.781   1.540   0.173
 1224SOL     OW 4570   2.695   5.498   0.451
 1224SOL    HW1 4571   2.776   5.517   0.395
 1224SOL    HW2 4572   2.634   5.436   0.402
 1225SOL     OW 4573   4.035   2.397   0.569
 1225SOL    HW1 4574   4.019   2.331   0.496
 1225SOL    HW2 4575   3.956   2.398   0.630
 1226SOL     OW 4576   4.623   6.316   0.462
 1226SOL    HW1 4577   4.670   6.251   0.523
 1226SOL    HW2 4578   4.542   6.273   0.424
 1227SOL     OW 4579   5.084   5.089   6.988
 1227SOL    HW1 4580   5.142   5.079   0.046
 1227SOL    HW2 4581   5.141   5.106   6.908
 1228SOL     OW 4582   3.439   3.068   0.399
 1228SOL    HW1 4583   3.385   2.985   0.408
 1228SOL    HW2 4584   3.491   3.084   0.483
 1229SOL     OW 4585   1.889   5.574   0.874
 1229SOL    HW1 4586   1.851   5.541   0.961
 1229SOL    HW2 4587   1.865   5.670   0.862
 1230SOL     OW 4588   5.593   5.572   2.503
 1230SOL    HW1 4589   5.565   5.639   2.572
 1230SOL    HW2 4590   5.649   5.617   2.434
 1231SOL     OW 4591   1.364   1.483   5.564
 1231SOL    HW1 4592   1.423   1.405   5.584
 1231SOL    HW2 4593   1.304   1.461   5.488
 1232SOL     OW 4594   5.705   1.354   5.215
 1232SOL    HW1 4595   5.704   1.453   5.198
 1232SOL    HW2 4596   5.696   1.337   5.313
 1233SOL     OW 4597   0.534   5.652   4.855
 1233SOL    HW1 4598   0.462   5.604   4.804
 1233SOL    HW2 4599   0.528   5.627   4.951
 1234SOL     OW 4600   6.285   2.269   5.262
 1234SOL    HW1 4601   6.260   2.366   5.260
 1234SOL    HW2 4602   6.275   2.233   5.355
 1235SOL     OW 4603   6.315   4.829   0.876
 1235SOL    HW1 4604   6.305   4.929   0.876
 1235SOL    HW2 4605   6.404   4.805   0.914
 1236SOL     OW 4606   4.011   1.112   2.262
 1236SOL    HW1 4607   4.016   1.065   2.350
 1236SOL    HW2 4608   3.979   1.048   2.192
 1237SOL     OW 4609   1.259   5.412   5.381
 1237SOL    HW1 4610   1.357   5.432   5.385
 1237SOL    HW2 4611   1.243   5.339   5.315
 1238SOL     OW 4612   0.816   0.327   4.974
 1238SOL    HW1 4613   0.890   0.261   4.961
 1238SOL    HW2 4614   0.752   0.292   5.043
 1239SOL     OW 4615   6.956   0.091   5.684
 1239SOL    HW1 4616   6.990   0.142   5.763
 1239SOL    HW2 4617   6.877   0.036   5.712
 1240SOL     OW 4618   6.087   5.283   1.569
 1240SOL    HW1 4619   6.040   5.197   1.553
 1240SOL    HW2 4620   6.053   5.326   1.653
 1241SOL     OW 4621   5.810   4.997   4.854
 1241SOL    HW1 4622   5.910   4.998   4.843
 1241SOL    HW2 4623   5.783   4.917   4.907
 1242SOL     OW 4624   2.055   3.535   0.587
 1242SOL    HW1 4625   2.113   3.604   0.628
 1242SOL    HW2 4626   2.000   3.490   0.658
 1243SOL     OW 4627   0.538   1.259   4.794
 1243SOL    HW1 4628   0.585   1.347   4.786
 1243SOL    HW2 4629   0.443   1.270   4.763
 1244SOL     OW 4630   5.262   6.193   5.340
 1244SOL    HW1 4631   5.308   6.275   5.375
 1244SOL    HW2 4632   5.321   6.113   5.356
 1245SOL     OW 4633   5.816   4.637   0.166
 1245SOL    HW1 4634   5.842   4.684   0.251
 1245SOL    HW2 4635   5.717   4.635   0.159
 1246SOL     OW 4636   3.051   1.757   2.661
 1246SOL    HW1 4637   2.997   1.677   2.686
 1246SOL    HW2 4638   3.017   1.795   2.576
 1247SOL     OW 4639   5.816   6.973   5.818
 1247SOL    HW1 4640   5.752   6.904   5.854
 1247SOL    HW2 4641   5.821   0.027   5.881
 1248SOL     OW 4642   1.568   6.031   4.141
 1248SOL    HW1 4643   1.478   6.076   4.137
 1248SOL    HW2 4644   1.582   5.977   4.059
 1249SOL     OW 4645   0.238   3.319   1.275
 1249SOL    HW1 4646   0.253   3.224   1.247
 1249SOL    HW2 4647   0.225   3.323   1.374
 1250SOL     OW 4648   6.028   4.278   3.608
 1250SOL    HW1 4649   5.964   4.302   3.535
 1250SOL    HW2 4650   6.085   4.358   3.630
 1251SOL     OW 4651   1.714   0.962   2.975
 1251SOL    HW1 4652   1.618   0.941   2.992
 1251SOL    HW2 4653   1.721   1.043   2.917
 1252SOL     OW 4654   3.738   4.585   6.515
 1252SOL    HW1 4655   3.828   4.612   6.549
 1252SOL    HW2 4656   3.737   4.591   6.415
 1253SOL     OW 4657   2.303   0.835   2.547
 1253SOL    HW1 4658   2.277   0.932   2.551
 1253SOL    HW2 4659   2.398   0.827   2.520
 1254SOL     OW 4660   0.196   2.653   3.918
 1254SOL    HW1 4661   0.171   2.562   3.886
 1254SOL    HW2 4662   0.193   2.655   4.018
 1255SOL     OW 4663   5.461   2.240   6.230
 1255SOL    HW1 4664   5.392   2.197   6.172
 1255SOL    HW2 4665   5.494   2.324   6.186
 1256SOL     OW 4666   0.421   6.248   3.921
 1256SOL    HW1 4667   0.489   6.195   3.972
 1256SOL    HW2 4668   0.410   6.338   3.963
 1257SOL     OW 4669   7.011   4.848   4.361
 1257SOL    HW1 4670   6.962   4.785   4.421
 1257SOL    HW2 4671   6.945   4.905   4.313
 1258SOL     OW 4672   2.357   5.002   3.160
 1258SOL    HW1 4673   2.356   5.033   3.065
 1258SOL    HW2 4674   2.267   5.019   3.201
 1259SOL     OW 4675   3.572   6.296   4.840
 1259SOL    HW1 4676   3.663   6.272   4.806
 1259SOL    HW2 4677   3.503   6.261   4.777
 1260SOL     OW 4678   2.651   1.380   0.972
 1260SOL    HW1 4679   2.576   1.438   0.940
 1260SOL    HW2 4680   2.613   1.293   1.004
 1261SOL     OW 4681   6.936   4.914   6.951
 1261SOL    HW1 4682   7.012   4.854   6.930
 1261SOL    HW2 4683   6.969   5.008   6.963
 1262SOL     OW 4684   5.232   5.287   1.199
 1262SOL    HW1 4685   5.216   5.188   1.210
 1262SOL    HW2 4686   5.324   5.302   1.164
 1263SOL     OW 4687   6.918   2.137   1.446
 1263SOL    HW1 4688   6.983   2.109   1.517
 1263SOL    HW2 4689   6.857   2.207   1.483
 1264SOL     OW 4690   6.973   3.579   1.456
 1264SOL    HW1 4691   7.002   3.540   1.544
 1264SOL    HW2 4692   6.909   3.654   1.472
 1265SOL     OW 4693   6.093   5.149   3.471
 1265SOL    HW1 4694   6.016   5.177   3.529
 1265SOL    HW2 4695   6.133   5.230   3.428
 1266SOL     OW 4696   0.860   1.181   4.154
 1266SOL    HW1 4697   0.864   1.152   4.059
 1266SOL    HW2 4698   0.901   1.111   4.213
 1267SOL     OW 4699   5.478   6.791   1.018
 1267SOL    HW1 4700   5.569   6.780   1.058
 1267SOL    HW2 4701   5.472   6.879   0.971
 1268SOL     OW 4702   4.633   2.319   0.400
 1268SOL    HW1 4703   4.567   2.384   0.438
 1268SOL    HW2 4704   4.631   2.234   0.453
 1269SOL     OW 4705   5.667   6.520   6.091
 1269SOL    HW1 4706   5.612   6.445   6.054
 1269SOL    HW2 4707   5.746   6.483   6.139
 1270SOL     OW 4708   2.124   3.571   4.440
 1270SOL    HW1 4709   2.140   3.495   4.378
 1270SOL    HW2 4710   2.114   3.537   4.533
 1271SOL     OW 4711   3.033   1.560   3.321
 1271SOL    HW1 4712   3.131   1.560   3.297
 1271SOL    HW2 4713   3.020   1.506   3.405
 1272SOL     OW 4714   5.929   5.747   0.201
 1272SOL    HW1 4715   5.903   5.756   0.298
 1272SOL    HW2 4716   6.011   5.691   0.194
 1273SOL     OW 4717   0.701   4.494   0.172
 1273SOL    HW1 4718   0.795   4.516   0.146
 1273SOL    HW2 4719   0.700   4.438   0.255
 1274SOL     OW 4720   6.541   2.815   1.705
 1274SOL    HW1 4721   6.482   2.863   1.769
 1274SOL    HW2 4722   6.485   2.763   1.640
 1275SOL     OW 4723   3.241   1.128   4.215
 1275SOL    HW1 4724   3.210   1.193   4.146
 1275SOL    HW2 4725   3.200   1.038   4.196
 1276SOL     OW 4726   6.911   0.640   4.718
 1276SOL    HW1 4727   6.963   0.717   4.682
 1276SOL    HW2 4728   6.895   0.574   4.644
 1277SOL     OW 4729   1.179   6.561   6.191
 1277SOL    HW1 4730   1.145   6.550   6.098
 1277SOL    HW2 4731   1.183   6.472   6.236
 1278SOL     OW 4732   0.867   0.606   5.111
 1278SOL    HW1 4733   0.832   0.522   5.068
 1278SOL    HW2 4734   0.791   0.665   5.136
 1279SOL     OW 4735   3.445   5.503   0.421
 1279SOL    HW1 4736   3.379   5.431   0.444
 1279SOL    HW2 4737   3.479   5.545   0.505
 1280SOL     OW 4738   3.621   6.581   4.166
 1280SOL    HW1 4739   3.573   6.528   4.096
 1280SOL    HW2 4740   3.564   6.588   4.248
 1281SOL     OW 4741   1.761   5.802   2.762
 1281SOL    HW1 4742   1.767   5.871   2.834
 1281SOL    HW2 4743   1.848   5.751   2.757
 1282SOL     OW 4744   0.612   1.090   6.558
 1282SOL    HW1 4745   0.695   1.068   6.610
 1282SOL    HW2 4746   0.633   1.090   6.461
 1283SOL     OW 4747   5.794   2.947   4.975
 1283SOL    HW1 4748   5.881   2.988   4.946
 1283SOL    HW2 4749   5.776   2.865   4.921
 1284SOL     OW 4750   4.902   1.231   2.277
 1284SOL    HW1 4751   4.992   1.210   2.316
 1284SOL    HW2 4752   4.831   1.193   2.335
 1285SOL     OW 4753   4.769   3.032   6.712
 1285SOL    HW1 4754   4.753   2.939   6.744
 1285SOL    HW2 4755   4.845   3.072   6.763
 1286SOL     OW 4756   4.794   3.463   1.805
 1286SOL    HW1 4757   4.802   3.363   1.803
 1286SOL    HW2 4758   4.704   3.490   1.770
 1287SOL     OW 4759   5.092   4.511   5.801
 1287SOL    HW1 4760   5.105   4.453   5.882
 1287SOL    HW2 4761   4.995   4.530   5.789
 1288SOL     OW 4762   5.078   3.725   0.621
 1288SOL    HW1 4763   5.173   3.751   0.605
 1288SOL    HW2 4764   5.029   3.719   0.534
 1289SOL     OW 4765   0.687   5.909   2.180
 1289SOL    HW1 4766   0.699   5.994   2.129
 1289SOL    HW2 4767   0.724   5.920   2.272
 1290SOL     OW 4768   1.271   0.271   6.666
 1290SOL    HW1 4769   1.314   0.283   6.755
 1290SOL    HW2 4770   1.341   0.247   6.599
 1291SOL     OW 4771   0.067   3.879   5.587
 1291SOL    HW1 4772   0.018   3.966   5.586
 1291SOL    HW2 4773   0.165   3.897   5.580
 1292SOL     OW 4774   0.132   6.150   2.318
 1292SOL    HW1 4775   0.163   6.138   2.412
 1292SOL    HW2 4776   0.172   6.234   2.280
 1293SOL     OW 4777   1.266   1.422   6.698
 1293SOL    HW1 4778   1.340   1.442   6.762
 1293SOL    HW2 4779   1.286   1.463   6.609
 1294SOL     OW 4780   1.292   3.931   6.971
 1294SOL    HW1 4781   1.299   4.028   6.994
 1294SOL    HW2 4782   1.260   3.921   6.877
 1295SOL     OW 4783   0.053   3.537   2.565
 1295SOL    HW1 4784   7.007   3.495   2.623
 1295SOL    HW2 4785   0.065   3.633   2.591
 1296SOL     OW 4786   3.346   0.504   5.547
 1296SOL    HW1 4787   3.389   0.489   5.458
 1296SOL    HW2 4788   3.401   0.461   5.619
 1297SOL     OW 4789   5.411   0.669   1.007
 1297SOL    HW1 4790   5.392   0.714   1.094
 1297SOL    HW2 4791   5.341   0.694   0.940
 1298SOL     OW 4792   6.727   4.988   2.685
 1298SOL    HW1 4793   6.716   5.056   2.756
 1298SOL    HW2 4794   6.745   4.898   2.726
 1299SOL     OW 4795   0.838   3.843   3.177
 1299SOL    HW1 4796   0.785   3.846   3.262
 1299SOL    HW2 4797   0.785   3.883   3.103
 1300SOL     OW 4798   3.620   3.497   2.049
 1300SOL    HW1 4799   3.617   3.413   2.103
 1300SOL    HW2 4800   3.564   3.567   2.093
 1301SOL     OW 4801   0.237   5.388   1.723
 1301SOL    HW1 4802   0.322   5.362   1.676
 1301SOL    HW2 4803   0.258   5.446   1.801
 1302SOL     OW 4804   3.863   0.361   5.577
 1302SOL    HW1 4805   3.845   0.371   5.479
 1302SOL    HW2 4806   3.799   0.295   5.616
 1303SOL     OW 4807   4.661   1.198   2.037
 1303SOL    HW1 4808   4.717   1.214   1.956
 1303SOL    HW2 4809   4.682   1.267   2.106
 1304SOL     OW 4810   1.490   1.219   6.639
 1304SOL    HW1 4811   1.394   1.217   6.668
 1304SOL    HW2 4812   1.548   1.185   6.713
 1305SOL     OW 4813   4.310   2.896   6.781
 1305SOL    HW1 4814   4.382   2.898   6.851
 1305SOL    HW2 4815   4.234   2.954   6.810
 1306SOL     OW 4816   0.554   4.305   5.353
 1306SOL    HW1 4817   0.557   4.369   5.430
 1306SOL    HW2 4818   0.627   4.328   5.288
 1307SOL     OW 4819   0.953   3.633   5.409
 1307SOL    HW1 4820   0.916   3.721   5.379
 1307SOL    HW2 4821   1.049   3.627   5.382
 1308SOL     OW 4822   4.773   6.085   4.927
 1308SOL    HW1 4823   4.781   6.045   4.836
 1308SOL    HW2 4824   4.705   6.159   4.924
 1309SOL     OW 4825   4.921   3.140   5.344
 1309SOL    HW1 4826   4.873   3.215   5.299
 1309SOL    HW2 4827   4.865   3.105   5.420
 1310SOL     OW 4828   0.284   3.810   5.346
 1310SOL    HW1 4829   0.327   3.724   5.370
 1310SOL    HW2 4830   0.318   3.882   5.407
 1311SOL     OW 4831   0.209   0.703   4.203
 1311SOL    HW1 4832   0.168   0.661   4.122
 1311SOL    HW2 4833   0.151   0.687   4.282
 1312SOL     OW 4834   1.126   0.531   6.625
 1312SOL    HW1 4835   1.042   0.479   6.614
 1312SOL    HW2 4836   1.194   0.475   6.673
 1313SOL     OW 4837   1.624   4.258   4.294
 1313SOL    HW1 4838   1.625   4.180   4.231
 1313SOL    HW2 4839   1.539   4.310   4.281
 1314SOL     OW 4840   3.848   1.020   5.716
 1314SOL    HW1 4841   3.757   1.038   5.677
 1314SOL    HW2 4842   3.892   0.946   5.665
 1315SOL     OW 4843   0.666   0.834   0.474
 1315SOL    HW1 4844   0.691   0.766   0.543
 1315SOL    HW2 4845   0.698   0.924   0.503
 1316SOL     OW 4846   1.742   6.407   4.735
 1316SOL    HW1 4847   1.714   6.488   4.787
 1316SOL    HW2 4848   1.661   6.358   4.704
 1317SOL     OW 4849   1.652   3.904   5.275
 1317SOL    HW1 4850   1.682   3.979   5.216
 1317SOL    HW2 4851   1.643   3.938   5.369
 1318SOL     OW 4852   0.940   0.858   0.669
 1318SOL    HW1 4853   1.001   0.780   0.681
 1318SOL    HW2 4854   0.983   0.925   0.608
 1319SOL     OW 4855   0.124   1.004   6.608
 1319SOL    HW1 4856   0.034   1.017   6.568
 1319SOL    HW2 4857   0.177   1.088   6.600
 1320SOL     OW 4858   5.384   3.763   0.722
 1320SOL    HW1 4859   5.351   3.683   0.672
 1320SOL    HW2 4860   5.329   3.777   0.804
 1321SOL     OW 4861   4.721   2.411   5.796
 1321SOL    HW1 4862   4.750   2.503   5.822
 1321SOL    HW2 4863   4.651   2.379   5.861
 1322SOL     OW 4864   4.048   0.766   3.955
 1322SOL    HW1 4865   4.008   0.704   4.022
 1322SOL    HW2 4866   4.146   0.776   3.972
 1323SOL     OW 4867   4.958   1.715   4.952
 1323SOL    HW1 4868   4.873   1.664   4.942
 1323SOL    HW2 4869   4.940   1.813   4.948
 1324SOL     OW 4870   0.999   2.657   6.973
 1324SOL    HW1 4871   1.056   2.714   6.914
 1324SOL    HW2 4872   0.953   2.715   0.018
 1325SOL     OW 4873   1.878   6.792   2.224
 1325SOL    HW1 4874   1.871   6.716   2.288
 1325SOL    HW2 4875   1.802   6.855   2.239
 1326SOL     OW 4876   4.797   3.063   4.670
 1326SOL    HW1 4877   4.893   3.033   4.668
 1326SOL    HW2 4878   4.791   3.157   4.639
 1327SOL     OW 4879   1.629   4.277   1.542
 1327SOL    HW1 4880   1.667   4.254   1.632
 1327SOL    HW2 4881   1.532   4.300   1.552
 1328SOL     OW 4882   1.778   2.810   0.830
 1328SOL    HW1 4883   1.843   2.791   0.757
 1328SOL    HW2 4884   1.818   2.876   0.894
 1329SOL     OW 4885   1.287   2.528   0.814
 1329SOL    HW1 4886   1.373   2.575   0.794
 1329SOL    HW2 4887   1.220   2.548   0.742
 1330SOL     OW 4888   6.771   1.069   1.541
 1330SOL    HW1 4889   6.713   1.038   1.467
 1330SOL    HW2 4890   6.788   1.167   1.532
 1331SOL     OW 4891   4.698   2.388   3.041
 1331SOL    HW1 4892   4.672   2.477   3.003
 1331SOL    HW2 4893   4.636   2.363   3.115
 1332SOL     OW 4894   2.624   6.848   6.970
 1332SOL    HW1 4895   2.710   6.804   6.944
 1332SOL    HW2 4896   2.583   6.799   0.023
 1333SOL     OW 4897   3.416   3.555   5.704
 1333SOL    HW1 4898   3.447   3.502   5.784
 1333SOL    HW2 4899   3.319   3.575   5.713
 1334SOL     OW 4900   6.295   2.322   4.440
 1334SOL    HW1 4901   6.331   2.230   4.458
 1334SOL    HW2 4902   6.355   2.389   4.483
 1335SOL     OW 4903   2.432   1.220   3.209
 1335SOL    HW1 4904   2.461   1.130   3.177
 1335SOL    HW2 4905   2.498   1.254   3.276
 1336SOL     OW 4906   1.989   1.655   5.810
 1336SOL    HW1 4907   1.939   1.582   5.857
 1336SOL    HW2 4908   1.979   1.740   5.862
 1337SOL     OW 4909   1.523   1.439   5.119
 1337SOL    HW1 4910   1.451   1.383   5.078
 1337SOL    HW2 4911   1.569   1.387   5.191
 1338SOL     OW 4912   5.659   2.468   6.535
 1338SOL    HW1 4913   5.563   2.439   6.541
 1338SOL    HW2 4914   5.674   2.547   6.594
 1339SOL     OW 4915   0.749   1.303   6.957
 1339SOL    HW1 4916   0.839   1.261   6.942
 1339SOL    HW2 4917   0.678   1.235   6.937
 1340SOL     OW 4918   0.629   2.126   1.999
 1340SOL    HW1 4919   0.602   2.080   1.914
 1340SOL    HW2 4920   0.615   2.065   2.076
 1341SOL     OW 4921   4.596   0.457   5.719
 1341SOL    HW1 4922   4.552   0.499   5.639
 1341SOL    HW2 4923   4.636   0.528   5.776
 1342SOL     OW 4924   1.633   4.693   6.330
 1342SOL    HW1 4925   1.657   4.774   6.276
 1342SOL    HW2 4926   1.640   4.612   6.273
 1343SOL     OW 4927   4.301   5.995   2.707
 1343SOL    HW1 4928   4.371   5.991   2.635
 1343SOL    HW2 4929   4.279   6.090   2.728
 1344SOL     OW 4930   6.980   4.876   3.849
 1344SOL    HW1 4931   6.895   4.837   3.885
 1344SOL    HW2 4932   0.033   4.854   3.911
 1345SOL     OW 4933   1.524   1.383   3.030
 1345SOL    HW1 4934   1.536   1.384   3.129
 1345SOL    HW2 4935   1.427   1.377   3.008
 1346SOL     OW 4936   0.716   6.524   4.635
 1346SOL    HW1 4937   0.669   6.607   4.603
 1346SOL    HW2 4938   0.691   6.507   4.731
 1347SOL     OW 4939   6.589   6.153   4.090
 1347SOL    HW1 4940   6.503   6.106   4.068
 1347SOL    HW2 4941   6.569   6.242   4.132
 1348SOL     OW 4942   5.278   4.778   2.535
 1348SOL    HW1 4943   5.369   4.736   2.541
 1348SOL    HW2 4944   5.288   4.877   2.522
 1349SOL     OW 4945   4.879   1.960   6.523
 1349SOL    HW1 4946   4.845   1.875   6.563
 1349SOL    HW2 4947   4.957   1.939   6.464
 1350SOL     OW 4948   5.133   4.022   6.801
 1350SOL    HW1 4949   5.083   4.021   6.715
 1350SOL    HW2 4950   5.089   4.084   6.865
 1351SOL     OW 4951   6.604   2.070   3.202
 1351SOL    HW1 4952   6.602   2.130   3.122
 1351SOL    HW2 4953   6.517   2.077   3.251
 1352SOL     OW 4954   6.808   0.001   2.769
 1352SOL    HW1 4955   6.865   0.083   2.766
 1352SOL    HW2 4956   6.812   6.984   2.860
 1353SOL     OW 4957   6.934   3.896   6.223
 1353SOL    HW1 4958   6.882   3.888   6.308
 1353SOL    HW2 4959   6.874   3.930   6.151
 1354SOL     OW 4960   0.601   2.205   0.377
 1354SOL    HW1 4961   0.571   2.288   0.329
 1354SOL    HW2 4962   0.691   2.221   0.418
 1355SOL     OW 4963   0.221   2.259   5.639
 1355SOL    HW1 4964   0.169   2.215   5.712
 1355SOL    HW2 4965   0.173   2.342   5.609
 1356SOL     OW 4966   2.981   3.399   3.303
 1356SOL    HW1 4967   2.973   3.350   3.390
 1356SOL    HW2 4968   2.992   3.497   3.321
 1357SOL     OW 4969   1.285   4.131   5.495
 1357SOL    HW1 4970   1.250   4.180   5.574
 1357SOL    HW2 4971   1.250   4.037   5.495
 1358SOL     OW 4972   4.047   1.274   6.025
 1358SOL    HW1 4973   4.060   1.196   6.086
 1358SOL    HW2 4974   4.088   1.356   6.065
 1359SOL     OW 4975   6.669   4.690   1.479
 1359SOL    HW1 4976   6.672   4.674   1.578
 1359SOL    HW2 4977   6.606   4.765   1.459
 1360SOL     OW 4978   4.346   3.784   1.181
 1360SOL    HW1 4979   4.254   3.752   1.156
 1360SOL    HW2 4980   4.363   3.765   1.278
 1361SOL     OW 4981   0.444   6.014   5.631
 1361SOL    HW1 4982   0.403   5.934   5.676
 1361SOL    HW2 4983   0.375   6.087   5.625
 1362SOL     OW 4984   2.920   3.723   4.296
 1362SOL    HW1 4985   2.959   3.816   4.295
 1362SOL    HW2 4986   2.825   3.727   4.325
 1363SOL     OW 4987   6.854   5.733   3.605
 1363SOL    HW1 4988   6.927   5.794   3.572
 1363SOL    HW2 4989   6.770   5.750   3.554
 1364SOL     OW 4990   6.806   2.604   0.643
 1364SOL    HW1 4991   6.736   2.572   0.579
 1364SOL    HW2 4992   6.869   2.666   0.595
 1365SOL     OW 4993   1.060   2.988   5.657
 1365SOL    HW1 4994   1.130   3.005   5.727
 1365SOL    HW2 4995   1.012   3.073   5.636
 1366SOL     OW 4996   0.535   4.311   0.597
 1366SOL    HW1 4997   0.614   4.285   0.542
 1366SOL    HW2 4998   0.490   4.391   0.556
 1367SOL     OW 4999   1.769   5.815   2.482
 1367SOL    HW1 5000   1.771   5.718   2.460
 1367SOL    HW2 5001   1.766   5.827   2.582
 1368SOL     OW 5002   0.168   6.785   3.693
 1368SOL    HW1 5003   0.233   6.836   3.749
 1368SOL    HW2 5004   0.165   6.825   3.601
 1369SOL     OW 5005   2.079   6.986   2.554
 1369SOL    HW1 5006   2.140   0.035   2.521
 1369SOL    HW2 5007   1.984   7.015   2.544
 1370SOL     OW 5008   4.614   2.016   2.974
 1370SOL    HW1 5009   4.520   2.040   2.950
 1370SOL    HW2 5010   4.637   1.928   2.933
 1371SOL     OW 5011   5.786   1.272   4.736
 1371SOL    HW1 5012   5.867   1.305   4.785
 1371SOL    HW2 5013   5.767   1.178   4.763
 1372SOL     OW 5014   1.271   2.387   0.331
 1372SOL    HW1 5015   1.251   2.359   0.425
 1372SOL    HW2 5016   1.195   2.360   0.271
 1373SOL     OW 5017   4.403   2.507   0.259
 1373SOL    HW1 5018   4.372   2.550   0.175
 1373SOL    HW2 5019   4.446   2.576   0.318
 1374SOL     OW 5020   4.150   2.065   1.082
 1374SOL    HW1 5021   4.138   2.099   1.175
 1374SOL    HW2 5022   4.117   2.133   1.017
 1375SOL     OW 5023   0.223   6.076   6.193
 1375SOL    HW1 5024   0.260   6.138   6.263
 1375SOL    HW2 5025   0.134   6.043   6.222
 1376SOL     OW 5026   4.589   4.527   5.245
 1376SOL    HW1 5027   4.607   4.456   5.177
 1376SOL    HW2 5028   4.646   4.510   5.326
 1377SOL     OW 5029   0.647   3.775   4.964
 1377SOL    HW1 5030   0.562   3.744   4.922
 1377SOL    HW2 5031   0.709   3.697   4.976
 1378SOL     OW 5032   5.641   1.516   4.657
 1378SOL    HW1 5033   5.657   1.591   4.721
 1378SOL    HW2 5034   5.683   1.433   4.692
 1379SOL     OW 5035   4.028   6.227   3.238
 1379SOL    HW1 5036   3.986   6.255   3.324
 1379SOL    HW2 5037   4.121   6.263   3.232
 1380SOL     OW 5038   0.687   6.959   3.732
 1380SOL    HW1 5039   0.728   0.008   3.676
 1380SOL    HW2 5040   0.636   6.896   3.673
 1381SOL     OW 5041   6.064   1.629   0.942
 1381SOL    HW1 5042   6.018   1.693   0.880
 1381SOL    HW2 5043   6.007   1.549   0.955
 1382SOL     OW 5044   5.626   3.359   1.202
 1382SOL    HW1 5045   5.660   3.321   1.116
 1382SOL    HW2 5046   5.537   3.402   1.187
 1383SOL     OW 5047   0.848   0.580   2.191
 1383SOL    HW1 5048   0.764   0.539   2.227
 1383SOL    HW2 5049   0.826   0.664   2.143
 1384SOL     OW 5050   4.553   0.599   1.690
 1384SOL    HW1 5051   4.550   0.651   1.605
 1384SOL    HW2 5052   4.510   0.651   1.763
 1385SOL     OW 5053   2.932   4.855   3.434
 1385SOL    HW1 5054   2.965   4.913   3.509
 1385SOL    HW2 5055   2.840   4.821   3.457
 1386SOL     OW 5056   2.964   1.087   4.044
 1386SOL    HW1 5057   2.934   1.178   4.072
 1386SOL    HW2 5058   3.055   1.093   4.003
 1387SOL     OW 5059   3.598   5.789   2.937
 1387SOL    HW1 5060   3.565   5.834   3.020
 1387SOL    HW2 5061   3.528   5.797   2.865
 1388SOL     OW 5062   0.295   0.863   2.800
 1388SOL    HW1 5063   0.393   0.876   2.783
 1388SOL    HW2 5064   0.257   0.801   2.733
 1389SOL     OW 5065   6.456   1.230   3.768
 1389SOL    HW1 5066   6.456   1.321   3.726
 1389SOL    HW2 5067   6.440   1.238   3.866
 1390SOL     OW 5068   6.296   2.678   6.021
 1390SOL    HW1 5069   6.290   2.777   6.027
 1390SOL    HW2 5070   6.337   2.641   6.105
 1391SOL     OW 5071   6.495   6.920   5.109
 1391SOL    HW1 5072   6.427   6.983   5.071
 1391SOL    HW2 5073   6.473   6.902   5.205
 1392SOL     OW 5074   6.065   6.716   5.870
 1392SOL    HW1 5075   6.120   6.766   5.803
 1392SOL    HW2 5076   6.105   6.626   5.885
 1393SOL     OW 5077   6.800   4.348   6.191
 1393SOL    HW1 5078   6.740   4.308   6.259
 1393SOL    HW2 5079   6.881   4.387   6.236
 1394SOL     OW 5080   3.944   5.652   5.690
 1394SOL    HW1 5081   3.949   5.557   5.722
 1394SOL    HW2 5082   3.998   5.662   5.607
 1395SOL     OW 5083   1.730   4.780   4.947
 1395SOL    HW1 5084   1.700   4.842   5.020
 1395SOL    HW2 5085   1.735   4.831   4.861
 1396SOL     OW 5086   6.877   1.456   5.044
 1396SOL    HW1 5087   6.853   1.415   4.956
 1396SOL    HW2 5088   6.847   1.396   5.118
 1397SOL     OW 5089   0.578   6.322   4.928
 1397SOL    HW1 5090   0.675   6.322   4.904
 1397SOL    HW2 5091   0.561   6.390   4.999
 1398SOL     OW 5092   2.936   1.013   6.380
 1398SOL    HW1 5093   2.906   1.032   6.287
 1398SOL    HW2 5094   2.888   1.074   6.444
 1399SOL     OW 5095   3.997   5.232   0.513
 1399SOL    HW1 5096   3.903   5.198   0.520
 1399SOL    HW2 5097   4.039   5.233   0.604
 1400SOL     OW 5098   0.423   1.603   4.175
 1400SOL    HW1 5099   0.501   1.644   4.222
 1400SOL    HW2 5100   0.440   1.505   4.162
 1401SOL     OW 5101   6.587   6.968   4.221
 1401SOL    HW1 5102   6.635   6.985   4.307
 1401SOL    HW2 5103   6.645   6.911   4.162
 1402SOL     OW 5104   5.279   3.715   6.496
 1402SOL    HW1 5105   5.256   3.811   6.511
 1402SOL    HW2 5106   5.375   3.707   6.471
 1403SOL     OW 5107   2.657   1.817   0.781
 1403SOL    HW1 5108   2.717   1.807   0.860
 1403SOL    HW2 5109   2.694   1.887   0.720
 1404SOL     OW 5110   6.640   0.364   6.315
 1404SOL    HW1 5111   6.736   0.344   6.332
 1404SOL    HW2 5112   6.617   0.343   6.220
 1405SOL     OW 5113   2.521   3.093   0.626
 1405SOL    HW1 5114   2.518   2.995   0.641
 1405SOL    HW2 5115   2.507   3.113   0.529
 1406SOL     OW 5116   0.887   5.761   0.949
 1406SOL    HW1 5117   0.841   5.705   0.880
 1406SOL    HW2 5118   0.851   5.739   1.039
 1407SOL     OW 5119   0.831   3.609   3.942
 1407SOL    HW1 5120   0.817   3.698   3.900
 1407SOL    HW2 5121   0.922   3.606   3.985
 1408SOL     OW 5122   5.007   1.815   5.893
 1408SOL    HW1 5123   4.962   1.749   5.953
 1408SOL    HW2 5124   4.950   1.897   5.885
 1409SOL     OW 5125   0.127   0.310   5.671
 1409SOL    HW1 5126   0.220   0.282   5.695
 1409SOL    HW2 5127   0.068   0.230   5.669
 1410SOL     OW 5128   1.504   4.223   6.421
 1410SOL    HW1 5129   1.405   4.210   6.420
 1410SOL    HW2 5130   1.532   4.256   6.511
 1411SOL     OW 5131   3.318   6.743   0.375
 1411SOL    HW1 5132   3.290   6.836   0.352
 1411SOL    HW2 5133   3.359   6.700   0.295
 1412SOL     OW 5134   1.354   2.847   1.207
 1412SOL    HW1 5135   1.316   2.766   1.162
 1412SOL    HW2 5136   1.319   2.929   1.163
 1413SOL     OW 5137   2.224   1.449   4.902
 1413SOL    HW1 5138   2.303   1.492   4.857
 1413SOL    HW2 5139   2.163   1.412   4.832
 1414SOL     OW 5140   1.938   1.719   2.190
 1414SOL    HW1 5141   1.892   1.636   2.160
 1414SOL    HW2 5142   1.891   1.756   2.271
 1415SOL     OW 5143   1.922   1.211   4.888
 1415SOL    HW1 5144   1.934   1.309   4.904
 1415SOL    HW2 5145   1.829   1.194   4.853
 1416SOL     OW 5146   4.358   5.784   4.465
 1416SOL    HW1 5147   4.418   5.705   4.478
 1416SOL    HW2 5148   4.396   5.844   4.396
 1417SOL     OW 5149   2.899   2.553   0.433
 1417SOL    HW1 5150   2.873   2.650   0.437
 1417SOL    HW2 5151   2.984   2.544   0.380
 1418SOL     OW 5152   3.204   3.752   2.529
 1418SOL    HW1 5153   3.133   3.692   2.568
 1418SOL    HW2 5154   3.163   3.840   2.504
 1419SOL     OW 5155   3.049   6.125   3.954
 1419SOL    HW1 5156   3.057   6.220   3.923
 1419SOL    HW2 5157   2.981   6.077   3.898
 1420SOL     OW 5158   2.583   6.329   2.382
 1420SOL    HW1 5159   2.638   6.355   2.462
 1420SOL    HW2 5160   2.642   6.287   2.314
 1421SOL     OW 5161   2.101   4.891   3.824
 1421SOL    HW1 5162   2.082   4.888   3.726
 1421SOL    HW2 5163   2.195   4.921   3.839
 1422SOL     OW 5164   1.118   3.975   6.746
 1422SOL    HW1 5165   1.159   3.972   6.655
 1422SOL    HW2 5166   1.086   4.067   6.765
 1423SOL     OW 5167   4.642   6.710   4.359
 1423SOL    HW1 5168   4.576   6.636   4.373
 1423SOL    HW2 5169   4.725   6.673   4.317
 1424SOL     OW 5170   6.318   3.735   6.250
 1424SOL    HW1 5171   6.271   3.723   6.162
 1424SOL    HW2 5172   6.308   3.652   6.304
 1425SOL     OW 5173   2.101   5.357   6.058
 1425SOL    HW1 5174   2.065   5.272   6.020
 1425SOL    HW2 5175   2.201   5.354   6.060
 1426SOL     OW 5176   2.562   2.930   6.958
 1426SOL    HW1 5177   2.558   3.029   6.973
 1426SOL    HW2 5178   2.588   2.911   6.863
 1427SOL     OW 5179   7.010   0.146   3.669
 1427SOL    HW1 5180   0.075   0.164   3.626
 1427SOL    HW2 5181   6.937   0.177   3.609
 1428SOL     OW 5182   0.629   2.029   0.018
 1428SOL    HW1 5183   0.620   2.052   6.944
 1428SOL    HW2 5184   0.578   2.095   0.073
 1429SOL     OW 5185   5.015   1.237   6.894
 1429SOL    HW1 5186   5.087   1.290   6.849
 1429SOL    HW2 5187   5.056   1.167   6.952
 1430SOL     OW 5188   2.148   5.171   4.076
 1430SOL    HW1 5189   2.178   5.214   4.161
 1430SOL    HW2 5190   2.050   5.185   4.064
 1431SOL     OW 5191   2.763   2.179   0.106
 1431SOL    HW1 5192   2.701   2.248   0.144
 1431SOL    HW2 5193   2.829   2.223   0.045
 1432SOL     OW 5194   2.909   1.823   1.232
 1432SOL    HW1 5195   2.822   1.813   1.183
 1432SOL    HW2 5196   2.976   1.760   1.194
 1433SOL     OW 5197   4.715   0.714   5.375
 1433SOL    HW1 5198   4.770   0.763   5.307
 1433SOL    HW2 5199   4.671   0.635   5.332
 1434SOL     OW 5200   1.172   0.074   5.994
 1434SOL    HW1 5201   1.191   0.116   6.083
 1434SOL    HW2 5202   1.120   0.138   5.937
 1435SOL     OW 5203   6.782   6.778   3.525
 1435SOL    HW1 5204   6.847   6.761   3.599
 1435SOL    HW2 5205   6.697   6.728   3.543
 1436SOL     OW 5206   4.912   3.815   6.869
 1436SOL    HW1 5207   4.917   3.911   6.897
 1436SOL    HW2 5208   5.004   3.775   6.868
 1437SOL     OW 5209   3.105   1.902   5.361
 1437SOL    HW1 5210   3.131   1.985   5.311
 1437SOL    HW2 5211   3.048   1.845   5.303
 1438SOL     OW 5212   2.754   6.761   2.038
 1438SOL    HW1 5213   2.730   6.693   2.107
 1438SOL    HW2 5214   2.691   6.839   2.045
 1439SOL     OW 5215   6.586   4.913   0.539
 1439SOL    HW1 5216   6.620   4.879   0.626
 1439SOL    HW2 5217   6.550   5.006   0.551
 1440SOL     OW 5218   3.205   3.233   6.419
 1440SOL    HW1 5219   3.181   3.185   6.335
 1440SOL    HW2 5220   3.294   3.201   6.451
 1441SOL     OW 5221   6.251   2.027   4.010
 1441SOL    HW1 5222   6.162   1.982   4.020
 1441SOL    HW2 5223   6.316   1.988   4.076
 1442SOL     OW 5224   6.726   5.476   6.784
 1442SOL    HW1 5225   6.660   5.533   6.833
 1442SOL    HW2 5226   6.735   5.388   6.831
 1443SOL     OW 5227   0.631   2.979   4.150
 1443SOL    HW1 5228   0.651   3.029   4.066
 1443SOL    HW2 5229   0.705   2.994   4.216
 1444SOL     OW 5230   4.378   5.548   0.875
 1444SOL    HW1 5231   4.373   5.451   0.895
 1444SOL    HW2 5232   4.462   5.567   0.824
 1445SOL     OW 5233   0.320   3.443   2.580
 1445SOL    HW1 5234   0.230   3.486   2.575
 1445SOL    HW2 5235   0.312   3.347   2.553
 1446SOL     OW 5236   5.227   2.442   0.458
 1446SOL    HW1 5237   5.287   2.379   0.410
 1446SOL    HW2 5238   5.210   2.522   0.400
 1447SOL     OW 5239   6.169   6.889   5.493
 1447SOL    HW1 5240   6.119   6.928   5.570
 1447SOL    HW2 5241   6.107   6.836   5.436
 1448SOL     OW 5242   6.772   2.144   6.136
 1448SOL    HW1 5243   6.772   2.232   6.183
 1448SOL    HW2 5244   6.861   2.100   6.147
 1449SOL     OW 5245   0.951   1.017   0.246
 1449SOL    HW1 5246   0.861   1.050   0.276
 1449SOL    HW2 5247   0.955   0.918   0.255
 1450SOL     OW 5248   1.108   2.359   1.174
 1450SOL    HW1 5249   1.071   2.384   1.264
 1450SOL    HW2 5250   1.033   2.327   1.115
 1451SOL     OW 5251   1.834   0.488   2.063
 1451SOL    HW1 5252   1.924   0.448   2.050
 1451SOL    HW2 5253   1.819   0.559   1.993
 1452SOL     OW 5254   4.660   0.961   4.309
 1452SOL    HW1 5255   4.596   1.034   4.285
 1452SOL    HW2 5256   4.680   0.907   4.228
 1453SOL     OW 5257   6.970   4.407   5.679
 1453SOL    HW1 5258   6.989   4.312   5.702
 1453SOL    HW2 5259   6.903   4.444   5.744
 1454SOL     OW 5260   0.524   3.324   2.058
 1454SOL    HW1 5261   0.429   3.353   2.068
 1454SOL    HW2 5262   0.527   3.236   2.011
 1455SOL     OW 5263   0.574   1.006   1.557
 1455SOL    HW1 5264   0.480   1.040   1.565
 1455SOL    HW2 5265   0.635   1.081   1.533
 1456SOL     OW 5266   6.734   6.430   5.314
 1456SOL    HW1 5267   6.751   6.354   5.250
 1456SOL    HW2 5268   6.821   6.462   5.351
 1457SOL     OW 5269   1.585   6.645   1.954
 1457SOL    HW1 5270   1.510   6.612   1.898
 1457SOL    HW2 5271   1.549   6.686   2.037
 1458SOL     OW 5272   6.141   5.696   3.353
 1458SOL    HW1 5273   6.047   5.708   3.384
 1458SOL    HW2 5274   6.142   5.675   3.255
 1459SOL     OW 5275   3.178   5.648   5.878
 1459SOL    HW1 5276   3.128   5.663   5.792
 1459SOL    HW2 5277   3.119   5.670   5.955
 1460SOL     OW 5278   0.807   5.888   5.443
 1460SOL    HW1 5279   0.770   5.800   5.413
 1460SOL    HW2 5280   0.789   5.901   5.540
 1461SOL     OW 5281   6.643   5.344   3.065
 1461SOL    HW1 5282   6.575   5.379   3.000
 1461SOL    HW2 5283   6.604   5.345   3.157
 1462SOL     OW 5284   1.468   0.001   6.609
 1462SOL    HW1 5285   1.389   6.986   6.562
 1462SOL    HW2 5286   1.492   6.965   6.687
 1463SOL     OW 5287   0.093   6.381   6.831
 1463SOL    HW1 5288   0.035   6.331   6.766
 1463SOL    HW2 5289   0.036   6.432   6.895
 1464SOL     OW 5290   6.979   0.172   1.146
 1464SOL    HW1 5291   7.014   0.198   1.236
 1464SOL    HW2 5292   6.981   0.251   1.085
 1465SOL     OW 5293   1.595   1.364   3.290
 1465SOL    HW1 5294   1.629   1.270   3.291
 1465SOL    HW2 5295   1.603   1.403   3.382
 1466SOL     OW 5296   1.624   1.917   2.076
 1466SOL    HW1 5297   1.662   1.857   2.005
 1466SOL    HW2 5298   1.699   1.954   2.131
 1467SOL     OW 5299   1.636   2.002   2.920
 1467SOL    HW1 5300   1.575   1.988   2.998
 1467SOL    HW2 5301   1.583   2.009   2.836
 1468SOL     OW 5302   4.429   6.000   2.263
 1468SOL    HW1 5303   4.366   5.940   2.214
 1468SOL    HW2 5304   4.496   6.037   2.198
 1469SOL     OW 5305   0.908   1.514   1.519
 1469SOL    HW1 5306   0.865   1.428   1.492
 1469SOL    HW2 5307   0.985   1.534   1.459
 1470SOL     OW 5308   1.319   1.787   2.658
 1470SOL    HW1 5309   1.230   1.746   2.679
 1470SOL    HW2 5310   1.308   1.854   2.584
 1471SOL     OW 5311   1.137   0.165   1.228
 1471SOL    HW1 5312   1.072   0.202   1.295
 1471SOL    HW2 5313   1.138   0.224   1.147
 1472SOL     OW 5314   3.751   5.943   5.921
 1472SOL    HW1 5315   3.684   6.013   5.893
 1472SOL    HW2 5316   3.829   5.988   5.964
 1473SOL     OW 5317   4.978   6.220   4.629
 1473SOL    HW1 5318   4.933   6.215   4.718
 1473SOL    HW2 5319   5.018   6.131   4.607
 1474SOL     OW 5320   5.448   5.176   2.133
 1474SOL    HW1 5321   5.350   5.183   2.153
 1474SOL    HW2 5322   5.485   5.093   2.175
 1475SOL     OW 5323   6.322   0.151   2.249
 1475SOL    HW1 5324   6.255   0.206   2.299
 1475SOL    HW2 5325   6.363   0.206   2.177
 1476SOL     OW 5326   2.761   1.145   1.340
 1476SOL    HW1 5327   2.840   1.084   1.343
 1476SOL    HW2 5328   2.792   1.239   1.355
 1477SOL     OW 5329   4.048   6.968   6.340
 1477SOL    HW1 5330   4.148   6.966   6.339
 1477SOL    HW2 5331   4.016   0.039   6.342
 1478SOL     OW 5332   6.469   5.700   6.917
 1478SOL    HW1 5333   6.392   5.682   6.856
 1478SOL    HW2 5334   6.544   5.741   6.866
 1479SOL     OW 5335   2.010   2.293   0.181
 1479SOL    HW1 5336   1.976   2.204   0.150
 1479SOL    HW2 5337   2.109   2.296   0.172
 1480SOL     OW 5338   3.291   0.772   5.408
 1480SOL    HW1 5339   3.251   0.819   5.329
 1480SOL    HW2 5340   3.258   0.678   5.412
 1481SOL     OW 5341   6.706   2.650   5.868
 1481SOL    HW1 5342   6.776   2.688   5.928
 1481SOL    HW2 5343   6.733   2.662   5.773
 1482SOL     OW 5344   4.523   2.092   1.311
 1482SOL    HW1 5345   4.619   2.073   1.329
 1482SOL    HW2 5346   4.472   2.090   1.397
 1483SOL     OW 5347   5.247   1.704   0.271
 1483SOL    HW1 5348   5.209   1.684   0.361
 1483SOL    HW2 5349   5.254   1.803   0.259
 1484SOL     OW 5350   5.999   4.729   4.145
 1484SOL    HW1 5351   6.074   4.720   4.210
 1484SOL    HW2 5352   5.923   4.778   4.188
 1485SOL     OW 5353   3.676   1.509   3.400
 1485SOL    HW1 5354   3.633   1.579   3.343
 1485SOL    HW2 5355   3.769   1.493   3.369
 1486SOL     OW 5356   5.379   1.744   2.653
 1486SOL    HW1 5357   5.479   1.739   2.662
 1486SOL    HW2 5358   5.349   1.838   2.668
 1487SOL     OW 5359   6.789   2.307   6.364
 1487SOL    HW1 5360   6.810   2.365   6.442
 1487SOL    HW2 5361   6.732   2.231   6.393
 1488SOL     OW 5362   4.813   0.994   3.895
 1488SOL    HW1 5363   4.863   1.010   3.810
 1488SOL    HW2 5364   4.867   1.026   3.973
 1489SOL     OW 5365   4.537   5.410   4.777
 1489SOL    HW1 5366   4.563   5.364   4.692
 1489SOL    HW2 5367   4.608   5.476   4.802
 1490SOL     OW 5368   1.008   3.117   2.099
 1490SOL    HW1 5369   1.025   3.027   2.060
 1490SOL    HW2 5370   1.050   3.187   2.041
 1491SOL     OW 5371   6.461   3.717   2.959
 1491SOL    HW1 5372   6.418   3.675   2.879
 1491SOL    HW2 5373   6.518   3.793   2.929
 1492SOL     OW 5374   5.783   0.741   2.469
 1492SOL    HW1 5375   5.763   0.758   2.373
 1492SOL    HW2 5376   5.823   0.823   2.510
 1493SOL     OW 5377   4.100   6.209   4.979
 1493SOL    HW1 5378   4.197   6.187   4.983
 1493SOL    HW2 5379   4.046   6.125   4.982
 1494SOL     OW 5380   5.007   2.049   6.158
 1494SOL    HW1 5381   5.074   2.082   6.091
 1494SOL    HW2 5382   4.990   2.121   6.226
 1495SOL     OW 5383   7.021   3.019   4.597
 1495SOL    HW1 5384   6.981   3.092   4.652
 1495SOL    HW2 5385   0.032   3.058   4.511
 1496SOL     OW 5386   0.583   1.779   1.387
 1496SOL    HW1 5387   0.545   1.688   1.406
 1496SOL    HW2 5388   0.678   1.770   1.358
 1497SOL     OW 5389   6.282   3.086   3.005
 1497SOL    HW1 5390   6.298   3.049   3.097
 1497SOL    HW2 5391   6.340   3.165   2.990
 1498SOL     OW 5392   1.969   5.179   6.900
 1498SOL    HW1 5393   1.891   5.192   6.840
 1498SOL    HW2 5394   2.051   5.160   6.845
 1499SOL     OW 5395   1.063   2.598   6.209
 1499SOL    HW1 5396   1.003   2.571   6.134
 1499SOL    HW2 5397   1.140   2.651   6.173
 1500SOL     OW 5398   0.027   6.964   6.673
 1500SOL    HW1 5399   6.953   6.983   6.657
 1500SOL    HW2 5400   0.057   6.889   6.613
 1501SOL     OW 5401   5.342   2.895   6.483
 1501SOL    HW1 5402   5.252   2.878   6.443
 1501SOL    HW2 5403   5.412   2.849   6.427
 1502SOL     OW 5404   4.427   0.199   0.536
 1502SOL    HW1 5405   4.352   0.169   0.477
 1502SOL    HW2 5406   4.390   0.241   0.619
 1503SOL     OW 5407   0.573   3.924   1.270
 1503SOL    HW1 5408   0.589   3.953   1.175
 1503SOL    HW2 5409   0.477   3.901   1.282
 1504SOL     OW 5410   0.931   0.556   5.460
 1504SOL    HW1 5411   1.003   0.510   5.408
 1504SOL    HW2 5412   0.868   0.487   5.497
 1505SOL     OW 5413   5.580   1.032   5.823
 1505SOL    HW1 5414   5.520   1.000   5.750
 1505SOL    HW2 5415   5.526   1.049   5.905
 1506SOL     OW 5416   0.671   6.495   0.900
 1506SOL    HW1 5417   0.702   6.569   0.960
 1506SOL    HW2 5418   0.673   6.408   0.949
 1507SOL     OW 5419   0.995   1.950   5.222
 1507SOL    HW1 5420   1.040   1.998   5.147
 1507SOL    HW2 5421   0.910   1.909   5.189
 1508SOL     OW 5422   7.014   0.988   2.052
 1508SOL    HW1 5423   0.049   1.019   2.127
 1508SOL    HW2 5424   6.925   0.961   2.087
 1509SOL     OW 5425   3.872   1.796   6.067
 1509SOL    HW1 5426   3.942   1.756   6.008
 1509SOL    HW2 5427   3.915   1.838   6.147
 1510SOL     OW 5428   4.465   2.150   4.879
 1510SOL    HW1 5429   4.514   2.215   4.937
 1510SOL    HW2 5430   4.368   2.174   4.877
 1511SOL     OW 5431   3.693   3.148   2.000
 1511SOL    HW1 5432   3.736   3.058   2.000
 1511SOL    HW2 5433   3.612   3.147   1.942
 1512SOL     OW 5434   0.155   5.434   1.451
 1512SOL    HW1 5435   0.241   5.425   1.402
 1512SOL    HW2 5436   0.174   5.437   1.550
 1513SOL     OW 5437   3.696   0.876   3.963
 1513SOL    HW1 5438   3.711   0.854   3.867
 1513SOL    HW2 5439   3.739   0.964   3.985
 1514SOL     OW 5440   4.433   1.973   5.892
 1514SOL    HW1 5441   4.343   1.952   5.855
 1514SOL    HW2 5442   4.430   2.059   5.942
 1515SOL     OW 5443   5.952   2.282   3.516
 1515SOL    HW1 5444   5.903   2.347   3.575
 1515SOL    HW2 5445   5.887   2.213   3.482
 1516SOL     OW 5446   6.626   6.803   0.124
 1516SOL    HW1 5447   6.671   6.834   0.208
 1516SOL    HW2 5448   6.534   6.840   0.120
 1517SOL     OW 5449   4.501   6.225   3.321
 1517SOL    HW1 5450   4.434   6.257   3.254
 1517SOL    HW2 5451   4.460   6.152   3.376
 1518SOL     OW 5452   1.365   2.732   0.014
 1518SOL    HW1 5453   1.353   2.788   6.956
 1518SOL    HW2 5454   1.400   2.788   0.089
 1519SOL     OW 5455   6.605   5.025   1.554
 1519SOL    HW1 5456   6.688   5.072   1.584
 1519SOL    HW2 5457   6.528   5.089   1.555
 1520SOL     OW 5458   0.409   3.843   1.732
 1520SOL    HW1 5459   0.415   3.771   1.801
 1520SOL    HW2 5460   0.362   3.809   1.651
 1521SOL     OW 5461   1.678   3.813   6.279
 1521SOL    HW1 5462   1.698   3.887   6.344
 1521SOL    HW2 5463   1.644   3.734   6.329
 1522SOL     OW 5464   6.355   6.483   5.561
 1522SOL    HW1 5465   6.260   6.454   5.565
 1522SOL    HW2 5466   6.386   6.485   5.466
 1523SOL     OW 5467   5.264   5.455   0.971
 1523SOL    HW1 5468   5.336   5.397   0.934
 1523SOL    HW2 5469   5.190   5.399   1.007
 1524SOL     OW 5470   2.040   1.839   1.954
 1524SOL    HW1 5471   2.012   1.793   2.038
 1524SOL    HW2 5472   2.097   1.918   1.977
 1525SOL     OW 5473   6.665   2.317   0.324
 1525SOL    HW1 5474   6.760   2.308   0.292
 1525SOL    HW2 5475   6.605   2.331   0.245
 1526SOL     OW 5476   6.380   6.878   6.291
 1526SOL    HW1 5477   6.393   6.972   6.324
 1526SOL    HW2 5478   6.361   6.879   6.193
 1527SOL     OW 5479   3.025   1.479   5.226
 1527SOL    HW1 5480   3.039   1.409   5.295
 1527SOL    HW2 5481   2.992   1.437   5.141
 1528SOL     OW 5482   4.975   5.771   2.349
 1528SOL    HW1 5483   4.956   5.819   2.263
 1528SOL    HW2 5484   5.044   5.823   2.401
 1529SOL     OW 5485   3.765   0.843   0.499
 1529SOL    HW1 5486   3.802   0.810   0.586
 1529SOL    HW2 5487   3.716   0.768   0.453
 1530SOL     OW 5488   3.511   1.563   2.422
 1530SOL    HW1 5489   3.447   1.491   2.449
 1530SOL    HW2 5490   3.468   1.652   2.429
 1531SOL     OW 5491   4.523   1.228   5.026
 1531SOL    HW1 5492   4.508   1.144   5.079
 1531SOL    HW2 5493   4.607   1.219   4.972
 1532SOL     OW 5494   2.856   3.193   5.871
 1532SOL    HW1 5495   2.757   3.175   5.869
 1532SOL    HW2 5496   2.890   3.185   5.965
 1533SOL     OW 5497   6.121   3.673   6.777
 1533SOL    HW1 5498   6.095   3.585   6.816
 1533SOL    HW2 5499   6.086   3.747   6.834
 1534SOL     OW 5500   2.143   4.845   6.455
 1534SOL    HW1 5501   2.177   4.757   6.488
 1534SOL    HW2 5502   2.055   4.832   6.409
 1535SOL     OW 5503   5.356   6.436   3.565
 1535SOL    HW1 5504   5.258   6.416   3.568
 1535SOL    HW2 5505   5.376   6.515   3.621
 1536SOL     OW 5506   4.027   4.535   5.306
 1536SOL    HW1 5507   4.107   4.524   5.246
 1536SOL    HW2 5508   3.983   4.446   5.318
 1537SOL     OW 5509   4.347   6.915   3.430
 1537SOL    HW1 5510   4.413   6.937   3.501
 1537SOL    HW2 5511   4.327   6.817   3.432
 1538SOL     OW 5512   4.309   5.599   6.102
 1538SOL    HW1 5513   4.291   5.554   6.190
 1538SOL    HW2 5514   4.230   5.585   6.041
 1539SOL     OW 5515   3.868   4.017   1.776
 1539SOL    HW1 5516   3.859   3.950   1.850
 1539SOL    HW2 5517   3.808   4.095   1.793
 1540SOL     OW 5518   1.836   5.454   5.945
 1540SOL    HW1 5519   1.805   5.529   6.003
 1540SOL    HW2 5520   1.934   5.441   5.959
 1541SOL     OW 5521   4.023   3.202   3.147
 1541SOL    HW1 5522   3.998   3.136   3.218
 1541SOL    HW2 5523   3.940   3.246   3.112
 1542SOL     OW 5524   5.801   5.872   2.021
 1542SOL    HW1 5525   5.869   5.911   2.083
 1542SOL    HW2 5526   5.711   5.911   2.043
 1543SOL     OW 5527   3.767   4.678   5.302
 1543SOL    HW1 5528   3.810   4.589   5.310
 1543SOL    HW2 5529   3.837   4.748   5.288
 1544SOL     OW 5530   3.444   3.419   2.939
 1544SOL    HW1 5531   3.531   3.427   2.890
 1544SOL    HW2 5532   3.383   3.358   2.887
 1545SOL     OW 5533   4.647   0.775   3.963
 1545SOL    HW1 5534   4.604   0.755   3.874
 1545SOL    HW2 5535   4.716   0.847   3.951
 1546SOL     OW 5536   3.922   5.970   6.197
 1546SOL    HW1 5537   4.005   5.927   6.232
 1546SOL    HW2 5538   3.946   6.034   6.124
 1547SOL     OW 5539   1.452   3.321   3.283
 1547SOL    HW1 5540   1.421   3.414   3.304
 1547SOL    HW2 5541   1.479   3.316   3.187
 1548SOL     OW 5542   4.925   3.931   5.799
 1548SOL    HW1 5543   4.976   3.871   5.860
 1548SOL    HW2 5544   4.827   3.924   5.820
 1549SOL     OW 5545   4.841   1.144   2.899
 1549SOL    HW1 5546   4.902   1.065   2.906
 1549SOL    HW2 5547   4.849   1.183   2.807
 1550SOL     OW 5548   3.016   4.271   0.056
 1550SOL    HW1 5549   2.985   4.328   0.132
 1550SOL    HW2 5550   2.979   4.179   0.067
 1551SOL     OW 5551   2.143   4.555   6.035
 1551SOL    HW1 5552   2.172   4.460   6.033
 1551SOL    HW2 5553   2.063   4.565   6.094
 1552SOL     OW 5554   0.129   6.698   6.921
 1552SOL    HW1 5555   0.040   6.743   6.937
 1552SOL    HW2 5556   0.143   6.627   6.989
 1553SOL     OW 5557   0.102   1.301   5.497
 1553SOL    HW1 5558   0.061   1.275   5.410
 1553SOL    HW2 5559   0.099   1.223   5.560
 1554SOL     OW 5560   4.592   1.214   2.958
 1554SOL    HW1 5561   4.684   1.175   2.955
 1554SOL    HW2 5562   4.592   1.304   2.913
 1555SOL     OW 5563   5.356   1.780   6.819
 1555SOL    HW1 5564   5.281   1.845   6.806
 1555SOL    HW2 5565   5.349   1.706   6.752
 1556SOL     OW 5566   3.032   1.136   1.077
 1556SOL    HW1 5567   3.022   1.217   1.136
 1556SOL    HW2 5568   3.064   1.059   1.133
 1557SOL     OW 5569   1.629   1.152   6.403
 1557SOL    HW1 5570   1.605   1.232   6.348
 1557SOL    HW2 5571   1.597   1.165   6.497
 1558SOL     OW 5572   5.088   0.785   4.559
 1558SOL    HW1 5573   5.088   0.747   4.467
 1558SOL    HW2 5574   5.180   0.779   4.597
 1559SOL     OW 5575   6.923   2.816   6.716
 1559SOL    HW1 5576   7.012   2.787   6.752
 1559SOL    HW2 5577   6.856   2.817   6.790
 1560SOL     OW 5578   2.449   2.010   5.860
 1560SOL    HW1 5579   2.455   1.931   5.800
 1560SOL    HW2 5580   2.404   1.984   5.945
 1561SOL     OW 5581   6.357   6.461   4.642
 1561SOL    HW1 5582   6.316   6.460   4.551
 1561SOL    HW2 5583   6.288   6.439   4.710
 1562SOL     OW 5584   3.845   5.946   2.941
 1562SOL    HW1 5585   3.780   5.872   2.926
 1562SOL    HW2 5586   3.825   5.991   3.028
 1563SOL     OW 5587   2.302   0.307   6.062
 1563SOL    HW1 5588   2.212   0.322   6.103
 1563SOL    HW2 5589   2.319   0.208   6.055
 1564SOL     OW 5590   0.966   2.831   3.096
 1564SOL    HW1 5591   0.984   2.929   3.087
 1564SOL    HW2 5592   0.956   2.808   3.192
 1565SOL     OW 5593   4.261   5.096   4.714
 1565SOL    HW1 5594   4.204   5.173   4.743
 1565SOL    HW2 5595   4.228   5.012   4.758
 1566SOL     OW 5596   5.186   5.321   3.602
 1566SOL    HW1 5597   5.262   5.264   3.572
 1566SOL    HW2 5598   5.154   5.376   3.526
 1567SOL     OW 5599   5.960   5.963   6.838
 1567SOL    HW1 5600   5.936   5.973   6.934
 1567SOL    HW2 5601   5.878   5.971   6.781
 1568SOL     OW 5602   1.963   5.462   1.422
 1568SOL    HW1 5603   1.904   5.542   1.423
 1568SOL    HW2 5604   1.906   5.379   1.417
 1569SOL     OW 5605   3.171   6.712   3.596
 1569SOL    HW1 5606   3.169   6.735   3.498
 1569SOL    HW2 5607   3.235   6.637   3.611
 1570SOL     OW 5608   2.032   6.695   0.844
 1570SOL    HW1 5609   1.964   6.719   0.775
 1570SOL    HW2 5610   1.991   6.635   0.912
 1571SOL     OW 5611   6.133   1.377   2.234
 1571SOL    HW1 5612   6.155   1.300   2.174
 1571SOL    HW2 5613   6.194   1.375   2.313
 1572SOL     OW 5614   0.837   6.841   0.699
 1572SOL    HW1 5615   0.773   6.891   0.757
 1572SOL    HW2 5616   0.916   6.813   0.754
 1573SOL     OW 5617   6.172   3.734   1.975
 1573SOL    HW1 5618   6.262   3.708   2.010
 1573SOL    HW2 5619   6.113   3.757   2.052
 1574SOL     OW 5620   0.305   1.071   3.214
 1574SOL    HW1 5621   0.224   1.069   3.156
 1574SOL    HW2 5622   0.289   1.016   3.296
 1575SOL     OW 5623   3.197   2.062   0.879
 1575SOL    HW1 5624   3.121   1.998   0.885
 1575SOL    HW2 5625   3.215   2.100   0.970
 1576SOL     OW 5626   0.589   0.990   3.145
 1576SOL    HW1 5627   0.497   1.019   3.173
 1576SOL    HW2 5628   0.599   1.001   3.046
 1577SOL     OW 5629   2.812   0.535   5.247
 1577SOL    HW1 5630   2.875   0.482   5.303
 1577SOL    HW2 5631   2.801   0.491   5.158
 1578SOL     OW 5632   5.715   2.876   5.998
 1578SOL    HW1 5633   5.643   2.943   6.016
 1578SOL    HW2 5634   5.708   2.844   5.904
 1579SOL     OW 5635   0.813   1.887   2.446
 1579SOL    HW1 5636   0.776   1.954   2.510
 1579SOL    HW2 5637   0.912   1.891   2.447
 1580SOL     OW 5638   3.031   3.955   4.373
 1580SOL    HW1 5639   3.023   3.969   4.472
 1580SOL    HW2 5640   3.119   3.991   4.342
 1581SOL     OW 5641   6.918   4.473   5.414
 1581SOL    HW1 5642   6.963   4.391   5.379
 1581SOL    HW2 5643   6.937   4.483   5.511
 1582SOL     OW 5644   2.180   0.107   4.001
 1582SOL    HW1 5645   2.255   0.162   3.964
 1582SOL    HW2 5646   2.189   0.013   3.967
 1583SOL     OW 5647   1.035   4.816   3.273
 1583SOL    HW1 5648   1.014   4.828   3.176
 1583SOL    HW2 5649   1.065   4.903   3.312
 1584SOL     OW 5650   1.512   6.017   6.106
 1584SOL    HW1 5651   1.475   6.051   6.193
 1584SOL    HW2 5652   1.445   6.031   6.034
 1585SOL     OW 5653   5.494   1.311   3.278
 1585SOL    HW1 5654   5.510   1.250   3.356
 1585SOL    HW2 5655   5.493   1.257   3.194
 1586SOL     OW 5656   3.427   4.909   2.208
 1586SOL    HW1 5657   3.420   4.848   2.129
 1586SOL    HW2 5658   3.339   4.955   2.223
 1587SOL     OW 5659   3.392   5.567   6.237
 1587SOL    HW1 5660   3.460   5.524   6.296
 1587SOL    HW2 5661   3.347   5.642   6.286
 1588SOL     OW 5662   4.156   0.608   2.823
 1588SOL    HW1 5663   4.184   0.521   2.784
 1588SOL    HW2 5664   4.071   0.596   2.874
 1589SOL     OW 5665   6.321   3.247   1.884
 1589SOL    HW1 5666   6.268   3.221   1.803
 1589SOL    HW2 5667   6.261   3.292   1.950
 1590SOL     OW 5668   4.140   6.194   5.777
 1590SOL    HW1 5669   4.208   6.124   5.757
 1590SOL    HW2 5670   4.055   6.172   5.728
 1591SOL     OW 5671   6.875   5.426   2.280
 1591SOL    HW1 5672   6.914   5.456   2.367
 1591SOL    HW2 5673   6.937   5.451   2.206
 1592SOL     OW 5674   2.059   3.993   6.868
 1592SOL    HW1 5675   2.022   3.938   6.943
 1592SOL    HW2 5676   1.985   4.040   6.821
 1593SOL     OW 5677   1.459   6.476   5.273
 1593SOL    HW1 5678   1.430   6.467   5.368
 1593SOL    HW2 5679   1.486   6.571   5.255
 1594SOL     OW 5680   0.325   6.187   1.865
 1594SOL    HW1 5681   0.292   6.165   1.773
 1594SOL    HW2 5682   0.300   6.281   1.889
 1595SOL     OW 5683   1.336   5.715   0.495
 1595SOL    HW1 5684   1.336   5.785   0.565
 1595SOL    HW2 5685   1.277   5.639   0.523
 1596SOL     OW 5686   0.493   2.747   3.849
 1596SOL    HW1 5687   0.397   2.719   3.842
 1596SOL    HW2 5688   0.497   2.846   3.862
 1597SOL     OW 5689   1.459   6.093   0.394
 1597SOL    HW1 5690   1.494   6.000   0.408
 1597SOL    HW2 5691   1.425   6.103   0.301
 1598SOL     OW 5692   0.534   4.170   5.977
 1598SOL    HW1 5693   0.598   4.156   5.901
 1598SOL    HW2 5694   0.558   4.254   6.025
 1599SOL     OW 5695   5.012   4.765   5.234
 1599SOL    HW1 5696   4.955   4.711   5.172
 1599SOL    HW2 5697   5.050   4.706   5.305
 1600SOL     OW 5698   4.325   1.031   3.381
 1600SOL    HW1 5699   4.396   1.093   3.346
 1600SOL    HW2 5700   4.368   0.949   3.418
 1601SOL     OW 5701   0.042   4.526   4.687
 1601SOL    HW1 5702   0.128   4.547   4.641
 1601SOL    HW2 5703   6.997   4.596   4.664
 1602SOL     OW 5704   3.655   5.049   3.402
 1602SOL    HW1 5705   3.710   5.042   3.318
 1602SOL    HW2 5706   3.558   5.044   3.378
 1603SOL     OW 5707   1.038   6.277   3.271
 1603SOL    HW1 5708   1.122   6.232   3.238
 1603SOL    HW2 5709   0.963   6.211   3.270
 1604SOL     OW 5710   5.337   4.733   1.633
 1604SOL    HW1 5711   5.321   4.707   1.728
 1604SOL    HW2 5712   5.307   4.659   1.573
 1605SOL     OW 5713   6.444   5.567   1.510
 1605SOL    HW1 5714   6.463   5.574   1.608
 1605SOL    HW2 5715   6.513   5.509   1.467
 1606SOL     OW 5716   3.308   1.215   5.272
 1606SOL    HW1 5717   3.210   1.202   5.287
 1606SOL    HW2 5718   3.356   1.129   5.291
 1607SOL     OW 5719   4.500   0.764   1.070
 1607SOL    HW1 5720   4.590   0.735   1.103
 1607SOL    HW2 5721   4.476   0.852   1.112
 1608SOL     OW 5722   0.846   0.533   3.361
 1608SOL    HW1 5723   0.892   0.595   3.297
 1608SOL    HW2 5724   0.884   0.441   3.350
 1609SOL     OW 5725   4.156   0.107   0.492
 1609SOL    HW1 5726   4.105   0.057   0.561
 1609SOL    HW2 5727   4.133   0.072   0.401
 1610SOL     OW 5728   5.971   4.848   6.706
 1610SOL    HW1 5729   6.005   4.902   6.629
 1610SOL    HW2 5730   6.025   4.765   6.715
 1611SOL     OW 5731   2.014   3.380   1.032
 1611SOL    HW1 5732   1.983   3.312   1.097
 1611SOL    HW2 5733   2.103   3.415   1.060
 1612SOL     OW 5734   2.535   0.092   5.945
 1612SOL    HW1 5735   2.607   0.049   5.999
 1612SOL    HW2 5736   2.445   0.063   5.979
 1613SOL     OW 5737   1.950   5.267   1.862
 1613SOL    HW1 5738   2.025   5.282   1.796
 1613SOL    HW2 5739   1.863   5.263   1.813
 1614SOL     OW 5740   5.952   3.336   0.120
 1614SOL    HW1 5741   5.859   3.325   0.153
 1614SOL    HW2 5742   6.000   3.248   0.123
 1615SOL     OW 5743   5.870   5.123   0.846
 1615SOL    HW1 5744   5.919   5.153   0.764
 1615SOL    HW2 5745   5.838   5.029   0.834
 1616SOL     OW 5746   3.010   0.920   4.950
 1616SOL    HW1 5747   3.017   1.013   4.913
 1616SOL    HW2 5748   2.914   0.898   4.967
 1617SOL     OW 5749   5.782   0.218   2.526
 1617SOL    HW1 5750   5.813   0.284   2.595
 1617SOL    HW2 5751   5.814   0.127   2.550
 1618SOL     OW 5752   1.752   4.110   2.034
 1618SOL    HW1 5753   1.848   4.085   2.032
 1618SOL    HW2 5754   1.698   4.035   2.072
 1619SOL     OW 5755   1.384   3.454   1.893
 1619SOL    HW1 5756   1.290   3.423   1.910
 1619SOL    HW2 5757   1.447   3.402   1.950
 1620SOL     OW 5758   2.769   4.839   1.911
 1620SOL    HW1 5759   2.837   4.843   1.838
 1620SOL    HW2 5760   2.788   4.761   1.970
 1621SOL     OW 5761   6.986   0.909   0.204
 1621SOL    HW1 5762   0.058   0.913   0.171
 1621SOL    HW2 5763   6.947   0.820   0.183
 1622SOL     OW 5764   0.555   2.973   4.671
 1622SOL    HW1 5765   0.653   2.958   4.656
 1622SOL    HW2 5766   0.503   2.898   4.629
 1623SOL     OW 5767   2.161   3.090   4.931
 1623SOL    HW1 5768   2.168   3.148   4.849
 1623SOL    HW2 5769   2.248   3.043   4.945
 1624SOL     OW 5770   2.682   0.623   4.764
 1624SOL    HW1 5771   2.656   0.572   4.683
 1624SOL    HW2 5772   2.691   0.720   4.741
 1625SOL     OW 5773   1.027   5.460   0.956
 1625SOL    HW1 5774   1.048   5.371   0.995
 1625SOL    HW2 5775   0.933   5.461   0.922
 1626SOL     OW 5776   4.360   2.007   6.637
 1626SOL    HW1 5777   4.446   2.045   6.672
 1626SOL    HW2 5778   4.378   1.954   6.555
 1627SOL     OW 5779   6.356   3.930   3.083
 1627SOL    HW1 5780   6.293   3.983   3.025
 1627SOL    HW2 5781   6.382   3.846   3.036
 1628SOL     OW 5782   4.695   4.311   0.154
 1628SOL    HW1 5783   4.648   4.223   0.142
 1628SOL    HW2 5784   4.698   4.334   0.251
 1629SOL     OW 5785   2.642   0.630   3.962
 1629SOL    HW1 5786   2.713   0.560   3.964
 1629SOL    HW2 5787   2.672   0.710   4.014
 1630SOL     OW 5788   1.919   5.173   5.643
 1630SOL    HW1 5789   1.820   5.167   5.651
 1630SOL    HW2 5790   1.943   5.258   5.597
 1631SOL     OW 5791   1.178   2.470   6.825
 1631SOL    HW1 5792   1.103   2.462   6.759
 1631SOL    HW2 5793   1.143   2.510   6.910
 1632SOL     OW 5794   0.005   1.879   0.148
 1632SOL    HW1 5795   0.045   1.970   0.137
 1632SOL    HW2 5796   6.933   1.881   0.116
 1633SOL     OW 5797   5.327   3.538   4.392
 1633SOL    HW1 5798   5.374   3.611   4.441
 1633SOL    HW2 5799   5.391   3.493   4.329
 1634SOL     OW 5800   4.466   5.506   5.086
 1634SOL    HW1 5801   4.543   5.499   5.150
 1634SOL    HW2 5802   4.451   5.602   5.063
 1635SOL     OW 5803   0.164   5.468   6.022
 1635SOL    HW1 5804   0.196   5.545   6.077
 1635SOL    HW2 5805   0.070   5.446   6.046
 1636SOL     OW 5806   2.974   4.369   1.660
 1636SOL    HW1 5807   2.933   4.427   1.731
 1636SOL    HW2 5808   2.958   4.273   1.681
 1637SOL     OW 5809   1.092   0.985   2.874
 1637SOL    HW1 5810   1.184   0.968   2.837
 1637SOL    HW2 5811   1.073   1.083   2.873
 1638SOL     OW 5812   0.633   4.330   3.106
 1638SOL    HW1 5813   0.671   4.388   3.035
 1638SOL    HW2 5814   0.544   4.366   3.135
 1639SOL     OW 5815   5.283   0.016   2.451
 1639SOL    HW1 5816   5.230   7.022   2.533
 1639SOL    HW2 5817   5.316   0.110   2.451
 1640SOL     OW 5818   5.874   1.234   0.699
 1640SOL    HW1 5819   5.781   1.221   0.733
 1640SOL    HW2 5820   5.880   1.203   0.604
 1641SOL     OW 5821   4.659   2.739   3.312
 1641SOL    HW1 5822   4.584   2.689   3.355
 1641SOL    HW2 5823   4.702   2.799   3.379
 1642SOL     OW 5824   5.768   3.640   6.396
 1642SOL    HW1 5825   5.836   3.612   6.329
 1642SOL    HW2 5826   5.798   3.725   6.440
 1643SOL     OW 5827   2.996   4.824   4.547
 1643SOL    HW1 5828   3.009   4.809   4.449
 1643SOL    HW2 5829   2.901   4.805   4.571
 1644SOL     OW 5830   6.676   3.425   0.866
 1644SOL    HW1 5831   6.661   3.513   0.821
 1644SOL    HW2 5832   6.763   3.427   0.915
 1645SOL     OW 5833   3.077   5.728   5.631
 1645SOL    HW1 5834   2.990   5.728   5.581
 1645SOL    HW2 5835   3.151   5.705   5.568
 1646SOL     OW 5836   2.795   6.055   0.505
 1646SOL    HW1 5837   2.781   5.959   0.481
 1646SOL    HW2 5838   2.819   6.062   0.602
 1647SOL     OW 5839   6.257   3.313   4.631
 1647SOL    HW1 5840   6.251   3.262   4.545
 1647SOL    HW2 5841   6.260   3.411   4.612
 1648SOL     OW 5842   5.509   5.360   0.825
 1648SOL    HW1 5843   5.586   5.313   0.782
 1648SOL    HW2 5844   5.485   5.441   0.772
 1649SOL     OW 5845   3.035   0.860   4.227
 1649SOL    HW1 5846   2.989   0.820   4.307
 1649SOL    HW2 5847   2.977   0.930   4.187
 1650SOL     OW 5848   2.114   6.083   5.546
 1650SOL    HW1 5849   2.212   6.087   5.567
 1650SOL    HW2 5850   2.097   6.006   5.485
 1651SOL     OW 5851   0.547   2.018   1.494
 1651SOL    HW1 5852   0.564   1.932   1.446
 1651SOL    HW2 5853   0.448   2.030   1.505
 1652SOL     OW 5854   0.899   4.161   2.351
 1652SOL    HW1 5855   0.911   4.082   2.411
 1652SOL    HW2 5856   0.894   4.244   2.406
 1653SOL     OW 5857   1.454   0.184   1.222
 1653SOL    HW1 5858   1.357   0.210   1.222
 1653SOL    HW2 5859   1.508   0.260   1.258
 1654SOL     OW 5860   0.118   3.568   1.252
 1654SOL    HW1 5861   0.168   3.485   1.224
 1654SOL    HW2 5862   0.066   3.548   1.335
 1655SOL     OW 5863   6.661   1.999   5.178
 1655SOL    HW1 5864   6.609   2.077   5.144
 1655SOL    HW2 5865   6.645   1.920   5.119
 1656SOL     OW 5866   2.389   4.321   1.974
 1656SOL    HW1 5867   2.375   4.239   2.029
 1656SOL    HW2 5868   2.454   4.382   2.021
 1657SOL     OW 5869   6.951   1.222   3.612
 1657SOL    HW1 5870   6.977   1.266   3.698
 1657SOL    HW2 5871   6.884   1.150   3.631
 1658SOL     OW 5872   1.094   6.958   1.378
 1658SOL    HW1 5873   1.108   0.009   1.312
 1658SOL    HW2 5874   1.102   6.994   1.471
 1659SOL     OW 5875   3.453   0.429   5.920
 1659SOL    HW1 5876   3.544   0.414   5.959
 1659SOL    HW2 5877   3.420   0.345   5.878
 1660SOL     OW 5878   1.321   5.462   4.206
 1660SOL    HW1 5879   1.393   5.397   4.182
 1660SOL    HW2 5880   1.253   5.417   4.264
 1661SOL     OW 5881   2.481   1.118   2.207
 1661SOL    HW1 5882   2.425   1.175   2.146
 1661SOL    HW2 5883   2.573   1.108   2.168
 1662SOL     OW 5884   6.656   0.341   4.211
 1662SOL    HW1 5885   6.660   0.292   4.124
 1662SOL    HW2 5886   6.589   0.415   4.205
 1663SOL     OW 5887   4.070   5.932   2.284
 1663SOL    HW1 5888   4.108   6.015   2.326
 1663SOL    HW2 5889   4.144   5.872   2.256
 1664SOL     OW 5890   1.587   6.911   4.534
 1664SOL    HW1 5891   1.552   6.973   4.463
 1664SOL    HW2 5892   1.686   6.915   4.535
 1665SOL     OW 5893   6.797   1.568   3.190
 1665SOL    HW1 5894   6.857   1.570   3.270
 1665SOL    HW2 5895   6.817   1.646   3.131
 1666SOL     OW 5896   5.436   2.667   6.940
 1666SOL    HW1 5897   5.388   2.730   6.879
 1666SOL    HW2 5898   5.441   2.576   6.898
 1667SOL     OW 5899   6.732   6.016   1.604
 1667SOL    HW1 5900   6.738   5.932   1.657
 1667SOL    HW2 5901   6.676   6.083   1.653
 1668SOL     OW 5902   5.356   6.117   5.727
 1668SOL    HW1 5903   5.369   6.029   5.773
 1668SOL    HW2 5904   5.271   6.115   5.674
 1669SOL     OW 5905   0.214   5.977   6.493
 1669SOL    HW1 5906   0.239   6.072   6.479
 1669SOL    HW2 5907   0.281   5.918   6.449
 1670SOL     OW 5908   0.172   3.561   6.019
 1670SOL    HW1 5909   0.106   3.585   6.090
 1670SOL    HW2 5910   0.256   3.613   6.033
 1671SOL     OW 5911   4.950   1.679   1.315
 1671SOL    HW1 5912   4.862   1.675   1.363
 1671SOL    HW2 5913   4.960   1.768   1.270
 1672SOL     OW 5914   1.821   2.989   1.027
 1672SOL    HW1 5915   1.913   3.014   1.056
 1672SOL    HW2 5916   1.754   3.032   1.088
 1673SOL     OW 5917   0.401   2.388   4.545
 1673SOL    HW1 5918   0.466   2.420   4.614
 1673SOL    HW2 5919   0.437   2.306   4.500
 1674SOL     OW 5920   0.283   3.667   2.382
 1674SOL    HW1 5921   0.223   3.704   2.453
 1674SOL    HW2 5922   0.313   3.575   2.407
 1675SOL     OW 5923   4.410   0.213   6.346
 1675SOL    HW1 5924   4.323   0.163   6.345
 1675SOL    HW2 5925   4.453   0.204   6.435
 1676SOL     OW 5926   2.164   2.080   2.032
 1676SOL    HW1 5927   2.129   2.166   1.996
 1676SOL    HW2 5928   2.260   2.092   2.059
 1677SOL     OW 5929   3.259   3.318   5.349
 1677SOL    HW1 5930   3.177   3.277   5.310
 1677SOL    HW2 5931   3.332   3.319   5.280
 1678SOL     OW 5932   4.636   4.291   4.538
 1678SOL    HW1 5933   4.598   4.262   4.450
 1678SOL    HW2 5934   4.615   4.387   4.554
 1679SOL     OW 5935   2.568   2.246   4.334
 1679SOL    HW1 5936   2.643   2.206   4.388
 1679SOL    HW2 5937   2.542   2.334   4.375
 1680SOL     OW 5938   0.039   3.537   5.033
 1680SOL    HW1 5939   7.021   3.623   5.062
 1680SOL    HW2 5940   6.998   3.489   4.973
 1681SOL     OW 5941   6.627   5.828   0.296
 1681SOL    HW1 5942   6.540   5.797   0.258
 1681SOL    HW2 5943   6.676   5.751   0.336
 1682SOL     OW 5944   1.194   0.777   4.503
 1682SOL    HW1 5945   1.262   0.785   4.576
 1682SOL    HW2 5946   1.240   0.749   4.418
 1683SOL     OW 5947   4.605   5.590   1.489
 1683SOL    HW1 5948   4.540   5.628   1.554
 1683SOL    HW2 5949   4.617   5.492   1.507
 1684SOL     OW 5950   1.605   6.074   2.418
 1684SOL    HW1 5951   1.569   5.983   2.395
 1684SOL    HW2 5952   1.704   6.074   2.407
 1685SOL     OW 5953   2.406   0.732   5.475
 1685SOL    HW1 5954   2.379   0.730   5.379
 1685SOL    HW2 5955   2.487   0.675   5.488
 1686SOL     OW 5956   2.835   5.671   4.864
 1686SOL    HW1 5957   2.925   5.631   4.847
 1686SOL    HW2 5958   2.816   5.738   4.793
 1687SOL     OW 5959   2.333   3.736   1.198
 1687SOL    HW1 5960   2.300   3.765   1.288
 1687SOL    HW2 5961   2.315   3.808   1.132
 1688SOL     OW 5962   2.240   2.189   4.595
 1688SOL    HW1 5963   2.201   2.225   4.511
 1688SOL    HW2 5964   2.197   2.233   4.674
 1689SOL     OW 5965   5.886   1.587   2.911
 1689SOL    HW1 5966   5.851   1.544   2.994
 1689SOL    HW2 5967   5.877   1.525   2.834
 1690SOL     OW 5968   1.670   2.868   3.783
 1690SOL    HW1 5969   1.697   2.783   3.828
 1690SOL    HW2 5970   1.582   2.899   3.819
 1691SOL     OW 5971   6.179   3.614   2.722
 1691SOL    HW1 5972   6.108   3.655   2.779
 1691SOL    HW2 5973   6.144   3.601   2.629
 1692SOL     OW 5974   5.677   6.840   1.695
 1692SOL    HW1 5975   5.744   6.770   1.718
 1692SOL    HW2 5976   5.646   6.828   1.600
 1693SOL     OW 5977   0.671   2.534   1.680
 1693SOL    HW1 5978   0.651   2.622   1.637
 1693SOL    HW2 5979   0.672   2.462   1.610
 1694SOL     OW 5980   5.469   0.853   3.183
 1694SOL    HW1 5981   5.496   0.925   3.247
 1694SOL    HW2 5982   5.532   0.776   3.191
 1695SOL     OW 5983   3.301   1.815   6.259
 1695SOL    HW1 5984   3.375   1.867   6.217
 1695SOL    HW2 5985   3.262   1.752   6.192
 1696SOL     OW 5986   4.641   4.412   0.671
 1696SOL    HW1 5987   4.642   4.405   0.771
 1696SOL    HW2 5988   4.563   4.467   0.642
 1697SOL     OW 5989   5.884   6.458   1.179
 1697SOL    HW1 5990   5.919   6.462   1.273
 1697SOL    HW2 5991   5.959   6.478   1.116
 1698SOL     OW 5992   4.060   0.571   6.968
 1698SOL    HW1 5993   4.045   0.539   6.875
 1698SOL    HW2 5994   4.135   0.637   6.969
 1699SOL     OW 5995   1.936   0.851   0.860
 1699SOL    HW1 5996   1.950   0.938   0.813
 1699SOL    HW2 5997   1.974   0.776   0.806
 1700SOL     OW 5998   5.606   2.499   3.398
 1700SOL    HW1 5999   5.567   2.415   3.436
 1700SOL    HW2 6000   5.589   2.502   3.299
 1701SOL     OW 6001   4.985   4.077   6.590
 1701SOL    HW1 6002   4.888   4.095   6.579
 1701SOL    HW2 6003   5.021   4.038   6.506
 1702SOL     OW 6004   6.755   2.691   0.256
 1702SOL    HW1 6005   6.737   2.668   0.160
 1702SOL    HW2 6006   6.722   2.616   0.315
 1703SOL     OW 6007   3.202   2.806   1.904
 1703SOL    HW1 6008   3.145   2.879   1.942
 1703SOL    HW2 6009   3.144   2.734   1.867
 1704SOL     OW 6010   1.259   2.261   0.912
 1704SOL    HW1 6011   1.280   2.357   0.894
 1704SOL    HW2 6012   1.190   2.255   0.984
 1705SOL     OW 6013   3.739   1.810   2.127
 1705SOL    HW1 6014   3.717   1.799   2.031
 1705SOL    HW2 6015   3.784   1.728   2.161
 1706SOL     OW 6016   4.890   0.884   2.362
 1706SOL    HW1 6017   4.859   0.789   2.356
 1706SOL    HW2 6018   4.937   0.899   2.448
 1707SOL     OW 6019   5.650   1.696   2.325
 1707SOL    HW1 6020   5.586   1.620   2.310
 1707SOL    HW2 6021   5.696   1.717   2.239
 1708SOL     OW 6022   5.180   5.193   2.254
 1708SOL    HW1 6023   5.175   5.137   2.338
 1708SOL    HW2 6024   5.132   5.279   2.269
 1709SOL     OW 6025   3.216   5.214   1.665
 1709SOL    HW1 6026   3.201   5.284   1.736
 1709SOL    HW2 6027   3.180   5.126   1.697
 1710SOL     OW 6028   5.211   5.446   3.855
 1710SOL    HW1 6029   5.117   5.477   3.864
 1710SOL    HW2 6030   5.225   5.406   3.764
 1711SOL     OW 6031   0.388   4.609   4.376
 1711SOL    HW1 6032   0.344   4.692   4.342
 1711SOL    HW2 6033   0.452   4.575   4.306
 1712SOL     OW 6034   0.031   2.918   5.935
 1712SOL    HW1 6035   0.009   2.975   5.856
 1712SOL    HW2 6036   6.973   2.908   5.992
 1713SOL     OW 6037   4.641   2.078   1.804
 1713SOL    HW1 6038   4.560   2.106   1.855
 1713SOL    HW2 6039   4.669   2.151   1.742
 1714SOL     OW 6040   3.571   1.861   5.463
 1714SOL    HW1 6041   3.552   1.927   5.391
 1714SOL    HW2 6042   3.603   1.909   5.545
 1715SOL     OW 6043   0.337   5.113   3.001
 1715SOL    HW1 6044   0.267   5.062   2.951
 1715SOL    HW2 6045   0.346   5.076   3.093
 1716SOL     OW 6046   4.351   6.584   3.230
 1716SOL    HW1 6047   4.413   6.559   3.156
 1716SOL    HW2 6048   4.402   6.630   3.303
 1717SOL     OW 6049   2.513   6.519   5.929
 1717SOL    HW1 6050   2.571   6.593   5.893
 1717SOL    HW2 6051   2.463   6.477   5.853
 1718SOL     OW 6052   2.276   1.887   1.395
 1718SOL    HW1 6053   2.291   1.834   1.478
 1718SOL    HW2 6054   2.257   1.982   1.419
 1719SOL     OW 6055   1.914   3.396   0.782
 1719SOL    HW1 6056   1.857   3.315   0.774
 1719SOL    HW2 6057   1.952   3.401   0.874
 1720SOL     OW 6058   0.471   2.579   6.952
 1720SOL    HW1 6059   0.417   2.615   0.005
 1720SOL    HW2 6060   0.477   2.480   6.959
 1721SOL     OW 6061   1.325   6.234   1.510
 1721SOL    HW1 6062   1.232   6.252   1.543
 1721SOL    HW2 6063   1.336   6.274   1.419
 1722SOL     OW 6064   3.863   2.054   4.138
 1722SOL    HW1 6065   3.891   2.117   4.210
 1722SOL    HW2 6066   3.893   2.090   4.049
 1723SOL     OW 6067   6.305   2.273   2.642
 1723SOL    HW1 6068   6.215   2.301   2.609
 1723SOL    HW2 6069   6.317   2.302   2.737
 1724SOL     OW 6070   6.717   2.725   0.904
 1724SOL    HW1 6071   6.767   2.669   0.971
 1724SOL    HW2 6072   6.742   2.696   0.812
 1725SOL     OW 6073   1.997   4.879   7.017
 1725SOL    HW1 6074   2.091   4.859   6.989
 1725SOL    HW2 6075   1.997   4.951   0.063
 1726SOL     OW 6076   5.279   4.150   5.366
 1726SOL    HW1 6077   5.242   4.187   5.452
 1726SOL    HW2 6078   5.214   4.084   5.328
 1727SOL     OW 6079   3.818   3.340   4.230
 1727SOL    HW1 6080   3.891   3.329   4.297
 1727SOL    HW2 6081   3.747   3.271   4.247
 1728SOL     OW 6082   4.616   4.683   5.523
 1728SOL    HW1 6083   4.679   4.621   5.477
 1728SOL    HW2 6084   4.639   4.689   5.620
 1729SOL     OW 6085   2.284   4.125   2.857
 1729SOL    HW1 6086   2.347   4.098   2.785
 1729SOL    HW2 6087   2.256   4.220   2.843
 1730SOL     OW 6088   1.086   6.592   5.925
 1730SOL    HW1 6089   1.088   6.690   5.942
 1730SOL    HW2 6090   1.003   6.569   5.874
 1731SOL     OW 6091   6.907   4.093   2.405
 1731SOL    HW1 6092   6.955   4.159   2.347
 1731SOL    HW2 6093   6.882   4.013   2.350
 1732SOL     OW 6094   2.573   5.168   5.646
 1732SOL    HW1 6095   2.588   5.078   5.605
 1732SOL    HW2 6096   2.488   5.167   5.699
 1733SOL     OW 6097   1.697   3.983   1.594
 1733SOL    HW1 6098   1.761   3.909   1.617
 1733SOL    HW2 6099   1.728   4.068   1.636
 1734SOL     OW 6100   4.874   3.359   1.415
 1734SOL    HW1 6101   4.788   3.358   1.465
 1734SOL    HW2 6102   4.898   3.267   1.385
 1735SOL     OW 6103   5.389   6.065   0.529
 1735SOL    HW1 6104   5.482   6.029   0.519
 1735SOL    HW2 6105   5.341   6.059   0.442
 1736SOL     OW 6106   3.568   3.091   0.660
 1736SOL    HW1 6107   3.633   3.090   0.584
 1736SOL    HW2 6108   3.614   3.123   0.743
 1737SOL     OW 6109   2.175   1.356   4.413
 1737SOL    HW1 6110   2.139   1.449   4.407
 1737SOL    HW2 6111   2.178   1.315   4.322
 1738SOL     OW 6112   2.224   2.107   3.534
 1738SOL    HW1 6113   2.156   2.040   3.504
 1738SOL    HW2 6114   2.253   2.162   3.456
 1739SOL     OW 6115   6.872   2.371   5.522
 1739SOL    HW1 6116   6.952   2.429   5.540
 1739SOL    HW2 6117   6.897   2.275   5.532
 1740SOL     OW 6118   6.687   1.643   5.916
 1740SOL    HW1 6119   6.595   1.644   5.878
 1740SOL    HW2 6120   6.706   1.732   5.958
 1741SOL     OW 6121   1.980   0.775   3.899
 1741SOL    HW1 6122   1.932   0.851   3.857
 1741SOL    HW2 6123   2.036   0.729   3.830
 1742SOL     OW 6124   5.368   0.952   6.147
 1742SOL    HW1 6125   5.334   0.928   6.238
 1742SOL    HW2 6126   5.467   0.961   6.150
 1743SOL     OW 6127   1.212   2.783   1.666
 1743SOL    HW1 6128   1.285   2.719   1.639
 1743SOL    HW2 6129   1.123   2.741   1.646
 1744SOL     OW 6130   0.203   1.625   2.628
 1744SOL    HW1 6131   0.236   1.620   2.723
 1744SOL    HW2 6132   0.275   1.594   2.566
 1745SOL     OW 6133   6.246   6.532   3.175
 1745SOL    HW1 6134   6.178   6.500   3.242
 1745SOL    HW2 6135   6.201   6.587   3.105
 1746SOL     OW 6136   1.990   5.227   4.605
 1746SOL    HW1 6137   2.045   5.220   4.688
 1746SOL    HW2 6138   2.010   5.150   4.545
 1747SOL     OW 6139   5.622   2.219   2.731
 1747SOL    HW1 6140   5.598   2.292   2.667
 1747SOL    HW2 6141   5.708   2.177   2.702
 1748SOL     OW 6142   0.831   0.418   4.434
 1748SOL    HW1 6143   0.811   0.394   4.529
 1748SOL    HW2 6144   0.818   0.338   4.376
 1749SOL     OW 6145   2.840   6.967   4.571
 1749SOL    HW1 6146   2.766   7.012   4.522
 1749SOL    HW2 6147   2.848   6.872   4.540
 1750SOL     OW 6148   5.262   6.891   3.905
 1750SOL    HW1 6149   5.288   6.978   3.946
 1750SOL    HW2 6150   5.337   6.857   3.848
 1751SOL     OW 6151   4.350   6.101   4.984
 1751SOL    HW1 6152   4.367   6.048   4.901
 1751SOL    HW2 6153   4.392   6.056   5.063
 1752SOL     OW 6154   0.099   2.194   1.635
 1752SOL    HW1 6155   0.122   2.291   1.628
 1752SOL    HW2 6156   0.022   2.182   1.697
 1753SOL     OW 6157   0.313   1.112   0.674
 1753SOL    HW1 6158   0.303   1.125   0.576
 1753SOL    HW2 6159   0.232   1.066   0.711
 1754SOL     OW 6160   2.180   3.947   1.036
 1754SOL    HW1 6161   2.254   3.997   1.081
 1754SOL    HW2 6162   2.095   3.961   1.087
 1755SOL     OW 6163   6.719   6.291   2.151
 1755SOL    HW1 6164   6.751   6.385   2.153
 1755SOL    HW2 6165   6.778   6.235   2.209
 1756SOL     OW 6166   4.738   5.064   6.396
 1756SOL    HW1 6167   4.660   5.040   6.339
 1756SOL    HW2 6168   4.719   5.038   6.491
 1757SOL     OW 6169   2.685   5.234   4.654
 1757SOL    HW1 6170   2.748   5.164   4.687
 1757SOL    HW2 6171   2.727   5.286   4.580
 1758SOL     OW 6172   1.559   0.402   4.175
 1758SOL    HW1 6173   1.626   0.427   4.105
 1758SOL    HW2 6174   1.575   0.457   4.257
 1759SOL     OW 6175   1.916   5.385   6.264
 1759SOL    HW1 6176   1.916   5.484   6.276
 1759SOL    HW2 6177   1.973   5.361   6.185
 1760SOL     OW 6178   5.699   2.056   3.062
 1760SOL    HW1 6179   5.738   1.981   3.009
 1760SOL    HW2 6180   5.645   2.019   3.138
 1761SOL     OW 6181   0.477   0.516   0.335
 1761SOL    HW1 6182   0.427   0.508   0.421
 1761SOL    HW2 6183   0.542   0.440   0.327
 1762SOL     OW 6184   0.046   1.618   5.196
 1762SOL    HW1 6185   6.993   1.555   5.207
 1762SOL    HW2 6186   0.012   1.710   5.178
 1763SOL     OW 6187   1.296   3.688   3.635
 1763SOL    HW1 6188   1.260   3.776   3.604
 1763SOL    HW2 6189   1.342   3.700   3.723
 1764SOL     OW 6190   2.142   3.725   2.390
 1764SOL    HW1 6191   2.194   3.648   2.426
 1764SOL    HW2 6192   2.049   3.722   2.425
 1765SOL     OW 6193   3.722   1.166   1.222
 1765SOL    HW1 6194   3.737   1.174   1.320
 1765SOL    HW2 6195   3.772   1.087   1.187
 1766SOL     OW 6196   5.017   3.966   2.850
 1766SOL    HW1 6197   4.977   3.896   2.792
 1766SOL    HW2 6198   4.984   4.056   2.821
 1767SOL     OW 6199   0.245   3.594   3.348
 1767SOL    HW1 6200   0.260   3.571   3.252
 1767SOL    HW2 6201   0.326   3.638   3.386
 1768SOL     OW 6202   4.352   1.567   5.720
 1768SOL    HW1 6203   4.314   1.581   5.811
 1768SOL    HW2 6204   4.311   1.632   5.656
 1769SOL     OW 6205   4.332   2.576   5.761
 1769SOL    HW1 6206   4.348   2.674   5.774
 1769SOL    HW2 6207   4.416   2.532   5.730
 1770SOL     OW 6208   6.480   4.851   4.452
 1770SOL    HW1 6209   6.389   4.892   4.455
 1770SOL    HW2 6210   6.548   4.921   4.476
 1771SOL     OW 6211   2.302   4.859   0.112
 1771SOL    HW1 6212   2.226   4.884   0.171
 1771SOL    HW2 6213   2.315   4.760   0.114
 1772SOL     OW 6214   3.474   0.072   3.429
 1772SOL    HW1 6215   3.492   6.997   3.437
 1772SOL    HW2 6216   3.477   0.098   3.332
 1773SOL     OW 6217   3.250   4.051   6.760
 1773SOL    HW1 6218   3.278   4.116   6.831
 1773SOL    HW2 6219   3.266   4.091   6.670
 1774SOL     OW 6220   4.298   0.470   1.751
 1774SOL    HW1 6221   4.392   0.496   1.728
 1774SOL    HW2 6222   4.297   0.425   1.840
 1775SOL     OW 6223   1.414   5.780   4.317
 1775SOL    HW1 6224   1.454   5.868   4.342
 1775SOL    HW2 6225   1.419   5.768   4.218
 1776SOL     OW 6226   3.941   0.779   5.553
 1776SOL    HW1 6227   4.038   0.790   5.531
 1776SOL    HW2 6228   3.930   0.705   5.619
 1777SOL     OW 6229   3.194   5.543   5.377
 1777SOL    HW1 6230   3.158   5.636   5.375
 1777SOL    HW2 6231   3.277   5.541   5.433
 1778SOL     OW 6232   4.183   2.299   4.675
 1778SOL    HW1 6233   4.104   2.356   4.651
 1778SOL    HW2 6234   4.266   2.355   4.675
 1779SOL     OW 6235   4.448   2.069   4.384
 1779SOL    HW1 6236   4.373   2.011   4.355
 1779SOL    HW2 6237   4.413   2.158   4.413
 1780SOL     OW 6238   2.306   4.854   5.670
 1780SOL    HW1 6239   2.400   4.828   5.690
 1780SOL    HW2 6240   2.287   4.945   5.708
 1781SOL     OW 6241   4.617   5.656   3.628
 1781SOL    HW1 6242   4.615   5.559   3.604
 1781SOL    HW2 6243   4.529   5.698   3.604
 1782SOL     OW 6244   3.014   1.540   3.046
 1782SOL    HW1 6245   3.096   1.581   3.006
 1782SOL    HW2 6246   3.016   1.552   3.145
 1783SOL     OW 6247   1.908   2.965   6.673
 1783SOL    HW1 6248   1.955   2.882   6.644
 1783SOL    HW2 6249   1.934   2.986   6.767
 1784SOL     OW 6250   2.667   0.839   3.430
 1784SOL    HW1 6251   2.615   0.848   3.515
 1784SOL    HW2 6252   2.739   0.908   3.428
 1785SOL     OW 6253   5.387   5.871   3.560
 1785SOL    HW1 6254   5.374   5.795   3.624
 1785SOL    HW2 6255   5.385   5.957   3.611
 1786SOL     OW 6256   1.513   2.856   0.763
 1786SOL    HW1 6257   1.528   2.921   0.689
 1786SOL    HW2 6258   1.600   2.839   0.810
 1787SOL     OW 6259   1.862   1.106   4.626
 1787SOL    HW1 6260   1.781   1.156   4.656
 1787SOL    HW2 6261   1.919   1.166   4.570
 1788SOL     OW 6262   3.013   3.688   0.029
 1788SOL    HW1 6263   3.058   3.602   0.055
 1788SOL    HW2 6264   3.083   3.759   0.018
 1789SOL     OW 6265   6.455   2.185   2.227
 1789SOL    HW1 6266   6.371   2.173   2.174
 1789SOL    HW2 6267   6.482   2.097   2.265
 1790SOL     OW 6268   3.914   5.982   4.171
 1790SOL    HW1 6269   3.862   5.972   4.086
 1790SOL    HW2 6270   3.952   5.894   4.197
 1791SOL     OW 6271   0.519   2.139   4.757
 1791SOL    HW1 6272   0.608   2.159   4.799
 1791SOL    HW2 6273   0.464   2.223   4.754
 1792SOL     OW 6274   0.772   1.990   4.452
 1792SOL    HW1 6275   0.680   2.027   4.469
 1792SOL    HW2 6276   0.799   2.011   4.358
 1793SOL     OW 6277   6.847   6.973   3.360
 1793SOL    HW1 6278   6.845   0.041   3.401
 1793SOL    HW2 6279   6.815   6.905   3.426
 1794SOL     OW 6280   4.883   6.261   6.348
 1794SOL    HW1 6281   4.938   6.211   6.415
 1794SOL    HW2 6282   4.906   6.230   6.256
 1795SOL     OW 6283   0.452   4.301   2.548
 1795SOL    HW1 6284   0.543   4.262   2.564
 1795SOL    HW2 6285   0.448   4.393   2.587
 1796SOL     OW 6286   1.899   1.507   4.611
 1796SOL    HW1 6287   1.936   1.516   4.704
 1796SOL    HW2 6288   1.918   1.591   4.560
 1797SOL     OW 6289   1.448   0.623   5.931
 1797SOL    HW1 6290   1.396   0.538   5.926
 1797SOL    HW2 6291   1.418   0.676   6.011
 1798SOL     OW 6292   4.598   2.766   5.242
 1798SOL    HW1 6293   4.618   2.860   5.217
 1798SOL    HW2 6294   4.500   2.757   5.261
 1799SOL     OW 6295   6.269   2.009   6.867
 1799SOL    HW1 6296   6.265   1.989   6.965
 1799SOL    HW2 6297   6.183   1.979   6.824
 1800SOL     OW 6298   4.628   4.698   3.787
 1800SOL    HW1 6299   4.607   4.605   3.756
 1800SOL    HW2 6300   4.591   4.764   3.721
 1801SOL     OW 6301   1.012   1.620   2.426
 1801SOL    HW1 6302   1.053   1.708   2.403
 1801SOL    HW2 6303   1.003   1.565   2.343
 1802SOL     OW 6304   5.631   5.072   2.484
 1802SOL    HW1 6305   5.556   5.084   2.549
 1802SOL    HW2 6306   5.708   5.029   2.530
 1803SOL     OW 6307   6.828   5.982   0.572
 1803SOL    HW1 6308   6.852   6.042   0.496
 1803SOL    HW2 6309   6.831   6.033   0.657
 1804SOL     OW 6310   3.000   3.010   5.721
 1804SOL    HW1 6311   2.938   3.069   5.772
 1804SOL    HW2 6312   2.975   2.915   5.736
 1805SOL     OW 6313   0.811   4.244   5.873
 1805SOL    HW1 6314   0.886   4.183   5.848
 1805SOL    HW2 6315   0.748   4.254   5.796
 1806SOL     OW 6316   1.869   1.104   1.779
 1806SOL    HW1 6317   1.920   1.147   1.705
 1806SOL    HW2 6318   1.836   1.015   1.749
 1807SOL     OW 6319   5.888   2.060   6.566
 1807SOL    HW1 6320   5.878   2.065   6.467
 1807SOL    HW2 6321   5.921   2.147   6.601
 1808SOL     OW 6322   6.534   3.760   4.894
 1808SOL    HW1 6323   6.594   3.804   4.827
 1808SOL    HW2 6324   6.486   3.684   4.850
 1809SOL     OW 6325   2.337   2.777   4.572
 1809SOL    HW1 6326   2.309   2.873   4.563
 1809SOL    HW2 6327   2.343   2.753   4.669
 1810SOL     OW 6328   2.385   0.149   5.440
 1810SOL    HW1 6329   2.440   0.203   5.502
 1810SOL    HW2 6330   2.437   0.129   5.357
 1811SOL     OW 6331   4.071   4.920   3.225
 1811SOL    HW1 6332   4.144   4.897   3.288
 1811SOL    HW2 6333   4.051   5.018   3.229
 1812SOL     OW 6334   4.588   0.234   5.975
 1812SOL    HW1 6335   4.577   0.297   5.898
 1812SOL    HW2 6336   4.582   0.285   6.061
 1813SOL     OW 6337   4.429   5.062   1.504
 1813SOL    HW1 6338   4.435   5.028   1.410
 1813SOL    HW2 6339   4.466   4.993   1.566
 1814SOL     OW 6340   0.019   0.663   6.918
 1814SOL    HW1 6341   0.087   0.736   6.924
 1814SOL    HW2 6342   6.996   0.668   6.829
 1815SOL     OW 6343   6.697   1.634   1.734
 1815SOL    HW1 6344   6.664   1.557   1.679
 1815SOL    HW2 6345   6.624   1.665   1.795
 1816SOL     OW 6346   1.703   4.245   0.868
 1816SOL    HW1 6347   1.717   4.314   0.939
 1816SOL    HW2 6348   1.736   4.156   0.900
 1817SOL     OW 6349   3.854   6.591   3.167
 1817SOL    HW1 6350   3.943   6.570   3.125
 1817SOL    HW2 6351   3.789   6.518   3.146
 1818SOL     OW 6352   2.702   6.046   1.460
 1818SOL    HW1 6353   2.647   6.125   1.432
 1818SOL    HW2 6354   2.665   5.963   1.417
 1819SOL     OW 6355   1.220   5.424   1.794
 1819SOL    HW1 6356   1.188   5.452   1.885
 1819SOL    HW2 6357   1.196   5.495   1.728
 1820SOL     OW 6358   2.565   0.403   2.367
 1820SOL    HW1 6359   2.659   0.393   2.398
 1820SOL    HW2 6360   2.530   0.315   2.336
 1821SOL     OW 6361   2.532   0.570   1.928
 1821SOL    HW1 6362   2.482   0.573   1.842
 1821SOL    HW2 6363   2.485   0.625   1.996
 1822SOL     OW 6364   1.341   3.296   0.759
 1822SOL    HW1 6365   1.341   3.202   0.793
 1822SOL    HW2 6366   1.248   3.322   0.732
 1823SOL     OW 6367   2.978   5.781   2.957
 1823SOL    HW1 6368   3.038   5.787   2.877
 1823SOL    HW2 6369   2.987   5.865   3.011
 1824SOL     OW 6370   3.582   3.538   0.922
 1824SOL    HW1 6371   3.542   3.482   0.850
 1824SOL    HW2 6372   3.515   3.551   0.995
 1825SOL     OW 6373   2.040   2.348   4.729
 1825SOL    HW1 6374   2.000   2.319   4.642
 1825SOL    HW2 6375   2.000   2.295   4.804
 1826SOL     OW 6376   3.628   1.714   1.425
 1826SOL    HW1 6377   3.602   1.639   1.364
 1826SOL    HW2 6378   3.713   1.691   1.472
 1827SOL     OW 6379   0.010   5.661   1.154
 1827SOL    HW1 6380   0.075   5.695   1.223
 1827SOL    HW2 6381   0.026   5.563   1.139
 1828SOL     OW 6382   1.990   2.279   0.599
 1828SOL    HW1 6383   1.920   2.290   0.528
 1828SOL    HW2 6384   1.991   2.360   0.657
 1829SOL     OW 6385   2.775   0.778   3.132
 1829SOL    HW1 6386   2.864   0.751   3.096
 1829SOL    HW2 6387   2.787   0.817   3.223
 1830SOL     OW 6388   5.767   6.359   3.573
 1830SOL    HW1 6389   5.757   6.266   3.609
 1830SOL    HW2 6390   5.846   6.403   3.616
 1831SOL     OW 6391   6.170   0.260   1.798
 1831SOL    HW1 6392   6.214   0.230   1.882
 1831SOL    HW2 6393   6.207   0.209   1.721
 1832SOL     OW 6394   4.514   1.670   1.158
 1832SOL    HW1 6395   4.498   1.708   1.249
 1832SOL    HW2 6396   4.576   1.593   1.164
 1833SOL     OW 6397   5.269   0.695   0.505
 1833SOL    HW1 6398   5.304   0.637   0.579
 1833SOL    HW2 6399   5.237   0.637   0.430
 1834SOL     OW 6400   2.366   3.340   0.523
 1834SOL    HW1 6401   2.336   3.405   0.592
 1834SOL    HW2 6402   2.308   3.258   0.527
 1835SOL     OW 6403   7.007   4.903   2.295
 1835SOL    HW1 6404   6.996   4.918   2.197
 1835SOL    HW2 6405   6.976   4.811   2.318
 1836SOL     OW 6406   5.196   1.572   1.405
 1836SOL    HW1 6407   5.211   1.479   1.370
 1836SOL    HW2 6408   5.104   1.603   1.379
 1837SOL     OW 6409   0.613   0.209   4.552
 1837SOL    HW1 6410   0.605   0.247   4.460
 1837SOL    HW2 6411   0.540   0.245   4.610
 1838SOL     OW 6412   6.409   1.612   5.201
 1838SOL    HW1 6413   6.490   1.633   5.256
 1838SOL    HW2 6414   6.334   1.672   5.227
 1839SOL     OW 6415   6.393   1.954   4.985
 1839SOL    HW1 6416   6.465   1.892   5.015
 1839SOL    HW2 6417   6.401   2.041   5.033
 1840SOL     OW 6418   3.971   6.937   1.383
 1840SOL    HW1 6419   4.054   6.992   1.372
 1840SOL    HW2 6420   3.907   6.957   1.308
 1841SOL     OW 6421   1.655   1.438   3.552
 1841SOL    HW1 6422   1.599   1.467   3.630
 1841SOL    HW2 6423   1.723   1.508   3.532
 1842SOL     OW 6424   1.519   5.584   0.284
 1842SOL    HW1 6425   1.458   5.635   0.344
 1842SOL    HW2 6426   1.504   5.611   0.189
 1843SOL     OW 6427   6.190   2.087   3.565
 1843SOL    HW1 6428   6.248   2.087   3.646
 1843SOL    HW2 6429   6.095   2.103   3.592
 1844SOL     OW 6430   3.250   6.546   5.118
 1844SOL    HW1 6431   3.228   6.562   5.215
 1844SOL    HW2 6432   3.325   6.481   5.111
 1845SOL     OW 6433   3.305   0.307   4.049
 1845SOL    HW1 6434   3.278   0.348   3.962
 1845SOL    HW2 6435   3.365   0.371   4.098
 1846SOL     OW 6436   3.457   1.350   1.938
 1846SOL    HW1 6437   3.457   1.431   1.996
 1846SOL    HW2 6438   3.380   1.354   1.875
 1847SOL     OW 6439   1.439   0.600   6.561
 1847SOL    HW1 6440   1.433   0.648   6.649
 1847SOL    HW2 6441   1.361   0.627   6.504
 1848SOL     OW 6442   1.853   6.351   3.874
 1848SOL    HW1 6443   1.868   6.253   3.857
 1848SOL    HW2 6444   1.918   6.404   3.820
 1849SOL     OW 6445   4.003   2.473   1.637
 1849SOL    HW1 6446   3.992   2.453   1.540
 1849SOL    HW2 6447   4.100   2.483   1.659
 1850SOL     OW 6448   0.355   2.845   2.067
 1850SOL    HW1 6449   0.350   2.856   2.166
 1850SOL    HW2 6450   0.439   2.797   2.042
 1851SOL     OW 6451   0.097   2.530   0.329
 1851SOL    HW1 6452   0.048   2.588   0.394
 1851SOL    HW2 6453   0.178   2.578   0.295
 1852SOL     OW 6454   6.491   4.660   2.655
 1852SOL    HW1 6455   6.539   4.700   2.733
 1852SOL    HW2 6456   6.454   4.732   2.597
 1853SOL     OW 6457   0.759   2.612   3.129
 1853SOL    HW1 6458   0.836   2.567   3.175
 1853SOL    HW2 6459   0.771   2.711   3.134
 1854SOL     OW 6460   2.529   5.818   2.798
 1854SOL    HW1 6461   2.597   5.748   2.778
 1854SOL    HW2 6462   2.525   5.834   2.897
 1855SOL     OW 6463   5.221   2.751   5.035
 1855SOL    HW1 6464   5.256   2.686   5.104
 1855SOL    HW2 6465   5.268   2.839   5.045
 1856SOL     OW 6466   5.815   4.104   5.723
 1856SOL    HW1 6467   5.852   4.011   5.729
 1856SOL    HW2 6468   5.865   4.164   5.785
 1857SOL     OW 6469   4.179   2.150   6.258
 1857SOL    HW1 6470   4.125   2.125   6.339
 1857SOL    HW2 6471   4.269   2.107   6.264
 1858SOL     OW 6472   5.762   4.312   3.706
 1858SOL    HW1 6473   5.846   4.347   3.745
 1858SOL    HW2 6474   5.771   4.214   3.690
 1859SOL     OW 6475   5.562   2.053   4.308
 1859SOL    HW1 6476   5.489   2.113   4.343
 1859SOL    HW2 6477   5.536   1.958   4.321
 1860SOL     OW 6478   0.046   0.814   5.535
 1860SOL    HW1 6479   0.143   0.837   5.526
 1860SOL    HW2 6480   0.038   0.721   5.572
 1861SOL     OW 6481   6.578   6.757   2.194
 1861SOL    HW1 6482   6.484   6.731   2.218
 1861SOL    HW2 6483   6.587   6.763   2.095
 1862SOL     OW 6484   3.643   6.910   6.549
 1862SOL    HW1 6485   3.607   6.891   6.640
 1862SOL    HW2 6486   3.741   6.889   6.546
 1863SOL     OW 6487   0.709   3.100   3.906
 1863SOL    HW1 6488   0.618   3.075   3.872
 1863SOL    HW2 6489   0.743   3.179   3.854
 1864SOL     OW 6490   1.509   6.740   5.233
 1864SOL    HW1 6491   1.432   6.748   5.297
 1864SOL    HW2 6492   1.520   6.827   5.184
 1865SOL     OW 6493   3.847   6.853   6.979
 1865SOL    HW1 6494   3.832   6.776   6.918
 1865SOL    HW2 6495   3.798   6.933   6.944
 1866SOL     OW 6496   5.272   5.146   3.402
 1866SOL    HW1 6497   5.224   5.070   3.358
 1866SOL    HW2 6498   5.206   5.219   3.423
 1867SOL     OW 6499   0.529   4.256   6.927
 1867SOL    HW1 6500   0.498   4.195   7.000
 1867SOL    HW2 6501   0.479   4.343   6.933
 1868SOL     OW 6502   4.976   3.128   6.330
 1868SOL    HW1 6503   4.931   3.205   6.376
 1868SOL    HW2 6504   4.908   3.078   6.276
 1869SOL     OW 6505   5.994   3.544   5.439
 1869SOL    HW1 6506   5.978   3.623   5.379
 1869SOL    HW2 6507   5.912   3.525   5.492
 1870SOL     OW 6508   1.842   2.504   4.890
 1870SOL    HW1 6509   1.815   2.523   4.984
 1870SOL    HW2 6510   1.921   2.561   4.865
 1871SOL     OW 6511   0.753   0.939   6.925
 1871SOL    HW1 6512   0.783   0.844   6.918
 1871SOL    HW2 6513   0.764   0.971   7.019
 1872SOL     OW 6514   4.314   1.844   6.862
 1872SOL    HW1 6515   4.375   1.905   6.913
 1872SOL    HW2 6516   4.286   1.888   6.777
 1873SOL     OW 6517   5.404   1.521   5.789
 1873SOL    HW1 6518   5.424   1.598   5.849
 1873SOL    HW2 6519   5.490   1.478   5.760
 1874SOL     OW 6520   2.566   0.966   0.845
 1874SOL    HW1 6521   2.653   0.994   0.805
 1874SOL    HW2 6522   2.492   1.024   0.811
 1875SOL     OW 6523   0.159   0.700   0.421
 1875SOL    HW1 6524   0.187   0.792   0.394
 1875SOL    HW2 6525   0.225   0.663   0.487
 1876SOL     OW 6526   3.499   6.227   6.152
 1876SOL    HW1 6527   3.414   6.175   6.151
 1876SOL    HW2 6528   3.575   6.166   6.176
 1877SOL     OW 6529   0.830   1.837   3.123
 1877SOL    HW1 6530   0.906   1.796   3.073
 1877SOL    HW2 6531   0.784   1.766   3.177
 1878SOL     OW 6532   6.323   3.399   4.271
 1878SOL    HW1 6533   6.356   3.474   4.214
 1878SOL    HW2 6534   6.401   3.352   4.313
 1879SOL     OW 6535   1.882   5.277   4.031
 1879SOL    HW1 6536   1.859   5.328   4.113
 1879SOL    HW2 6537   1.809   5.287   3.963
 1880SOL     OW 6538   6.141   1.091   4.017
 1880SOL    HW1 6539   6.196   1.071   4.098
 1880SOL    HW2 6540   6.046   1.104   4.044
 1881SOL     OW 6541   0.527   3.288   2.974
 1881SOL    HW1 6542   0.536   3.383   2.941
 1881SOL    HW2 6543   0.496   3.288   3.068
 1882SOL     OW 6544   1.044   4.118   0.203
 1882SOL    HW1 6545   1.037   4.026   0.242
 1882SOL    HW2 6546   1.021   4.186   0.273
 1883SOL     OW 6547   1.432   2.961   3.879
 1883SOL    HW1 6548   1.349   2.933   3.832
 1883SOL    HW2 6549   1.420   3.052   3.919
 1884SOL     OW 6550   5.859   2.845   6.895
 1884SOL    HW1 6551   5.952   2.880   6.894
 1884SOL    HW2 6552   5.810   2.880   6.815
 1885SOL     OW 6553   0.869   2.261   6.216
 1885SOL    HW1 6554   0.796   2.205   6.177
 1885SOL    HW2 6555   0.957   2.228   6.183
 1886SOL     OW 6556   2.414   0.594   1.690
 1886SOL    HW1 6557   2.456   0.663   1.631
 1886SOL    HW2 6558   2.370   0.525   1.634
 1887SOL     OW 6559   1.792   5.586   6.567
 1887SOL    HW1 6560   1.703   5.543   6.576
 1887SOL    HW2 6561   1.855   5.547   6.634
 1888SOL     OW 6562   2.993   2.529   6.679
 1888SOL    HW1 6563   3.080   2.483   6.661
 1888SOL    HW2 6564   2.987   2.551   6.777
 1889SOL     OW 6565   5.867   3.275   6.718
 1889SOL    HW1 6566   5.843   3.238   6.808
 1889SOL    HW2 6567   5.807   3.352   6.696
 1890SOL     OW 6568   1.333   5.672   4.544
 1890SOL    HW1 6569   1.338   5.706   4.450
 1890SOL    HW2 6570   1.397   5.723   4.601
 1891SOL     OW 6571   6.193   2.674   3.213
 1891SOL    HW1 6572   6.106   2.651   3.170
 1891SOL    HW2 6573   6.207   2.773   3.210
 1892SOL     OW 6574   3.113   1.127   0.520
 1892SOL    HW1 6575   3.015   1.124   0.541
 1892SOL    HW2 6576   3.159   1.186   0.586
 1893SOL     OW 6577   3.219   2.859   0.443
 1893SOL    HW1 6578   3.201   2.918   0.522
 1893SOL    HW2 6579   3.151   2.876   0.372
 1894SOL     OW 6580   4.042   3.749   3.341
 1894SOL    HW1 6581   3.974   3.799   3.287
 1894SOL    HW2 6582   4.068   3.666   3.293
 1895SOL     OW 6583   6.269   1.040   2.174
 1895SOL    HW1 6584   6.332   0.963   2.183
 1895SOL    HW2 6585   6.178   1.007   2.150
 1896SOL     OW 6586   0.154   0.602   1.733
 1896SOL    HW1 6587   0.059   0.632   1.739
 1896SOL    HW2 6588   0.187   0.581   1.825
 1897SOL     OW 6589   1.322   4.619   2.547
 1897SOL    HW1 6590   1.299   4.682   2.473
 1897SOL    HW2 6591   1.381   4.665   2.613
 1898SOL     OW 6592   3.328   5.100   2.616
 1898SOL    HW1 6593   3.404   5.104   2.681
 1898SOL    HW2 6594   3.273   5.019   2.634
 1899SOL     OW 6595   1.076   1.864   2.308
 1899SOL    HW1 6596   1.047   1.873   2.213
 1899SOL    HW2 6597   1.171   1.894   2.317
 1900SOL     OW 6598   1.386   0.406   6.258
 1900SOL    HW1 6599   1.326   0.481   6.288
 1900SOL    HW2 6600   1.428   0.363   6.338
 1901SOL     OW 6601   2.087   1.525   1.538
 1901SOL    HW1 6602   2.152   1.531   1.614
 1901SOL    HW2 6603   2.003   1.574   1.562
 1902SOL     OW 6604   2.535   2.076   4.899
 1902SOL    HW1 6605   2.580   2.015   4.964
 1902SOL    HW2 6606   2.567   2.055   4.806
 1903SOL     OW 6607   6.454   3.223   3.298
 1903SOL    HW1 6608   6.442   3.195   3.393
 1903SOL    HW2 6609   6.499   3.149   3.247
 1904SOL     OW 6610   5.867   6.492   4.936
 1904SOL    HW1 6611   5.852   6.450   5.025
 1904SOL    HW2 6612   5.810   6.446   4.867
 1905SOL     OW 6613   1.683   0.900   4.152
 1905SOL    HW1 6614   1.725   0.973   4.098
 1905SOL    HW2 6615   1.614   0.853   4.097
 1906SOL     OW 6616   2.390   0.340   5.083
 1906SOL    HW1 6617   2.357   0.311   4.994
 1906SOL    HW2 6618   2.327   0.406   5.123
 1907SOL     OW 6619   3.448   6.490   3.117
 1907SOL    HW1 6620   3.533   6.445   3.091
 1907SOL    HW2 6621   3.371   6.432   3.092
 1908SOL     OW 6622   3.530   6.909   5.161
 1908SOL    HW1 6623   3.547   6.863   5.074
 1908SOL    HW2 6624   3.613   6.905   5.218
 1909SOL     OW 6625   0.623   4.060   2.395
 1909SOL    HW1 6626   0.618   4.029   2.490
 1909SOL    HW2 6627   0.718   4.082   2.372
 1910SOL     OW 6628   6.797   2.859   6.087
 1910SOL    HW1 6629   6.710   2.887   6.046
 1910SOL    HW2 6630   6.823   2.923   6.159
 1911SOL     OW 6631   6.012   3.350   5.013
 1911SOL    HW1 6632   6.085   3.292   4.976
 1911SOL    HW2 6633   5.924   3.316   4.981
 1912SOL     OW 6634   2.955   6.582   0.989
 1912SOL    HW1 6635   2.992   6.664   1.031
 1912SOL    HW2 6636   2.973   6.503   1.048
 1913SOL     OW 6637   1.425   6.077   5.213
 1913SOL    HW1 6638   1.514   6.067   5.169
 1913SOL    HW2 6639   1.379   5.989   5.214
 1914SOL     OW 6640   3.869   3.010   6.525
 1914SOL    HW1 6641   3.926   3.091   6.533
 1914SOL    HW2 6642   3.883   2.967   6.435
 1915SOL     OW 6643   3.823   2.103   4.924
 1915SOL    HW1 6644   3.806   2.121   5.021
 1915SOL    HW2 6645   3.737   2.077   4.879
 1916SOL     OW 6646   3.851   5.734   1.502
 1916SOL    HW1 6647   3.901   5.717   1.417
 1916SOL    HW2 6648   3.755   5.710   1.490
 1917SOL     OW 6649   3.125   3.044   5.094
 1917SOL    HW1 6650   3.040   3.094   5.075
 1917SOL    HW2 6651   3.120   3.002   5.185
 1918SOL     OW 6652   0.548   1.013   5.587
 1918SOL    HW1 6653   0.647   1.001   5.576
 1918SOL    HW2 6654   0.530   1.099   5.635
 1919SOL     OW 6655   2.984   0.943   1.410
 1919SOL    HW1 6656   2.918   0.867   1.419
 1919SOL    HW2 6657   3.022   0.965   1.500
 1920SOL     OW 6658   1.694   4.371   2.473
 1920SOL    HW1 6659   1.609   4.320   2.485
 1920SOL    HW2 6660   1.691   4.454   2.529
 1921SOL     OW 6661   0.928   4.826   0.152
 1921SOL    HW1 6662   0.884   4.855   0.067
 1921SOL    HW2 6663   0.925   4.726   0.159
 1922SOL     OW 6664   2.221   4.252   0.891
 1922SOL    HW1 6665   2.223   4.291   0.983
 1922SOL    HW2 6666   2.225   4.152   0.897
 1923SOL     OW 6667   3.105   0.584   5.664
 1923SOL    HW1 6668   3.131   0.606   5.758
 1923SOL    HW2 6669   3.184   0.546   5.616
 1924SOL     OW 6670   4.423   5.575   1.233
 1924SOL    HW1 6671   4.479   5.625   1.166
 1924SOL    HW2 6672   4.474   5.566   1.319
 1925SOL     OW 6673   1.723   4.261   0.127
 1925SOL    HW1 6674   1.682   4.228   0.212
 1925SOL    HW2 6675   1.652   4.301   0.069
 1926SOL     OW 6676   2.266   6.862   3.647
 1926SOL    HW1 6677   2.348   6.885   3.699
 1926SOL    HW2 6678   2.235   6.943   3.597
 1927SOL     OW 6679   2.595   4.491   6.585
 1927SOL    HW1 6680   2.519   4.516   6.525
 1927SOL    HW2 6681   2.680   4.488   6.533
 1928SOL     OW 6682   6.507   4.355   5.956
 1928SOL    HW1 6683   6.470   4.447   5.964
 1928SOL    HW2 6684   6.573   4.339   6.030
 1929SOL     OW 6685   0.891   5.046   1.540
 1929SOL    HW1 6686   0.894   4.966   1.599
 1929SOL    HW2 6687   0.910   5.128   1.594
 1930SOL     OW 6688   3.556   3.757   6.478
 1930SOL    HW1 6689   3.648   3.774   6.511
 1930SOL    HW2 6690   3.490   3.803   6.538
 1931SOL     OW 6691   0.418   3.677   2.697
 1931SOL    HW1 6692   0.397   3.588   2.657
 1931SOL    HW2 6693   0.342   3.740   2.680
 1932SOL     OW 6694   4.993   3.515   3.344
 1932SOL    HW1 6695   5.054   3.529   3.422
 1932SOL    HW2 6696   4.976   3.603   3.299
 1933SOL     OW 6697   1.877   3.814   0.721
 1933SOL    HW1 6698   1.959   3.798   0.776
 1933SOL    HW2 6699   1.832   3.727   0.704
 1934SOL     OW 6700   0.363   0.164   5.208
 1934SOL    HW1 6701   0.328   0.081   5.167
 1934SOL    HW2 6702   0.287   0.223   5.236
 1935SOL     OW 6703   4.024   6.165   3.628
 1935SOL    HW1 6704   3.993   6.257   3.603
 1935SOL    HW2 6705   4.059   6.167   3.722
 1936SOL     OW 6706   5.986   3.730   3.739
 1936SOL    HW1 6707   5.927   3.786   3.798
 1936SOL    HW2 6708   5.934   3.701   3.658
 1937SOL     OW 6709   3.579   6.956   1.384
 1937SOL    HW1 6710   3.658   6.988   1.332
 1937SOL    HW2 6711   3.498   6.956   1.325
 1938SOL     OW 6712   2.209   1.627   1.974
 1938SOL    HW1 6713   2.235   1.619   2.070
 1938SOL    HW2 6714   2.177   1.720   1.955
 1939SOL     OW 6715   6.541   0.509   4.573
 1939SOL    HW1 6716   6.570   0.414   4.582
 1939SOL    HW2 6717   6.444   0.513   4.550
 1940SOL     OW 6718   5.286   4.640   0.779
 1940SOL    HW1 6719   5.373   4.603   0.748
 1940SOL    HW2 6720   5.219   4.566   0.787
 1941SOL     OW 6721   0.663   4.045   4.509
 1941SOL    HW1 6722   0.599   3.968   4.508
 1941SOL    HW2 6723   0.612   4.130   4.524
 1942SOL     OW 6724   5.379   1.505   1.719
 1942SOL    HW1 6725   5.411   1.530   1.811
 1942SOL    HW2 6726   5.292   1.550   1.702
 1943SOL     OW 6727   2.151   6.304   3.514
 1943SOL    HW1 6728   2.128   6.208   3.526
 1943SOL    HW2 6729   2.072   6.353   3.476
 1944SOL     OW 6730   6.234   2.821   0.160
 1944SOL    HW1 6731   6.316   2.808   0.216
 1944SOL    HW2 6732   6.170   2.747   0.179
 1945SOL     OW 6733   4.095   5.247   0.759
 1945SOL    HW1 6734   4.128   5.335   0.794
 1945SOL    HW2 6735   4.172   5.184   0.750
 1946SOL     OW 6736   6.514   6.501   0.671
 1946SOL    HW1 6737   6.455   6.491   0.751
 1946SOL    HW2 6738   6.489   6.584   0.621
 1947SOL     OW 6739   4.695   6.214   4.456
 1947SOL    HW1 6740   4.670   6.255   4.369
 1947SOL    HW2 6741   4.636   6.250   4.528
 1948SOL     OW 6742   5.856   5.643   3.682
 1948SOL    HW1 6743   5.869   5.554   3.727
 1948SOL    HW2 6744   5.886   5.637   3.587
 1949SOL     OW 6745   3.381   4.144   6.244
 1949SOL    HW1 6746   3.459   4.097   6.203
 1949SOL    HW2 6747   3.301   4.083   6.244
 1950SOL     OW 6748   4.022   3.325   0.406
 1950SOL    HW1 6749   3.969   3.369   0.334
 1950SOL    HW2 6750   4.073   3.248   0.367
 1951SOL     OW 6751   5.720   3.727   6.885
 1951SOL    HW1 6752   5.744   3.789   6.960
 1951SOL    HW2 6753   5.710   3.780   6.801
 1952SOL     OW 6754   4.948   3.478   1.213
 1952SOL    HW1 6755   4.927   3.575   1.225
 1952SOL    HW2 6756   4.912   3.427   1.291
 1953SOL     OW 6757   6.226   1.702   5.528
 1953SOL    HW1 6758   6.290   1.772   5.494
 1953SOL    HW2 6759   6.145   1.702   5.470
 1954SOL     OW 6760   6.748   0.849   2.735
 1954SOL    HW1 6761   6.681   0.890   2.795
 1954SOL    HW2 6762   6.776   0.760   2.771
 1955SOL     OW 6763   0.467   1.272   2.611
 1955SOL    HW1 6764   0.404   1.258   2.688
 1955SOL    HW2 6765   0.416   1.309   2.533
 1956SOL     OW 6766   5.095   6.970   2.242
 1956SOL    HW1 6767   5.169   6.995   2.305
 1956SOL    HW2 6768   5.030   0.022   2.236
 1957SOL     OW 6769   5.812   4.487   4.310
 1957SOL    HW1 6770   5.726   4.537   4.318
 1957SOL    HW2 6771   5.833   4.472   4.213
 1958SOL     OW 6772   4.990   1.876   2.034
 1958SOL    HW1 6773   4.896   1.888   2.065
 1958SOL    HW2 6774   5.050   1.941   2.080
 1959SOL     OW 6775   1.136   0.187   4.235
 1959SOL    HW1 6776   1.156   0.136   4.151
 1959SOL    HW2 6777   1.215   0.244   4.259
 1960SOL     OW 6778   6.947   4.574   2.056
 1960SOL    HW1 6779   6.915   4.638   1.986
 1960SOL    HW2 6780   0.019   4.549   2.037
 1961SOL     OW 6781   6.103   4.359   3.933
 1961SOL    HW1 6782   6.120   4.289   4.002
 1961SOL    HW2 6783   6.160   4.341   3.852
 1962SOL     OW 6784   1.059   6.502   3.418
 1962SOL    HW1 6785   0.994   6.576   3.400
 1962SOL    HW2 6786   1.050   6.432   3.347
 1963SOL     OW 6787   0.995   1.966   1.303
 1963SOL    HW1 6788   1.015   1.868   1.294
 1963SOL    HW2 6789   1.076   2.019   1.277
 1964SOL     OW 6790   5.037   4.518   1.112
 1964SOL    HW1 6791   4.957   4.561   1.154
 1964SOL    HW2 6792   5.007   4.448   1.047
 1965SOL     OW 6793   2.049   2.911   4.418
 1965SOL    HW1 6794   2.075   2.983   4.482
 1965SOL    HW2 6795   1.952   2.921   4.394
 1966SOL     OW 6796   0.476   6.042   0.727
 1966SOL    HW1 6797   0.556   6.057   0.785
 1966SOL    HW2 6798   0.397   6.022   0.785
 1967SOL     OW 6799   5.645   2.792   5.752
 1967SOL    HW1 6800   5.705   2.745   5.687
 1967SOL    HW2 6801   5.600   2.869   5.707
 1968SOL     OW 6802   1.412   6.547   5.552
 1968SOL    HW1 6803   1.405   6.582   5.646
 1968SOL    HW2 6804   1.346   6.596   5.494
 1969SOL     OW 6805   1.137   1.554   1.371
 1969SOL    HW1 6806   1.102   1.591   1.285
 1969SOL    HW2 6807   1.163   1.630   1.431
 1970SOL     OW 6808   2.856   6.410   6.125
 1970SOL    HW1 6809   2.869   6.380   6.219
 1970SOL    HW2 6810   2.789   6.352   6.079
 1971SOL     OW 6811   0.630   0.238   5.838
 1971SOL    HW1 6812   0.651   0.224   5.935
 1971SOL    HW2 6813   0.683   0.314   5.803
 1972SOL     OW 6814   5.447   2.016   2.252
 1972SOL    HW1 6815   5.459   1.991   2.156
 1972SOL    HW2 6816   5.536   2.020   2.297
 1973SOL     OW 6817   3.097   2.943   0.211
 1973SOL    HW1 6818   3.089   3.041   0.195
 1973SOL    HW2 6819   3.148   2.901   0.135
 1974SOL     OW 6820   5.549   6.566   4.946
 1974SOL    HW1 6821   5.587   6.479   4.916
 1974SOL    HW2 6822   5.623   6.632   4.960
 1975SOL     OW 6823   1.717   1.868   3.955
 1975SOL    HW1 6824   1.664   1.795   3.999
 1975SOL    HW2 6825   1.814   1.850   3.965
 1976SOL     OW 6826   6.922   0.089   0.331
 1976SOL    HW1 6827   7.004   0.141   0.353
 1976SOL    HW2 6828   6.945   0.017   0.265
 1977SOL     OW 6829   1.840   3.076   4.724
 1977SOL    HW1 6830   1.760   3.046   4.776
 1977SOL    HW2 6831   1.819   3.070   4.626
 1978SOL     OW 6832   1.815   6.043   2.921
 1978SOL    HW1 6833   1.759   6.090   2.989
 1978SOL    HW2 6834   1.828   6.103   2.841
 1979SOL     OW 6835   6.058   4.195   6.361
 1979SOL    HW1 6836   6.107   4.230   6.281
 1979SOL    HW2 6837   6.043   4.097   6.351
 1980SOL     OW 6838   3.621   7.020   4.857
 1980SOL    HW1 6839   3.666   6.998   4.771
 1980SOL    HW2 6840   3.572   6.940   4.891
 1981SOL     OW 6841   6.946   2.927   2.053
 1981SOL    HW1 6842   6.968   2.847   2.109
 1981SOL    HW2 6843   0.000   2.990   2.054
 1982SOL     OW 6844   0.756   4.127   4.241
 1982SOL    HW1 6845   0.668   4.137   4.289
 1982SOL    HW2 6846   0.830   4.159   4.300
 1983SOL     OW 6847   0.561   0.885   2.771
 1983SOL    HW1 6848   0.594   0.966   2.723
 1983SOL    HW2 6849   0.638   0.840   2.818
 1984SOL     OW 6850   4.540   1.889   4.925
 1984SOL    HW1 6851   4.507   1.983   4.918
 1984SOL    HW2 6852   4.568   1.871   5.019
 1985SOL     OW 6853   1.171   6.364   2.671
 1985SOL    HW1 6854   1.127   6.280   2.640
 1985SOL    HW2 6855   1.249   6.385   2.612
 1986SOL     OW 6856   2.475   0.791   0.001
 1986SOL    HW1 6857   2.531   0.801   6.942
 1986SOL    HW2 6858   2.421   0.875   0.014
 1987SOL     OW 6859   1.775   2.482   2.810
 1987SOL    HW1 6860   1.819   2.564   2.774
 1987SOL    HW2 6861   1.820   2.454   2.894
 1988SOL     OW 6862   6.014   3.404   0.564
 1988SOL    HW1 6863   6.103   3.425   0.605
 1988SOL    HW2 6864   6.010   3.307   0.540
 1989SOL     OW 6865   1.929   5.432   5.294
 1989SOL    HW1 6866   1.944   5.434   5.393
 1989SOL    HW2 6867   1.966   5.516   5.253
 1990SOL     OW 6868   3.786   5.868   0.713
 1990SOL    HW1 6869   3.863   5.899   0.770
 1990SOL    HW2 6870   3.781   5.768   0.716
 1991SOL     OW 6871   2.759   5.379   0.074
 1991SOL    HW1 6872   2.690   5.364   0.145
 1991SOL    HW2 6873   2.733   5.329   7.014
 1992SOL     OW 6874   0.441   1.118   0.334
 1992SOL    HW1 6875   0.399   1.130   0.244
 1992SOL    HW2 6876   0.500   1.197   0.354
 1993SOL     OW 6877   3.609   2.395   5.320
 1993SOL    HW1 6878   3.510   2.405   5.319
 1993SOL    HW2 6879   3.638   2.359   5.409
 1994SOL     OW 6880   0.725   1.817   0.199
 1994SOL    HW1 6881   0.798   1.763   0.157
 1994SOL    HW2 6882   0.675   1.867   0.128
 1995SOL     OW 6883   5.479   2.253   3.734
 1995SOL    HW1 6884   5.567   2.205   3.736
 1995SOL    HW2 6885   5.407   2.191   3.704
 1996SOL     OW 6886   1.837   2.787   0.336
 1996SOL    HW1 6887   1.848   2.811   0.239
 1996SOL    HW2 6888   1.791   2.698   0.343
 1997SOL     OW 6889   3.121   1.859   4.976
 1997SOL    HW1 6890   3.137   1.827   5.069
 1997SOL    HW2 6891   3.035   1.819   4.942
 1998SOL     OW 6892   2.906   4.028   0.103
 1998SOL    HW1 6893   2.812   3.993   0.093
 1998SOL    HW2 6894   2.968   3.952   0.121
 1999SOL     OW 6895   2.417   6.542   6.178
 1999SOL    HW1 6896   2.340   6.588   6.134
 1999SOL    HW2 6897   2.481   6.511   6.107
 2000SOL     OW 6898   4.347   2.713   5.288
 2000SOL    HW1 6899   4.279   2.643   5.268
 2000SOL    HW2 6900   4.316   2.768   5.365
 2001SOL     OW 6901   2.819   0.486   1.735
 2001SOL    HW1 6902   2.720   0.501   1.743
 2001SOL    HW2 6903   2.848   0.506   1.641
 2002SOL     OW 6904   0.433   4.828   0.263
 2002SOL    HW1 6905   0.382   4.820   0.349
 2002SOL    HW2 6906   0.518   4.878   0.279
 2003SOL     OW 6907   5.660   5.356   2.636
 2003SOL    HW1 6908   5.619   5.423   2.575
 2003SOL    HW2 6909   5.587   5.304   2.682
 2004SOL     OW 6910   4.953   1.358   4.771
 2004SOL    HW1 6911   4.914   1.362   4.679
 2004SOL    HW2 6912   5.003   1.442   4.790
 2005SOL     OW 6913   0.204   5.132   0.153
 2005SOL    HW1 6914   0.247   5.076   0.082
 2005SOL    HW2 6915   0.255   5.217   0.163
 2006SOL     OW 6916   5.882   0.008   3.323
 2006SOL    HW1 6917   5.903   6.938   3.291
 2006SOL    HW2 6918   5.798   0.006   3.376
 2007SOL     OW 6919   4.566   4.534   1.106
 2007SOL    HW1 6920   4.556   4.554   1.203
 2007SOL    HW2 6921   4.475   4.531   1.063
 2008SOL     OW 6922   2.198   4.383   3.964
 2008SOL    HW1 6923   2.252   4.323   4.023
 2008SOL    HW2 6924   2.253   4.411   3.885
 2009SOL     OW 6925   5.403   0.500   2.388
 2009SOL    HW1 6926   5.370   0.432   2.454
 2009SOL    HW2 6927   5.391   0.592   2.426
 2010SOL     OW 6928   2.450   1.908   2.127
 2010SOL    HW1 6929   2.433   1.907   2.225
 2010SOL    HW2 6930   2.473   2.001   2.098
 2011SOL     OW 6931   6.663   6.594   4.915
 2011SOL    HW1 6932   6.586   6.656   4.899
 2011SOL    HW2 6933   6.653   6.513   4.856
 2012SOL     OW 6934   1.137   4.357   2.011
 2012SOL    HW1 6935   1.204   4.369   2.084
 2012SOL    HW2 6936   1.049   4.332   2.050
 2013SOL     OW 6937   6.438   2.838   3.424
 2013SOL    HW1 6938   6.500   2.787   3.364
 2013SOL    HW2 6939   6.483   2.856   3.511
 2014SOL     OW 6940   2.412   6.351   3.578
 2014SOL    HW1 6941   2.320   6.329   3.546
 2014SOL    HW2 6942   2.410   6.436   3.630
 2015SOL     OW 6943   1.610   0.600   6.987
 2015SOL    HW1 6944   1.627   0.552   6.900
 2015SOL    HW2 6945   1.648   0.692   6.980
 2016SOL     OW 6946   2.070   5.938   5.999
 2016SOL    HW1 6947   2.142   5.876   6.029
 2016SOL    HW2 6948   2.007   5.954   6.075
 2017SOL     OW 6949   3.775   0.001   4.369
 2017SOL    HW1 6950   3.693   0.049   4.337
 2017SOL    HW2 6951   3.856   0.040   4.325
 2018SOL     OW 6952   5.188   2.007   4.788
 2018SOL    HW1 6953   5.164   1.926   4.734
 2018SOL    HW2 6954   5.119   2.021   4.858
 2019SOL     OW 6955   5.161   3.550   6.327
 2019SOL    HW1 6956   5.238   3.496   6.294
 2019SOL    HW2 6957   5.193   3.616   6.394
 2020SOL     OW 6958   1.509   0.481   5.140
 2020SOL    HW1 6959   1.473   0.392   5.109
 2020SOL    HW2 6960   1.599   0.468   5.182
 2021SOL     OW 6961   0.534   6.030   5.233
 2021SOL    HW1 6962   0.615   6.074   5.272
 2021SOL    HW2 6963   0.561   5.948   5.182
 2022SOL     OW 6964   1.472   4.297   3.300
 2022SOL    HW1 6965   1.507   4.357   3.228
 2022SOL    HW2 6966   1.419   4.223   3.259
 2023SOL     OW 6967   0.204   0.679   6.657
 2023SOL    HW1 6968   0.135   0.746   6.628
 2023SOL    HW2 6969   0.295   0.719   6.650
 2024SOL     OW 6970   0.288   6.323   3.514
 2024SOL    HW1 6971   0.263   6.227   3.527
 2024SOL    HW2 6972   0.364   6.346   3.575
 2025SOL     OW 6973   2.734   1.111   3.615
 2025SOL    HW1 6974   2.643   1.070   3.601
 2025SOL    HW2 6975   2.780   1.067   3.691
 2026SOL     OW 6976   6.728   2.890   5.392
 2026SOL    HW1 6977   6.800   2.957   5.411
 2026SOL    HW2 6978   6.703   2.894   5.296
 2027SOL     OW 6979   1.565   0.051   0.526
 2027SOL    HW1 6980   1.647   0.054   0.468
 2027SOL    HW2 6981   1.503   0.125   0.501
 2028SOL     OW 6982   2.551   6.486   4.571
 2028SOL    HW1 6983   2.452   6.480   4.586
 2028SOL    HW2 6984   2.571   6.561   4.508
 2029SOL     OW 6985   6.069   1.452   7.006
 2029SOL    HW1 6986   6.161   1.412   7.009
 2029SOL    HW2 6987   6.022   1.421   6.923
 2030SOL     OW 6988   2.880   0.984   3.800
 2030SOL    HW1 6989   2.877   1.034   3.887
 2030SOL    HW2 6990   2.897   0.887   3.818
 2031SOL     OW 6991   6.614   5.909   1.251
 2031SOL    HW1 6992   6.551   5.841   1.213
 2031SOL    HW2 6993   6.690   5.862   1.297
 2032SOL     OW 6994   4.603   0.400   2.125
 2032SOL    HW1 6995   4.639   0.493   2.129
 2032SOL    HW2 6996   4.678   0.335   2.131
 2033SOL     OW 6997   3.365   2.946   5.987
 2033SOL    HW1 6998   3.357   3.036   5.945
 2033SOL    HW2 6999   3.278   2.898   5.980
 2034SOL     OW 7000   2.342   5.570   5.535
 2034SOL    HW1 7001   2.390   5.611   5.458
 2034SOL    HW2 7002   2.244   5.592   5.530
 2035SOL     OW 7003   0.009   6.356   3.771
 2035SOL    HW1 7004   0.094   6.407   3.789
 2035SOL    HW2 7005   6.956   6.420   3.765
 2036SOL     OW 7006   0.974   4.230   2.809
 2036SOL    HW1 7007   1.019   4.152   2.852
 2036SOL    HW2 7008   0.953   4.299   2.878
 2037SOL     OW 7009   6.273   3.049   5.782
 2037SOL    HW1 7010   6.330   3.112   5.730
 2037SOL    HW2 7011   6.238   2.977   5.721
 2038SOL     OW 7012   2.145   1.677   0.294
 2038SOL    HW1 7013   2.149   1.645   0.199
 2038SOL    HW2 7014   2.208   1.623   0.349
 2039SOL     OW 7015   0.034   5.212   4.004
 2039SOL    HW1 7016   6.994   5.278   3.964
 2039SOL    HW2 7017   0.067   5.149   3.933
 2040SOL     OW 7018   2.636   3.006   5.870
 2040SOL    HW1 7019   2.658   2.987   5.774
 2040SOL    HW2 7020   2.537   3.016   5.880
 2041SOL     OW 7021   1.031   6.174   6.064
 2041SOL    HW1 7022   1.106   6.239   6.080
 2041SOL    HW2 7023   0.951   6.224   6.032
 2042SOL     OW 7024   4.858   6.194   6.756
 2042SOL    HW1 7025   4.761   6.199   6.776
 2042SOL    HW2 7026   4.872   6.142   6.672
 2043SOL     OW 7027   6.059   4.046   3.122
 2043SOL    HW1 7028   6.087   4.026   3.028
 2043SOL    HW2 7029   6.109   3.985   3.184
 2044SOL     OW 7030   7.015   0.268   1.404
 2044SOL    HW1 7031   6.968   0.353   1.426
 2044SOL    HW2 7032   0.046   0.238   1.482
 2045SOL     OW 7033   1.594   5.145   4.332
 2045SOL    HW1 7034   1.677   5.113   4.287
 2045SOL    HW2 7035   1.611   5.156   4.430
 2046SOL     OW 7036   6.822   2.077   4.549
 2046SOL    HW1 7037   6.779   2.031   4.471
 2046SOL    HW2 7038   6.870   2.009   4.605
 2047SOL     OW 7039   6.885   2.921   0.291
 2047SOL    HW1 7040   6.831   2.842   0.262
 2047SOL    HW2 7041   6.825   2.992   0.326
 2048SOL     OW 7042   1.646   6.366   6.043
 2048SOL    HW1 7043   1.710   6.427   5.996
 2048SOL    HW2 7044   1.693   6.282   6.069
 2049SOL     OW 7045   5.881   1.575   4.488
 2049SOL    HW1 7046   5.861   1.638   4.413
 2049SOL    HW2 7047   5.812   1.503   4.490
 2050SOL     OW 7048   6.087   2.695   4.351
 2050SOL    HW1 7049   6.132   2.642   4.279
 2050SOL    HW2 7050   6.013   2.642   4.391
 2051SOL     OW 7051   1.111   6.238   0.147
 2051SOL    HW1 7052   1.202   6.197   0.152
 2051SOL    HW2 7053   1.076   6.254   0.239
 2052SOL     OW 7054   1.839   2.889   1.394
 2052SOL    HW1 7055   1.913   2.835   1.434
 2052SOL    HW2 7056   1.820   2.968   1.452
 2053SOL     OW 7057   6.723   6.086   4.497
 2053SOL    HW1 7058   6.652   6.142   4.454
 2053SOL    HW2 7059   6.683   6.034   4.573
 2054SOL     OW 7060   3.171   4.040   3.418
 2054SOL    HW1 7061   3.211   4.071   3.504
 2054SOL    HW2 7062   3.127   3.951   3.431
 2055SOL     OW 7063   5.736   3.488   3.896
 2055SOL    HW1 7064   5.700   3.566   3.946
 2055SOL    HW2 7065   5.833   3.477   3.915
 2056SOL     OW 7066   4.331   6.061   1.406
 2056SOL    HW1 7067   4.425   6.071   1.374
 2056SOL    HW2 7068   4.315   6.123   1.483
 2057SOL     OW 7069   5.274   4.128   5.878
 2057SOL    HW1 7070   5.361   4.103   5.920
 2057SOL    HW2 7071   5.289   4.152   5.782
 2058SOL     OW 7072   0.331   0.643   3.307
 2058SOL    HW1 7073   0.423   0.668   3.280
 2058SOL    HW2 7074   0.326   0.545   3.325
 2059SOL     OW 7075   1.901   5.649   6.322
 2059SOL    HW1 7076   1.855   5.607   6.400
 2059SOL    HW2 7077   1.847   5.728   6.290
 2060SOL     OW 7078   0.672   3.996   1.575
 2060SOL    HW1 7079   0.767   3.975   1.555
 2060SOL    HW2 7080   0.614   3.918   1.548
 2061SOL     OW 7081   1.408   1.920   2.406
 2061SOL    HW1 7082   1.485   1.984   2.407
 2061SOL    HW2 7083   1.421   1.853   2.333
 2062SOL     OW 7084   6.852   5.081   4.747
 2062SOL    HW1 7085   6.830   4.989   4.783
 2062SOL    HW2 7086   6.781   5.145   4.777
 2063SOL     OW 7087   0.983   6.544   5.339
 2063SOL    HW1 7088   0.991   6.451   5.375
 2063SOL    HW2 7089   0.895   6.583   5.366
 2064SOL     OW 7090   6.950   2.516   4.918
 2064SOL    HW1 7091   6.899   2.540   4.835
 2064SOL    HW2 7092   0.025   2.531   4.901
 2065SOL     OW 7093   5.936   2.559   5.731
 2065SOL    HW1 7094   5.990   2.510   5.662
 2065SOL    HW2 7095   5.981   2.552   5.820
 2066SOL     OW 7096   0.054   4.701   4.923
 2066SOL    HW1 7097   0.096   4.683   4.834
 2066SOL    HW2 7098   7.023   4.622   4.951
 2067SOL     OW 7099   0.117   5.506   0.739
 2067SOL    HW1 7100   0.019   5.509   0.721
 2067SOL    HW2 7101   0.165   5.563   0.673
 2068SOL     OW 7102   1.846   0.315   4.327
 2068SOL    HW1 7103   1.789   0.252   4.380
 2068SOL    HW2 7104   1.847   0.286   4.231
 2069SOL     OW 7105   6.347   3.006   4.150
 2069SOL    HW1 7106   6.249   3.000   4.130
 2069SOL    HW2 7107   6.392   2.920   4.124
 2070SOL     OW 7108   0.961   1.379   0.955
 2070SOL    HW1 7109   0.933   1.285   0.934
 2070SOL    HW2 7110   1.060   1.387   0.947
 2071SOL     OW 7111   5.988   0.562   5.964
 2071SOL    HW1 7112   5.963   0.658   5.949
 2071SOL    HW2 7113   5.935   0.525   6.040
 2072SOL     OW 7114   4.526   5.284   4.508
 2072SOL    HW1 7115   4.588   5.263   4.432
 2072SOL    HW2 7116   4.447   5.224   4.504
 2073SOL     OW 7117   4.749   6.888   5.132
 2073SOL    HW1 7118   4.685   6.839   5.072
 2073SOL    HW2 7119   4.705   6.906   5.220
 2074SOL     OW 7120   2.022   2.098   6.126
 2074SOL    HW1 7121   2.046   2.189   6.092
 2074SOL    HW2 7122   2.106   2.045   6.142
 2075SOL     OW 7123   0.070   2.623   3.329
 2075SOL    HW1 7124   0.110   2.708   3.363
 2075SOL    HW2 7125   0.120   2.545   3.365
 2076SOL     OW 7126   5.163   6.675   6.059
 2076SOL    HW1 7127   5.184   6.773   6.065
 2076SOL    HW2 7128   5.075   6.657   6.102
 2077SOL     OW 7129   6.772   1.990   2.919
 2077SOL    HW1 7130   6.812   1.950   2.836
 2077SOL    HW2 7131   6.717   1.921   2.965
 2078SOL     OW 7132   1.716   5.267   6.389
 2078SOL    HW1 7133   1.654   5.336   6.426
 2078SOL    HW2 7134   1.794   5.312   6.347
 2079SOL     OW 7135   6.949   2.277   3.019
 2079SOL    HW1 7136   6.857   2.314   3.010
 2079SOL    HW2 7137   6.964   2.246   3.113
 2080SOL     OW 7138   1.726   0.513   4.897
 2080SOL    HW1 7139   1.702   0.488   4.803
 2080SOL    HW2 7140   1.656   0.574   4.934
 2081SOL     OW 7141   0.806   6.282   4.565
 2081SOL    HW1 7142   0.796   6.375   4.600
 2081SOL    HW2 7143   0.801   6.217   4.642
 2082SOL     OW 7144   0.737   6.727   3.071
 2082SOL    HW1 7145   0.639   6.716   3.058
 2082SOL    HW2 7146   0.763   6.689   3.160
 2083SOL     OW 7147   1.298   5.234   5.981
 2083SOL    HW1 7148   1.250   5.210   6.065
 2083SOL    HW2 7149   1.380   5.288   6.004
 2084SOL     OW 7150   0.559   4.142   2.870
 2084SOL    HW1 7151   0.500   4.154   2.791
 2084SOL    HW2 7152   0.539   4.212   2.938
 2085SOL     OW 7153   5.249   0.922   0.862
 2085SOL    HW1 7154   5.342   0.957   0.867
 2085SOL    HW2 7155   5.195   0.979   0.800
 2086SOL     OW 7156   3.855   6.412   6.291
 2086SOL    HW1 7157   3.772   6.428   6.345
 2086SOL    HW2 7158   3.933   6.456   6.336
 2087SOL     OW 7159   5.120   1.241   2.057
 2087SOL    HW1 7160   5.037   1.230   2.111
 2087SOL    HW2 7161   5.176   1.314   2.097
 2088SOL     OW 7162   1.211   5.824   6.975
 2088SOL    HW1 7163   1.231   5.908   6.923
 2088SOL    HW2 7164   1.135   5.776   6.932
 2089SOL     OW 7165   4.662   2.890   5.985
 2089SOL    HW1 7166   4.570   2.855   5.998
 2089SOL    HW2 7167   4.703   2.911   6.073
 2090SOL     OW 7168   4.128   3.393   5.947
 2090SOL    HW1 7169   4.144   3.483   5.906
 2090SOL    HW2 7170   4.155   3.322   5.882
 2091SOL     OW 7171   6.702   4.803   0.317
 2091SOL    HW1 7172   6.652   4.795   0.231
 2091SOL    HW2 7173   6.651   4.862   0.380
 2092SOL     OW 7174   5.306   3.521   0.581
 2092SOL    HW1 7175   5.248   3.476   0.514
 2092SOL    HW2 7176   5.371   3.455   0.619
 2093SOL     OW 7177   3.102   2.342   1.750
 2093SOL    HW1 7178   3.185   2.379   1.792
 2093SOL    HW2 7179   3.022   2.385   1.791
 2094SOL     OW 7180   5.895   1.389   1.737
 2094SOL    HW1 7181   5.825   1.391   1.809
 2094SOL    HW2 7182   5.892   1.300   1.691
 2095SOL     OW 7183   6.292   6.205   5.141
 2095SOL    HW1 7184   6.291   6.141   5.064
 2095SOL    HW2 7185   6.359   6.277   5.124
 2096SOL     OW 7186   4.845   4.871   3.158
 2096SOL    HW1 7187   4.869   4.775   3.146
 2096SOL    HW2 7188   4.766   4.878   3.219
 2097SOL     OW 7189   2.975   2.743   6.211
 2097SOL    HW1 7190   2.965   2.655   6.165
 2097SOL    HW2 7191   3.014   2.730   6.302
 2098SOL     OW 7192   4.993   5.916   1.841
 2098SOL    HW1 7193   5.028   5.984   1.777
 2098SOL    HW2 7194   4.900   5.891   1.815
 2099SOL     OW 7195   3.706   1.762   6.755
 2099SOL    HW1 7196   3.650   1.844   6.761
 2099SOL    HW2 7197   3.657   1.691   6.705
 2100SOL     OW 7198   5.217   1.564   0.760
 2100SOL    HW1 7199   5.174   1.553   0.850
 2100SOL    HW2 7200   5.311   1.530   0.764
 2101SOL     OW 7201   0.578   6.706   1.258
 2101SOL    HW1 7202   0.523   6.623   1.253
 2101SOL    HW2 7203   0.519   6.783   1.285
 2102SOL     OW 7204   5.102   4.231   2.479
 2102SOL    HW1 7205   5.111   4.227   2.379
 2102SOL    HW2 7206   5.192   4.215   2.520
 2103SOL     OW 7207   3.579   3.569   0.075
 2103SOL    HW1 7208   3.491   3.585   0.120
 2103SOL    HW2 7209   3.600   3.647   0.015
 2104SOL     OW 7210   1.915   4.349   2.295
 2104SOL    HW1 7211   1.898   4.393   2.207
 2104SOL    HW2 7212   1.829   4.338   2.345
 2105SOL     OW 7213   4.703   4.470   6.278
 2105SOL    HW1 7214   4.615   4.423   6.264
 2105SOL    HW2 7215   4.776   4.402   6.280
 2106SOL     OW 7216   5.451   3.654   1.346
 2106SOL    HW1 7217   5.374   3.700   1.389
 2106SOL    HW2 7218   5.445   3.666   1.247
 2107SOL     OW 7219   6.604   2.367   5.448
 2107SOL    HW1 7220   6.601   2.407   5.357
 2107SOL    HW2 7221   6.689   2.394   5.494
 2108SOL     OW 7222   6.210   5.431   5.088
 2108SOL    HW1 7223   6.135   5.497   5.085
 2108SOL    HW2 7224   6.206   5.372   5.008
 2109SOL     OW 7225   3.802   6.287   2.554
 2109SOL    HW1 7226   3.799   6.292   2.454
 2109SOL    HW2 7227   3.821   6.193   2.582
 2110SOL     OW 7228   3.073   0.842   0.507
 2110SOL    HW1 7229   3.079   0.941   0.517
 2110SOL    HW2 7230   3.041   0.819   0.415
 2111SOL     OW 7231   1.987   3.272   6.930
 2111SOL    HW1 7232   2.047   3.341   6.889
 2111SOL    HW2 7233   2.035   3.185   6.935
 2112SOL     OW 7234   5.719   2.031   0.640
 2112SOL    HW1 7235   5.638   2.033   0.581
 2112SOL    HW2 7236   5.787   2.094   0.605
 2113SOL     OW 7237   2.040   0.837   5.275
 2113SOL    HW1 7238   1.987   0.813   5.356
 2113SOL    HW2 7239   2.122   0.780   5.270
 2114SOL     OW 7240   2.433   1.698   6.722
 2114SOL    HW1 7241   2.369   1.685   6.799
 2114SOL    HW2 7242   2.432   1.617   6.664
 2115SOL     OW 7243   0.401   4.191   2.288
 2115SOL    HW1 7244   0.483   4.134   2.293
 2115SOL    HW2 7245   0.381   4.227   2.379
 2116SOL     OW 7246   0.935   3.892   2.443
 2116SOL    HW1 7247   0.997   3.855   2.513
 2116SOL    HW2 7248   0.882   3.818   2.402
 2117SOL     OW 7249   6.154   4.161   1.338
 2117SOL    HW1 7250   6.188   4.116   1.421
 2117SOL    HW2 7251   6.219   4.231   1.308
 2118SOL     OW 7252   6.121   3.764   3.343
 2118SOL    HW1 7253   6.026   3.745   3.365
 2118SOL    HW2 7254   6.161   3.685   3.297
 2119SOL     OW 7255   1.866   0.463   0.943
 2119SOL    HW1 7256   1.808   0.454   0.862
 2119SOL    HW2 7257   1.843   0.547   0.992
 2120SOL     OW 7258   0.713   3.920   2.955
 2120SOL    HW1 7259   0.701   4.019   2.957
 2120SOL    HW2 7260   0.790   3.897   2.895
 2121SOL     OW 7261   1.618   2.733   5.450
 2121SOL    HW1 7262   1.592   2.798   5.521
 2121SOL    HW2 7263   1.566   2.647   5.462
 2122SOL     OW 7264   5.841   5.577   6.221
 2122SOL    HW1 7265   5.890   5.664   6.217
 2122SOL    HW2 7266   5.856   5.534   6.311
 2123SOL     OW 7267   6.920   5.417   1.709
 2123SOL    HW1 7268   6.864   5.413   1.792
 2123SOL    HW2 7269   6.901   5.503   1.661
 2124SOL     OW 7270   3.133   1.541   0.413
 2124SOL    HW1 7271   3.055   1.492   0.376
 2124SOL    HW2 7272   3.101   1.611   0.477
 2125SOL     OW 7273   1.340   6.406   2.267
 2125SOL    HW1 7274   1.360   6.406   2.365
 2125SOL    HW2 7275   1.408   6.352   2.219
 2126SOL     OW 7276   3.842   2.698   6.508
 2126SOL    HW1 7277   3.784   2.655   6.577
 2126SOL    HW2 7278   3.785   2.743   6.439
 2127SOL     OW 7279   0.490   1.475   6.123
 2127SOL    HW1 7280   0.581   1.516   6.137
 2127SOL    HW2 7281   0.442   1.527   6.052
 2128SOL     OW 7282   6.384   2.791   2.703
 2128SOL    HW1 7283   6.298   2.742   2.716
 2128SOL    HW2 7284   6.432   2.797   2.790
 2129SOL     OW 7285   5.184   4.210   4.827
 2129SOL    HW1 7286   5.174   4.141   4.899
 2129SOL    HW2 7287   5.279   4.239   4.821
 2130SOL     OW 7288   2.984   0.129   2.468
 2130SOL    HW1 7289   2.949   0.066   2.538
 2130SOL    HW2 7290   2.999   0.079   2.383
 2131SOL     OW 7291   4.987   1.820   0.891
 2131SOL    HW1 7292   5.045   1.898   0.869
 2131SOL    HW2 7293   4.913   1.812   0.824
 2132SOL     OW 7294   3.045   1.627   6.914
 2132SOL    HW1 7295   3.069   1.534   6.942
 2132SOL    HW2 7296   2.947   1.642   6.928
 2133SOL     OW 7297   3.770   2.710   1.353
 2133SOL    HW1 7298   3.749   2.612   1.348
 2133SOL    HW2 7299   3.735   2.756   1.271
 2134SOL     OW 7300   0.741   0.921   4.441
 2134SOL    HW1 7301   0.788   0.833   4.451
 2134SOL    HW2 7302   0.697   0.925   4.351
 2135SOL     OW 7303   0.587   1.752   4.349
 2135SOL    HW1 7304   0.547   1.800   4.428
 2135SOL    HW2 7305   0.683   1.732   4.367
 2136SOL     OW 7306   1.203   3.964   4.902
 2136SOL    HW1 7307   1.268   4.015   4.958
 2136SOL    HW2 7308   1.127   3.932   4.960
 2137SOL     OW 7309   7.007   6.135   4.461
 2137SOL    HW1 7310   6.998   6.199   4.385
 2137SOL    HW2 7311   6.917   6.097   4.483
 2138SOL     OW 7312   6.854   1.393   1.335
 2138SOL    HW1 7313   6.931   1.329   1.333
 2138SOL    HW2 7314   6.884   1.480   1.373
 2139SOL     OW 7315   3.802   0.622   2.714
 2139SOL    HW1 7316   3.793   0.719   2.691
 2139SOL    HW2 7317   3.877   0.610   2.779
 2140SOL     OW 7318   3.015   5.384   2.970
 2140SOL    HW1 7319   2.930   5.436   2.964
 2140SOL    HW2 7320   3.085   5.439   3.015
 2141SOL     OW 7321   6.527   3.883   0.777
 2141SOL    HW1 7322   6.602   3.884   0.842
 2141SOL    HW2 7323   6.444   3.918   0.821
 2142SOL     OW 7324   1.219   2.096   2.735
 2142SOL    HW1 7325   1.285   2.084   2.661
 2142SOL    HW2 7326   1.143   2.032   2.724
 2143SOL     OW 7327   3.271   4.971   1.297
 2143SOL    HW1 7328   3.238   5.046   1.239
 2143SOL    HW2 7329   3.199   4.903   1.308
 2144SOL     OW 7330   1.479   6.409   3.585
 2144SOL    HW1 7331   1.539   6.391   3.662
 2144SOL    HW2 7332   1.522   6.477   3.524
 2145SOL     OW 7333   3.490   6.324   4.258
 2145SOL    HW1 7334   3.547   6.399   4.292
 2145SOL    HW2 7335   3.527   6.290   4.172
 2146SOL     OW 7336   2.864   3.229   1.858
 2146SOL    HW1 7337   2.795   3.296   1.882
 2146SOL    HW2 7338   2.876   3.165   1.935
 2147SOL     OW 7339   0.223   1.193   6.771
 2147SOL    HW1 7340   0.155   1.198   6.845
 2147SOL    HW2 7341   0.248   1.285   6.742
 2148SOL     OW 7342   5.121   2.672   3.938
 2148SOL    HW1 7343   5.195   2.640   3.879
 2148SOL    HW2 7344   5.066   2.594   3.969
 2149SOL     OW 7345   3.798   1.187   1.510
 2149SOL    HW1 7346   3.870   1.201   1.578
 2149SOL    HW2 7347   3.798   1.091   1.481
 2150SOL     OW 7348   2.076   2.524   2.551
 2150SOL    HW1 7349   2.007   2.584   2.591
 2150SOL    HW2 7350   2.088   2.444   2.610
 2151SOL     OW 7351   1.812   1.388   3.906
 2151SOL    HW1 7352   1.855   1.465   3.953
 2151SOL    HW2 7353   1.726   1.418   3.865
 2152SOL     OW 7354   3.522   6.334   1.156
 2152SOL    HW1 7355   3.574   6.417   1.137
 2152SOL    HW2 7356   3.537   6.306   1.251
 2153SOL     OW 7357   3.935   0.101   2.940
 2153SOL    HW1 7358   3.944   0.182   2.998
 2153SOL    HW2 7359   3.887   0.029   2.990
 2154SOL     OW 7360   4.993   0.600   4.349
 2154SOL    HW1 7361   4.902   0.586   4.389
 2154SOL    HW2 7362   4.988   0.587   4.250
 2155SOL     OW 7363   2.182   5.351   0.522
 2155SOL    HW1 7364   2.223   5.424   0.468
 2155SOL    HW2 7365   2.082   5.362   0.524
 2156SOL     OW 7366   2.608   0.696   2.719
 2156SOL    HW1 7367   2.558   0.622   2.673
 2156SOL    HW2 7368   2.700   0.703   2.679
 2157SOL     OW 7369   6.224   1.057   3.160
 2157SOL    HW1 7370   6.310   1.063   3.109
 2157SOL    HW2 7371   6.147   1.075   3.099
 2158SOL     OW 7372   4.024   6.435   0.872
 2158SOL    HW1 7373   4.066   6.510   0.922
 2158SOL    HW2 7374   4.035   6.350   0.924
 2159SOL     OW 7375   2.572   5.855   5.664
 2159SOL    HW1 7376   2.658   5.823   5.624
 2159SOL    HW2 7377   2.508   5.879   5.591
 2160SOL     OW 7378   4.679   3.699   1.450
 2160SOL    HW1 7379   4.778   3.683   1.452
 2160SOL    HW2 7380   4.644   3.682   1.358
 2161SOL     OW 7381   5.547   2.764   3.839
 2161SOL    HW1 7382   5.609   2.836   3.807
 2161SOL    HW2 7383   5.522   2.781   3.934
 2162SOL     OW 7384   3.006   0.582   0.009
 2162SOL    HW1 7385   3.008   0.576   6.933
 2162SOL    HW2 7386   3.031   0.675   0.037
 2163SOL     OW 7387   0.352   5.118   6.073
 2163SOL    HW1 7388   0.433   5.113   6.015
 2163SOL    HW2 7389   0.281   5.171   6.027
 2164SOL     OW 7390   1.791   2.264   0.356
 2164SOL    HW1 7391   1.768   2.166   0.349
 2164SOL    HW2 7392   1.866   2.285   0.294
 2165SOL     OW 7393   0.986   1.548   2.699
 2165SOL    HW1 7394   0.920   1.474   2.709
 2165SOL    HW2 7395   0.982   1.583   2.605
 2166SOL     OW 7396   2.141   1.739   5.342
 2166SOL    HW1 7397   2.130   1.697   5.251
 2166SOL    HW2 7398   2.058   1.721   5.396
 2167SOL     OW 7399   1.651   1.129   3.623
 2167SOL    HW1 7400   1.624   1.069   3.548
 2167SOL    HW2 7401   1.654   1.223   3.591
 2168SOL     OW 7402   0.470   2.192   3.631
 2168SOL    HW1 7403   0.407   2.198   3.708
 2168SOL    HW2 7404   0.532   2.115   3.645
 2169SOL     OW 7405   5.734   2.376   5.622
 2169SOL    HW1 7406   5.787   2.455   5.651
 2169SOL    HW2 7407   5.670   2.404   5.550
 2170SOL     OW 7408   5.371   4.884   5.759
 2170SOL    HW1 7409   5.444   4.911   5.821
 2170SOL    HW2 7410   5.339   4.963   5.707
 2171SOL     OW 7411   6.410   3.084   1.452
 2171SOL    HW1 7412   6.353   3.166   1.445
 2171SOL    HW2 7413   6.475   3.095   1.527
 2172SOL     OW 7414   2.859   1.422   0.371
 2172SOL    HW1 7415   2.855   1.406   0.470
 2172SOL    HW2 7416   2.823   1.343   0.323
 2173SOL     OW 7417   3.811   6.926   5.249
 2173SOL    HW1 7418   3.779   7.011   5.208
 2173SOL    HW2 7419   3.911   6.923   5.243
 2174SOL     OW 7420   5.618   4.945   5.898
 2174SOL    HW1 7421   5.646   5.025   5.846
 2174SOL    HW2 7422   5.673   4.866   5.870
 2175SOL     OW 7423   3.207   1.920   3.454
 2175SOL    HW1 7424   3.259   1.970   3.523
 2175SOL    HW2 7425   3.266   1.903   3.374
 2176SOL     OW 7426   1.098   2.985   0.044
 2176SOL    HW1 7427   1.196   3.005   0.043
 2176SOL    HW2 7428   1.057   3.014   6.980
 2177SOL     OW 7429   6.821   0.501   3.449
 2177SOL    HW1 7430   6.819   0.518   3.351
 2177SOL    HW2 7431   6.748   0.554   3.493
 2178SOL     OW 7432   1.664   4.164   0.365
 2178SOL    HW1 7433   1.580   4.118   0.335
 2178SOL    HW2 7434   1.662   4.175   0.464
 2179SOL     OW 7435   1.686   5.508   4.717
 2179SOL    HW1 7436   1.634   5.454   4.651
 2179SOL    HW2 7437   1.760   5.556   4.670
 2180SOL     OW 7438   2.804   3.499   1.939
 2180SOL    HW1 7439   2.883   3.561   1.936
 2180SOL    HW2 7440   2.740   3.523   1.866
 2181SOL     OW 7441   5.461   4.353   5.387
 2181SOL    HW1 7442   5.415   4.268   5.363
 2181SOL    HW2 7443   5.560   4.341   5.376
 2182SOL     OW 7444   6.438   2.908   4.955
 2182SOL    HW1 7445   6.374   2.896   5.030
 2182SOL    HW2 7446   6.422   2.996   4.911
 2183SOL     OW 7447   3.212   3.498   6.271
 2183SOL    HW1 7448   3.280   3.458   6.333
 2183SOL    HW2 7449   3.254   3.574   6.221
 2184SOL     OW 7450   3.745   1.307   5.258
 2184SOL    HW1 7451   3.766   1.405   5.256
 2184SOL    HW2 7452   3.696   1.285   5.342
 2185SOL     OW 7453   1.620   2.068   0.779
 2185SOL    HW1 7454   1.587   2.125   0.854
 2185SOL    HW2 7455   1.717   2.083   0.765
 2186SOL     OW 7456   6.841   4.674   2.314
 2186SOL    HW1 7457   6.876   4.632   2.231
 2186SOL    HW2 7458   6.789   4.607   2.367
 2187SOL     OW 7459   0.518   1.983   1.768
 2187SOL    HW1 7460   0.424   1.998   1.799
 2187SOL    HW2 7461   0.532   2.030   1.680
 2188SOL     OW 7462   5.255   5.956   3.934
 2188SOL    HW1 7463   5.353   5.956   3.915
 2188SOL    HW2 7464   5.228   6.042   3.978
 2189SOL     OW 7465   1.965   6.496   6.748
 2189SOL    HW1 7466   1.990   6.491   6.651
 2189SOL    HW2 7467   1.984   6.408   6.792
 2190SOL     OW 7468   0.267   2.931   2.326
 2190SOL    HW1 7469   0.219   2.876   2.395
 2190SOL    HW2 7470   0.203   2.994   2.283
 2191SOL     OW 7471   3.153   1.473   6.578
 2191SOL    HW1 7472   3.126   1.548   6.517
 2191SOL    HW2 7473   3.228   1.504   6.637
 2192SOL     OW 7474   3.767   6.995   4.058
 2192SOL    HW1 7475   3.682   6.974   4.107
 2192SOL    HW2 7476   3.759   0.061   4.014
 2193SOL     OW 7477   0.415   5.758   6.430
 2193SOL    HW1 7478   0.507   5.796   6.439
 2193SOL    HW2 7479   0.408   5.673   6.482
 2194SOL     OW 7480   2.360   4.712   6.762
 2194SOL    HW1 7481   2.377   4.790   6.703
 2194SOL    HW2 7482   2.396   4.730   6.853
 2195SOL     OW 7483   0.156   6.792   3.241
 2195SOL    HW1 7484   0.092   6.722   3.272
 2195SOL    HW2 7485   0.113   6.846   3.168
 2196SOL     OW 7486   3.195   0.136   5.361
 2196SOL    HW1 7487   3.254   0.206   5.320
 2196SOL    HW2 7488   3.184   0.060   5.297
 2197SOL     OW 7489   4.115   3.804   1.881
 2197SOL    HW1 7490   4.018   3.822   1.893
 2197SOL    HW2 7491   4.164   3.891   1.872
 2198SOL     OW 7492   6.502   1.644   0.072
 2198SOL    HW1 7493   6.471   1.597   7.012
 2198SOL    HW2 7494   6.575   1.590   0.115
 2199SOL     OW 7495   5.176   1.000   1.938
 2199SOL    HW1 7496   5.211   1.014   1.846
 2199SOL    HW2 7497   5.151   1.087   1.979
 2200SOL     OW 7498   4.082   0.214   4.242
 2200SOL    HW1 7499   4.100   0.156   4.322
 2200SOL    HW2 7500   4.092   0.310   4.267
 2201SOL     OW 7501   6.695   2.625   2.347
 2201SOL    HW1 7502   6.643   2.588   2.424
 2201SOL    HW2 7503   6.718   2.551   2.284
 2202SOL     OW 7504   3.754   4.915   4.012
 2202SOL    HW1 7505   3.792   4.890   4.100
 2202SOL    HW2 7506   3.721   5.010   4.015
 2203SOL     OW 7507   2.170   2.607   1.526
 2203SOL    HW1 7508   2.252   2.655   1.495
 2203SOL    HW2 7509   2.137   2.547   1.454
 2204SOL     OW 7510   3.502   1.529   7.008
 2204SOL    HW1 7511   3.442   1.603   0.015
 2204SOL    HW2 7512   3.492   1.451   0.047
 2205SOL     OW 7513   1.787   6.950   6.208
 2205SOL    HW1 7514   1.887   6.949   6.202
 2205SOL    HW2 7515   1.759   6.995   6.293
 2206SOL     OW 7516   2.720   3.980   5.469
 2206SOL    HW1 7517   2.727   3.937   5.558
 2206SOL    HW2 7518   2.633   3.956   5.426
 2207SOL     OW 7519   2.086   3.932   6.260
 2207SOL    HW1 7520   2.047   4.003   6.318
 2207SOL    HW2 7521   2.153   3.879   6.312
 2208SOL     OW 7522   2.119   5.087   2.668
 2208SOL    HW1 7523   2.186   5.158   2.693
 2208SOL    HW2 7524   2.029   5.112   2.702
 2209SOL     OW 7525   1.584   5.365   5.998
 2209SOL    HW1 7526   1.682   5.383   5.987
 2209SOL    HW2 7527   1.571   5.293   6.066
 2210SOL     OW 7528   0.278   4.676   3.450
 2210SOL    HW1 7529   0.190   4.628   3.454
 2210SOL    HW2 7530   0.346   4.626   3.504
 2211SOL     OW 7531   5.548   0.892   6.815
 2211SOL    HW1 7532   5.515   0.799   6.796
 2211SOL    HW2 7533   5.570   0.937   6.729
 2212SOL     OW 7534   1.773   5.828   0.903
 2212SOL    HW1 7535   1.844   5.845   0.972
 2212SOL    HW2 7536   1.763   5.909   0.845
 2213SOL     OW 7537   4.022   2.646   5.421
 2213SOL    HW1 7538   4.053   2.617   5.331
 2213SOL    HW2 7539   4.002   2.744   5.420
 2214SOL     OW 7540   5.108   1.809   5.366
 2214SOL    HW1 7541   5.192   1.846   5.406
 2214SOL    HW2 7542   5.116   1.709   5.360
 2215SOL     OW 7543   6.637   2.051   6.397
 2215SOL    HW1 7544   6.544   2.019   6.384
 2215SOL    HW2 7545   6.695   1.975   6.429
 2216SOL     OW 7546   1.972   0.692   6.606
 2216SOL    HW1 7547   2.013   0.602   6.590
 2216SOL    HW2 7548   1.873   0.687   6.594
 2217SOL     OW 7549   3.149   0.277   1.474
 2217SOL    HW1 7550   3.210   0.284   1.552
 2217SOL    HW2 7551   3.173   0.346   1.406
 2218SOL     OW 7552   1.433   6.821   0.930
 2218SOL    HW1 7553   1.378   6.867   0.861
 2218SOL    HW2 7554   1.381   6.746   0.971
 2219SOL     OW 7555   0.393   3.596   3.110
 2219SOL    HW1 7556   0.350   3.674   3.066
 2219SOL    HW2 7557   0.492   3.598   3.094
 2220SOL     OW 7558   0.273   1.169   4.446
 2220SOL    HW1 7559   0.265   1.227   4.527
 2220SOL    HW2 7560   0.360   1.185   4.401
 2221SOL     OW 7561   6.680   1.336   6.383
 2221SOL    HW1 7562   6.779   1.328   6.374
 2221SOL    HW2 7563   6.650   1.287   6.465
 2222SOL     OW 7564   3.651   0.621   1.047
 2222SOL    HW1 7565   3.731   0.619   1.107
 2222SOL    HW2 7566   3.598   0.704   1.065
 2223SOL     OW 7567   5.863   6.195   3.814
 2223SOL    HW1 7568   5.842   6.256   3.891
 2223SOL    HW2 7569   5.952   6.219   3.775
 2224SOL     OW 7570   2.300   4.738   2.328
 2224SOL    HW1 7571   2.380   4.708   2.379
 2224SOL    HW2 7572   2.275   4.830   2.358
 2225SOL     OW 7573   6.455   5.816   3.208
 2225SOL    HW1 7574   6.373   5.759   3.215
 2225SOL    HW2 7575   6.428   5.913   3.208
 2226SOL     OW 7576   4.227   4.184   0.723
 2226SOL    HW1 7577   4.258   4.163   0.816
 2226SOL    HW2 7578   4.190   4.277   0.720
 2227SOL     OW 7579   5.867   3.877   0.049
 2227SOL    HW1 7580   5.790   3.933   0.079
 2227SOL    HW2 7581   5.912   3.837   0.129
 2228SOL     OW 7582   3.021   5.679   0.930
 2228SOL    HW1 7583   3.051   5.646   1.019
 2228SOL    HW2 7584   3.098   5.723   0.883
 2229SOL     OW 7585   4.281   1.280   4.668
 2229SOL    HW1 7586   4.326   1.237   4.590
 2229SOL    HW2 7587   4.266   1.212   4.740
 2230SOL     OW 7588   0.425   5.618   5.364
 2230SOL    HW1 7589   0.429   5.563   5.281
 2230SOL    HW2 7590   0.363   5.695   5.351
 2231SOL     OW 7591   2.115   0.721   1.511
 2231SOL    HW1 7592   2.183   0.648   1.501
 2231SOL    HW2 7593   2.123   0.760   1.603
 2232SOL     OW 7594   1.105   2.245   3.915
 2232SOL    HW1 7595   1.114   2.154   3.955
 2232SOL    HW2 7596   1.116   2.239   3.816
 2233SOL     OW 7597   2.084   4.779   1.430
 2233SOL    HW1 7598   1.991   4.758   1.400
 2233SOL    HW2 7599   2.085   4.794   1.529
 2234SOL     OW 7600   4.775   1.872   1.507
 2234SOL    HW1 7601   4.801   1.928   1.586
 2234SOL    HW2 7602   4.770   1.776   1.534
 2235SOL     OW 7603   2.251   6.819   0.766
 2235SOL    HW1 7604   2.334   6.765   0.779
 2235SOL    HW2 7605   2.173   6.772   0.808
 2236SOL     OW 7606   0.417   4.306   0.285
 2236SOL    HW1 7607   0.328   4.292   0.241
 2236SOL    HW2 7608   0.421   4.399   0.322
 2237SOL     OW 7609   5.486   4.066   4.222
 2237SOL    HW1 7610   5.474   3.985   4.280
 2237SOL    HW2 7611   5.454   4.045   4.130
 2238SOL     OW 7612   6.268   5.612   2.168
 2238SOL    HW1 7613   6.343   5.660   2.214
 2238SOL    HW2 7614   6.267   5.516   2.198
 2239SOL     OW 7615   3.843   5.489   3.995
 2239SOL    HW1 7616   3.793   5.416   4.042
 2239SOL    HW2 7617   3.917   5.522   4.054
 2240SOL     OW 7618   5.453   6.235   3.953
 2240SOL    HW1 7619   5.398   6.281   3.883
 2240SOL    HW2 7620   5.492   6.303   4.015
 2241SOL     OW 7621   0.520   6.931   2.335
 2241SOL    HW1 7622   0.484   6.839   2.352
 2241SOL    HW2 7623   0.595   6.925   2.269
 2242SOL     OW 7624   5.287   2.619   2.989
 2242SOL    HW1 7625   5.248   2.535   3.026
 2242SOL    HW2 7626   5.219   2.692   2.994
 2243SOL     OW 7627   2.583   6.146   5.314
 2243SOL    HW1 7628   2.661   6.170   5.256
 2243SOL    HW2 7629   2.522   6.085   5.263
 2244SOL     OW 7630   3.620   0.831   3.173
 2244SOL    HW1 7631   3.695   0.808   3.235
 2244SOL    HW2 7632   3.652   0.894   3.103
 2245SOL     OW 7633   0.774   2.285   1.547
 2245SOL    HW1 7634   0.778   2.194   1.589
 2245SOL    HW2 7635   0.851   2.295   1.483
 2246SOL     OW 7636   1.380   1.490   4.468
 2246SOL    HW1 7637   1.379   1.582   4.507
 2246SOL    HW2 7638   1.294   1.443   4.490
 2247SOL     OW 7639   2.418   2.398   6.194
 2247SOL    HW1 7640   2.378   2.441   6.275
 2247SOL    HW2 7641   2.499   2.448   6.165
 2248SOL     OW 7642   4.602   3.816   6.495
 2248SOL    HW1 7643   4.560   3.744   6.440
 2248SOL    HW2 7644   4.572   3.808   6.590
 2249SOL     OW 7645   5.718   6.464   3.167
 2249SOL    HW1 7646   5.630   6.471   3.120
 2249SOL    HW2 7647   5.705   6.424   3.257
 2250SOL     OW 7648   5.439   3.921   1.203
 2250SOL    HW1 7649   5.400   3.849   1.146
 2250SOL    HW2 7650   5.365   3.974   1.245
 2251SOL     OW 7651   5.173   1.539   0.003
 2251SOL    HW1 7652   5.237   1.466   0.028
 2251SOL    HW2 7653   5.223   1.615   6.986
 2252SOL     OW 7654   6.698   2.665   4.273
 2252SOL    HW1 7655   6.677   2.614   4.189
 2252SOL    HW2 7656   6.614   2.681   4.324
 2253SOL     OW 7657   1.296   3.180   0.061
 2253SOL    HW1 7658   1.264   3.146   0.149
 2253SOL    HW2 7659   1.395   3.169   0.055
 2254SOL     OW 7660   2.162   2.933   5.547
 2254SOL    HW1 7661   2.162   2.844   5.501
 2254SOL    HW2 7662   2.098   2.931   5.624
 2255SOL     OW 7663   5.827   2.644   0.553
 2255SOL    HW1 7664   5.919   2.669   0.583
 2255SOL    HW2 7665   5.809   2.548   0.576
 2256SOL     OW 7666   3.687   6.272   1.600
 2256SOL    HW1 7667   3.731   6.362   1.594
 2256SOL    HW2 7668   3.674   6.248   1.696
 2257SOL     OW 7669   0.611   3.276   4.619
 2257SOL    HW1 7670   0.647   3.276   4.526
 2257SOL    HW2 7671   0.519   3.236   4.619
 2258SOL     OW 7672   1.339   5.820   5.282
 2258SOL    HW1 7673   1.253   5.849   5.323
 2258SOL    HW2 7674   1.404   5.795   5.354
 2259SOL     OW 7675   4.625   3.453   6.750
 2259SOL    HW1 7676   4.529   3.435   6.726
 2259SOL    HW2 7677   4.683   3.437   6.670
 2260SOL     OW 7678   5.315   4.715   3.018
 2260SOL    HW1 7679   5.294   4.803   2.976
 2260SOL    HW2 7680   5.271   4.642   2.966
 2261SOL     OW 7681   6.128   6.498   0.771
 2261SOL    HW1 7682   6.212   6.485   0.823
 2261SOL    HW2 7683   6.138   6.577   0.711
 2262SOL     OW 7684   6.028   3.131   2.439
 2262SOL    HW1 7685   6.014   3.194   2.516
 2262SOL    HW2 7686   5.977   3.164   2.360
 2263SOL     OW 7687   3.009   5.658   6.087
 2263SOL    HW1 7688   3.070   5.672   6.164
 2263SOL    HW2 7689   2.923   5.707   6.103
 2264SOL     OW 7690   3.237   3.540   2.155
 2264SOL    HW1 7691   3.183   3.622   2.173
 2264SOL    HW2 7692   3.333   3.566   2.142
 2265SOL     OW 7693   0.495   0.718   3.928
 2265SOL    HW1 7694   0.431   0.788   3.957
 2265SOL    HW2 7695   0.502   0.647   3.998
 2266SOL     OW 7696   6.197   1.256   1.268
 2266SOL    HW1 7697   6.295   1.279   1.267
 2266SOL    HW2 7698   6.174   1.215   1.356
 2267SOL     OW 7699   5.234   2.509   5.169
 2267SOL    HW1 7700   5.195   2.426   5.208
 2267SOL    HW2 7701   5.262   2.492   5.075
 2268SOL     OW 7702   6.638   4.762   6.683
 2268SOL    HW1 7703   6.575   4.687   6.666
 2268SOL    HW2 7704   6.668   4.801   6.596
 2269SOL     OW 7705   6.149   5.953   5.406
 2269SOL    HW1 7706   6.141   5.930   5.309
 2269SOL    HW2 7707   6.214   6.029   5.416
 2270SOL     OW 7708   3.706   3.156   6.928
 2270SOL    HW1 7709   3.771   3.232   6.920
 2270SOL    HW2 7710   3.624   3.188   6.975
 2271SOL     OW 7711   5.850   4.211   0.793
 2271SOL    HW1 7712   5.762   4.242   0.756
 2271SOL    HW2 7713   5.883   4.133   0.740
 2272SOL     OW 7714   6.058   2.160   4.933
 2272SOL    HW1 7715   6.004   2.156   4.849
 2272SOL    HW2 7716   6.131   2.229   4.923
 2273SOL     OW 7717   2.013   1.261   1.604
 2273SOL    HW1 7718   2.034   1.354   1.573
 2273SOL    HW2 7719   2.037   1.196   1.531
 2274SOL     OW 7720   0.760   2.848   5.964
 2274SOL    HW1 7721   0.712   2.790   6.030
 2274SOL    HW2 7722   0.772   2.798   5.878
 2275SOL     OW 7723   5.397   0.437   4.387
 2275SOL    HW1 7724   5.313   0.465   4.434
 2275SOL    HW2 7725   5.394   0.470   4.292
 2276SOL     OW 7726   3.044   4.806   1.331
 2276SOL    HW1 7727   2.967   4.832   1.390
 2276SOL    HW2 7728   3.106   4.745   1.382
 2277SOL     OW 7729   2.976   3.887   4.779
 2277SOL    HW1 7730   3.051   3.904   4.715
 2277SOL    HW2 7731   2.955   3.789   4.780
 2278SOL     OW 7732   5.037   6.781   4.626
 2278SOL    HW1 7733   4.968   6.724   4.671
 2278SOL    HW2 7734   5.014   6.877   4.638
 2279SOL     OW 7735   5.397   5.664   4.664
 2279SOL    HW1 7736   5.389   5.577   4.616
 2279SOL    HW2 7737   5.434   5.649   4.755
 2280SOL     OW 7738   7.019   6.357   4.927
 2280SOL    HW1 7739   0.003   6.390   4.833
 2280SOL    HW2 7740   0.039   6.267   4.934
 2281SOL     OW 7741   3.773   0.879   1.857
 2281SOL    HW1 7742   3.759   0.785   1.824
 2281SOL    HW2 7743   3.696   0.936   1.828
 2282SOL     OW 7744   5.139   0.448   4.524
 2282SOL    HW1 7745   5.073   0.490   4.462
 2282SOL    HW2 7746   5.090   0.387   4.587
 2283SOL     OW 7747   0.103   4.552   1.247
 2283SOL    HW1 7748   0.088   4.555   1.346
 2283SOL    HW2 7749   0.193   4.513   1.229
 2284SOL     OW 7750   2.160   1.367   0.230
 2284SOL    HW1 7751   2.232   1.414   0.178
 2284SOL    HW2 7752   2.149   1.412   0.319
 2285SOL     OW 7753   1.949   3.315   0.167
 2285SOL    HW1 7754   1.931   3.297   0.070
 2285SOL    HW2 7755   1.864   3.307   0.219
 2286SOL     OW 7756   6.585   6.620   4.322
 2286SOL    HW1 7757   6.640   6.638   4.241
 2286SOL    HW2 7758   6.645   6.594   4.398
 2287SOL     OW 7759   2.568   2.643   1.727
 2287SOL    HW1 7760   2.505   2.710   1.689
 2287SOL    HW2 7761   2.633   2.614   1.657
 2288SOL     OW 7762   6.681   4.576   4.166
 2288SOL    HW1 7763   6.623   4.657   4.156
 2288SOL    HW2 7764   6.662   4.532   4.253
 2289SOL     OW 7765   6.176   4.067   2.880
 2289SOL    HW1 7766   6.108   4.139   2.889
 2289SOL    HW2 7767   6.184   4.040   2.784
 2290SOL     OW 7768   2.089   3.474   2.198
 2290SOL    HW1 7769   2.187   3.485   2.214
 2290SOL    HW2 7770   2.069   3.483   2.100
 2291SOL     OW 7771   2.334   1.947   0.421
 2291SOL    HW1 7772   2.424   1.920   0.386
 2291SOL    HW2 7773   2.304   1.881   0.490
 2292SOL     OW 7774   5.114   2.255   3.397
 2292SOL    HW1 7775   5.127   2.178   3.460
 2292SOL    HW2 7776   5.170   2.241   3.315
 2293SOL     OW 7777   6.886   0.022   0.875
 2293SOL    HW1 7778   6.939   0.063   0.950
 2293SOL    HW2 7779   6.887   0.083   0.796
 2294SOL     OW 7780   3.246   1.500   5.991
 2294SOL    HW1 7781   3.335   1.480   5.950
 2294SOL    HW2 7782   3.226   1.597   5.981
 2295SOL     OW 7783   0.744   1.560   3.252
 2295SOL    HW1 7784   0.735   1.550   3.153
 2295SOL    HW2 7785   0.798   1.484   3.288
 2296SOL     OW 7786   2.828   5.041   3.242
 2296SOL    HW1 7787   2.841   4.954   3.288
 2296SOL    HW2 7788   2.735   5.074   3.258
 2297SOL     OW 7789   4.933   4.706   6.055
 2297SOL    HW1 7790   4.975   4.752   5.977
 2297SOL    HW2 7791   4.997   4.640   6.094
 2298SOL     OW 7792   3.917   3.874   2.644
 2298SOL    HW1 7793   3.886   3.966   2.624
 2298SOL    HW2 7794   3.852   3.808   2.607
 2299SOL     OW 7795   5.015   4.326   5.050
 2299SOL    HW1 7796   5.051   4.280   4.969
 2299SOL    HW2 7797   5.088   4.381   5.092
 2300SOL     OW 7798   2.697   6.579   3.454
 2300SOL    HW1 7799   2.607   6.558   3.493
 2300SOL    HW2 7800   2.712   6.521   3.374
 2301SOL     OW 7801   3.829   2.971   3.704
 2301SOL    HW1 7802   3.902   2.908   3.679
 2301SOL    HW2 7803   3.835   2.992   3.802
 2302SOL     OW 7804   3.297   0.438   1.233
 2302SOL    HW1 7805   3.331   0.498   1.160
 2302SOL    HW2 7806   3.374   0.394   1.279
 2303SOL     OW 7807   2.504   3.249   1.117
 2303SOL    HW1 7808   2.515   3.289   1.026
 2303SOL    HW2 7809   2.581   3.277   1.175
 2304SOL     OW 7810   5.551   6.068   4.500
 2304SOL    HW1 7811   5.589   6.112   4.419
 2304SOL    HW2 7812   5.607   6.089   4.579
 2305SOL     OW 7813   2.279   0.370   3.124
 2305SOL    HW1 7814   2.326   0.284   3.145
 2305SOL    HW2 7815   2.198   0.351   3.067
 2306SOL     OW 7816   1.730   5.283   1.727
 2306SOL    HW1 7817   1.634   5.303   1.746
 2306SOL    HW2 7818   1.736   5.225   1.646
 2307SOL     OW 7819   0.399   3.013   5.602
 2307SOL    HW1 7820   0.436   2.973   5.518
 2307SOL    HW2 7821   0.460   2.992   5.678
 2308SOL     OW 7822   2.623   4.709   1.471
 2308SOL    HW1 7823   2.582   4.631   1.519
 2308SOL    HW2 7824   2.552   4.767   1.434
 2309SOL     OW 7825   1.900   0.783   4.707
 2309SOL    HW1 7826   1.843   0.816   4.632
 2309SOL    HW2 7827   1.887   0.684   4.718
 2310SOL     OW 7828   5.707   6.171   2.119
 2310SOL    HW1 7829   5.794   6.128   2.095
 2310SOL    HW2 7830   5.632   6.115   2.085
 2311SOL     OW 7831   2.804   6.336   0.498
 2311SOL    HW1 7832   2.812   6.236   0.502
 2311SOL    HW2 7833   2.837   6.375   0.584
 2312SOL     OW 7834   4.350   5.608   3.324
 2312SOL    HW1 7835   4.318   5.629   3.416
 2312SOL    HW2 7836   4.418   5.676   3.296
 2313SOL     OW 7837   4.614   5.161   2.198
 2313SOL    HW1 7838   4.642   5.173   2.293
 2313SOL    HW2 7839   4.681   5.205   2.138
 2314SOL     OW 7840   4.471   6.417   2.661
 2314SOL    HW1 7841   4.423   6.351   2.602
 2314SOL    HW2 7842   4.535   6.367   2.720
 2315SOL     OW 7843   4.972   3.016   6.048
 2315SOL    HW1 7844   5.062   3.009   6.090
 2315SOL    HW2 7845   4.947   3.113   6.040
 2316SOL     OW 7846   4.776   2.160   4.066
 2316SOL    HW1 7847   4.748   2.153   3.970
 2316SOL    HW2 7848   4.734   2.087   4.119
 2317SOL     OW 7849   0.385   5.594   2.989
 2317SOL    HW1 7850   0.444   5.675   2.987
 2317SOL    HW2 7851   0.387   5.549   2.899
 2318SOL     OW 7852   0.563   3.194   3.519
 2318SOL    HW1 7853   0.550   3.286   3.483
 2318SOL    HW2 7854   0.614   3.198   3.605
 2319SOL     OW 7855   1.440   4.660   4.482
 2319SOL    HW1 7856   1.499   4.594   4.528
 2319SOL    HW2 7857   1.396   4.617   4.404
 2320SOL     OW 7858   1.041   2.702   4.292
 2320SOL    HW1 7859   1.109   2.694   4.219
 2320SOL    HW2 7860   0.951   2.677   4.257
 2321SOL     OW 7861   2.957   1.355   5.003
 2321SOL    HW1 7862   2.882   1.372   4.939
 2321SOL    HW2 7863   3.025   1.295   4.961
 2322SOL     OW 7864   2.529   1.674   5.094
 2322SOL    HW1 7865   2.528   1.619   5.010
 2322SOL    HW2 7866   2.594   1.750   5.084
 2323SOL     OW 7867   2.807   4.770   2.521
 2323SOL    HW1 7868   2.831   4.863   2.493
 2323SOL    HW2 7869   2.856   4.748   2.606
 2324SOL     OW 7870   0.303   6.458   3.027
 2324SOL    HW1 7871   0.282   6.452   3.125
 2324SOL    HW2 7872   0.276   6.373   2.982
 2325SOL     OW 7873   0.785   4.328   1.288
 2325SOL    HW1 7874   0.753   4.239   1.322
 2325SOL    HW2 7875   0.884   4.324   1.272
 2326SOL     OW 7876   2.971   3.787   6.043
 2326SOL    HW1 7877   3.007   3.872   6.082
 2326SOL    HW2 7878   2.960   3.798   5.944
 2327SOL     OW 7879   5.329   2.676   4.610
 2327SOL    HW1 7880   5.332   2.760   4.557
 2327SOL    HW2 7881   5.405   2.674   4.674
 2328SOL     OW 7882   4.597   1.885   3.674
 2328SOL    HW1 7883   4.548   1.833   3.744
 2328SOL    HW2 7884   4.604   1.831   3.590
 2329SOL     OW 7885   1.492   5.345   4.884
 2329SOL    HW1 7886   1.553   5.278   4.928
 2329SOL    HW2 7887   1.544   5.398   4.818
 2330SOL     OW 7888   6.954   4.304   2.198
 2330SOL    HW1 7889   6.970   4.403   2.206
 2330SOL    HW2 7890   6.868   4.288   2.149
 2331SOL     OW 7891   6.462   5.261   6.526
 2331SOL    HW1 7892   6.474   5.167   6.492
 2331SOL    HW2 7893   6.373   5.295   6.499
 2332SOL     OW 7894   4.648   1.816   5.213
 2332SOL    HW1 7895   4.745   1.840   5.216
 2332SOL    HW2 7896   4.637   1.717   5.212
 2333SOL     OW 7897   6.714   5.152   2.895
 2333SOL    HW1 7898   6.687   5.220   2.963
 2333SOL    HW2 7899   6.790   5.098   2.931
 2334SOL     OW 7900   2.899   0.055   0.327
 2334SOL    HW1 7901   2.822   0.029   0.385
 2334SOL    HW2 7902   2.869   0.060   0.232
 2335SOL     OW 7903   5.984   0.700   3.006
 2335SOL    HW1 7904   5.922   0.775   3.031
 2335SOL    HW2 7905   5.996   0.639   3.085
 2336SOL     OW 7906   4.915   1.711   5.609
 2336SOL    HW1 7907   4.824   1.709   5.568
 2336SOL    HW2 7908   4.978   1.757   5.545
 2337SOL     OW 7909   4.952   0.917   3.409
 2337SOL    HW1 7910   4.973   0.856   3.485
 2337SOL    HW2 7911   4.952   0.865   3.323
 2338SOL     OW 7912   1.067   0.134   6.541
 2338SOL    HW1 7913   1.002   0.207   6.523
 2338SOL    HW2 7914   1.152   0.173   6.576
 2339SOL     OW 7915   3.571   4.039   5.566
 2339SOL    HW1 7916   3.578   4.030   5.466
 2339SOL    HW2 7917   3.567   3.949   5.608
 2340SOL     OW 7918   4.394   6.745   5.439
 2340SOL    HW1 7919   4.368   6.744   5.535
 2340SOL    HW2 7920   4.375   6.835   5.399
 2341SOL     OW 7921   4.803   4.091   1.194
 2341SOL    HW1 7922   4.728   4.149   1.162
 2341SOL    HW2 7923   4.875   4.148   1.232
 2342SOL     OW 7924   1.045   6.052   5.635
 2342SOL    HW1 7925   1.070   5.978   5.697
 2342SOL    HW2 7926   1.125   6.079   5.581
 2343SOL     OW 7927   1.956   6.457   0.994
 2343SOL    HW1 7928   1.917   6.436   0.905
 2343SOL    HW2 7929   1.885   6.496   1.053
 2344SOL     OW 7930   2.109   1.163   1.357
 2344SOL    HW1 7931   2.160   1.247   1.338
 2344SOL    HW2 7932   2.055   1.138   1.277
 2345SOL     OW 7933   1.987   6.359   5.613
 2345SOL    HW1 7934   2.046   6.438   5.629
 2345SOL    HW2 7935   2.043   6.278   5.595
 2346SOL     OW 7936   4.788   2.950   5.163
 2346SOL    HW1 7937   4.860   2.883   5.145
 2346SOL    HW2 7938   4.803   2.990   5.254
 2347SOL     OW 7939   1.777   4.190   1.773
 2347SOL    HW1 7940   1.764   4.145   1.862
 2347SOL    HW2 7941   1.871   4.223   1.767
 2348SOL     OW 7942   2.041   6.028   3.597
 2348SOL    HW1 7943   1.970   6.029   3.667
 2348SOL    HW2 7944   2.112   5.962   3.622
 2349SOL     OW 7945   0.777   6.673   0.209
 2349SOL    HW1 7946   0.703   6.609   0.186
 2349SOL    HW2 7947   0.793   6.670   0.308
 2350SOL     OW 7948   4.262   6.937   5.686
 2350SOL    HW1 7949   4.183   6.883   5.656
 2350SOL    HW2 7950   4.311   6.888   5.758
 2351SOL     OW 7951   3.397   5.398   3.440
 2351SOL    HW1 7952   3.392   5.327   3.369
 2351SOL    HW2 7953   3.437   5.359   3.523
 2352SOL     OW 7954   0.370   4.525   3.177
 2352SOL    HW1 7955   0.273   4.502   3.180
 2352SOL    HW2 7956   0.383   4.601   3.113
 2353SOL     OW 7957   2.485   4.501   4.716
 2353SOL    HW1 7958   2.456   4.582   4.768
 2353SOL    HW2 7959   2.583   4.487   4.729
 2354SOL     OW 7960   3.674   2.252   6.697
 2354SOL    HW1 7961   3.628   2.219   6.614
 2354SOL    HW2 7962   3.680   2.177   6.763
 2355SOL     OW 7963   0.687   5.670   0.718
 2355SOL    HW1 7964   0.646   5.666   0.809
 2355SOL    HW2 7965   0.685   5.579   0.676
 2356SOL     OW 7966   2.376   3.495   1.439
 2356SOL    HW1 7967   2.313   3.469   1.513
 2356SOL    HW2 7968   2.328   3.554   1.373
 2357SOL     OW 7969   4.250   4.758   3.782
 2357SOL    HW1 7970   4.311   4.782   3.858
 2357SOL    HW2 7971   4.156   4.779   3.807
 2358SOL     OW 7972   3.091   6.225   4.271
 2358SOL    HW1 7973   3.096   6.144   4.211
 2358SOL    HW2 7974   3.085   6.195   4.366
 2359SOL     OW 7975   1.859   0.573   6.161
 2359SOL    HW1 7976   1.778   0.516   6.151
 2359SOL    HW2 7977   1.837   0.653   6.217
 2360SOL     OW 7978   4.559   4.938   6.207
 2360SOL    HW1 7979   4.595   4.854   6.165
 2360SOL    HW2 7980   4.509   4.915   6.290
 2361SOL     OW 7981   2.750   0.128   4.070
 2361SOL    HW1 7982   2.763   0.227   4.059
 2361SOL    HW2 7983   2.804   0.080   4.001
 2362SOL     OW 7984   4.687   6.548   4.956
 2362SOL    HW1 7985   4.631   6.467   4.938
 2362SOL    HW2 7986   4.630   6.619   4.999
 2363SOL     OW 7987   4.572   2.649   4.888
 2363SOL    HW1 7988   4.632   2.616   4.961
 2363SOL    HW2 7989   4.598   2.742   4.863
 2364SOL     OW 7990   6.089   2.119   2.252
 2364SOL    HW1 7991   6.159   2.122   2.181
 2364SOL    HW2 7992   6.071   2.211   2.286
 2365SOL     OW 7993   5.925   4.121   5.431
 2365SOL    HW1 7994   6.020   4.092   5.428
 2365SOL    HW2 7995   5.878   4.074   5.505
 2366SOL     OW 7996   1.086   4.419   5.663
 2366SOL    HW1 7997   1.124   4.393   5.752
 2366SOL    HW2 7998   1.055   4.337   5.614
 2367SOL     OW 7999   0.936   3.462   6.477
 2367SOL    HW1 8000   0.836   3.456   6.474
 2367SOL    HW2 8001   0.975   3.370   6.476
 2368SOL     OW 8002   4.740   1.076   5.223
 2368SOL    HW1 8003   4.737   1.025   5.137
 2368SOL    HW2 8004   4.749   1.174   5.203
 2369SOL     OW 8005   2.179   2.001   3.962
 2369SOL    HW1 8006   2.262   1.945   3.963
 2369SOL    HW2 8007   2.198   2.088   4.006
 2370SOL     OW 8008   4.173   3.503   0.541
 2370SOL    HW1 8009   4.112   3.448   0.484
 2370SOL    HW2 8010   4.268   3.487   0.514
 2371SOL     OW 8011   1.720   5.884   2.219
 2371SOL    HW1 8012   1.746   5.871   2.315
 2371SOL    HW2 8013   1.728   5.981   2.196
 2372SOL     OW 8014   0.601   1.742   0.412
 2372SOL    HW1 8015   0.661   1.762   0.334
 2372SOL    HW2 8016   0.557   1.826   0.443
 2373SOL     OW 8017   6.120   1.107   6.709
 2373SOL    HW1 8018   6.076   1.031   6.756
 2373SOL    HW2 8019   6.053   1.154   6.651
 2374SOL     OW 8020   6.437   5.907   3.636
 2374SOL    HW1 8021   6.342   5.938   3.640
 2374SOL    HW2 8022   6.492   5.975   3.588
 2375SOL     OW 8023   0.464   0.463   4.554
 2375SOL    HW1 8024   0.522   0.452   4.474
 2375SOL    HW2 8025   0.494   0.541   4.608
 2376SOL     OW 8026   6.224   2.943   3.263
 2376SOL    HW1 8027   6.161   2.957   3.340
 2376SOL    HW2 8028   6.314   2.919   3.298
 2377SOL     OW 8029   3.293   3.733   4.480
 2377SOL    HW1 8030   3.343   3.804   4.430
 2377SOL    HW2 8031   3.358   3.665   4.514
 2378SOL     OW 8032   5.561   1.735   0.360
 2378SOL    HW1 8033   5.488   1.802   0.369
 2378SOL    HW2 8034   5.646   1.782   0.337
 2379SOL     OW 8035   6.614   3.435   6.915
 2379SOL    HW1 8036   6.515   3.444   6.920
 2379SOL    HW2 8037   6.655   3.524   6.895
 2380SOL     OW 8038   6.567   0.779   5.228
 2380SOL    HW1 8039   6.625   0.703   5.197
 2380SOL    HW2 8040   6.485   0.741   5.273
 2381SOL     OW 8041   1.644   4.143   5.152
 2381SOL    HW1 8042   1.692   4.224   5.186
 2381SOL    HW2 8043   1.695   4.105   5.075
 2382SOL     OW 8044   2.215   5.698   2.783
 2382SOL    HW1 8045   2.249   5.658   2.868
 2382SOL    HW2 8046   2.167   5.784   2.804
 2383SOL     OW 8047   5.473   6.748   6.185
 2383SOL    HW1 8048   5.522   6.782   6.105
 2383SOL    HW2 8049   5.434   6.658   6.164
 2384SOL     OW 8050   1.407   2.107   1.770
 2384SOL    HW1 8051   1.406   2.134   1.673
 2384SOL    HW2 8052   1.427   2.010   1.777
 2385SOL     OW 8053   0.588   0.332   0.925
 2385SOL    HW1 8054   0.604   0.350   0.828
 2385SOL    HW2 8055   0.669   0.289   0.965
 2386SOL     OW 8056   3.188   5.403   4.279
 2386SOL    HW1 8057   3.117   5.363   4.337
 2386SOL    HW2 8058   3.145   5.452   4.203
 2387SOL     OW 8059   6.529   3.147   4.335
 2387SOL    HW1 8060   6.450   3.110   4.286
 2387SOL    HW2 8061   6.534   3.106   4.426
 2388SOL     OW 8062   0.933   1.635   5.807
 2388SOL    HW1 8063   0.974   1.583   5.731
 2388SOL    HW2 8064   0.839   1.606   5.820
 2389SOL     OW 8065   4.357   4.601   4.073
 2389SOL    HW1 8066   4.418   4.607   3.994
 2389SOL    HW2 8067   4.398   4.544   4.143
 2390SOL     OW 8068   3.767   3.781   5.016
 2390SOL    HW1 8069   3.763   3.699   4.959
 2390SOL    HW2 8070   3.859   3.790   5.055
 2391SOL     OW 8071   3.583   3.995   6.053
 2391SOL    HW1 8072   3.633   3.949   6.126
 2391SOL    HW2 8073   3.642   4.063   6.009
 2392SOL     OW 8074   3.298   4.203   6.553
 2392SOL    HW1 8075   3.326   4.199   6.457
 2392SOL    HW2 8076   3.228   4.274   6.564
 2393SOL     OW 8077   3.867   5.617   1.093
 2393SOL    HW1 8078   3.894   5.706   1.128
 2393SOL    HW2 8079   3.791   5.581   1.147
 2394SOL     OW 8080   0.472   3.877   4.483
 2394SOL    HW1 8081   0.486   3.811   4.408
 2394SOL    HW2 8082   0.381   3.864   4.523
 2395SOL     OW 8083   6.770   2.685   6.489
 2395SOL    HW1 8084   6.797   2.593   6.518
 2395SOL    HW2 8085   6.814   2.753   6.546
 2396SOL     OW 8086   5.493   6.349   0.703
 2396SOL    HW1 8087   5.553   6.403   0.761
 2396SOL    HW2 8088   5.430   6.410   0.654
 2397SOL     OW 8089   6.841   5.186   0.360
 2397SOL    HW1 8090   6.855   5.116   0.291
 2397SOL    HW2 8091   6.878   5.273   0.328
 2398SOL     OW 8092   2.748   4.812   4.758
 2398SOL    HW1 8093   2.755   4.905   4.796
 2398SOL    HW2 8094   2.774   4.746   4.828
 2399SOL     OW 8095   4.072   1.692   3.427
 2399SOL    HW1 8096   4.120   1.615   3.469
 2399SOL    HW2 8097   4.140   1.759   3.395
 2400SOL     OW 8098   2.852   3.456   0.823
 2400SOL    HW1 8099   2.824   3.537   0.874
 2400SOL    HW2 8100   2.788   3.381   0.843
 2401SOL     OW 8101   3.384   0.654   4.424
 2401SOL    HW1 8102   3.297   0.680   4.466
 2401SOL    HW2 8103   3.438   0.601   4.489
 2402SOL     OW 8104   0.217   1.498   3.840
 2402SOL    HW1 8105   0.293   1.454   3.889
 2402SOL    HW2 8106   0.251   1.535   3.753
 2403SOL     OW 8107   3.614   2.806   0.834
 2403SOL    HW1 8108   3.691   2.861   0.799
 2403SOL    HW2 8109   3.621   2.713   0.797
 2404SOL     OW 8110   5.741   1.586   2.029
 2404SOL    HW1 8111   5.825   1.573   2.081
 2404SOL    HW2 8112   5.757   1.650   1.954
 2405SOL     OW 8113   3.681   4.287   5.703
 2405SOL    HW1 8114   3.641   4.203   5.667
 2405SOL    HW2 8115   3.634   4.366   5.663
 2406SOL     OW 8116   2.333   0.464   3.577
 2406SOL    HW1 8117   2.283   0.386   3.541
 2406SOL    HW2 8118   2.333   0.538   3.510
 2407SOL     OW 8119   4.729   2.795   2.739
 2407SOL    HW1 8120   4.772   2.881   2.767
 2407SOL    HW2 8121   4.710   2.798   2.641
 2408SOL     OW 8122   3.431   4.958   3.252
 2408SOL    HW1 8123   3.502   4.890   3.232
 2408SOL    HW2 8124   3.358   4.916   3.305
 2409SOL     OW 8125   2.184   2.729   1.209
 2409SOL    HW1 8126   2.136   2.727   1.122
 2409SOL    HW2 8127   2.222   2.638   1.228
 2410SOL     OW 8128   6.263   3.562   5.559
 2410SOL    HW1 8129   6.177   3.529   5.521
 2410SOL    HW2 8130   6.308   3.621   5.491
 2411SOL     OW 8131   3.046   3.930   5.484
 2411SOL    HW1 8132   3.005   3.877   5.409
 2411SOL    HW2 8133   3.145   3.933   5.472
 2412SOL     OW 8134   3.212   3.240   0.422
 2412SOL    HW1 8135   3.159   3.241   0.337
 2412SOL    HW2 8136   3.299   3.195   0.407
 2413SOL     OW 8137   5.911   3.826   6.565
 2413SOL    HW1 8138   5.966   3.810   6.647
 2413SOL    HW2 8139   5.970   3.852   6.489
 2414SOL     OW 8140   5.606   3.677   2.927
 2414SOL    HW1 8141   5.657   3.612   2.870
 2414SOL    HW2 8142   5.542   3.626   2.984
 2415SOL     OW 8143   2.196   0.225   1.871
 2415SOL    HW1 8144   2.158   0.223   1.778
 2415SOL    HW2 8145   2.155   0.152   1.925
 2416SOL     OW 8146   1.248   1.601   4.808
 2416SOL    HW1 8147   1.267   1.606   4.906
 2416SOL    HW2 8148   1.150   1.588   4.793
 2417SOL     OW 8149   5.382   1.928   1.019
 2417SOL    HW1 8150   5.315   1.916   0.946
 2417SOL    HW2 8151   5.470   1.955   0.980
 2418SOL     OW 8152   3.024   3.438   5.143
 2418SOL    HW1 8153   2.968   3.358   5.124
 2418SOL    HW2 8154   3.000   3.475   5.233
 2419SOL     OW 8155   1.236   6.692   5.369
 2419SOL    HW1 8156   1.173   6.614   5.372
 2419SOL    HW2 8157   1.186   6.774   5.339
 2420SOL     OW 8158   3.879   6.990   2.092
 2420SOL    HW1 8159   3.914   6.902   2.124
 2420SOL    HW2 8160   3.948   0.011   2.035
 2421SOL     OW 8161   3.253   6.820   4.308
 2421SOL    HW1 8162   3.167   6.845   4.263
 2421SOL    HW2 8163   3.240   6.819   4.407
 2422SOL     OW 8164   4.820   0.522   0.640
 2422SOL    HW1 8165   4.767   0.572   0.709
 2422SOL    HW2 8166   4.788   0.428   0.635
 2423SOL     OW 8167   2.145   5.405   2.008
 2423SOL    HW1 8168   2.151   5.457   2.093
 2423SOL    HW2 8169   2.053   5.366   1.999
 2424SOL     OW 8170   5.730   6.405   6.578
 2424SOL    HW1 8171   5.659   6.475   6.578
 2424SOL    HW2 8172   5.819   6.447   6.559
 2425SOL     OW 8173   5.680   6.774   5.996
 2425SOL    HW1 8174   5.668   6.681   6.031
 2425SOL    HW2 8175   5.763   6.813   6.034
 2426SOL     OW 8176   0.941   5.514   4.591
 2426SOL    HW1 8177   0.887   5.482   4.513
 2426SOL    HW2 8178   0.881   5.564   4.654
 2427SOL     OW 8179   5.589   5.718   6.880
 2427SOL    HW1 8180   5.517   5.738   6.813
 2427SOL    HW2 8181   5.639   5.637   6.852
 2428SOL     OW 8182   0.533   0.497   3.045
 2428SOL    HW1 8183   0.572   0.579   3.087
 2428SOL    HW2 8184   0.438   0.513   3.021
 2429SOL     OW 8185   6.064   4.766   2.779
 2429SOL    HW1 8186   6.090   4.835   2.711
 2429SOL    HW2 8187   6.115   4.782   2.863
 2430SOL     OW 8188   5.309   2.751   0.716
 2430SOL    HW1 8189   5.245   2.675   0.723
 2430SOL    HW2 8190   5.384   2.739   0.782
 2431SOL     OW 8191   4.641   1.049   1.126
 2431SOL    HW1 8192   4.738   1.034   1.103
 2431SOL    HW2 8193   4.615   0.988   1.200
 2432SOL     OW 8194   3.334   6.636   2.640
 2432SOL    HW1 8195   3.364   6.551   2.683
 2432SOL    HW2 8196   3.247   6.620   2.592
 2433SOL     OW 8197   2.072   6.671   6.951
 2433SOL    HW1 8198   2.071   6.766   6.922
 2433SOL    HW2 8199   2.030   6.614   6.881
 2434SOL     OW 8200   5.204   1.565   3.182
 2434SOL    HW1 8201   5.215   1.564   3.281
 2434SOL    HW2 8202   5.116   1.606   3.159
 2435SOL     OW 8203   5.309   4.634   0.263
 2435SOL    HW1 8204   5.258   4.582   0.332
 2435SOL    HW2 8205   5.244   4.686   0.207
 2436SOL     OW 8206   2.055   6.882   1.643
 2436SOL    HW1 8207   2.022   6.872   1.736
 2436SOL    HW2 8208   2.060   6.979   1.620
 2437SOL     OW 8209   5.411   6.386   1.295
 2437SOL    HW1 8210   5.339   6.414   1.359
 2437SOL    HW2 8211   5.501   6.402   1.336
 2438SOL     OW 8212   4.436   1.098   4.522
 2438SOL    HW1 8213   4.529   1.075   4.493
 2438SOL    HW2 8214   4.375   1.020   4.504
 2439SOL     OW 8215   1.028   4.370   0.427
 2439SOL    HW1 8216   0.990   4.458   0.457
 2439SOL    HW2 8217   1.113   4.352   0.476
 2440SOL     OW 8218   3.998   6.412   5.375
 2440SOL    HW1 8219   4.069   6.385   5.309
 2440SOL    HW2 8220   4.030   6.489   5.430
 2441SOL     OW 8221   5.777   0.479   6.982
 2441SOL    HW1 8222   5.737   0.389   6.965
 2441SOL    HW2 8223   5.805   0.520   6.896
 2442SOL     OW 8224   5.545   5.543   2.925
 2442SOL    HW1 8225   5.507   5.620   2.976
 2442SOL    HW2 8226   5.634   5.568   2.888
 2443SOL     OW 8227   2.862   0.162   6.118
 2443SOL    HW1 8228   2.854   0.193   6.023
 2443SOL    HW2 8229   2.893   0.237   6.175
 2444SOL     OW 8230   3.550   3.869   0.166
 2444SOL    HW1 8231   3.572   3.871   0.069
 2444SOL    HW2 8232   3.484   3.795   0.184
 2445SOL     OW 8233   6.578   1.231   1.898
 2445SOL    HW1 8234   6.666   1.219   1.852
 2445SOL    HW2 8235   6.577   1.319   1.946
 2446SOL     OW 8236   1.065   3.143   4.801
 2446SOL    HW1 8237   1.114   3.218   4.756
 2446SOL    HW2 8238   1.027   3.176   4.887
 2447SOL     OW 8239   2.327   1.350   0.965
 2447SOL    HW1 8240   2.346   1.284   1.037
 2447SOL    HW2 8241   2.310   1.440   1.005
 2448SOL     OW 8242   6.432   1.287   4.032
 2448SOL    HW1 8243   6.465   1.382   4.027
 2448SOL    HW2 8244   6.386   1.273   4.120
 2449SOL     OW 8245   0.199   4.049   2.152
 2449SOL    HW1 8246   0.138   4.113   2.104
 2449SOL    HW2 8247   0.278   4.099   2.187
 2450SOL     OW 8248   3.482   4.990   6.385
 2450SOL    HW1 8249   3.520   4.968   6.295
 2450SOL    HW2 8250   3.464   4.906   6.435
 2451SOL     OW 8251   1.358   0.016   3.618
 2451SOL    HW1 8252   1.278   7.018   3.675
 2451SOL    HW2 8253   1.418   6.960   3.614
 2452SOL     OW 8254   3.066   1.932   3.846
 2452SOL    HW1 8255   3.099   1.990   3.920
 2452SOL    HW2 8256   3.118   1.951   3.763
 2453SOL     OW 8257   0.120   3.401   0.376
 2453SOL    HW1 8258   0.171   3.317   0.359
 2453SOL    HW2 8259   0.035   3.400   0.323
 2454SOL     OW 8260   3.076   0.488   6.736
 2454SOL    HW1 8261   3.041   0.542   6.659
 2454SOL    HW2 8262   2.999   0.453   6.789
 2455SOL     OW 8263   4.064   0.594   0.534
 2455SOL    HW1 8264   4.061   0.641   0.446
 2455SOL    HW2 8265   4.005   0.642   0.600
 2456SOL     OW 8266   6.361   2.394   0.122
 2456SOL    HW1 8267   6.301   2.394   0.042
 2456SOL    HW2 8268   6.360   2.304   0.164
 2457SOL     OW 8269   6.399   0.870   6.212
 2457SOL    HW1 8270   6.337   0.926   6.267
 2457SOL    HW2 8271   6.422   0.786   6.263
 2458SOL     OW 8272   1.495   6.544   4.070
 2458SOL    HW1 8273   1.552   6.464   4.089
 2458SOL    HW2 8274   1.398   6.520   4.079
 2459SOL     OW 8275   2.885   6.060   6.030
 2459SOL    HW1 8276   2.918   6.078   6.123
 2459SOL    HW2 8277   2.788   6.083   6.024
 2460SOL     OW 8278   1.073   1.216   1.625
 2460SOL    HW1 8279   1.142   1.270   1.674
 2460SOL    HW2 8280   1.119   1.153   1.562
 2461SOL     OW 8281   5.264   0.790   2.984
 2461SOL    HW1 8282   5.304   0.729   2.915
 2461SOL    HW2 8283   5.330   0.804   3.057
 2462SOL     OW 8284   1.943   5.367   0.070
 2462SOL    HW1 8285   1.955   5.290   0.007
 2462SOL    HW2 8286   2.025   5.424   0.068
 2463SOL     OW 8287   5.777   1.771   6.545
 2463SOL    HW1 8288   5.747   1.866   6.559
 2463SOL    HW2 8289   5.869   1.771   6.505
 2464SOL     OW 8290   2.153   3.985   2.563
 2464SOL    HW1 8291   2.124   4.066   2.513
 2464SOL    HW2 8292   2.210   3.927   2.504
 2465SOL     OW 8293   1.240   0.156   0.138
 2465SOL    HW1 8294   1.192   0.126   0.055
 2465SOL    HW2 8295   1.221   0.091   0.212
 2466SOL     OW 8296   2.798   1.863   2.972
 2466SOL    HW1 8297   2.767   1.769   2.954
 2466SOL    HW2 8298   2.816   1.873   3.070
 2467SOL     OW 8299   5.136   1.563   4.803
 2467SOL    HW1 8300   5.090   1.602   4.883
 2467SOL    HW2 8301   5.228   1.603   4.794
 2468SOL     OW 8302   4.618   6.355   1.594
 2468SOL    HW1 8303   4.636   6.367   1.497
 2468SOL    HW2 8304   4.524   6.381   1.614
 2469SOL     OW 8305   4.357   3.913   5.336
 2469SOL    HW1 8306   4.423   3.987   5.318
 2469SOL    HW2 8307   4.268   3.953   5.356
 2470SOL     OW 8308   4.895   4.274   6.256
 2470SOL    HW1 8309   4.876   4.220   6.174
 2470SOL    HW2 8310   4.909   4.213   6.334
 2471SOL     OW 8311   2.733   6.080   0.850
 2471SOL    HW1 8312   2.666   6.033   0.793
 2471SOL    HW2 8313   2.686   6.139   0.916
 2472SOL     OW 8314   4.659   2.455   3.622
 2472SOL    HW1 8315   4.594   2.517   3.579
 2472SOL    HW2 8316   4.630   2.360   3.607
 2473SOL     OW 8317   2.066   3.681   4.905
 2473SOL    HW1 8318   2.143   3.622   4.929
 2473SOL    HW2 8319   2.020   3.712   4.989
 2474SOL     OW 8320   0.161   5.707   1.381
 2474SOL    HW1 8321   0.135   5.613   1.402
 2474SOL    HW2 8322   0.257   5.722   1.404
 2475SOL     OW 8323   3.820   0.713   3.390
 2475SOL    HW1 8324   3.812   0.618   3.360
 2475SOL    HW2 8325   3.810   0.718   3.489
 2476SOL     OW 8326   6.936   1.202   2.866
 2476SOL    HW1 8327   6.982   1.208   2.777
 2476SOL    HW2 8328   6.914   1.294   2.899
 2477SOL     OW 8329   4.288   1.069   2.190
 2477SOL    HW1 8330   4.306   1.100   2.096
 2477SOL    HW2 8331   4.207   1.116   2.225
 2478SOL     OW 8332   6.362   1.165   1.568
 2478SOL    HW1 8333   6.286   1.228   1.582
 2478SOL    HW2 8334   6.370   1.105   1.648
 2479SOL     OW 8335   1.211   3.882   1.608
 2479SOL    HW1 8336   1.310   3.869   1.599
 2479SOL    HW2 8337   1.184   3.876   1.704
 2480SOL     OW 8338   4.848   4.122   0.828
 2480SOL    HW1 8339   4.784   4.112   0.752
 2480SOL    HW2 8340   4.870   4.032   0.866
 2481SOL     OW 8341   2.783   6.706   0.483
 2481SOL    HW1 8342   2.870   6.662   0.459
 2481SOL    HW2 8343   2.776   6.794   0.435
 2482SOL     OW 8344   5.402   3.271   6.074
 2482SOL    HW1 8345   5.329   3.288   6.141
 2482SOL    HW2 8346   5.491   3.289   6.116
 2483SOL     OW 8347   1.837   1.332   0.595
 2483SOL    HW1 8348   1.780   1.260   0.635
 2483SOL    HW2 8349   1.850   1.405   0.662
 2484SOL     OW 8350   3.580   1.059   0.289
 2484SOL    HW1 8351   3.588   1.154   0.262
 2484SOL    HW2 8352   3.581   1.052   0.389
 2485SOL     OW 8353   6.417   3.849   1.721
 2485SOL    HW1 8354   6.476   3.782   1.767
 2485SOL    HW2 8355   6.323   3.817   1.722
 2486SOL     OW 8356   1.765   4.830   4.669
 2486SOL    HW1 8357   1.861   4.807   4.680
 2486SOL    HW2 8358   1.736   4.808   4.575
 2487SOL     OW 8359   4.058   6.159   0.569
 2487SOL    HW1 8360   4.134   6.129   0.510
 2487SOL    HW2 8361   4.054   6.259   0.569
 2488SOL     OW 8362   1.717   4.546   2.097
 2488SOL    HW1 8363   1.691   4.633   2.139
 2488SOL    HW2 8364   1.665   4.471   2.139
 2489SOL     OW 8365   1.475   5.444   2.795
 2489SOL    HW1 8366   1.483   5.542   2.777
 2489SOL    HW2 8367   1.381   5.414   2.777
 2490SOL     OW 8368   6.956   4.856   1.536
 2490SOL    HW1 8369   6.879   4.840   1.475
 2490SOL    HW2 8370   6.936   4.818   1.626
 2491SOL     OW 8371   2.061   5.277   0.806
 2491SOL    HW1 8372   1.963   5.268   0.787
 2491SOL    HW2 8373   2.111   5.278   0.719
 2492SOL     OW 8374   4.449   2.383   1.322
 2492SOL    HW1 8375   4.376   2.394   1.254
 2492SOL    HW2 8376   4.486   2.291   1.318
 2493SOL     OW 8377   6.072   0.578   2.011
 2493SOL    HW1 8378   6.024   0.495   1.982
 2493SOL    HW2 8379   6.042   0.604   2.102
 2494SOL     OW 8380   5.845   4.057   2.174
 2494SOL    HW1 8381   5.750   4.046   2.146
 2494SOL    HW2 8382   5.895   3.972   2.154
 2495SOL     OW 8383   5.690   0.423   4.291
 2495SOL    HW1 8384   5.726   0.331   4.277
 2495SOL    HW2 8385   5.603   0.418   4.340
 2496SOL     OW 8386   6.660   3.391   5.694
 2496SOL    HW1 8387   6.750   3.347   5.700
 2496SOL    HW2 8388   6.671   3.490   5.687
 2497SOL     OW 8389   0.663   0.365   0.667
 2497SOL    HW1 8390   0.613   0.320   0.593
 2497SOL    HW2 8391   0.755   0.326   0.674
 2498SOL     OW 8392   2.773   1.734   4.091
 2498SOL    HW1 8393   2.793   1.652   4.036
 2498SOL    HW2 8394   2.857   1.764   4.137
 2499SOL     OW 8395   6.342   1.954   2.871
 2499SOL    HW1 8396   6.429   1.933   2.916
 2499SOL    HW2 8397   6.354   1.954   2.772
 2500SOL     OW 8398   4.466   2.808   7.005
 2500SOL    HW1 8399   4.431   2.715   7.022
 2500SOL    HW2 8400   4.551   2.822   0.033
 2501SOL     OW 8401   5.420   5.509   7.005
 2501SOL    HW1 8402   5.463   5.598   6.989
 2501SOL    HW2 8403   5.384   5.505   0.075
 2502SOL     OW 8404   1.484   5.235   3.693
 2502SOL    HW1 8405   1.384   5.226   3.692
 2502SOL    HW2 8406   1.526   5.146   3.676
 2503SOL     OW 8407   3.010   5.475   4.059
 2503SOL    HW1 8408   3.074   5.516   3.994
 2503SOL    HW2 8409   2.957   5.547   4.104
 2504SOL     OW 8410   3.913   5.254   4.356
 2504SOL    HW1 8411   3.926   5.291   4.448
 2504SOL    HW2 8412   3.818   5.226   4.344
 2505SOL     OW 8413   1.352   5.954   3.441
 2505SOL    HW1 8414   1.407   5.988   3.517
 2505SOL    HW2 8415   1.382   5.862   3.417
 2506SOL     OW 8416   6.770   3.984   5.408
 2506SOL    HW1 8417   6.705   3.938   5.468
 2506SOL    HW2 8418   6.837   3.917   5.374
 2507SOL     OW 8419   1.147   4.060   1.141
 2507SOL    HW1 8420   1.174   3.996   1.069
 2507SOL    HW2 8421   1.199   4.041   1.224
 2508SOL     OW 8422   2.115   1.426   2.406
 2508SOL    HW1 8423   2.066   1.351   2.360
 2508SOL    HW2 8424   2.177   1.470   2.341
 2509SOL     OW 8425   0.193   2.450   1.571
 2509SOL    HW1 8426   0.255   2.460   1.492
 2509SOL    HW2 8427   0.147   2.538   1.587
 2510SOL     OW 8428   2.909   4.450   1.421
 2510SOL    HW1 8429   2.815   4.483   1.422
 2510SOL    HW2 8430   2.939   4.430   1.514
 2511SOL     OW 8431   2.790   2.266   3.786
 2511SOL    HW1 8432   2.761   2.186   3.840
 2511SOL    HW2 8433   2.751   2.349   3.826
 2512SOL     OW 8434   5.443   4.347   4.758
 2512SOL    HW1 8435   5.459   4.354   4.659
 2512SOL    HW2 8436   5.521   4.300   4.801
 2513SOL     OW 8437   1.045   4.043   5.315
 2513SOL    HW1 8438   1.117   3.975   5.323
 2513SOL    HW2 8439   1.084   4.130   5.285
 2514SOL     OW 8440   6.196   3.725   4.275
 2514SOL    HW1 8441   6.238   3.786   4.207
 2514SOL    HW2 8442   6.173   3.778   4.356
 2515SOL     OW 8443   1.445   6.333   0.800
 2515SOL    HW1 8444   1.510   6.376   0.737
 2515SOL    HW2 8445   1.366   6.299   0.748
 2516SOL     OW 8446   6.110   0.947   2.868
 2516SOL    HW1 8447   6.156   0.870   2.912
 2516SOL    HW2 8448   6.044   0.911   2.801
 2517SOL     OW 8449   1.475   5.632   6.079
 2517SOL    HW1 8450   1.485   5.533   6.078
 2517SOL    HW2 8451   1.528   5.672   6.004
 2518SOL     OW 8452   1.366   4.382   0.209
 2518SOL    HW1 8453   1.403   4.370   0.301
 2518SOL    HW2 8454   1.422   4.447   0.158
 2519SOL     OW 8455   5.100   6.629   3.095
 2519SOL    HW1 8456   5.137   6.550   3.145
 2519SOL    HW2 8457   5.154   6.710   3.116
 2520SOL     OW 8458   2.608   1.953   0.124
 2520SOL    HW1 8459   2.652   2.042   0.109
 2520SOL    HW2 8460   2.624   1.894   0.045
 2521SOL     OW 8461   1.014   6.989   5.093
 2521SOL    HW1 8462   1.089   6.949   5.040
 2521SOL    HW2 8463   1.031   0.063   5.106
 2522SOL     OW 8464   0.699   3.503   5.260
 2522SOL    HW1 8465   0.772   3.557   5.218
 2522SOL    HW2 8466   0.739   3.424   5.307
 2523SOL     OW 8467   0.394   3.049   1.562
 2523SOL    HW1 8468   0.351   3.032   1.651
 2523SOL    HW2 8469   0.376   2.971   1.502
 2524SOL     OW 8470   1.308   6.171   5.447
 2524SOL    HW1 8471   1.383   6.213   5.498
 2524SOL    HW2 8472   1.332   6.168   5.350
 2525SOL     OW 8473   1.145   2.355   4.877
 2525SOL    HW1 8474   1.120   2.377   4.971
 2525SOL    HW2 8475   1.079   2.396   4.814
 2526SOL     OW 8476   1.633   3.762   5.687
 2526SOL    HW1 8477   1.686   3.770   5.771
 2526SOL    HW2 8478   1.592   3.850   5.664
 2527SOL     OW 8479   5.499   5.695   4.939
 2527SOL    HW1 8480   5.555   5.733   4.865
 2527SOL    HW2 8481   5.545   5.707   5.026
 2528SOL     OW 8482   5.346   5.150   0.934
 2528SOL    HW1 8483   5.415   5.202   0.883
 2528SOL    HW2 8484   5.390   5.102   1.009
 2529SOL     OW 8485   0.268   6.625   6.701
 2529SOL    HW1 8486   0.201   6.661   6.766
 2529SOL    HW2 8487   0.285   6.692   6.629
 2530SOL     OW 8488   2.496   6.832   5.362
 2530SOL    HW1 8489   2.505   6.928   5.336
 2530SOL    HW2 8490   2.424   6.790   5.307
 2531SOL     OW 8491   4.879   6.007   4.432
 2531SOL    HW1 8492   4.910   5.965   4.517
 2531SOL    HW2 8493   4.835   6.095   4.451
 2532SOL     OW 8494   1.452   6.921   1.304
 2532SOL    HW1 8495   1.358   6.913   1.336
 2532SOL    HW2 8496   1.484   7.015   1.315
 2533SOL     OW 8497   3.088   0.248   2.864
 2533SOL    HW1 8498   3.041   0.324   2.910
 2533SOL    HW2 8499   3.021   0.179   2.837
 2534SOL     OW 8500   3.108   0.409   3.351
 2534SOL    HW1 8501   3.142   0.466   3.275
 2534SOL    HW2 8502   3.042   0.343   3.315
 2535SOL     OW 8503   3.235   2.110   5.549
 2535SOL    HW1 8504   3.268   2.054   5.473
 2535SOL    HW2 8505   3.160   2.063   5.595
 2536SOL     OW 8506   0.110   2.473   4.532
 2536SOL    HW1 8507   0.080   2.459   4.437
 2536SOL    HW2 8508   0.203   2.437   4.543
 2537SOL     OW 8509   3.779   0.038   5.884
 2537SOL    HW1 8510   3.689   0.015   5.921
 2537SOL    HW2 8511   3.825   0.102   5.946
 2538SOL     OW 8512   1.445   4.972   5.405
 2538SOL    HW1 8513   1.465   4.874   5.408
 2538SOL    HW2 8514   1.406   5.000   5.492
 2539SOL     OW 8515   4.881   0.586   5.598
 2539SOL    HW1 8516   4.972   0.581   5.641
 2539SOL    HW2 8517   4.833   0.667   5.632
 2540SOL     OW 8518   3.839   0.899   2.648
 2540SOL    HW1 8519   3.924   0.919   2.599
 2540SOL    HW2 8520   3.761   0.923   2.590
 2541SOL     OW 8521   1.705   6.617   4.914
 2541SOL    HW1 8522   1.681   6.714   4.916
 2541SOL    HW2 8523   1.803   6.606   4.925
 2542SOL     OW 8524   4.627   0.729   5.917
 2542SOL    HW1 8525   4.570   0.806   5.889
 2542SOL    HW2 8526   4.723   0.758   5.918
 2543SOL     OW 8527   1.455   1.932   3.136
 2543SOL    HW1 8528   1.487   1.859   3.196
 2543SOL    HW2 8529   1.391   1.894   3.069
 2544SOL     OW 8530   0.346   6.228   1.044
 2544SOL    HW1 8531   0.280   6.172   1.093
 2544SOL    HW2 8532   0.302   6.270   0.964
 2545SOL     OW 8533   2.264   1.053   1.576
 2545SOL    HW1 8534   2.213   1.062   1.490
 2545SOL    HW2 8535   2.295   1.144   1.606
 2546SOL     OW 8536   0.315   2.164   1.497
 2546SOL    HW1 8537   0.280   2.146   1.405
 2546SOL    HW2 8538   0.238   2.174   1.560
 2547SOL     OW 8539   6.020   3.801   0.293
 2547SOL    HW1 8540   6.004   3.703   0.297
 2547SOL    HW2 8541   5.999   3.842   0.382
 2548SOL     OW 8542   2.528   6.373   5.496
 2548SOL    HW1 8543   2.576   6.453   5.461
 2548SOL    HW2 8544   2.549   6.294   5.439
 2549SOL     OW 8545   1.838   0.697   1.076
 2549SOL    HW1 8546   1.817   0.734   1.166
 2549SOL    HW2 8547   1.882   0.768   1.020
 2550SOL     OW 8548   6.890   0.632   6.239
 2550SOL    HW1 8549   6.921   0.722   6.206
 2550SOL    HW2 8550   6.953   0.599   6.309
 2551SOL     OW 8551   3.903   4.717   0.299
 2551SOL    HW1 8552   3.848   4.780   0.354
 2551SOL    HW2 8553   3.843   4.658   0.246
 2552SOL     OW 8554   2.168   5.580   6.321
 2552SOL    HW1 8555   2.206   5.603   6.231
 2552SOL    HW2 8556   2.073   5.610   6.326
 2553SOL     OW 8557   4.160   3.053   6.320
 2553SOL    HW1 8558   4.186   3.132   6.375
 2553SOL    HW2 8559   4.067   3.065   6.286
 2554SOL     OW 8560   2.043   6.056   0.119
 2554SOL    HW1 8561   1.977   6.128   0.098
 2554SOL    HW2 8562   2.083   6.072   0.209
 2555SOL     OW 8563   6.083   6.895   6.817
 2555SOL    HW1 8564   6.153   6.831   6.846
 2555SOL    HW2 8565   6.097   6.920   6.721
 2556SOL     OW 8566   4.458   5.365   0.273
 2556SOL    HW1 8567   4.383   5.359   0.339
 2556SOL    HW2 8568   4.424   5.342   0.182
 2557SOL     OW 8569   2.605   3.082   6.443
 2557SOL    HW1 8570   2.648   3.160   6.396
 2557SOL    HW2 8571   2.513   3.068   6.406
 2558SOL     OW 8572   4.295   3.043   6.078
 2558SOL    HW1 8573   4.253   3.047   6.169
 2558SOL    HW2 8574   4.393   3.031   6.087
 2559SOL     OW 8575   6.235   4.083   3.666
 2559SOL    HW1 8576   6.273   4.037   3.586
 2559SOL    HW2 8577   6.160   4.143   3.637
 2560SOL     OW 8578   5.625   3.222   4.242
 2560SOL    HW1 8579   5.712   3.184   4.213
 2560SOL    HW2 8580   5.561   3.148   4.263
 2561SOL     OW 8581   2.703   6.906   4.284
 2561SOL    HW1 8582   2.741   6.971   4.218
 2561SOL    HW2 8583   2.613   6.938   4.315
 2562SOL     OW 8584   1.446   5.631   2.443
 2562SOL    HW1 8585   1.453   5.642   2.542
 2562SOL    HW2 8586   1.461   5.720   2.399
 2563SOL     OW 8587   3.804   2.070   0.489
 2563SOL    HW1 8588   3.889   2.073   0.438
 2563SOL    HW2 8589   3.735   2.126   0.442
 2564SOL     OW 8590   1.991   5.997   6.259
 2564SOL    HW1 8591   2.069   6.054   6.235
 2564SOL    HW2 8592   2.012   5.942   6.340
 2565SOL     OW 8593   0.154   0.252   0.268
 2565SOL    HW1 8594   0.242   0.238   0.313
 2565SOL    HW2 8595   0.163   0.233   0.170
 2566SOL     OW 8596   2.045   6.979   1.284
 2566SOL    HW1 8597   2.101   0.028   1.244
 2566SOL    HW2 8598   1.954   7.015   1.305
 2567SOL     OW 8599   1.205   1.297   1.316
 2567SOL    HW1 8600   1.184   1.391   1.343
 2567SOL    HW2 8601   1.207   1.239   1.397
 2568SOL     OW 8602   3.155   6.445   0.062
 2568SOL    HW1 8603   3.176   6.540   0.041
 2568SOL    HW2 8604   3.108   6.440   0.150
 2569SOL     OW 8605   2.653   1.191   1.624
 2569SOL    HW1 8606   2.616   1.126   1.690
 2569SOL    HW2 8607   2.682   1.141   1.542
 2570SOL     OW 8608   5.867   0.381   6.717
 2570SOL    HW1 8609   5.957   0.393   6.759
 2570SOL    HW2 8610   5.846   0.284   6.710
 2571SOL     OW 8611   2.336   4.458   5.055
 2571SOL    HW1 8612   2.407   4.511   5.009
 2571SOL    HW2 8613   2.294   4.395   4.991
 2572SOL     OW 8614   2.136   5.081   0.290
 2572SOL    HW1 8615   2.043   5.098   0.258
 2572SOL    HW2 8616   2.132   5.033   0.378
 2573SOL     OW 8617   7.011   1.874   1.686
 2573SOL    HW1 8618   0.018   1.790   1.730
 2573SOL    HW2 8619   6.927   1.857   1.634
 2574SOL     OW 8620   6.275   3.840   6.624
 2574SOL    HW1 8621   6.201   3.796   6.675
 2574SOL    HW2 8622   6.362   3.824   6.671
 2575SOL     OW 8623   5.202   5.438   6.856
 2575SOL    HW1 8624   5.253   5.421   6.772
 2575SOL    HW2 8625   5.265   5.443   6.933
 2576SOL     OW 8626   3.731   0.337   4.240
 2576SOL    HW1 8627   3.661   0.271   4.268
 2576SOL    HW2 8628   3.753   0.397   4.317
 2577SOL     OW 8629   3.349   6.811   1.730
 2577SOL    HW1 8630   3.260   6.773   1.703
 2577SOL    HW2 8631   3.356   6.811   1.830
 2578SOL     OW 8632   5.309   2.067   3.600
 2578SOL    HW1 8633   5.209   2.067   3.598
 2578SOL    HW2 8634   5.342   1.972   3.601
 2579SOL     OW 8635   1.542   6.232   2.664
 2579SOL    HW1 8636   1.483   6.313   2.656
 2579SOL    HW2 8637   1.524   6.170   2.587
 2580SOL     OW 8638   2.303   2.916   6.717
 2580SOL    HW1 8639   2.371   2.934   6.645
 2580SOL    HW2 8640   2.231   2.856   6.681
 2581SOL     OW 8641   0.652   4.028   1.049
 2581SOL    HW1 8642   0.630   4.087   0.972
 2581SOL    HW2 8643   0.739   4.056   1.089
 2582SOL     OW 8644   0.823   4.939   2.310
 2582SOL    HW1 8645   0.737   4.950   2.359
 2582SOL    HW2 8646   0.810   4.875   2.234
 2583SOL     OW 8647   0.811   1.551   0.472
 2583SOL    HW1 8648   0.772   1.642   0.457
 2583SOL    HW2 8649   0.835   1.540   0.568
 2584SOL     OW 8650   4.322   5.736   0.496
 2584SOL    HW1 8651   4.252   5.680   0.540
 2584SOL    HW2 8652   4.357   5.687   0.416
 2585SOL     OW 8653   5.228   2.235   0.694
 2585SOL    HW1 8654   5.139   2.257   0.655
 2585SOL    HW2 8655   5.299   2.245   0.624
 2586SOL     OW 8656   3.543   1.246   3.236
 2586SOL    HW1 8657   3.533   1.339   3.200
 2586SOL    HW2 8658   3.587   1.250   3.326
 2587SOL     OW 8659   0.337   1.346   3.183
 2587SOL    HW1 8660   0.337   1.250   3.213
 2587SOL    HW2 8661   0.344   1.405   3.263
 2588SOL     OW 8662   4.192   0.624   6.353
 2588SOL    HW1 8663   4.240   0.554   6.300
 2588SOL    HW2 8664   4.098   0.631   6.321
 2589SOL     OW 8665   0.548   6.067   6.597
 2589SOL    HW1 8666   0.597   6.037   6.514
 2589SOL    HW2 8667   0.450   6.061   6.581
 2590SOL     OW 8668   3.642   6.087   0.891
 2590SOL    HW1 8669   3.586   6.009   0.864
 2590SOL    HW2 8670   3.729   6.083   0.843
 2591SOL     OW 8671   0.048   5.834   2.434
 2591SOL    HW1 8672   0.145   5.844   2.416
 2591SOL    HW2 8673   7.020   5.837   2.348
 2592SOL     OW 8674   3.728   5.612   0.776
 2592SOL    HW1 8675   3.657   5.545   0.754
 2592SOL    HW2 8676   3.765   5.592   0.867
 2593SOL     OW 8677   3.130   5.543   0.671
 2593SOL    HW1 8678   3.104   5.488   0.592
 2593SOL    HW2 8679   3.103   5.496   0.756
 2594SOL     OW 8680   1.052   5.380   6.183
 2594SOL    HW1 8681   1.025   5.306   6.121
 2594SOL    HW2 8682   1.004   5.463   6.158
 2595SOL     OW 8683   6.655   2.040   4.311
 2595SOL    HW1 8684   6.752   2.025   4.290
 2595SOL    HW2 8685   6.630   2.133   4.285
 2596SOL     OW 8686   3.522   1.737   1.848
 2596SOL    HW1 8687   3.427   1.740   1.816
 2596SOL    HW2 8688   3.572   1.815   1.811
 2597SOL     OW 8689   1.670   4.579   6.040
 2597SOL    HW1 8690   1.600   4.646   6.064
 2597SOL    HW2 8691   1.644   4.533   5.955
 2598SOL     OW 8692   6.321   1.186   3.408
 2598SOL    HW1 8693   6.306   1.106   3.350
 2598SOL    HW2 8694   6.405   1.173   3.461
 2599SOL     OW 8695   2.136   6.689   1.407
 2599SOL    HW1 8696   2.100   6.742   1.484
 2599SOL    HW2 8697   2.122   6.740   1.322
 2600SOL     OW 8698   5.380   3.129   4.700
 2600SOL    HW1 8699   5.477   3.148   4.717
 2600SOL    HW2 8700   5.329   3.134   4.786
 2601SOL     OW 8701   2.232   1.619   0.976
 2601SOL    HW1 8702   2.216   1.680   1.053
 2601SOL    HW2 8703   2.265   1.671   0.898
 2602SOL     OW 8704   0.924   4.102   4.504
 2602SOL    HW1 8705   0.828   4.075   4.517
 2602SOL    HW2 8706   0.982   4.053   4.569
 2603SOL     OW 8707   2.487   1.066   3.513
 2603SOL    HW1 8708   2.420   1.132   3.545
 2603SOL    HW2 8709   2.449   1.014   3.437
 2604SOL     OW 8710   4.635   1.756   2.827
 2604SOL    HW1 8711   4.573   1.788   2.755
 2604SOL    HW2 8712   4.730   1.768   2.796
 2605SOL     OW 8713   2.117   3.831   2.878
 2605SOL    HW1 8714   2.144   3.877   2.794
 2605SOL    HW2 8715   2.118   3.896   2.954
 2606SOL     OW 8716   5.643   4.393   1.900
 2606SOL    HW1 8717   5.628   4.492   1.908
 2606SOL    HW2 8718   5.565   4.344   1.937
 2607SOL     OW 8719   1.474   1.477   1.105
 2607SOL    HW1 8720   1.481   1.388   1.150
 2607SOL    HW2 8721   1.492   1.550   1.172
 2608SOL     OW 8722   4.722   4.983   1.552
 2608SOL    HW1 8723   4.637   4.955   1.507
 2608SOL    HW2 8724   4.793   4.914   1.535
 2609SOL     OW 8725   6.465   1.235   1.139
 2609SOL    HW1 8726   6.491   1.296   1.065
 2609SOL    HW2 8727   6.427   1.151   1.101
 2610SOL     OW 8728   1.252   4.781   5.051
 2610SOL    HW1 8729   1.260   4.864   5.107
 2610SOL    HW2 8730   1.184   4.720   5.090
 2611SOL     OW 8731   4.500   6.603   1.092
 2611SOL    HW1 8732   4.473   6.691   1.052
 2611SOL    HW2 8733   4.431   6.574   1.158
 2612SOL     OW 8734   6.423   0.119   5.780
 2612SOL    HW1 8735   6.483   0.042   5.756
 2612SOL    HW2 8736   6.347   0.086   5.835
 2613SOL     OW 8737   3.007   6.128   6.270
 2613SOL    HW1 8738   2.952   6.202   6.308
 2613SOL    HW2 8739   3.095   6.165   6.239
 2614SOL     OW 8740   6.777   0.588   5.767
 2614SOL    HW1 8741   6.732   0.568   5.679
 2614SOL    HW2 8742   6.736   0.669   5.808
 2615SOL     OW 8743   6.842   2.844   2.962
 2615SOL    HW1 8744   6.839   2.788   2.880
 2615SOL    HW2 8745   6.922   2.903   2.959
 2616SOL     OW 8746   3.599   3.470   5.427
 2616SOL    HW1 8747   3.550   3.436   5.346
 2616SOL    HW2 8748   3.537   3.525   5.482
 2617SOL     OW 8749   3.640   6.435   0.335
 2617SOL    HW1 8750   3.729   6.459   0.295
 2617SOL    HW2 8751   3.630   6.336   0.337
 2618SOL     OW 8752   6.935   0.691   4.323
 2618SOL    HW1 8753   6.962   0.747   4.244
 2618SOL    HW2 8754   6.931   0.595   4.296
 2619SOL     OW 8755   3.931   1.712   3.191
 2619SOL    HW1 8756   3.908   1.805   3.163
 2619SOL    HW2 8757   3.989   1.716   3.273
 2620SOL     OW 8758   6.386   6.941   3.539
 2620SOL    HW1 8759   6.349   6.972   3.626
 2620SOL    HW2 8760   6.443   6.860   3.554
 2621SOL     OW 8761   1.096   5.568   2.763
 2621SOL    HW1 8762   1.149   5.584   2.846
 2621SOL    HW2 8763   0.999   5.582   2.782
 2622SOL     OW 8764   2.005   3.579   5.336
 2622SOL    HW1 8765   2.051   3.509   5.391
 2622SOL    HW2 8766   1.947   3.635   5.396
 2623SOL     OW 8767   0.966   0.842   5.714
 2623SOL    HW1 8768   1.018   0.918   5.752
 2623SOL    HW2 8769   0.933   0.867   5.623
 2624SOL     OW 8770   6.444   1.337   5.185
 2624SOL    HW1 8771   6.435   1.435   5.202
 2624SOL    HW2 8772   6.497   1.295   5.258
 2625SOL     OW 8773   2.085   3.173   5.178
 2625SOL    HW1 8774   2.114   3.159   5.083
 2625SOL    HW2 8775   2.159   3.150   5.240
 2626SOL     OW 8776   0.468   0.339   6.178
 2626SOL    HW1 8777   0.384   0.392   6.183
 2626SOL    HW2 8778   0.542   0.387   6.224
 2627SOL     OW 8779   1.038   1.338   5.916
 2627SOL    HW1 8780   0.941   1.361   5.920
 2627SOL    HW2 8781   1.072   1.352   5.823
 2628SOL     OW 8782   2.099   4.781   5.853
 2628SOL    HW1 8783   2.176   4.774   5.788
 2628SOL    HW2 8784   2.112   4.715   5.927
 2629SOL     OW 8785   3.507   3.049   2.224
 2629SOL    HW1 8786   3.459   2.976   2.176
 2629SOL    HW2 8787   3.594   3.068   2.179
 2630SOL     OW 8788   3.342   2.102   2.685
 2630SOL    HW1 8789   3.251   2.061   2.693
 2630SOL    HW2 8790   3.365   2.115   2.588
 2631SOL     OW 8791   5.226   0.844   5.693
 2631SOL    HW1 8792   5.137   0.884   5.671
 2631SOL    HW2 8793   5.298   0.896   5.647
 2632SOL     OW 8794   5.240   3.221   6.322
 2632SOL    HW1 8795   5.142   3.201   6.318
 2632SOL    HW2 8796   5.274   3.198   6.413
 2633SOL     OW 8797   0.180   2.543   4.892
 2633SOL    HW1 8798   0.252   2.544   4.962
 2633SOL    HW2 8799   0.214   2.584   4.808
 2634SOL     OW 8800   0.664   4.840   3.642
 2634SOL    HW1 8801   0.599   4.857   3.568
 2634SOL    HW2 8802   0.644   4.752   3.685
 2635SOL     OW 8803   6.969   5.458   5.722
 2635SOL    HW1 8804   6.934   5.524   5.655
 2635SOL    HW2 8805   6.935   5.482   5.813
 2636SOL     OW 8806   3.748   0.608   4.726
 2636SOL    HW1 8807   3.707   0.566   4.645
 2636SOL    HW2 8808   3.728   0.706   4.728
 2637SOL     OW 8809   5.233   1.521   3.444
 2637SOL    HW1 8810   5.195   1.606   3.481
 2637SOL    HW2 8811   5.232   1.451   3.516
 2638SOL     OW 8812   6.925   0.108   3.951
 2638SOL    HW1 8813   6.914   0.112   3.852
 2638SOL    HW2 8814   7.003   0.164   3.978
 2639SOL     OW 8815   0.153   6.070   1.163
 2639SOL    HW1 8816   0.131   6.070   1.260
 2639SOL    HW2 8817   0.107   5.994   1.118
 2640SOL     OW 8818   0.698   5.962   5.700
 2640SOL    HW1 8819   0.762   6.037   5.718
 2640SOL    HW2 8820   0.616   5.998   5.655
 2641SOL     OW 8821   5.779   2.892   2.337
 2641SOL    HW1 8822   5.691   2.919   2.375
 2641SOL    HW2 8823   5.834   2.849   2.408
 2642SOL     OW 8824   5.041   6.660   3.562
 2642SOL    HW1 8825   5.118   6.707   3.519
 2642SOL    HW2 8826   5.064   6.564   3.577
 2643SOL     OW 8827   0.725   3.834   3.437
 2643SOL    HW1 8828   0.727   3.757   3.501
 2643SOL    HW2 8829   0.785   3.907   3.470
 2644SOL     OW 8830   5.011   6.656   5.386
 2644SOL    HW1 8831   4.988   6.563   5.361
 2644SOL    HW2 8832   5.084   6.655   5.455
 2645SOL     OW 8833   3.951   5.757   3.795
 2645SOL    HW1 8834   3.951   5.753   3.695
 2645SOL    HW2 8835   3.887   5.828   3.826
 2646SOL     OW 8836   6.027   0.902   6.866
 2646SOL    HW1 8837   5.938   0.857   6.864
 2646SOL    HW2 8838   6.028   0.972   6.937
 2647SOL     OW 8839   6.828   0.053   2.000
 2647SOL    HW1 8840   6.863   0.036   2.092
 2647SOL    HW2 8841   6.737   0.014   1.991
 2648SOL     OW 8842   0.693   6.971   4.018
 2648SOL    HW1 8843   0.673   6.964   3.921
 2648SOL    HW2 8844   0.789   6.946   4.034
 2649SOL     OW 8845   6.375   3.311   0.141
 2649SOL    HW1 8846   6.315   3.327   0.220
 2649SOL    HW2 8847   6.407   3.217   0.141
 2650SOL     OW 8848   1.116   4.996   3.827
 2650SOL    HW1 8849   1.028   4.985   3.875
 2650SOL    HW2 8850   1.134   4.914   3.773
 2651SOL     OW 8851   1.980   1.419   1.036
 2651SOL    HW1 8852   2.076   1.434   1.058
 2651SOL    HW2 8853   1.952   1.329   1.072
 2652SOL     OW 8854   4.091   3.800   4.816
 2652SOL    HW1 8855   4.167   3.828   4.757
 2652SOL    HW2 8856   4.005   3.815   4.768
 2653SOL     OW 8857   4.823   6.851   5.567
 2653SOL    HW1 8858   4.857   6.802   5.487
 2653SOL    HW2 8859   4.822   6.790   5.646
 2654SOL     OW 8860   4.234   0.018   2.391
 2654SOL    HW1 8861   4.331   0.017   2.366
 2654SOL    HW2 8862   4.185   6.979   2.331
 2655SOL     OW 8863   4.850   6.461   3.919
 2655SOL    HW1 8864   4.908   6.541   3.933
 2655SOL    HW2 8865   4.787   6.477   3.843
 2656SOL     OW 8866   3.650   4.989   4.610
 2656SOL    HW1 8867   3.574   5.022   4.666
 2656SOL    HW2 8868   3.714   4.938   4.667
 2657SOL     OW 8869   0.894   4.295   0.077
 2657SOL    HW1 8870   0.953   4.222   0.112
 2657SOL    HW2 8871   0.856   4.267   7.012
 2658SOL     OW 8872   4.881   4.336   0.990
 2658SOL    HW1 8873   4.852   4.295   1.076
 2658SOL    HW2 8874   4.881   4.267   0.918
 2659SOL     OW 8875   5.255   3.251   4.475
 2659SOL    HW1 8876   5.309   3.226   4.556
 2659SOL    HW2 8877   5.282   3.342   4.444
 2660SOL     OW 8878   2.072   0.047   2.038
 2660SOL    HW1 8879   2.016   0.077   2.115
 2660SOL    HW2 8880   2.169   0.056   2.061
 2661SOL     OW 8881   2.441   0.132   1.822
 2661SOL    HW1 8882   2.354   0.176   1.846
 2661SOL    HW2 8883   2.424   0.038   1.793
 2662SOL     OW 8884   4.556   6.296   4.914
 2662SOL    HW1 8885   4.469   6.263   4.950
 2662SOL    HW2 8886   4.555   6.291   4.814
 2663SOL     OW 8887   2.914   4.302   6.796
 2663SOL    HW1 8888   2.962   4.259   6.873
 2663SOL    HW2 8889   2.837   4.355   6.831
 2664SOL     OW 8890   4.290   3.484   5.452
 2664SOL    HW1 8891   4.329   3.546   5.384
 2664SOL    HW2 8892   4.360   3.421   5.484
 2665SOL     OW 8893   2.712   3.048   5.301
 2665SOL    HW1 8894   2.627   3.032   5.252
 2665SOL    HW2 8895   2.754   2.960   5.325
 2666SOL     OW 8896   6.237   4.950   1.379
 2666SOL    HW1 8897   6.199   5.029   1.332
 2666SOL    HW2 8898   6.331   4.934   1.348
 2667SOL     OW 8899   0.418   5.950   4.460
 2667SOL    HW1 8900   0.355   5.990   4.394
 2667SOL    HW2 8901   0.373   5.942   4.549
 2668SOL     OW 8902   0.242   3.407   5.181
 2668SOL    HW1 8903   0.165   3.448   5.132
 2668SOL    HW2 8904   0.300   3.357   5.117
 2669SOL     OW 8905   3.019   4.778   5.742
 2669SOL    HW1 8906   3.013   4.825   5.654
 2669SOL    HW2 8907   3.005   4.680   5.728
 2670SOL     OW 8908   5.455   3.234   5.786
 2670SOL    HW1 8909   5.409   3.290   5.717
 2670SOL    HW2 8910   5.427   3.263   5.878
 2671SOL     OW 8911   4.892   5.248   6.254
 2671SOL    HW1 8912   4.899   5.318   6.325
 2671SOL    HW2 8913   4.874   5.159   6.298
 2672SOL     OW 8914   1.826   4.930   0.528
 2672SOL    HW1 8915   1.807   4.853   0.467
 2672SOL    HW2 8916   1.765   4.925   0.607
 2673SOL     OW 8917   6.488   1.241   2.237
 2673SOL    HW1 8918   6.562   1.209   2.177
 2673SOL    HW2 8919   6.406   1.187   2.220
 2674SOL     OW 8920   1.219   4.709   3.962
 2674SOL    HW1 8921   1.252   4.797   3.994
 2674SOL    HW2 8922   1.222   4.706   3.862
 2675SOL     OW 8923   6.270   5.196   4.079
 2675SOL    HW1 8924   6.325   5.175   4.160
 2675SOL    HW2 8925   6.228   5.112   4.044
 2676SOL     OW 8926   3.868   2.550   1.059
 2676SOL    HW1 8927   3.789   2.553   0.998
 2676SOL    HW2 8928   3.865   2.465   1.113
 2677SOL     OW 8929   2.392   3.949   0.335
 2677SOL    HW1 8930   2.324   3.957   0.263
 2677SOL    HW2 8931   2.417   3.853   0.348
 2678SOL     OW 8932   0.324   2.789   1.446
 2678SOL    HW1 8933   0.256   2.791   1.372
 2678SOL    HW2 8934   0.370   2.700   1.446
 2679SOL     OW 8935   1.968   4.212   1.526
 2679SOL    HW1 8936   1.994   4.235   1.620
 2679SOL    HW2 8937   1.870   4.191   1.523
 2680SOL     OW 8938   1.154   1.754   0.640
 2680SOL    HW1 8939   1.188   1.808   0.564
 2680SOL    HW2 8940   1.177   1.799   0.727
 2681SOL     OW 8941   1.757   2.156   5.145
 2681SOL    HW1 8942   1.671   2.193   5.110
 2681SOL    HW2 8943   1.820   2.142   5.069
 2682SOL     OW 8944   4.819   4.246   3.098
 2682SOL    HW1 8945   4.882   4.323   3.093
 2682SOL    HW2 8946   4.840   4.190   3.177
 2683SOL     OW 8947   2.745   5.560   1.697
 2683SOL    HW1 8948   2.677   5.552   1.770
 2683SOL    HW2 8949   2.742   5.479   1.639
 2684SOL     OW 8950   4.777   5.964   1.486
 2684SOL    HW1 8951   4.694   6.009   1.453
 2684SOL    HW2 8952   4.753   5.887   1.544
 2685SOL     OW 8953   5.836   6.363   5.787
 2685SOL    HW1 8954   5.916   6.392   5.839
 2685SOL    HW2 8955   5.863   6.291   5.723
 2686SOL     OW 8956   1.719   1.481   5.534
 2686SOL    HW1 8957   1.750   1.428   5.455
 2686SOL    HW2 8958   1.734   1.578   5.516
 2687SOL     OW 8959   5.131   5.022   1.195
 2687SOL    HW1 8960   5.136   4.975   1.283
 2687SOL    HW2 8961   5.195   4.979   1.131
 2688SOL     OW 8962   3.371   3.604   0.546
 2688SOL    HW1 8963   3.284   3.560   0.525
 2688SOL    HW2 8964   3.357   3.703   0.554
 2689SOL     OW 8965   1.251   4.207   3.071
 2689SOL    HW1 8966   1.182   4.256   3.124
 2689SOL    HW2 8967   1.219   4.114   3.052
 2690SOL     OW 8968   3.903   2.908   5.058
 2690SOL    HW1 8969   3.850   2.904   5.143
 2690SOL    HW2 8970   3.926   2.816   5.028
 2691SOL     OW 8971   1.628   5.075   3.404
 2691SOL    HW1 8972   1.680   5.159   3.390
 2691SOL    HW2 8973   1.572   5.056   3.324
 2692SOL     OW 8974   2.995   6.024   3.089
 2692SOL    HW1 8975   3.067   6.030   3.158
 2692SOL    HW2 8976   3.017   6.082   3.011
 2693SOL     OW 8977   2.301   5.096   3.634
 2693SOL    HW1 8978   2.296   5.142   3.722
 2693SOL    HW2 8979   2.208   5.083   3.598
 2694SOL     OW 8980   4.262   6.098   2.971
 2694SOL    HW1 8981   4.267   6.041   2.889
 2694SOL    HW2 8982   4.232   6.043   3.049
 2695SOL     OW 8983   6.075   0.847   1.953
 2695SOL    HW1 8984   6.037   0.875   2.041
 2695SOL    HW2 8985   6.084   0.747   1.951
 2696SOL     OW 8986   3.595   3.251   5.840
 2696SOL    HW1 8987   3.502   3.260   5.875
 2696SOL    HW2 8988   3.651   3.326   5.873
 2697SOL     OW 8989   3.464   1.462   2.751
 2697SOL    HW1 8990   3.501   1.374   2.722
 2697SOL    HW2 8991   3.364   1.461   2.740
 2698SOL     OW 8992   1.775   5.287   0.753
 2698SOL    HW1 8993   1.702   5.352   0.732
 2698SOL    HW2 8994   1.830   5.271   0.671
 2699SOL     OW 8995   2.263   5.679   0.683
 2699SOL    HW1 8996   2.182   5.706   0.631
 2699SOL    HW2 8997   2.340   5.664   0.620
 2700SOL     OW 8998   3.048   3.242   0.202
 2700SOL    HW1 8999   2.965   3.258   0.255
 2700SOL    HW2 9000   3.024   3.223   0.107
 2701SOL     OW 9001   5.335   1.777   5.866
 2701SOL    HW1 9002   5.235   1.773   5.864
 2701SOL    HW2 9003   5.366   1.789   5.960
 2702SOL     OW 9004   0.398   3.318   3.228
 2702SOL    HW1 9005   0.306   3.324   3.267
 2702SOL    HW2 9006   0.439   3.409   3.224
 2703SOL     OW 9007   1.551   0.310   0.822
 2703SOL    HW1 9008   1.630   0.336   0.768
 2703SOL    HW2 9009   1.566   0.219   0.862
 2704SOL     OW 9010   6.776   5.744   1.782
 2704SOL    HW1 9011   6.727   5.659   1.803
 2704SOL    HW2 9012   6.823   5.735   1.694
 2705SOL     OW 9013   0.146   5.621   4.293
 2705SOL    HW1 9014   0.183   5.640   4.203
 2705SOL    HW2 9015   0.192   5.542   4.333
 2706SOL     OW 9016   6.521   5.347   2.487
 2706SOL    HW1 9017   6.511   5.365   2.389
 2706SOL    HW2 9018   6.615   5.368   2.515
 2707SOL     OW 9019   4.338   0.052   3.948
 2707SOL    HW1 9020   4.251   0.038   3.995
 2707SOL    HW2 9021   4.322   0.108   3.866
 2708SOL     OW 9022   0.278   3.159   0.490
 2708SOL    HW1 9023   0.305   3.065   0.468
 2708SOL    HW2 9024   0.191   3.159   0.538
 2709SOL     OW 9025   4.825   0.137   6.778
 2709SOL    HW1 9026   4.791   0.209   6.838
 2709SOL    HW2 9027   4.924   0.126   6.792
 2710SOL     OW 9028   0.896   3.871   4.284
 2710SOL    HW1 9029   0.868   3.776   4.269
 2710SOL    HW2 9030   0.875   3.896   4.379
 2711SOL     OW 9031   2.319   0.491   3.896
 2711SOL    HW1 9032   2.404   0.532   3.929
 2711SOL    HW2 9033   2.281   0.549   3.824
 2712SOL     OW 9034   2.612   4.376   1.517
 2712SOL    HW1 9035   2.634   4.429   1.598
 2712SOL    HW2 9036   2.555   4.298   1.542
 2713SOL     OW 9037   2.492   2.572   5.025
 2713SOL    HW1 9038   2.499   2.513   4.944
 2713SOL    HW2 9039   2.452   2.521   5.100
 2714SOL     OW 9040   3.770   2.753   0.116
 2714SOL    HW1 9041   3.705   2.765   0.191
 2714SOL    HW2 9042   3.720   2.728   0.032
 2715SOL     OW 9043   4.972   1.912   1.147
 2715SOL    HW1 9044   4.985   1.865   1.060
 2715SOL    HW2 9045   4.917   1.994   1.133
 2716SOL     OW 9046   5.452   3.378   2.351
 2716SOL    HW1 9047   5.497   3.379   2.441
 2716SOL    HW2 9048   5.444   3.472   2.317
 2717SOL     OW 9049   0.589   0.512   2.772
 2717SOL    HW1 9050   0.570   0.501   2.870
 2717SOL    HW2 9051   0.540   0.442   2.721
 2718SOL     OW 9052   1.467   1.424   4.787
 2718SOL    HW1 9053   1.448   1.512   4.830
 2718SOL    HW2 9054   1.386   1.393   4.737
 2719SOL     OW 9055   0.728   5.047   1.847
 2719SOL    HW1 9056   0.725   4.949   1.827
 2719SOL    HW2 9057   0.638   5.078   1.877
 2720SOL     OW 9058   2.071   5.861   1.768
 2720SOL    HW1 9059   1.991   5.839   1.824
 2720SOL    HW2 9060   2.143   5.793   1.785
 2721SOL     OW 9061   2.972   6.890   3.700
 2721SOL    HW1 9062   3.012   6.822   3.638
 2721SOL    HW2 9063   2.977   6.980   3.658
 2722SOL     OW 9064   6.991   5.202   0.584
 2722SOL    HW1 9065   6.931   5.199   0.504
 2722SOL    HW2 9066   0.060   5.173   0.558
 2723SOL     OW 9067   0.632   6.958   6.155
 2723SOL    HW1 9068   0.679   6.939   6.241
 2723SOL    HW2 9069   0.675   0.013   6.110
 2724SOL     OW 9070   2.184   6.349   6.985
 2724SOL    HW1 9071   2.134   6.273   6.943
 2724SOL    HW2 9072   2.130   6.388   0.036
 2725SOL     OW 9073   4.941   4.383   4.395
 2725SOL    HW1 9074   4.875   4.316   4.431
 2725SOL    HW2 9075   4.904   4.475   4.407
 2726SOL     OW 9076   0.224   2.420   1.108
 2726SOL    HW1 9077   0.168   2.376   1.178
 2726SOL    HW2 9078   0.177   2.414   1.020
 2727SOL     OW 9079   0.767   5.295   3.531
 2727SOL    HW1 9080   0.791   5.328   3.440
 2727SOL    HW2 9081   0.806   5.204   3.545
 2728SOL     OW 9082   4.392   6.379   5.565
 2728SOL    HW1 9083   4.456   6.454   5.583
 2728SOL    HW2 9084   4.299   6.415   5.560
 2729SOL     OW 9085   0.080   6.338   0.389
 2729SOL    HW1 9086   0.145   6.411   0.407
 2729SOL    HW2 9087   0.093   6.304   0.296
 2730SOL     OW 9088   2.061   5.933   1.516
 2730SOL    HW1 9089   2.151   5.930   1.473
 2730SOL    HW2 9090   2.069   5.910   1.613
 2731SOL     OW 9091   3.351   3.756   2.890
 2731SOL    HW1 9092   3.385   3.737   2.982
 2731SOL    HW2 9093   3.364   3.676   2.832
 2732SOL     OW 9094   5.392   2.435   1.859
 2732SOL    HW1 9095   5.352   2.343   1.865
 2732SOL    HW2 9096   5.489   2.431   1.881
 2733SOL     OW 9097   6.422   2.066   4.486
 2733SOL    HW1 9098   6.424   1.996   4.557
 2733SOL    HW2 9099   6.515   2.085   4.456
 2734SOL     OW 9100   3.310   5.778   1.063
 2734SOL    HW1 9101   3.322   5.877   1.063
 2734SOL    HW2 9102   3.302   5.746   0.968
 2735SOL     OW 9103   1.092   3.578   1.523
 2735SOL    HW1 9104   1.092   3.498   1.463
 2735SOL    HW2 9105   1.187   3.600   1.549
 2736SOL     OW 9106   5.833   6.330   5.156
 2736SOL    HW1 9107   5.778   6.335   5.239
 2736SOL    HW2 9108   5.857   6.235   5.137
 2737SOL     OW 9109   2.436   3.913   5.657
 2737SOL    HW1 9110   2.471   3.868   5.739
 2737SOL    HW2 9111   2.419   3.845   5.585
 2738SOL     OW 9112   5.070   6.505   1.753
 2738SOL    HW1 9113   5.033   6.415   1.730
 2738SOL    HW2 9114   5.142   6.495   1.822
 2739SOL     OW 9115   1.041   4.751   1.414
 2739SOL    HW1 9116   1.102   4.819   1.373
 2739SOL    HW2 9117   0.987   4.707   1.342
 2740SOL     OW 9118   6.961   3.900   2.207
 2740SOL    HW1 9119   0.013   3.961   2.184
 2740SOL    HW2 9120   6.997   3.815   2.245
 2741SOL     OW 9121   6.238   0.610   4.996
 2741SOL    HW1 9122   6.157   0.567   5.034
 2741SOL    HW2 9123   6.214   0.700   4.959
 2742SOL     OW 9124   2.096   4.920   0.526
 2742SOL    HW1 9125   2.140   4.832   0.509
 2742SOL    HW2 9126   1.998   4.906   0.540
 2743SOL     OW 9127   6.118   4.794   2.292
 2743SOL    HW1 9128   6.069   4.809   2.206
 2743SOL    HW2 9129   6.066   4.731   2.349
 2744SOL     OW 9130   4.444   2.233   0.189
 2744SOL    HW1 9131   4.517   2.219   0.256
 2744SOL    HW2 9132   4.404   2.324   0.202
 2745SOL     OW 9133   6.749   0.510   5.210
 2745SOL    HW1 9134   6.840   0.536   5.241
 2745SOL    HW2 9135   6.740   0.528   5.112
 2746SOL     OW 9136   1.926   1.770   4.507
 2746SOL    HW1 9137   1.987   1.794   4.582
 2746SOL    HW2 9138   1.860   1.844   4.493
 2747SOL     OW 9139   5.614   4.051   6.903
 2747SOL    HW1 9140   5.622   4.150   6.902
 2747SOL    HW2 9141   5.663   4.011   6.826
 2748SOL     OW 9142   5.073   1.312   1.625
 2748SOL    HW1 9143   5.155   1.279   1.672
 2748SOL    HW2 9144   5.057   1.408   1.648
 2749SOL     OW 9145   0.195   4.532   1.938
 2749SOL    HW1 9146   0.222   4.468   2.011
 2749SOL    HW2 9147   0.241   4.507   1.853
 2750SOL     OW 9148   0.801   4.601   1.276
 2750SOL    HW1 9149   0.780   4.657   1.195
 2750SOL    HW2 9150   0.773   4.506   1.259
 2751SOL     OW 9151   1.263   4.064   1.411
 2751SOL    HW1 9152   1.219   4.002   1.477
 2751SOL    HW2 9153   1.332   4.119   1.458
 2752SOL     OW 9154   3.789   5.268   5.555
 2752SOL    HW1 9155   3.768   5.173   5.533
 2752SOL    HW2 9156   3.704   5.321   5.556
 2753SOL     OW 9157   0.433   6.863   5.268
 2753SOL    HW1 9158   0.461   6.811   5.187
 2753SOL    HW2 9159   0.336   6.887   5.261
 2754SOL     OW 9160   0.461   0.664   1.871
 2754SOL    HW1 9161   0.442   0.603   1.794
 2754SOL    HW2 9162   0.402   0.745   1.865
 2755SOL     OW 9163   2.297   6.947   2.899
 2755SOL    HW1 9164   2.209   6.904   2.921
 2755SOL    HW2 9165   2.282   0.020   2.877
 2756SOL     OW 9166   5.616   5.422   6.562
 2756SOL    HW1 9167   5.635   5.326   6.579
 2756SOL    HW2 9168   5.654   5.477   6.637
 2757SOL     OW 9169   2.222   0.475   6.787
 2757SOL    HW1 9170   2.208   0.376   6.779
 2757SOL    HW2 9171   2.308   0.492   6.835
 2758SOL     OW 9172   3.888   6.574   4.098
 2758SOL    HW1 9173   3.921   6.598   4.189
 2758SOL    HW2 9174   3.790   6.591   4.091
 2759SOL     OW 9175   5.504   0.059   5.875
 2759SOL    HW1 9176   5.486   0.151   5.841
 2759SOL    HW2 9177   5.429   7.022   5.846
 2760SOL     OW 9178   0.718   6.167   2.042
 2760SOL    HW1 9179   0.813   6.149   2.017
 2760SOL    HW2 9180   0.707   6.263   2.069
 2761SOL     OW 9181   1.693   5.492   5.121
 2761SOL    HW1 9182   1.787   5.518   5.143
 2761SOL    HW2 9183   1.692   5.425   5.047
 2762SOL     OW 9184   0.863   0.964   4.820
 2762SOL    HW1 9185   0.895   1.005   4.734
 2762SOL    HW2 9186   0.763   0.969   4.823
 2763SOL     OW 9187   4.748   1.804   3.415
 2763SOL    HW1 9188   4.785   1.713   3.432
 2763SOL    HW2 9189   4.821   1.872   3.423
 2764SOL     OW 9190   5.857   0.425   1.219
 2764SOL    HW1 9191   5.932   0.447   1.157
 2764SOL    HW2 9192   5.776   0.477   1.193
 2765SOL     OW 9193   6.011   0.395   0.604
 2765SOL    HW1 9194   5.962   0.395   0.691
 2765SOL    HW2 9195   5.983   0.315   0.551
 2766SOL     OW 9196   5.131   2.548   0.739
 2766SOL    HW1 9197   5.137   2.476   0.669
 2766SOL    HW2 9198   5.155   2.510   0.828
 2767SOL     OW 9199   6.962   5.607   6.926
 2767SOL    HW1 9200   6.889   5.594   6.859
 2767SOL    HW2 9201   7.021   5.526   6.927
 2768SOL     OW 9202   4.427   0.491   0.999
 2768SOL    HW1 9203   4.470   0.580   1.013
 2768SOL    HW2 9204   4.445   0.433   1.079
 2769SOL     OW 9205   2.323   4.832   4.338
 2769SOL    HW1 9206   2.306   4.869   4.247
 2769SOL    HW2 9207   2.262   4.876   4.404
 2770SOL     OW 9208   4.371   6.259   6.074
 2770SOL    HW1 9209   4.386   6.160   6.082
 2770SOL    HW2 9210   4.274   6.279   6.088
 2771SOL     OW 9211   6.689   0.848   3.976
 2771SOL    HW1 9212   6.604   0.854   3.922
 2771SOL    HW2 9213   6.666   0.827   4.071
 2772SOL     OW 9214   3.803   1.857   0.638
 2772SOL    HW1 9215   3.796   1.940   0.583
 2772SOL    HW2 9216   3.816   1.778   0.578
 2773SOL     OW 9217   6.177   1.830   5.090
 2773SOL    HW1 9218   6.142   1.903   5.148
 2773SOL    HW2 9219   6.249   1.866   5.031
 2774SOL     OW 9220   5.493   3.283   2.628
 2774SOL    HW1 9221   5.405   3.315   2.662
 2774SOL    HW2 9222   5.486   3.186   2.604
 2775SOL     OW 9223   6.347   4.978   5.787
 2775SOL    HW1 9224   6.385   5.056   5.738
 2775SOL    HW2 9225   6.283   4.929   5.727
 2776SOL     OW 9226   4.541   4.979   5.775
 2776SOL    HW1 9227   4.462   4.919   5.761
 2776SOL    HW2 9228   4.514   5.074   5.760
 2777SOL     OW 9229   3.343   1.836   2.213
 2777SOL    HW1 9230   3.416   1.902   2.195
 2777SOL    HW2 9231   3.263   1.860   2.159
 2778SOL     OW 9232   1.731   0.075   5.394
 2778SOL    HW1 9233   1.741   0.150   5.460
 2778SOL    HW2 9234   1.635   0.062   5.372
 2779SOL     OW 9235   4.583   6.387   1.322
 2779SOL    HW1 9236   4.522   6.392   1.243
 2779SOL    HW2 9237   4.664   6.444   1.305
 2780SOL     OW 9238   6.359   6.878   0.079
 2780SOL    HW1 9239   6.389   6.948   0.014
 2780SOL    HW2 9240   6.302   6.811   0.031
 2781SOL     OW 9241   5.649   6.416   1.728
 2781SOL    HW1 9242   5.723   6.349   1.730
 2781SOL    HW2 9243   5.648   6.461   1.639
 2782SOL     OW 9244   4.748   1.694   6.298
 2782SOL    HW1 9245   4.823   1.733   6.350
 2782SOL    HW2 9246   4.781   1.667   6.207
 2783SOL     OW 9247   5.184   4.515   3.277
 2783SOL    HW1 9248   5.191   4.427   3.230
 2783SOL    HW2 9249   5.276   4.547   3.300
 2784SOL     OW 9250   3.457   1.813   2.551
 2784SOL    HW1 9251   3.367   1.852   2.532
 2784SOL    HW2 9252   3.465   1.795   2.649
 2785SOL     OW 9253   5.468   2.106   0.550
 2785SOL    HW1 9254   5.483   2.112   0.451
 2785SOL    HW2 9255   5.387   2.050   0.567
 2786SOL     OW 9256   5.043   0.053   2.617
 2786SOL    HW1 9257   5.007   0.120   2.682
 2786SOL    HW2 9258   4.996   0.065   2.529
 2787SOL     OW 9259   4.513   1.079   6.235
 2787SOL    HW1 9260   4.606   1.049   6.218
 2787SOL    HW2 9261   4.457   1.000   6.260
 2788SOL     OW 9262   2.364   5.355   5.989
 2788SOL    HW1 9263   2.324   5.371   5.899
 2788SOL    HW2 9264   2.429   5.280   5.984
 2789SOL     OW 9265   1.293   2.645   3.703
 2789SOL    HW1 9266   1.266   2.741   3.713
 2789SOL    HW2 9267   1.385   2.641   3.663
 2790SOL     OW 9268   3.323   5.631   2.369
 2790SOL    HW1 9269   3.362   5.570   2.439
 2790SOL    HW2 9270   3.396   5.685   2.329
 2791SOL     OW 9271   0.315   3.115   3.642
 2791SOL    HW1 9272   0.380   3.131   3.568
 2791SOL    HW2 9273   0.223   3.102   3.605
 2792SOL     OW 9274   1.617   6.970   3.865
 2792SOL    HW1 9275   1.598   0.045   3.859
 2792SOL    HW2 9276   1.572   6.922   3.791
 2793SOL     OW 9277   5.983   4.263   1.577
 2793SOL    HW1 9278   5.893   4.260   1.620
 2793SOL    HW2 9279   6.013   4.170   1.556
 2794SOL     OW 9280   6.959   3.076   6.565
 2794SOL    HW1 9281   6.970   3.002   6.631
 2794SOL    HW2 9282   6.870   3.120   6.579
 2795SOL     OW 9283   1.148   3.105   0.299
 2795SOL    HW1 9284   1.072   3.081   0.238
 2795SOL    HW2 9285   1.112   3.142   0.384
 2796SOL     OW 9286   7.002   6.270   3.508
 2796SOL    HW1 9287   0.007   6.299   3.599
 2796SOL    HW2 9288   0.023   6.183   3.485
 2797SOL     OW 9289   5.183   5.344   4.519
 2797SOL    HW1 9290   5.159   5.382   4.609
 2797SOL    HW2 9291   5.107   5.358   4.455
 2798SOL     OW 9292   0.670   5.654   2.128
 2798SOL    HW1 9293   0.671   5.751   2.151
 2798SOL    HW2 9294   0.578   5.618   2.138
 2799SOL     OW 9295   5.852   5.065   6.480
 2799SOL    HW1 9296   5.805   5.100   6.398
 2799SOL    HW2 9297   5.788   5.067   6.557
 2800SOL     OW 9298   4.731   6.214   0.071
 2800SOL    HW1 9299   4.644   6.217   0.119
 2800SOL    HW2 9300   4.762   6.307   0.053
 2801SOL     OW 9301   6.752   5.629   6.384
 2801SOL    HW1 9302   6.723   5.548   6.434
 2801SOL    HW2 9303   6.703   5.709   6.418
 2802SOL     OW 9304   4.875   0.794   5.135
 2802SOL    HW1 9305   4.918   0.857   5.200
 2802SOL    HW2 9306   4.812   0.844   5.076
 2803SOL     OW 9307   4.073   5.729   6.811
 2803SOL    HW1 9308   4.020   5.645   6.823
 2803SOL    HW2 9309   4.145   5.713   6.744
 2804SOL     OW 9310   0.407   4.935   5.316
 2804SOL    HW1 9311   0.406   4.986   5.230
 2804SOL    HW2 9312   0.321   4.949   5.365
 2805SOL     OW 9313   5.962   2.790   1.845
 2805SOL    HW1 9314   5.963   2.833   1.754
 2805SOL    HW2 9315   5.956   2.860   1.915
 2806SOL     OW 9316   0.195   4.337   6.330
 2806SOL    HW1 9317   0.293   4.357   6.339
 2806SOL    HW2 9318   0.183   4.260   6.267
 2807SOL     OW 9319   3.976   6.242   4.238
 2807SOL    HW1 9320   3.942   6.312   4.175
 2807SOL    HW2 9321   3.958   6.151   4.200
 2808SOL     OW 9322   6.264   4.840   1.632
 2808SOL    HW1 9323   6.283   4.914   1.696
 2808SOL    HW2 9324   6.232   4.878   1.545
 2809SOL     OW 9325   5.355   2.951   1.185
 2809SOL    HW1 9326   5.449   2.931   1.160
 2809SOL    HW2 9327   5.336   3.048   1.170
 2810SOL     OW 9328   3.424   4.899   3.939
 2810SOL    HW1 9329   3.387   4.955   4.014
 2810SOL    HW2 9330   3.516   4.931   3.917
 2811SOL     OW 9331   0.773   2.229   3.526
 2811SOL    HW1 9332   0.829   2.147   3.511
 2811SOL    HW2 9333   0.805   2.277   3.607
 2812SOL     OW 9334   5.354   3.489   6.736
 2812SOL    HW1 9335   5.332   3.585   6.719
 2812SOL    HW2 9336   5.420   3.483   6.812
 2813SOL     OW 9337   0.760   0.648   6.830
 2813SOL    HW1 9338   0.826   0.594   6.882
 2813SOL    HW2 9339   0.668   0.614   6.847
 2814SOL     OW 9340   3.957   3.758   5.462
 2814SOL    HW1 9341   4.009   3.680   5.498
 2814SOL    HW2 9342   3.910   3.731   5.378
 2815SOL     OW 9343   6.548   6.849   5.759
 2815SOL    HW1 9344   6.600   6.822   5.678
 2815SOL    HW2 9345   6.456   6.809   5.755
 2816SOL     OW 9346   6.321   5.182   3.187
 2816SOL    HW1 9347   6.230   5.212   3.217
 2816SOL    HW2 9348   6.391   5.233   3.238
 2817SOL     OW 9349   3.267   6.703   2.003
 2817SOL    HW1 9350   3.172   6.708   2.031
 2817SOL    HW2 9351   3.308   6.794   2.007
 2818SOL     OW 9352   0.819   0.596   1.748
 2818SOL    HW1 9353   0.779   0.542   1.674
 2818SOL    HW2 9354   0.761   0.676   1.765
 2819SOL     OW 9355   0.668   0.733   1.490
 2819SOL    HW1 9356   0.711   0.822   1.507
 2819SOL    HW2 9357   0.739   0.663   1.482
 2820SOL     OW 9358   0.920   2.660   2.769
 2820SOL    HW1 9359   0.836   2.606   2.780
 2820SOL    HW2 9360   0.980   2.645   2.847
 2821SOL     OW 9361   4.261   4.023   6.250
 2821SOL    HW1 9362   4.249   4.114   6.288
 2821SOL    HW2 9363   4.172   3.986   6.222
 2822SOL     OW 9364   3.931   2.264   0.332
 2822SOL    HW1 9365   3.951   2.357   0.301
 2822SOL    HW2 9366   3.925   2.203   0.253
 2823SOL     OW 9367   4.362   0.572   0.646
 2823SOL    HW1 9368   4.381   0.474   0.651
 2823SOL    HW2 9369   4.264   0.587   0.635
 2824SOL     OW 9370   1.828   1.654   3.459
 2824SOL    HW1 9371   1.921   1.618   3.473
 2824SOL    HW2 9372   1.812   1.729   3.522
 2825SOL     OW 9373   5.762   0.074   6.707
 2825SOL    HW1 9374   5.793   0.055   6.614
 2825SOL    HW2 9375   5.708   7.020   6.740
 2826SOL     OW 9376   4.475   1.057   6.726
 2826SOL    HW1 9377   4.483   1.119   6.648
 2826SOL    HW2 9378   4.561   1.057   6.777
 2827SOL     OW 9379   0.471   1.254   5.708
 2827SOL    HW1 9380   0.441   1.242   5.803
 2827SOL    HW2 9381   0.509   1.346   5.696
 2828SOL     OW 9382   2.191   1.110   0.329
 2828SOL    HW1 9383   2.154   1.040   0.269
 2828SOL    HW2 9384   2.185   1.199   0.284
 2829SOL     OW 9385   3.260   3.265   5.004
 2829SOL    HW1 9386   3.223   3.200   5.070
 2829SOL    HW2 9387   3.330   3.321   5.047
 2830SOL     OW 9388   1.627   3.073   5.594
 2830SOL    HW1 9389   1.583   3.044   5.678
 2830SOL    HW2 9390   1.675   3.159   5.609
 2831SOL     OW 9391   0.805   4.440   3.830
 2831SOL    HW1 9392   0.901   4.467   3.834
 2831SOL    HW2 9393   0.775   4.412   3.922
 2832SOL     OW 9394   1.033   3.367   2.219
 2832SOL    HW1 9395   0.988   3.281   2.243
 2832SOL    HW2 9396   0.972   3.422   2.162
 2833SOL     OW 9397   2.976   1.887   2.408
 2833SOL    HW1 9398   2.992   1.978   2.373
 2833SOL    HW2 9399   2.892   1.850   2.369
 2834SOL     OW 9400   4.188   5.782   6.260
 2834SOL    HW1 9401   4.275   5.805   6.302
 2834SOL    HW2 9402   4.204   5.724   6.180
 2835SOL     OW 9403   0.579   6.324   2.317
 2835SOL    HW1 9404   0.490   6.334   2.359
 2835SOL    HW2 9405   0.579   6.369   2.228
 2836SOL     OW 9406   0.111   0.083   1.977
 2836SOL    HW1 9407   0.012   0.083   1.993
 2836SOL    HW2 9408   0.130   0.130   1.891
 2837SOL     OW 9409   4.644   5.022   2.469
 2837SOL    HW1 9410   4.656   4.939   2.523
 2837SOL    HW2 9411   4.560   5.016   2.416
 2838SOL     OW 9412   3.204   3.759   0.978
 2838SOL    HW1 9413   3.135   3.773   1.049
 2838SOL    HW2 9414   3.159   3.737   0.892
 2839SOL     OW 9415   6.721   2.453   3.067
 2839SOL    HW1 9416   6.645   2.490   3.014
 2839SOL    HW2 9417   6.772   2.527   3.111
 2840SOL     OW 9418   1.143   0.198   3.118
 2840SOL    HW1 9419   1.198   0.232   3.042
 2840SOL    HW2 9420   1.164   0.101   3.134
 2841SOL     OW 9421   0.405   1.029   6.163
 2841SOL    HW1 9422   0.354   0.943   6.153
 2841SOL    HW2 9423   0.476   1.018   6.233
 2842SOL     OW 9424   0.139   4.048   3.900
 2842SOL    HW1 9425   0.222   3.992   3.896
 2842SOL    HW2 9426   0.132   4.091   3.990
 2843SOL     OW 9427   2.336   2.599   2.565
 2843SOL    HW1 9428   2.237   2.583   2.565
 2843SOL    HW2 9429   2.367   2.618   2.472
 2844SOL     OW 9430   6.990   5.187   6.980
 2844SOL    HW1 9431   0.000   5.201   6.887
 2844SOL    HW2 9432   0.043   5.192   0.021
 2845SOL     OW 9433   5.890   2.957   1.593
 2845SOL    HW1 9434   5.960   3.022   1.562
 2845SOL    HW2 9435   5.804   2.976   1.546
 2846SOL     OW 9436   4.128   1.445   0.261
 2846SOL    HW1 9437   4.076   1.377   0.210
 2846SOL    HW2 9438   4.144   1.411   0.354
 2847SOL     OW 9439   5.285   3.779   3.727
 2847SOL    HW1 9440   5.209   3.801   3.789
 2847SOL    HW2 9441   5.362   3.745   3.780
 2848SOL     OW 9442   1.773   2.494   5.186
 2848SOL    HW1 9443   1.817   2.425   5.243
 2848SOL    HW2 9444   1.802   2.585   5.217
 2849SOL     OW 9445   4.006   6.867   0.595
 2849SOL    HW1 9446   3.910   6.887   0.577
 2849SOL    HW2 9447   4.023   6.770   0.580
 2850SOL     OW 9448   1.585   0.410   2.662
 2850SOL    HW1 9449   1.492   0.432   2.632
 2850SOL    HW2 9450   1.617   0.329   2.614
 2851SOL     OW 9451   6.179   1.383   6.054
 2851SOL    HW1 9452   6.182   1.381   5.954
 2851SOL    HW2 9453   6.083   1.383   6.083
 2852SOL     OW 9454   6.043   3.922   6.875
 2852SOL    HW1 9455   6.026   4.017   6.850
 2852SOL    HW2 9456   5.987   3.899   6.955
 2853SOL     OW 9457   1.657   1.188   6.850
 2853SOL    HW1 9458   1.652   1.285   6.873
 2853SOL    HW2 9459   1.748   1.167   6.814
 2854SOL     OW 9460   4.405   1.002   5.154
 2854SOL    HW1 9461   4.485   0.969   5.204
 2854SOL    HW2 9462   4.322   0.983   5.207
 2855SOL     OW 9463   2.248   1.694   5.900
 2855SOL    HW1 9464   2.180   1.740   5.844
 2855SOL    HW2 9465   2.221   1.697   5.996
 2856SOL     OW 9466   0.770   2.782   5.281
 2856SOL    HW1 9467   0.847   2.846   5.288
 2856SOL    HW2 9468   0.794   2.697   5.328
 2857SOL     OW 9469   2.202   2.912   2.363
 2857SOL    HW1 9470   2.260   2.833   2.343
 2857SOL    HW2 9471   2.209   2.935   2.460
 2858SOL     OW 9472   4.870   4.010   2.028
 2858SOL    HW1 9473   4.826   4.016   1.938
 2858SOL    HW2 9474   4.862   4.098   2.074
 2859SOL     OW 9475   5.694   0.610   6.748
 2859SOL    HW1 9476   5.776   0.564   6.714
 2859SOL    HW2 9477   5.721   0.689   6.802
 2860SOL     OW 9478   3.174   1.728   1.508
 2860SOL    HW1 9479   3.075   1.733   1.492
 2860SOL    HW2 9480   3.221   1.789   1.444
 2861SOL     OW 9481   3.988   4.898   5.903
 2861SOL    HW1 9482   4.003   4.872   5.998
 2861SOL    HW2 9483   3.930   4.979   5.899
 2862SOL     OW 9484   5.646   1.794   2.714
 2862SOL    HW1 9485   5.712   1.725   2.687
 2862SOL    HW2 9486   5.689   1.858   2.778
 2863SOL     OW 9487   4.897   1.279   6.620
 2863SOL    HW1 9488   4.882   1.200   6.562
 2863SOL    HW2 9489   4.935   1.250   6.708
 2864SOL     OW 9490   4.217   1.507   1.845
 2864SOL    HW1 9491   4.159   1.498   1.926
 2864SOL    HW2 9492   4.311   1.480   1.867
 2865SOL     OW 9493   3.734   5.273   6.109
 2865SOL    HW1 9494   3.753   5.370   6.121
 2865SOL    HW2 9495   3.639   5.260   6.081
 2866SOL     OW 9496   6.699   5.777   6.805
 2866SOL    HW1 9497   6.742   5.811   6.888
 2866SOL    HW2 9498   6.738   5.825   6.726
 2867SOL     OW 9499   0.096   6.085   2.990
 2867SOL    HW1 9500   0.115   6.088   3.088
 2867SOL    HW2 9501   0.125   6.170   2.948
 2868SOL     OW 9502   1.085   1.068   5.553
 2868SOL    HW1 9503   1.011   1.130   5.525
 2868SOL    HW2 9504   1.081   0.985   5.497
 2869SOL     OW 9505   6.766   1.443   3.700
 2869SOL    HW1 9506   6.791   1.425   3.795
 2869SOL    HW2 9507   6.813   1.377   3.641
 2870SOL     OW 9508   0.427   1.263   5.166
 2870SOL    HW1 9509   0.390   1.316   5.242
 2870SOL    HW2 9510   0.501   1.314   5.122
 2871SOL     OW 9511   0.329   1.678   6.491
 2871SOL    HW1 9512   0.342   1.773   6.518
 2871SOL    HW2 9513   0.234   1.652   6.506
 2872SOL     OW 9514   2.493   2.152   2.044
 2872SOL    HW1 9515   2.478   2.233   2.101
 2872SOL    HW2 9516   2.576   2.163   1.990
 2873SOL     OW 9517   0.057   5.605   2.753
 2873SOL    HW1 9518   7.020   5.680   2.724
 2873SOL    HW2 9519   0.029   5.573   2.843
 2874SOL     OW 9520   4.843   6.661   3.188
 2874SOL    HW1 9521   4.922   6.648   3.129
 2874SOL    HW2 9522   4.788   6.577   3.190
 2875SOL     OW 9523   4.752   0.416   0.987
 2875SOL    HW1 9524   4.788   0.444   1.076
 2875SOL    HW2 9525   4.704   0.492   0.945
 2876SOL     OW 9526   1.828   0.066   2.504
 2876SOL    HW1 9527   1.730   0.060   2.486
 2876SOL    HW2 9528   1.859   0.160   2.490
 2877SOL     OW 9529   2.917   2.169   5.640
 2877SOL    HW1 9530   2.851   2.125   5.579
 2877SOL    HW2 9531   2.970   2.237   5.589
 2878SOL     OW 9532   3.539   4.868   5.300
 2878SOL    HW1 9533   3.541   4.937   5.373
 2878SOL    HW2 9534   3.601   4.793   5.323
 2879SOL     OW 9535   5.201   5.056   0.242
 2879SOL    HW1 9536   5.288   5.089   0.278
 2879SOL    HW2 9537   5.213   4.964   0.203
 2880SOL     OW 9538   0.053   0.954   1.783
 2880SOL    HW1 9539   7.009   0.891   1.746
 2880SOL    HW2 9540   0.034   0.972   1.880
 2881SOL     OW 9541   5.170   5.990   6.084
 2881SOL    HW1 9542   5.124   5.958   6.001
 2881SOL    HW2 9543   5.212   5.913   6.130
 2882SOL     OW 9544   0.344   5.269   2.567
 2882SOL    HW1 9545   0.262   5.245   2.514
 2882SOL    HW2 9546   0.421   5.213   2.538
 2883SOL     OW 9547   5.652   0.054   3.109
 2883SOL    HW1 9548   5.577   0.067   3.044
 2883SOL    HW2 9549   5.729   0.010   3.063
 2884SOL     OW 9550   0.908   0.043   2.209
 2884SOL    HW1 9551   0.899   0.034   2.308
 2884SOL    HW2 9552   0.830   0.093   2.172
 2885SOL     OW 9553   1.317   3.982   3.607
 2885SOL    HW1 9554   1.309   3.955   3.511
 2885SOL    HW2 9555   1.364   4.071   3.613
 2886SOL     OW 9556   1.240   3.922   5.948
 2886SOL    HW1 9557   1.230   3.860   5.870
 2886SOL    HW2 9558   1.320   3.896   6.001
 2887SOL     OW 9559   0.334   0.463   5.383
 2887SOL    HW1 9560   0.318   0.531   5.312
 2887SOL    HW2 9561   0.254   0.403   5.390
 2888SOL     OW 9562   0.191   4.208   0.144
 2888SOL    HW1 9563   0.168   4.153   0.224
 2888SOL    HW2 9564   0.252   4.156   0.084
 2889SOL     OW 9565   2.726   6.081   2.632
 2889SOL    HW1 9566   2.649   6.055   2.573
 2889SOL    HW2 9567   2.701   6.067   2.727
 2890SOL     OW 9568   1.886   6.028   0.561
 2890SOL    HW1 9569   1.910   6.091   0.487
 2890SOL    HW2 9570   1.911   6.068   0.649
 2891SOL     OW 9571   0.954   4.725   3.549
 2891SOL    HW1 9572   0.874   4.772   3.586
 2891SOL    HW2 9573   0.953   4.730   3.449
 2892SOL     OW 9574   5.608   3.203   0.451
 2892SOL    HW1 9575   5.614   3.120   0.507
 2892SOL    HW2 9576   5.634   3.282   0.507
 2893SOL     OW 9577   0.065   5.586   4.630
 2893SOL    HW1 9578   0.092   5.489   4.632
 2893SOL    HW2 9579   0.082   5.624   4.540
 2894SOL     OW 9580   1.402   3.676   2.317
 2894SOL    HW1 9581   1.329   3.743   2.304
 2894SOL    HW2 9582   1.456   3.669   2.233
 2895SOL     OW 9583   5.005   2.836   5.366
 2895SOL    HW1 9584   5.011   2.927   5.323
 2895SOL    HW2 9585   5.076   2.777   5.328
 2896SOL     OW 9586   4.848   5.531   5.529
 2896SOL    HW1 9587   4.860   5.558   5.625
 2896SOL    HW2 9588   4.807   5.440   5.526
 2897SOL     OW 9589   4.269   4.991   2.969
 2897SOL    HW1 9590   4.362   4.986   2.932
 2897SOL    HW2 9591   4.223   5.073   2.934
 2898SOL     OW 9592   4.440   4.871   4.469
 2898SOL    HW1 9593   4.528   4.834   4.437
 2898SOL    HW2 9594   4.369   4.802   4.458
 2899SOL     OW 9595   1.031   1.520   6.844
 2899SOL    HW1 9596   0.987   1.431   6.829
 2899SOL    HW2 9597   1.104   1.533   6.777
 2900SOL     OW 9598   2.093   3.295   5.989
 2900SOL    HW1 9599   2.017   3.236   6.017
 2900SOL    HW2 9600   2.171   3.238   5.961
 2901SOL     OW 9601   3.060   5.186   3.149
 2901SOL    HW1 9602   3.047   5.237   3.064
 2901SOL    HW2 9603   2.982   5.125   3.164
 2902SOL     OW 9604   5.509   6.403   2.985
 2902SOL    HW1 9605   5.443   6.370   2.918
 2902SOL    HW2 9606   5.503   6.503   2.992
 2903SOL     OW 9607   3.037   0.207   0.565
 2903SOL    HW1 9608   2.960   0.265   0.595
 2903SOL    HW2 9609   3.023   0.179   0.470
 2904SOL     OW 9610   2.297   4.404   4.516
 2904SOL    HW1 9611   2.378   4.432   4.566
 2904SOL    HW2 9612   2.296   4.305   4.505
 2905SOL     OW 9613   1.732   2.472   4.640
 2905SOL    HW1 9614   1.637   2.442   4.634
 2905SOL    HW2 9615   1.756   2.488   4.736
 2906SOL     OW 9616   4.043   5.810   1.706
 2906SOL    HW1 9617   3.947   5.797   1.682
 2906SOL    HW2 9618   4.101   5.790   1.627
 2907SOL     OW 9619   0.917   1.399   3.372
 2907SOL    HW1 9620   0.880   1.323   3.425
 2907SOL    HW2 9621   1.001   1.432   3.414
 2908SOL     OW 9622   4.950   6.300   3.372
 2908SOL    HW1 9623   5.036   6.253   3.354
 2908SOL    HW2 9624   4.887   6.238   3.419
 2909SOL     OW 9625   1.644   5.318   3.901
 2909SOL    HW1 9626   1.608   5.277   3.816
 2909SOL    HW2 9627   1.568   5.340   3.961
 2910SOL     OW 9628   4.714   0.569   4.444
 2910SOL    HW1 9629   4.689   0.596   4.351
 2910SOL    HW2 9630   4.725   0.470   4.449
 2911SOL     OW 9631   0.843   5.607   3.396
 2911SOL    HW1 9632   0.785   5.595   3.477
 2911SOL    HW2 9633   0.848   5.521   3.346
 2912SOL     OW 9634   4.922   0.240   6.426
 2912SOL    HW1 9635   4.836   0.290   6.441
 2912SOL    HW2 9636   4.925   0.161   6.488
 2913SOL     OW 9637   3.157   4.887   2.678
 2913SOL    HW1 9638   3.059   4.869   2.685
 2913SOL    HW2 9639   3.206   4.800   2.672
 2914SOL     OW 9640   6.433   6.715   6.711
 2914SOL    HW1 9641   6.466   6.726   6.617
 2914SOL    HW2 9642   6.480   6.781   6.770
 2915SOL     OW 9643   4.839   1.943   3.805
 2915SOL    HW1 9644   4.884   1.861   3.840
 2915SOL    HW2 9645   4.751   1.918   3.764
 2916SOL     OW 9646   1.078   6.552   0.620
 2916SOL    HW1 9647   1.059   6.630   0.679
 2916SOL    HW2 9648   1.052   6.467   0.667
 2917SOL     OW 9649   3.035   0.059   3.298
 2917SOL    HW1 9650   2.958   0.035   3.239
 2917SOL    HW2 9651   3.105   0.106   3.244
 2918SOL     OW 9652   6.293   4.630   4.618
 2918SOL    HW1 9653   6.253   4.718   4.643
 2918SOL    HW2 9654   6.321   4.581   4.700
 2919SOL     OW 9655   6.774   1.071   2.285
 2919SOL    HW1 9656   6.825   1.139   2.338
 2919SOL    HW2 9657   6.688   1.050   2.333
 2920SOL     OW 9658   2.953   1.727   1.762
 2920SOL    HW1 9659   2.913   1.759   1.676
 2920SOL    HW2 9660   3.052   1.719   1.752
 2921SOL     OW 9661   0.552   0.282   4.297
 2921SOL    HW1 9662   0.609   0.247   4.222
 2921SOL    HW2 9663   0.469   0.322   4.260
 2922SOL     OW 9664   4.884   1.197   0.443
 2922SOL    HW1 9665   4.859   1.256   0.366
 2922SOL    HW2 9666   4.874   1.248   0.528
 2923SOL     OW 9667   6.697   5.144   2.270
 2923SOL    HW1 9668   6.603   5.170   2.251
 2923SOL    HW2 9669   6.756   5.224   2.262
 2924SOL     OW 9670   6.711   2.325   5.820
 2924SOL    HW1 9671   6.714   2.415   5.778
 2924SOL    HW2 9672   6.751   2.329   5.911
 2925SOL     OW 9673   5.178   1.155   2.361
 2925SOL    HW1 9674   5.242   1.217   2.406
 2925SOL    HW2 9675   5.130   1.101   2.431
 2926SOL     OW 9676   0.199   2.137   4.180
 2926SOL    HW1 9677   0.227   2.047   4.213
 2926SOL    HW2 9678   0.185   2.133   4.081
 2927SOL     OW 9679   1.371   3.557   1.592
 2927SOL    HW1 9680   1.449   3.548   1.531
 2927SOL    HW2 9681   1.374   3.483   1.660
 2928SOL     OW 9682   0.050   1.672   6.473
 2928SOL    HW1 9683   0.038   1.655   6.376
 2928SOL    HW2 9684   0.007   1.598   6.526
 2929SOL     OW 9685   6.934   2.337   0.212
 2929SOL    HW1 9686   6.993   2.410   0.246
 2929SOL    HW2 9687   6.958   2.315   0.118
 2930SOL     OW 9688   4.380   0.688   4.790
 2930SOL    HW1 9689   4.286   0.720   4.783
 2930SOL    HW2 9690   4.443   0.766   4.787
 2931SOL     OW 9691   5.832   4.713   0.421
 2931SOL    HW1 9692   5.880   4.635   0.461
 2931SOL    HW2 9693   5.733   4.697   0.424
 2932SOL     OW 9694   1.001   5.820   1.691
 2932SOL    HW1 9695   1.011   5.722   1.671
 2932SOL    HW2 9696   0.974   5.831   1.787
 2933SOL     OW 9697   0.139   5.585   3.128
 2933SOL    HW1 9698   0.227   5.601   3.084
 2933SOL    HW2 9699   0.121   5.486   3.131
 2934SOL     OW 9700   4.412   1.238   0.094
 2934SOL    HW1 9701   4.326   1.250   0.044
 2934SOL    HW2 9702   4.413   1.147   0.136
 2935SOL     OW 9703   6.054   3.433   6.865
 2935SOL    HW1 9704   6.056   3.375   6.946
 2935SOL    HW2 9705   5.985   3.399   6.801
 2936SOL     OW 9706   3.789   6.848   1.011
 2936SOL    HW1 9707   3.697   6.834   0.975
 2936SOL    HW2 9708   3.851   6.780   0.971
 2937SOL     OW 9709   5.163   4.352   0.791
 2937SOL    HW1 9710   5.186   4.256   0.772
 2937SOL    HW2 9711   5.065   4.360   0.810
 2938SOL     OW 9712   5.044   4.498   6.456
 2938SOL    HW1 9713   5.022   4.443   6.375
 2938SOL    HW2 9714   4.959   4.532   6.497
 2939SOL     OW 9715   1.427   1.020   3.021
 2939SOL    HW1 9716   1.402   1.029   2.925
 2939SOL    HW2 9717   1.464   1.107   3.054
 2940SOL     OW 9718   5.179   5.124   5.980
 2940SOL    HW1 9719   5.080   5.121   5.996
 2940SOL    HW2 9720   5.221   5.042   6.018
 2941SOL     OW 9721   1.896   2.075   4.471
 2941SOL    HW1 9722   1.879   2.172   4.458
 2941SOL    HW2 9723   1.963   2.043   4.404
 2942SOL     OW 9724   2.767   2.792   0.425
 2942SOL    HW1 9725   2.789   2.798   0.328
 2942SOL    HW2 9726   2.670   2.772   0.437
 2943SOL     OW 9727   4.640   4.510   3.344
 2943SOL    HW1 9728   4.728   4.472   3.315
 2943SOL    HW2 9729   4.567   4.468   3.291
 2944SOL     OW 9730   2.931   5.913   4.419
 2944SOL    HW1 9731   2.989   5.985   4.457
 2944SOL    HW2 9732   2.972   5.879   4.334
 2945SOL     OW 9733   3.525   4.144   3.766
 2945SOL    HW1 9734   3.479   4.145   3.855
 2945SOL    HW2 9735   3.624   4.147   3.780
 2946SOL     OW 9736   1.380   5.011   5.789
 2946SOL    HW1 9737   1.404   5.059   5.873
 2946SOL    HW2 9738   1.352   5.077   5.720
 2947SOL     OW 9739   0.419   3.560   0.654
 2947SOL    HW1 9740   0.518   3.572   0.657
 2947SOL    HW2 9741   0.380   3.576   0.744
 2948SOL     OW 9742   0.650   4.304   5.669
 2948SOL    HW1 9743   0.570   4.362   5.659
 2948SOL    HW2 9744   0.645   4.229   5.603
 2949SOL     OW 9745   2.546   5.486   1.063
 2949SOL    HW1 9746   2.572   5.395   1.031
 2949SOL    HW2 9747   2.491   5.532   0.993
 2950SOL     OW 9748   5.311   4.236   4.349
 2950SOL    HW1 9749   5.290   4.201   4.441
 2950SOL    HW2 9750   5.381   4.178   4.307
 2951SOL     OW 9751   5.694   0.912   0.745
 2951SOL    HW1 9752   5.792   0.899   0.730
 2951SOL    HW2 9753   5.669   0.877   0.836
 2952SOL     OW 9754   0.330   4.799   5.666
 2952SOL    HW1 9755   0.399   4.807   5.594
 2952SOL    HW2 9756   0.290   4.888   5.684
 2953SOL     OW 9757   4.843   3.033   2.292
 2953SOL    HW1 9758   4.810   3.040   2.198
 2953SOL    HW2 9759   4.939   3.061   2.296
 2954SOL     OW 9760   0.934   5.775   1.989
 2954SOL    HW1 9761   0.942   5.678   1.964
 2954SOL    HW2 9762   0.849   5.791   2.038
 2955SOL     OW 9763   0.632   4.019   1.849
 2955SOL    HW1 9764   0.673   4.042   1.761
 2955SOL    HW2 9765   0.552   3.960   1.834
 2956SOL     OW 9766   5.415   6.188   3.146
 2956SOL    HW1 9767   5.454   6.145   3.227
 2956SOL    HW2 9768   5.477   6.261   3.115
 2957SOL     OW 9769   6.003   3.188   1.471
 2957SOL    HW1 9770   6.061   3.255   1.424
 2957SOL    HW2 9771   5.926   3.235   1.515
 2958SOL     OW 9772   2.532   4.971   4.037
 2958SOL    HW1 9773   2.579   5.028   3.970
 2958SOL    HW2 9774   2.583   4.974   4.123
 2959SOL     OW 9775   4.713   4.397   0.399
 2959SOL    HW1 9776   4.813   4.391   0.391
 2959SOL    HW2 9777   4.688   4.406   0.496
 2960SOL     OW 9778   3.004   0.622   6.516
 2960SOL    HW1 9779   3.068   0.698   6.506
 2960SOL    HW2 9780   2.987   0.580   6.426
 2961SOL     OW 9781   5.291   3.881   2.731
 2961SOL    HW1 9782   5.223   3.939   2.777
 2961SOL    HW2 9783   5.366   3.861   2.795
 2962SOL     OW 9784   4.989   0.078   3.098
 2962SOL    HW1 9785   4.898   0.073   3.055
 2962SOL    HW2 9786   4.978   0.094   3.196
 2963SOL     OW 9787   2.242   0.523   5.573
 2963SOL    HW1 9788   2.295   0.596   5.528
 2963SOL    HW2 9789   2.276   0.511   5.667
 2964SOL     OW 9790   0.504   0.040   3.277
 2964SOL    HW1 9791   0.540   0.130   3.256
 2964SOL    HW2 9792   0.572   6.994   3.252
 2965SOL     OW 9793   0.034   1.764   4.370
 2965SOL    HW1 9794   6.990   1.705   4.414
 2965SOL    HW2 9795   0.101   1.795   4.438
 2966SOL     OW 9796   5.446   6.161   3.581
 2966SOL    HW1 9797   5.410   6.254   3.578
 2966SOL    HW2 9798   5.494   6.140   3.496
 2967SOL     OW 9799   6.780   0.668   4.952
 2967SOL    HW1 9800   6.783   0.768   4.950
 2967SOL    HW2 9801   6.815   0.632   4.865
 2968SOL     OW 9802   1.198   2.642   6.542
 2968SOL    HW1 9803   1.164   2.553   6.573
 2968SOL    HW2 9804   1.288   2.630   6.499
 2969SOL     OW 9805   4.736   1.493   4.238
 2969SOL    HW1 9806   4.778   1.570   4.190
 2969SOL    HW2 9807   4.800   1.416   4.238
 2970SOL     OW 9808   1.909   4.592   6.182
 2970SOL    HW1 9809   1.897   4.500   6.221
 2970SOL    HW2 9810   1.836   4.610   6.117
 2971SOL     OW 9811   5.159   4.015   0.474
 2971SOL    HW1 9812   5.093   4.090   0.469
 2971SOL    HW2 9813   5.131   3.942   0.411
 2972SOL     OW 9814   6.268   4.859   6.486
 2972SOL    HW1 9815   6.257   4.836   6.582
 2972SOL    HW2 9816   6.179   4.878   6.445
 2973SOL     OW 9817   5.434   6.647   2.391
 2973SOL    HW1 9818   5.386   6.667   2.305
 2973SOL    HW2 9819   5.486   6.728   2.419
 2974SOL     OW 9820   0.902   4.608   2.685
 2974SOL    HW1 9821   0.980   4.582   2.742
 2974SOL    HW2 9822   0.935   4.664   2.609
 2975SOL     OW 9823   5.530   3.466   4.219
 2975SOL    HW1 9824   5.582   3.382   4.206
 2975SOL    HW2 9825   5.478   3.486   4.136
 2976SOL     OW 9826   4.373   2.173   3.200
 2976SOL    HW1 9827   4.387   2.220   3.113
 2976SOL    HW2 9828   4.462   2.151   3.240
 2977SOL     OW 9829   2.648   6.997   2.569
 2977SOL    HW1 9830   2.582   6.938   2.615
 2977SOL    HW2 9831   2.652   6.973   2.472
 2978SOL     OW 9832   5.005   4.145   0.266
 2978SOL    HW1 9833   4.943   4.085   0.317
 2978SOL    HW2 9834   4.978   4.240   0.279
 2979SOL     OW 9835   3.840   1.084   4.121
 2979SOL    HW1 9836   3.938   1.101   4.127
 2979SOL    HW2 9837   3.805   1.060   4.212
 2980SOL     OW 9838   1.098   5.778   4.600
 2980SOL    HW1 9839   1.186   5.773   4.554
 2980SOL    HW2 9840   1.051   5.690   4.594
 2981SOL     OW 9841   1.976   1.162   5.958
 2981SOL    HW1 9842   2.001   1.101   5.883
 2981SOL    HW2 9843   1.943   1.249   5.920
 2982SOL     OW 9844   3.929   4.847   2.743
 2982SOL    HW1 9845   3.842   4.838   2.792
 2982SOL    HW2 9846   4.004   4.816   2.801
 2983SOL     OW 9847   0.685   1.407   2.747
 2983SOL    HW1 9848   0.690   1.309   2.729
 2983SOL    HW2 9849   0.676   1.456   2.660
 2984SOL     OW 9850   5.542   5.439   1.175
 2984SOL    HW1 9851   5.585   5.507   1.234
 2984SOL    HW2 9852   5.482   5.485   1.110
 2985SOL     OW 9853   1.452   2.389   5.737
 2985SOL    HW1 9854   1.356   2.362   5.750
 2985SOL    HW2 9855   1.511   2.309   5.751
 2986SOL     OW 9856   3.382   4.176   4.559
 2986SOL    HW1 9857   3.376   4.273   4.535
 2986SOL    HW2 9858   3.454   4.163   4.627
 2987SOL     OW 9859   6.484   1.392   4.350
 2987SOL    HW1 9860   6.428   1.455   4.405
 2987SOL    HW2 9861   6.425   1.327   4.303
 2988SOL     OW 9862   1.375   5.875   3.056
 2988SOL    HW1 9863   1.469   5.845   3.076
 2988SOL    HW2 9864   1.375   5.924   2.969
 2989SOL     OW 9865   6.266   5.659   6.397
 2989SOL    HW1 9866   6.310   5.688   6.482
 2989SOL    HW2 9867   6.331   5.666   6.321
 2990SOL     OW 9868   3.781   1.873   4.642
 2990SOL    HW1 9869   3.767   1.957   4.695
 2990SOL    HW2 9870   3.720   1.801   4.676
 2991SOL     OW 9871   6.654   4.599   5.411
 2991SOL    HW1 9872   6.699   4.516   5.443
 2991SOL    HW2 9873   6.695   4.629   5.325
 2992SOL     OW 9874   2.934   5.960   4.939
 2992SOL    HW1 9875   2.924   6.059   4.948
 2992SOL    HW2 9876   2.919   5.933   4.844
 2993SOL     OW 9877   0.630   5.060   1.524
 2993SOL    HW1 9878   0.727   5.070   1.501
 2993SOL    HW2 9879   0.615   4.971   1.569
 2994SOL     OW 9880   4.541   6.359   6.897
 2994SOL    HW1 9881   4.509   6.387   6.987
 2994SOL    HW2 9882   4.610   6.425   6.864
 2995SOL     OW 9883   2.788   2.178   6.089
 2995SOL    HW1 9884   2.884   2.154   6.106
 2995SOL    HW2 9885   2.761   2.143   5.999
 2996SOL     OW 9886   1.304   1.297   3.694
 2996SOL    HW1 9887   1.247   1.216   3.683
 2996SOL    HW2 9888   1.324   1.336   3.604
 2997SOL     OW 9889   6.418   0.319   2.649
 2997SOL    HW1 9890   6.455   0.253   2.714
 2997SOL    HW2 9891   6.320   0.304   2.638
 2998SOL     OW 9892   4.437   6.879   4.370
 2998SOL    HW1 9893   4.378   6.834   4.437
 2998SOL    HW2 9894   4.524   6.830   4.364
 2999SOL     OW 9895   2.746   5.064   4.916
 2999SOL    HW1 9896   2.737   5.034   5.011
 2999SOL    HW2 9897   2.808   5.142   4.910
 3000SOL     OW 9898   2.598   3.651   6.690
 3000SOL    HW1 9899   2.670   3.718   6.709
 3000SOL    HW2 9900   2.616   3.607   6.602
 3001SOL     OW 9901   5.578   0.117   6.433
 3001SOL    HW1 9902   5.523   0.185   6.482
 3001SOL    HW2 9903   5.528   0.031   6.429
 3002SOL     OW 9904   3.698   1.379   6.712
 3002SOL    HW1 9905   3.637   1.402   6.637
 3002SOL    HW2 9906   3.679   1.286   6.744
 3003SOL     OW 9907   1.885   6.262   0.037
 3003SOL    HW1 9908   1.803   6.287   7.009
 3003SOL    HW2 9909   1.924   6.345   0.077
 3004SOL     OW 9910   1.466   4.724   2.774
 3004SOL    HW1 9911   1.475   4.823   2.762
 3004SOL    HW2 9912   1.412   4.705   2.856
 3005SOL     OW 9913   3.014   1.815   0.522
 3005SOL    HW1 9914   2.975   1.875   0.452
 3005SOL    HW2 9915   3.092   1.861   0.564
 3006SOL     OW 9916   5.440   1.879   5.165
 3006SOL    HW1 9917   5.393   1.792   5.153
 3006SOL    HW2 9918   5.396   1.932   5.237
 3007SOL     OW 9919   5.444   5.089   1.178
 3007SOL    HW1 9920   5.514   5.018   1.174
 3007SOL    HW2 9921   5.408   5.095   1.271
 3008SOL     OW 9922   3.863   2.032   5.882
 3008SOL    HW1 9923   3.886   2.101   5.951
 3008SOL    HW2 9924   3.869   1.941   5.923
 3009SOL     OW 9925   0.464   1.634   2.520
 3009SOL    HW1 9926   0.429   1.701   2.454
 3009SOL    HW2 9927   0.563   1.644   2.528
 3010SOL     OW 9928   3.508   5.741   3.481
 3010SOL    HW1 9929   3.487   5.708   3.389
 3010SOL    HW2 9930   3.588   5.692   3.517
 3011SOL     OW 9931   6.106   1.502   1.832
 3011SOL    HW1 9932   6.034   1.479   1.766
 3011SOL    HW2 9933   6.180   1.551   1.785
 3012SOL     OW 9934   1.763   3.720   5.979
 3012SOL    HW1 9935   1.811   3.805   6.002
 3012SOL    HW2 9936   1.828   3.644   5.978
 3013SOL     OW 9937   5.880   5.963   4.530
 3013SOL    HW1 9938   5.941   5.908   4.587
 3013SOL    HW2 9939   5.911   6.058   4.530
 3014SOL     OW 9940   4.339   2.385   4.401
 3014SOL    HW1 9941   4.410   2.410   4.468
 3014SOL    HW2 9942   4.368   2.415   4.310
 3015SOL     OW 9943   3.337   1.836   0.766
 3015SOL    HW1 9944   3.352   1.875   0.675
 3015SOL    HW2 9945   3.297   1.905   0.825
 3016SOL     OW 9946   2.249   6.035   3.904
 3016SOL    HW1 9947   2.211   6.127   3.899
 3016SOL    HW2 9948   2.275   6.015   3.999
 3017SOL     OW 9949   6.540   5.007   2.484
 3017SOL    HW1 9950   6.583   5.051   2.405
 3017SOL    HW2 9951   6.601   5.014   2.563
 3018SOL     OW 9952   2.995   6.427   5.893
 3018SOL    HW1 9953   2.934   6.366   5.841
 3018SOL    HW2 9954   2.941   6.476   5.962
 3019SOL     OW 9955   0.775   0.249   6.820
 3019SOL    HW1 9956   0.681   0.282   6.825
 3019SOL    HW2 9957   0.777   0.150   6.831
 3020SOL     OW 9958   4.010   2.830   1.738
 3020SOL    HW1 9959   3.933   2.794   1.685
 3020SOL    HW2 9960   4.094   2.782   1.711
 3021SOL     OW 9961   2.971   6.720   6.704
 3021SOL    HW1 9962   3.069   6.706   6.720
 3021SOL    HW2 9963   2.955   6.740   6.607
 3022SOL     OW 9964   3.651   5.991   4.314
 3022SOL    HW1 9965   3.739   5.982   4.267
 3022SOL    HW2 9966   3.620   6.086   4.308
 3023SOL     OW 9967   3.994   0.375   2.630
 3023SOL    HW1 9968   3.934   0.454   2.640
 3023SOL    HW2 9969   3.948   0.293   2.665
 3024SOL     OW 9970   4.315   0.041   4.857
 3024SOL    HW1 9971   4.277   0.124   4.817
 3024SOL    HW2 9972   4.357   0.062   4.946
 3025SOL     OW 9973   3.320   0.710   0.477
 3025SOL    HW1 9974   3.370   0.745   0.398
 3025SOL    HW2 9975   3.238   0.765   0.491
 3026SOL     OW 9976   1.376   0.290   6.931
 3026SOL    HW1 9977   1.389   0.265   0.003
 3026SOL    HW2 9978   1.463   0.318   6.891
 3027SOL     OW 9979   3.934   0.574   2.961
 3027SOL    HW1 9980   3.839   0.577   2.991
 3027SOL    HW2 9981   3.994   0.595   3.038
 3028SOL     OW 9982   0.973   3.969   5.816
 3028SOL    HW1 9983   0.903   3.908   5.852
 3028SOL    HW2 9984   1.063   3.928   5.828
 3029SOL     OW 9985   0.191   2.671   5.393
 3029SOL    HW1 9986   0.215   2.755   5.345
 3029SOL    HW2 9987   0.173   2.599   5.326
 3030SOL     OW 9988   0.059   3.330   6.774
 3030SOL    HW1 9989   6.985   3.318   6.789
 3030SOL    HW2 9990   0.086   3.422   6.802
 3031SOL     OW 9991   0.572   4.068   0.289
 3031SOL    HW1 9992   0.537   4.162   0.287
 3031SOL    HW2 9993   0.635   4.058   0.366
 3032SOL     OW 9994   3.095   0.320   0.980
 3032SOL    HW1 9995   3.183   0.275   0.997
 3032SOL    HW2 9996   3.080   0.390   1.049
 3033SOL     OW 9997   6.397   2.215   1.603
 3033SOL    HW1 9998   6.305   2.230   1.568
 3033SOL    HW2 9999   6.394   2.144   1.673
 3034SOL     OW10000   1.601   5.711   3.097
 3034SOL    HW110001   1.691   5.727   3.137
 3034SOL    HW210002   1.562   5.628   3.137
 3035SOL     OW10003   0.491   3.235   6.798
 3035SOL    HW110004   0.519   3.139   6.798
 3035SOL    HW210005   0.444   3.255   6.712
 3036SOL     OW10006   1.887   1.388   6.449
 3036SOL    HW110007   1.879   1.361   6.545
 3036SOL    HW210008   1.905   1.307   6.393
 3037SOL     OW10009   6.389   6.115   5.403
 3037SOL    HW110010   6.355   6.155   5.318
 3037SOL    HW210011   6.465   6.054   5.383
 3038SOL     OW10012   5.262   6.224   5.980
 3038SOL    HW110013   5.337   6.231   5.915
 3038SOL    HW210014   5.226   6.131   5.981
 3039SOL     OW10015   6.739   3.496   0.437
 3039SOL    HW110016   6.734   3.547   0.522
 3039SOL    HW210017   6.832   3.461   0.425
 3040SOL     OW10018   3.925   3.681   6.240
 3040SOL    HW110019   3.999   3.681   6.307
 3040SOL    HW210020   3.900   3.587   6.218
 3041SOL     OW10021   2.212   2.727   4.274
 3041SOL    HW110022   2.138   2.663   4.252
 3041SOL    HW210023   2.175   2.806   4.323
 3042SOL     OW10024   4.716   5.908   1.808
 3042SOL    HW110025   4.676   5.991   1.768
 3042SOL    HW210026   4.644   5.853   1.850
 3043SOL     OW10027   2.496   4.790   1.823
 3043SOL    HW110028   2.581   4.835   1.851
 3043SOL    HW210029   2.450   4.752   1.903
 3044SOL     OW10030   3.334   4.075   5.919
 3044SOL    HW110031   3.420   4.049   5.964
 3044SOL    HW210032   3.352   4.147   5.852
 3045SOL     OW10033   4.648   0.518   3.135
 3045SOL    HW110034   4.560   0.555   3.165
 3045SOL    HW210035   4.632   0.432   3.086
 3046SOL     OW10036   2.548   0.765   6.310
 3046SOL    HW110037   2.602   0.716   6.242
 3046SOL    HW210038   2.502   0.842   6.267
 3047SOL     OW10039   6.559   0.480   1.828
 3047SOL    HW110040   6.558   0.565   1.881
 3047SOL    HW210041   6.641   0.476   1.772
 3048SOL     OW10042   3.879   2.096   1.891
 3048SOL    HW110043   3.802   2.133   1.943
 3048SOL    HW210044   3.943   2.169   1.870
 3049SOL     OW10045   1.648   6.863   2.547
 3049SOL    HW110046   1.685   6.792   2.487
 3049SOL    HW210047   1.722   6.926   2.572
 3050SOL     OW10048   2.906   1.237   1.764
 3050SOL    HW110049   2.811   1.233   1.733
 3050SOL    HW210050   2.933   1.147   1.799
 3051SOL     OW10051   2.189   3.942   0.128
 3051SOL    HW110052   2.091   3.924   0.134
 3051SOL    HW210053   2.205   4.025   0.075
 3052SOL     OW10054   5.220   6.672   1.500
 3052SOL    HW110055   5.133   6.629   1.478
 3052SOL    HW210056   5.258   6.715   1.418
 3053SOL     OW10057   6.944   1.561   0.253
 3053SOL    HW110058   6.965   1.655   0.227
 3053SOL    HW210059   7.007   1.531   0.325
 3054SOL     OW10060   6.526   1.917   0.723
 3054SOL    HW110061   6.451   1.861   0.691
 3054SOL    HW210062   6.557   1.977   0.649
 3055SOL     OW10063   5.368   0.503   4.126
 3055SOL    HW110064   5.428   0.567   4.076
 3055SOL    HW210065   5.304   0.461   4.062
 3056SOL     OW10066   6.199   0.334   4.846
 3056SOL    HW110067   6.099   0.340   4.849
 3056SOL    HW210068   6.235   0.335   4.939
 3057SOL     OW10069   3.959   6.082   2.684
 3057SOL    HW110070   3.987   6.000   2.634
 3057SOL    HW210071   3.907   6.056   2.766
 3058SOL     OW10072   0.432   4.824   1.659
 3058SOL    HW110073   0.342   4.844   1.621
 3058SOL    HW210074   0.492   4.789   1.587
 3059SOL     OW10075   2.736   2.291   4.127
 3059SOL    HW110076   2.761   2.198   4.101
 3059SOL    HW210077   2.667   2.288   4.199
 3060SOL     OW10078   0.912   5.567   0.554
 3060SOL    HW110079   0.989   5.591   0.613
 3060SOL    HW210080   0.847   5.642   0.553
 3061SOL     OW10081   6.904   6.748   4.977
 3061SOL    HW110082   6.944   6.757   4.885
 3061SOL    HW210083   6.825   6.688   4.973
 3062SOL     OW10084   2.079   0.456   0.547
 3062SOL    HW110085   2.007   0.480   0.482
 3062SOL    HW210086   2.116   0.366   0.524
 3063SOL     OW10087   2.669   5.099   1.975
 3063SOL    HW110088   2.692   5.003   1.959
 3063SOL    HW210089   2.601   5.105   2.047
 3064SOL     OW10090   5.681   4.110   2.884
 3064SOL    HW110091   5.691   4.209   2.871
 3064SOL    HW210092   5.728   4.083   2.968
 3065SOL     OW10093   2.040   0.937   0.515
 3065SOL    HW110094   2.078   0.845   0.508
 3065SOL    HW210095   2.097   1.001   0.464
 3066SOL     OW10096   4.833   5.502   0.992
 3066SOL    HW110097   4.858   5.467   0.902
 3066SOL    HW210098   4.737   5.530   0.991
 3067SOL     OW10099   3.250   2.074   5.151
 3067SOL    HW110100   3.213   2.167   5.153
 3067SOL    HW210101   3.203   2.021   5.081
 3068SOL     OW10102   6.425   0.232   0.565
 3068SOL    HW110103   6.370   0.248   0.483
 3068SOL    HW210104   6.517   0.203   0.539
 3069SOL     OW10105   6.447   6.667   1.662
 3069SOL    HW110106   6.443   6.766   1.672
 3069SOL    HW210107   6.534   6.640   1.620
 3070SOL     OW10108   2.613   1.613   0.591
 3070SOL    HW110109   2.521   1.618   0.631
 3070SOL    HW210110   2.668   1.690   0.624
 3071SOL     OW10111   6.069   6.072   3.140
 3071SOL    HW110112   6.113   6.031   3.220
 3071SOL    HW210113   5.974   6.041   3.136
 3072SOL     OW10114   2.007   6.226   6.832
 3072SOL    HW110115   1.952   6.215   6.915
 3072SOL    HW210116   1.975   6.162   6.762
 3073SOL     OW10117   5.870   3.138   4.154
 3073SOL    HW110118   5.905   3.050   4.184
 3073SOL    HW210119   5.944   3.206   4.152
 3074SOL     OW10120   5.880   4.242   1.262
 3074SOL    HW110121   5.818   4.165   1.278
 3074SOL    HW210122   5.970   4.220   1.298
 3075SOL     OW10123   2.756   6.458   1.682
 3075SOL    HW110124   2.674   6.430   1.732
 3075SOL    HW210125   2.810   6.378   1.658
 3076SOL     OW10126   6.921   0.419   4.292
 3076SOL    HW110127   6.834   0.403   4.244
 3076SOL    HW210128   6.987   0.349   4.265
 3077SOL     OW10129   5.374   5.655   1.694
 3077SOL    HW110130   5.276   5.664   1.713
 3077SOL    HW210131   5.388   5.645   1.596
 3078SOL     OW10132   0.157   2.779   2.548
 3078SOL    HW110133   0.196   2.690   2.524
 3078SOL    HW210134   0.058   2.778   2.531
 3079SOL     OW10135   2.303   2.871   2.908
 3079SOL    HW110136   2.333   2.952   2.958
 3079SOL    HW210137   2.370   2.798   2.919
 3080SOL     OW10138   4.657   4.240   2.589
 3080SOL    HW110139   4.651   4.148   2.551
 3080SOL    HW210140   4.622   4.239   2.683
 3081SOL     OW10141   0.692   2.434   5.126
 3081SOL    HW110142   0.749   2.469   5.052
 3081SOL    HW210143   0.750   2.413   5.205
 3082SOL     OW10144   3.026   6.394   3.864
 3082SOL    HW110145   2.959   6.443   3.809
 3082SOL    HW210146   3.074   6.458   3.923
 3083SOL     OW10147   3.342   6.035   4.134
 3083SOL    HW110148   3.250   6.016   4.098
 3083SOL    HW210149   3.370   5.962   4.195
 3084SOL     OW10150   6.653   4.087   4.944
 3084SOL    HW110151   6.592   4.165   4.937
 3084SOL    HW210152   6.664   4.061   5.040
 3085SOL     OW10153   6.184   4.328   0.818
 3085SOL    HW110154   6.109   4.316   0.884
 3085SOL    HW210155   6.238   4.408   0.843
 3086SOL     OW10156   4.702   1.437   1.134
 3086SOL    HW110157   4.728   1.390   1.218
 3086SOL    HW210158   4.672   1.370   1.066
 3087SOL     OW10159   0.828   5.244   4.070
 3087SOL    HW110160   0.778   5.328   4.050
 3087SOL    HW210161   0.905   5.264   4.131
 3088SOL     OW10162   1.984   5.261   5.086
 3088SOL    HW110163   1.951   5.340   5.138
 3088SOL    HW210164   2.006   5.187   5.149
 3089SOL     OW10165   1.501   3.056   6.464
 3089SOL    HW110166   1.519   3.015   6.375
 3089SOL    HW210167   1.588   3.075   6.510
 3090SOL     OW10168   2.440   2.312   1.510
 3090SOL    HW110169   2.489   2.392   1.474
 3090SOL    HW210170   2.411   2.329   1.604
 3091SOL     OW10171   1.417   0.552   0.960
 3091SOL    HW110172   1.446   0.583   1.051
 3091SOL    HW210173   1.495   0.518   0.909
 3092SOL     OW10174   4.589   0.892   0.382
 3092SOL    HW110175   4.607   0.972   0.325
 3092SOL    HW210176   4.675   0.845   0.403
 3093SOL     OW10177   5.505   6.337   5.854
 3093SOL    HW110178   5.559   6.323   5.772
 3093SOL    HW210179   5.500   6.435   5.875
 3094SOL     OW10180   1.865   6.874   4.502
 3094SOL    HW110181   1.895   6.800   4.561
 3094SOL    HW210182   1.905   6.862   4.411
 3095SOL     OW10183   2.151   5.256   5.463
 3095SOL    HW110184   2.225   5.293   5.408
 3095SOL    HW210185   2.152   5.297   5.554
 3096SOL     OW10186   1.766   6.109   5.277
 3096SOL    HW110187   1.711   6.111   5.194
 3096SOL    HW210188   1.761   6.199   5.321
 3097SOL     OW10189   5.964   2.014   0.382
 3097SOL    HW110190   5.986   2.108   0.357
 3097SOL    HW210191   6.046   1.968   0.416
 3098SOL     OW10192   2.547   3.006   0.945
 3098SOL    HW110193   2.448   2.994   0.948
 3098SOL    HW210194   2.578   3.045   1.032
 3099SOL     OW10195   0.917   6.886   3.470
 3099SOL    HW110196   1.011   6.884   3.436
 3099SOL    HW210197   0.894   6.979   3.500
 3100SOL     OW10198   6.786   6.022   4.221
 3100SOL    HW110199   6.765   6.024   4.319
 3100SOL    HW210200   6.724   6.082   4.172
 3101SOL     OW10201   5.590   6.877   6.759
 3101SOL    HW110202   5.550   6.801   6.708
 3101SOL    HW210203   5.648   6.842   6.832
 3102SOL     OW10204   6.816   5.213   2.001
 3102SOL    HW110205   6.901   5.236   1.954
 3102SOL    HW210206   6.837   5.175   2.091
 3103SOL     OW10207   4.306   0.626   2.434
 3103SOL    HW110208   4.236   0.691   2.406
 3103SOL    HW210209   4.309   0.622   2.534
 3104SOL     OW10210   4.750   0.435   4.985
 3104SOL    HW110211   4.729   0.463   4.892
 3104SOL    HW210212   4.739   0.336   4.993
 3105SOL     OW10213   6.418   4.577   1.340
 3105SOL    HW110214   6.456   4.589   1.432
 3105SOL    HW210215   6.325   4.614   1.337
 3106SOL     OW10216   6.142   0.893   3.502
 3106SOL    HW110217   6.165   0.931   3.592
 3106SOL    HW210218   6.108   0.966   3.443
 3107SOL     OW10219   4.751   1.199   4.885
 3107SOL    HW110220   4.716   1.211   4.792
 3107SOL    HW210221   4.838   1.247   4.894
 3108SOL     OW10222   1.165   6.001   4.286
 3108SOL    HW110223   1.229   5.999   4.363
 3108SOL    HW210224   1.087   6.059   4.310
 3109SOL     OW10225   5.707   6.251   2.874
 3109SOL    HW110226   5.688   6.324   2.939
 3109SOL    HW210227   5.637   6.180   2.882
 3110SOL     OW10228   1.285   2.444   2.252
 3110SOL    HW110229   1.289   2.543   2.262
 3110SOL    HW210230   1.273   2.420   2.156
 3111SOL     OW10231   6.778   5.671   3.852
 3111SOL    HW110232   6.810   5.698   3.761
 3111SOL    HW210233   6.689   5.714   3.870
 3112SOL     OW10234   4.482   2.592   6.761
 3112SOL    HW110235   4.431   2.621   6.843
 3112SOL    HW210236   4.423   2.536   6.703
 3113SOL     OW10237   2.682   5.672   3.623
 3113SOL    HW110238   2.774   5.705   3.599
 3113SOL    HW210239   2.635   5.640   3.541
 3114SOL     OW10240   4.251   1.612   1.081
 3114SOL    HW110241   4.193   1.685   1.046
 3114SOL    HW210242   4.345   1.645   1.090
 3115SOL     OW10243   3.753   3.526   6.401
 3115SOL    HW110244   3.702   3.470   6.336
 3115SOL    HW210245   3.762   3.477   6.488
 3116SOL     OW10246   0.802   3.022   6.519
 3116SOL    HW110247   0.813   2.940   6.464
 3116SOL    HW210248   0.885   3.078   6.512
 3117SOL     OW10249   4.406   3.647   5.288
 3117SOL    HW110250   4.411   3.746   5.297
 3117SOL    HW210251   4.495   3.612   5.256
 3118SOL     OW10252   1.161   5.731   2.299
 3118SOL    HW110253   1.122   5.639   2.296
 3118SOL    HW210254   1.139   5.779   2.213
 3119SOL     OW10255   1.999   3.556   5.997
 3119SOL    HW110256   2.022   3.459   5.999
 3119SOL    HW210257   2.081   3.610   6.014
 3120SOL     OW10258   3.122   6.845   4.574
 3120SOL    HW110259   3.079   6.768   4.528
 3120SOL    HW210260   3.052   6.907   4.609
 3121SOL     OW10261   0.613   0.766   3.507
 3121SOL    HW110262   0.514   0.780   3.505
 3121SOL    HW210263   0.659   0.849   3.476
 3122SOL     OW10264   4.135   6.351   6.170
 3122SOL    HW110265   4.110   6.282   6.237
 3122SOL    HW210266   4.055   6.406   6.147
 3123SOL     OW10267   2.817   1.791   3.721
 3123SOL    HW110268   2.826   1.862   3.651
 3123SOL    HW210269   2.907   1.771   3.761
 3124SOL     OW10270   3.978   0.028   4.666
 3124SOL    HW110271   3.978   0.014   4.765
 3124SOL    HW210272   3.886   0.010   4.631
 3125SOL     OW10273   0.100   2.503   5.208
 3125SOL    HW110274   0.061   2.415   5.180
 3125SOL    HW210275   0.159   2.538   5.135
 3126SOL     OW10276   5.156   4.519   5.342
 3126SOL    HW110277   5.204   4.542   5.427
 3126SOL    HW210278   5.113   4.429   5.351
 3127SOL     OW10279   1.401   3.405   4.978
 3127SOL    HW110280   1.459   3.479   5.014
 3127SOL    HW210281   1.405   3.406   4.878
 3128SOL     OW10282   2.346   0.468   5.844
 3128SOL    HW110283   2.325   0.399   5.913
 3128SOL    HW210284   2.408   0.536   5.882
 3129SOL     OW10285   6.157   3.642   6.028
 3129SOL    HW110286   6.080   3.705   6.032
 3129SOL    HW210287   6.190   3.637   5.933
 3130SOL     OW10288   1.566   3.855   1.402
 3130SOL    HW110289   1.567   3.915   1.322
 3130SOL    HW210290   1.624   3.895   1.473
 3131SOL     OW10291   0.294   2.680   1.122
 3131SOL    HW110292   0.264   2.586   1.108
 3131SOL    HW210293   0.216   2.742   1.111
 3132SOL     OW10294   4.090   5.528   5.969
 3132SOL    HW110295   4.083   5.457   5.900
 3132SOL    HW210296   3.999   5.548   6.006
 3133SOL     OW10297   3.816   1.580   3.874
 3133SOL    HW110298   3.841   1.516   3.802
 3133SOL    HW210299   3.785   1.530   3.955
 3134SOL     OW10300   4.768   4.077   1.742
 3134SOL    HW110301   4.709   4.151   1.710
 3134SOL    HW210302   4.726   3.989   1.719
 3135SOL     OW10303   4.754   0.871   5.616
 3135SOL    HW110304   4.737   0.819   5.532
 3135SOL    HW210305   4.684   0.942   5.625
 3136SOL     OW10306   5.471   0.776   1.261
 3136SOL    HW110307   5.448   0.683   1.288
 3136SOL    HW210308   5.507   0.826   1.341
 3137SOL     OW10309   6.695   0.627   2.969
 3137SOL    HW110310   6.737   0.571   2.897
 3137SOL    HW210311   6.731   0.598   3.058
 3138SOL     OW10312   6.066   4.560   3.623
 3138SOL    HW110313   6.060   4.607   3.711
 3138SOL    HW210314   6.140   4.599   3.569
 3139SOL     OW10315   5.157   6.485   0.478
 3139SOL    HW110316   5.161   6.395   0.521
 3139SOL    HW210317   5.063   6.519   0.482
 3140SOL     OW10318   6.671   0.405   0.032
 3140SOL    HW110319   6.596   0.338   0.033
 3140SOL    HW210320   6.667   0.461   0.115
 3141SOL     OW10321   0.299   6.256   6.416
 3141SOL    HW110322   0.230   6.328   6.420
 3141SOL    HW210323   0.386   6.291   6.451
 3142SOL     OW10324   3.732   6.376   2.110
 3142SOL    HW110325   3.705   6.407   2.019
 3142SOL    HW210326   3.712   6.447   2.177
 3143SOL     OW10327   6.437   1.769   6.551
 3143SOL    HW110328   6.427   1.848   6.612
 3143SOL    HW210329   6.438   1.800   6.456
 3144SOL     OW10330   4.269   3.995   1.728
 3144SOL    HW110331   4.316   4.072   1.771
 3144SOL    HW210332   4.290   3.993   1.631
 3145SOL     OW10333   1.937   5.948   1.102
 3145SOL    HW110334   2.018   5.994   1.067
 3145SOL    HW210335   1.902   5.996   1.182
 3146SOL     OW10336   1.375   0.586   3.486
 3146SOL    HW110337   1.300   0.642   3.450
 3146SOL    HW210338   1.370   0.584   3.586
 3147SOL     OW10339   3.531   5.168   1.020
 3147SOL    HW110340   3.520   5.072   1.046
 3147SOL    HW210341   3.495   5.182   0.927
 3148SOL     OW10342   5.672   6.145   4.728
 3148SOL    HW110343   5.591   6.138   4.785
 3148SOL    HW210344   5.750   6.104   4.776
 3149SOL     OW10345   2.101   0.995   5.760
 3149SOL    HW110346   2.168   0.921   5.755
 3149SOL    HW210347   2.129   1.070   5.699
 3150SOL     OW10348   6.063   5.509   4.169
 3150SOL    HW110349   5.972   5.547   4.187
 3150SOL    HW210350   6.062   5.460   4.081
 3151SOL     OW10351   5.614   1.691   5.270
 3151SOL    HW110352   5.555   1.771   5.261
 3151SOL    HW210353   5.667   1.679   5.186
 3152SOL     OW10354   1.207   5.469   0.540
 3152SOL    HW110355   1.213   5.387   0.597
 3152SOL    HW210356   1.194   5.443   0.445
 3153SOL     OW10357   5.803   4.713   1.309
 3153SOL    HW110358   5.773   4.618   1.300
 3153SOL    HW210359   5.756   4.756   1.387
 3154SOL     OW10360   5.830   1.019   6.412
 3154SOL    HW110361   5.838   1.089   6.484
 3154SOL    HW210362   5.798   0.934   6.453
 3155SOL     OW10363   6.029   4.778   0.751
 3155SOL    HW110364   6.061   4.845   0.685
 3155SOL    HW210365   6.085   4.781   0.833
 3156SOL     OW10366   2.988   3.210   3.493
 3156SOL    HW110367   3.085   3.188   3.499
 3156SOL    HW210368   2.942   3.182   3.577
 3157SOL     OW10369   2.657   1.965   4.679
 3157SOL    HW110370   2.749   1.950   4.714
 3157SOL    HW210371   2.661   1.999   4.585
 3158SOL     OW10372   4.608   0.824   3.122
 3158SOL    HW110373   4.544   0.797   3.050
 3158SOL    HW210374   4.577   0.788   3.210
 3159SOL     OW10375   5.256   1.358   6.776
 3159SOL    HW110376   5.292   1.366   6.869
 3159SOL    HW210377   5.330   1.335   6.714
 3160SOL     OW10378   0.459   6.362   5.741
 3160SOL    HW110379   0.430   6.413   5.822
 3160SOL    HW210380   0.384   6.301   5.712
 3161SOL     OW10381   1.650   1.776   3.270
 3161SOL    HW110382   1.663   1.748   3.175
 3161SOL    HW210383   1.691   1.708   3.331
 3162SOL     OW10384   1.226   6.657   2.345
 3162SOL    HW110385   1.287   6.584   2.314
 3162SOL    HW210386   1.279   6.729   2.390
 3163SOL     OW10387   4.153   2.753   6.205
 3163SOL    HW110388   4.186   2.721   6.294
 3163SOL    HW210389   4.096   2.834   6.217
 3164SOL     OW10390   4.493   4.886   1.296
 3164SOL    HW110391   4.426   4.817   1.265
 3164SOL    HW210392   4.545   4.919   1.217
 3165SOL     OW10393   0.787   6.704   1.070
 3165SOL    HW110394   0.844   6.783   1.090
 3165SOL    HW210395   0.706   6.705   1.130
 3166SOL     OW10396   4.597   1.713   4.738
 3166SOL    HW110397   4.580   1.780   4.811
 3166SOL    HW210398   4.541   1.632   4.753
 3167SOL     OW10399   6.679   3.635   0.688
 3167SOL    HW110400   6.607   3.692   0.728
 3167SOL    HW210401   6.766   3.658   0.731
 3168SOL     OW10402   4.338   2.369   6.692
 3168SOL    HW110403   4.275   2.396   6.619
 3168SOL    HW210404   4.288   2.362   6.778
 3169SOL     OW10405   1.916   3.816   4.708
 3169SOL    HW110406   1.998   3.778   4.751
 3169SOL    HW210407   1.840   3.753   4.722
 3170SOL     OW10408   4.111   0.620   1.289
 3170SOL    HW110409   4.128   0.565   1.207
 3170SOL    HW210410   4.187   0.609   1.353
 3171SOL     OW10411   0.538   0.350   1.291
 3171SOL    HW110412   0.582   0.408   1.222
 3171SOL    HW210413   0.463   0.401   1.334
 3172SOL     OW10414   6.910   4.918   0.216
 3172SOL    HW110415   6.902   4.916   0.116
 3172SOL    HW210416   6.826   4.880   0.256
 3173SOL     OW10417   2.987   2.259   0.344
 3173SOL    HW110418   2.897   2.288   0.312
 3173SOL    HW210419   2.979   2.217   0.434
 3174SOL     OW10420   3.044   2.785   6.487
 3174SOL    HW110421   3.041   2.711   6.553
 3174SOL    HW210422   2.972   2.851   6.507
 3175SOL     OW10423   6.986   0.768   0.622
 3175SOL    HW110424   6.902   0.800   0.578
 3175SOL    HW210425   0.027   0.736   0.553
 3176SOL     OW10426   1.499   4.675   5.053
 3176SOL    HW110427   1.404   4.700   5.035
 3176SOL    HW210428   1.559   4.723   4.988
 3177SOL     OW10429   4.900   3.980   4.129
 3177SOL    HW110430   4.854   4.020   4.208
 3177SOL    HW210431   4.997   3.965   4.151
 3178SOL     OW10432   6.140   1.976   0.755
 3178SOL    HW110433   6.190   1.936   0.678
 3178SOL    HW210434   6.048   1.937   0.758
 3179SOL     OW10435   1.621   3.063   1.914
 3179SOL    HW110436   1.690   3.009   1.867
 3179SOL    HW210437   1.531   3.043   1.876
 3180SOL     OW10438   4.600   1.314   6.912
 3180SOL    HW110439   4.608   1.229   6.862
 3180SOL    HW210440   4.544   1.299   6.994
 3181SOL     OW10441   6.859   1.451   2.932
 3181SOL    HW110442   6.775   1.423   2.886
 3181SOL    HW210443   6.840   1.470   3.028
 3182SOL     OW10444   2.727   1.200   5.138
 3182SOL    HW110445   2.795   1.250   5.084
 3182SOL    HW210446   2.640   1.250   5.136
 3183SOL     OW10447   4.229   4.390   1.716
 3183SOL    HW110448   4.158   4.328   1.684
 3183SOL    HW210449   4.297   4.339   1.770
 3184SOL     OW10450   1.003   2.685   2.406
 3184SOL    HW110451   1.046   2.728   2.485
 3184SOL    HW210452   1.060   2.698   2.325
 3185SOL     OW10453   6.375   5.755   0.155
 3185SOL    HW110454   6.349   5.850   0.166
 3185SOL    HW210455   6.342   5.722   0.066
 3186SOL     OW10456   4.088   1.503   2.087
 3186SOL    HW110457   3.994   1.469   2.084
 3186SOL    HW210458   4.139   1.455   2.159
 3187SOL     OW10459   4.188   4.066   0.479
 3187SOL    HW110460   4.125   3.990   0.493
 3187SOL    HW210461   4.199   4.117   0.565
 3188SOL     OW10462   2.881   6.709   4.495
 3188SOL    HW110463   2.853   6.671   4.407
 3188SOL    HW210464   2.885   6.637   4.564
 3189SOL     OW10465   1.550   1.846   1.714
 3189SOL    HW110466   1.539   1.760   1.664
 3189SOL    HW210467   1.632   1.841   1.771
 3190SOL     OW10468   6.863   6.679   0.528
 3190SOL    HW110469   6.908   6.707   0.444
 3190SOL    HW210470   6.868   6.753   0.595
 3191SOL     OW10471   4.753   6.990   0.962
 3191SOL    HW110472   4.827   6.923   0.963
 3191SOL    HW210473   4.685   6.963   0.893
 3192SOL     OW10474   6.901   2.750   1.141
 3192SOL    HW110475   6.831   2.792   1.199
 3192SOL    HW210476   6.889   2.651   1.140
 3193SOL     OW10477   4.035   1.490   6.620
 3193SOL    HW110478   4.127   1.458   6.598
 3193SOL    HW210479   3.992   1.425   6.683
 3194SOL     OW10480   1.195   3.326   5.743
 3194SOL    HW110481   1.102   3.295   5.723
 3194SOL    HW210482   1.210   3.322   5.842
 3195SOL     OW10483   2.601   2.464   3.147
 3195SOL    HW110484   2.668   2.446   3.219
 3195SOL    HW210485   2.596   2.385   3.086
 3196SOL     OW10486   0.308   0.867   5.538
 3196SOL    HW110487   0.293   0.880   5.440
 3196SOL    HW210488   0.394   0.911   5.564
 3197SOL     OW10489   1.842   6.304   3.453
 3197SOL    HW110490   1.778   6.375   3.484
 3197SOL    HW210491   1.801   6.214   3.469
 3198SOL     OW10492   5.871   1.980   5.335
 3198SOL    HW110493   5.948   1.997   5.275
 3198SOL    HW210494   5.785   1.997   5.286
 3199SOL     OW10495   4.783   2.743   2.111
 3199SOL    HW110496   4.874   2.729   2.072
 3199SOL    HW210497   4.754   2.837   2.096
 3200SOL     OW10498   0.274   3.103   1.820
 3200SOL    HW110499   0.198   3.041   1.801
 3200SOL    HW210500   0.243   3.198   1.814
 3201SOL     OW10501   5.146   4.426   4.259
 3201SOL    HW110502   5.228   4.370   4.272
 3201SOL    HW210503   5.072   4.391   4.318
 3202SOL     OW10504   1.045   4.810   1.698
 3202SOL    HW110505   1.121   4.749   1.721
 3202SOL    HW210506   1.026   4.804   1.600
 3203SOL     OW10507   6.406   2.595   6.243
 3203SOL    HW110508   6.327   2.568   6.298
 3203SOL    HW210509   6.463   2.515   6.224
 3204SOL     OW10510   4.895   6.309   1.671
 3204SOL    HW110511   4.806   6.312   1.625
 3204SOL    HW210512   4.931   6.215   1.669
 3205SOL     OW10513   6.834   3.235   6.861
 3205SOL    HW110514   6.797   3.215   6.770
 3205SOL    HW210515   6.767   3.289   6.913
 3206SOL     OW10516   0.359   6.522   5.953
 3206SOL    HW110517   0.263   6.529   5.926
 3206SOL    HW210518   0.371   6.442   6.011
 3207SOL     OW10519   1.019   0.827   5.431
 3207SOL    HW110520   0.977   0.830   5.340
 3207SOL    HW210521   1.029   0.732   5.460
 3208SOL     OW10522   4.537   6.602   5.605
 3208SOL    HW110523   4.636   6.606   5.620
 3208SOL    HW210524   4.512   6.666   5.533
 3209SOL     OW10525   4.152   5.199   2.851
 3209SOL    HW110526   4.103   5.137   2.789
 3209SOL    HW210527   4.088   5.263   2.892
 3210SOL     OW10528   0.878   4.074   1.217
 3210SOL    HW110529   0.835   4.006   1.278
 3210SOL    HW210530   0.976   4.077   1.234
 3211SOL     OW10531   1.836   3.257   1.194
 3211SOL    HW110532   1.790   3.174   1.224
 3211SOL    HW210533   1.768   3.325   1.167
 3212SOL     OW10534   2.595   0.996   0.465
 3212SOL    HW110535   2.682   1.015   0.512
 3212SOL    HW210536   2.590   0.898   0.445
 3213SOL     OW10537   6.860   6.117   2.325
 3213SOL    HW110538   6.958   6.103   2.315
 3213SOL    HW210539   6.814   6.029   2.330
 3214SOL     OW10540   5.082   5.726   0.787
 3214SOL    HW110541   5.132   5.813   0.785
 3214SOL    HW210542   5.052   5.707   0.881
 3215SOL     OW10543   0.745   3.212   0.666
 3215SOL    HW110544   0.785   3.258   0.745
 3215SOL    HW210545   0.653   3.246   0.650
 3216SOL     OW10546   5.711   5.233   1.115
 3216SOL    HW110547   5.668   5.148   1.083
 3216SOL    HW210548   5.641   5.295   1.149
 3217SOL     OW10549   0.295   5.502   2.721
 3217SOL    HW110550   0.198   5.528   2.718
 3217SOL    HW210551   0.308   5.415   2.675
 3218SOL     OW10552   4.074   6.975   3.987
 3218SOL    HW110553   3.977   6.983   4.007
 3218SOL    HW210554   4.123   6.942   4.068
 3219SOL     OW10555   0.333   2.282   3.224
 3219SOL    HW110556   0.353   2.187   3.201
 3219SOL    HW210557   0.419   2.332   3.236
 3220SOL     OW10558   6.753   6.119   6.092
 3220SOL    HW110559   6.755   6.026   6.055
 3220SOL    HW210560   6.841   6.163   6.079
 3221SOL     OW10561   3.085   0.124   1.793
 3221SOL    HW110562   3.026   0.053   1.755
 3221SOL    HW210563   3.110   0.189   1.722
 3222SOL     OW10564   4.246   1.592   2.914
 3222SOL    HW110565   4.342   1.565   2.907
 3222SOL    HW210566   4.238   1.690   2.899
 3223SOL     OW10567   1.940   5.506   6.804
 3223SOL    HW110568   2.005   5.581   6.795
 3223SOL    HW210569   1.932   5.480   6.900
 3224SOL     OW10570   4.501   3.237   0.025
 3224SOL    HW110571   4.548   3.325   0.028
 3224SOL    HW210572   4.467   3.221   6.956
 3225SOL     OW10573   4.417   3.454   5.916
 3225SOL    HW110574   4.330   3.488   5.880
 3225SOL    HW210575   4.492   3.490   5.860
 3226SOL     OW10576   1.687   1.909   4.487
 3226SOL    HW110577   1.623   1.918   4.563
 3226SOL    HW210578   1.736   1.995   4.473
 3227SOL     OW10579   2.866   1.800   6.607
 3227SOL    HW110580   2.951   1.781   6.558
 3227SOL    HW210581   2.816   1.873   6.561
 3228SOL     OW10582   5.740   4.392   2.829
 3228SOL    HW110583   5.799   4.464   2.864
 3228SOL    HW210584   5.645   4.416   2.845
 3229SOL     OW10585   3.110   1.850   5.630
 3229SOL    HW110586   3.115   1.879   5.534
 3229SOL    HW210587   3.092   1.752   5.634
 3230SOL     OW10588   1.683   3.758   3.895
 3230SOL    HW110589   1.742   3.814   3.954
 3230SOL    HW210590   1.722   3.754   3.803
 3231SOL     OW10591   2.795   0.699   1.903
 3231SOL    HW110592   2.722   0.654   1.954
 3231SOL    HW210593   2.834   0.635   1.837
 3232SOL     OW10594   4.019   5.001   4.860
 3232SOL    HW110595   3.975   4.931   4.915
 3232SOL    HW210596   3.987   5.092   4.889
 3233SOL     OW10597   0.965   2.666   1.580
 3233SOL    HW110598   0.899   2.701   1.646
 3233SOL    HW210599   0.954   2.714   1.493
 3234SOL     OW10600   0.085   1.519   0.489
 3234SOL    HW110601   0.170   1.549   0.444
 3234SOL    HW210602   0.080   1.559   0.580
 3235SOL     OW10603   5.139   0.829   1.382
 3235SOL    HW110604   5.161   0.861   1.290
 3235SOL    HW210605   5.201   0.754   1.407
 3236SOL     OW10606   1.405   3.117   0.353
 3236SOL    HW110607   1.432   3.211   0.330
 3236SOL    HW210608   1.306   3.112   0.361
 3237SOL     OW10609   5.583   1.627   3.660
 3237SOL    HW110610   5.496   1.647   3.706
 3237SOL    HW210611   5.563   1.588   3.570
 3238SOL     OW10612   0.126   5.042   0.980
 3238SOL    HW110613   0.062   5.064   0.907
 3238SOL    HW210614   0.206   5.102   0.973
 3239SOL     OW10615   6.569   1.690   1.135
 3239SOL    HW110616   6.480   1.681   1.090
 3239SOL    HW210617   6.636   1.726   1.071
 3240SOL     OW10618   1.454   6.165   5.839
 3240SOL    HW110619   1.392   6.237   5.870
 3240SOL    HW210620   1.540   6.172   5.889
 3241SOL     OW10621   4.939   1.380   5.089
 3241SOL    HW110622   4.939   1.470   5.047
 3241SOL    HW210623   4.889   1.384   5.176
 3242SOL     OW10624   3.268   4.412   1.114
 3242SOL    HW110625   3.216   4.496   1.099
 3242SOL    HW210626   3.366   4.434   1.109
 3243SOL     OW10627   5.255   4.450   0.480
 3243SOL    HW110628   5.319   4.380   0.448
 3243SOL    HW210629   5.270   4.467   0.578
 3244SOL     OW10630   4.974   6.100   0.479
 3244SOL    HW110631   4.995   6.011   0.439
 3244SOL    HW210632   4.963   6.168   0.405
 3245SOL     OW10633   4.741   2.551   5.133
 3245SOL    HW110634   4.679   2.616   5.178
 3245SOL    HW210635   4.833   2.589   5.133
 3246SOL     OW10636   5.799   0.892   3.051
 3246SOL    HW110637   5.755   0.945   3.123
 3246SOL    HW210638   5.763   0.922   2.962
 3247SOL     OW10639   6.219   4.808   3.023
 3247SOL    HW110640   6.282   4.865   3.076
 3247SOL    HW210641   6.243   4.712   3.036
 3248SOL     OW10642   6.829   3.656   2.057
 3248SOL    HW110643   6.856   3.738   2.107
 3248SOL    HW210644   6.752   3.677   1.997
 3249SOL     OW10645   3.478   3.876   4.723
 3249SOL    HW110646   3.542   3.951   4.738
 3249SOL    HW210647   3.418   3.866   4.802
 3250SOL     OW10648   5.476   0.200   2.095
 3250SOL    HW110649   5.500   0.195   2.192
 3250SOL    HW210650   5.411   0.127   2.073
 3251SOL     OW10651   3.910   0.917   2.099
 3251SOL    HW110652   3.859   0.914   2.013
 3251SOL    HW210653   3.926   0.823   2.131
 3252SOL     OW10654   2.431   2.361   2.221
 3252SOL    HW110655   2.414   2.446   2.170
 3252SOL    HW210656   2.364   2.353   2.294
 3253SOL     OW10657   5.802   3.283   2.325
 3253SOL    HW110658   5.807   3.319   2.418
 3253SOL    HW210659   5.737   3.338   2.272
 3254SOL     OW10660   5.080   5.494   5.412
 3254SOL    HW110661   4.983   5.511   5.423
 3254SOL    HW210662   5.098   5.396   5.411
 3255SOL     OW10663   5.396   6.317   1.785
 3255SOL    HW110664   5.392   6.368   1.871
 3255SOL    HW210665   5.492   6.310   1.755
 3256SOL     OW10666   4.277   0.754   6.964
 3256SOL    HW110667   4.253   0.848   6.939
 3256SOL    HW210668   4.374   0.738   6.946
 3257SOL     OW10669   1.442   2.143   1.504
 3257SOL    HW110670   1.431   2.114   1.409
 3257SOL    HW210671   1.444   2.243   1.509
 3258SOL     OW10672   3.949   4.867   1.737
 3258SOL    HW110673   3.859   4.845   1.699
 3258SOL    HW210674   3.980   4.791   1.794
 3259SOL     OW10675   4.635   5.500   3.888
 3259SOL    HW110676   4.632   5.552   3.803
 3259SOL    HW210677   4.693   5.548   3.955
 3260SOL     OW10678   1.341   1.910   1.034
 3260SOL    HW110679   1.408   1.917   1.108
 3260SOL    HW210680   1.257   1.870   1.069
 3261SOL     OW10681   4.667   6.665   0.125
 3261SOL    HW110682   4.671   6.645   0.223
 3261SOL    HW210683   4.732   6.607   0.076
 3262SOL     OW10684   3.709   2.116   2.551
 3262SOL    HW110685   3.654   2.198   2.562
 3262SOL    HW210686   3.737   2.107   2.455
 3263SOL     OW10687   3.292   1.624   3.224
 3263SOL    HW110688   3.372   1.593   3.274
 3263SOL    HW210689   3.270   1.718   3.251
 3264SOL     OW10690   1.583   4.071   1.218
 3264SOL    HW110691   1.549   4.133   1.148
 3264SOL    HW210692   1.640   4.121   1.283
 3265SOL     OW10693   4.827   1.421   5.337
 3265SOL    HW110694   4.823   1.354   5.411
 3265SOL    HW210695   4.883   1.499   5.366
 3266SOL     OW10696   0.745   2.529   0.160
 3266SOL    HW110697   0.825   2.519   0.219
 3266SOL    HW210698   0.773   2.531   0.064
 3267SOL     OW10699   3.970   1.297   0.095
 3267SOL    HW110700   3.889   1.349   0.122
 3267SOL    HW210701   3.987   1.311   7.020
 3268SOL     OW10702   1.214   4.612   0.237
 3268SOL    HW110703   1.253   4.523   0.215
 3268SOL    HW210704   1.222   4.627   0.336
 3269SOL     OW10705   4.592   4.761   2.300
 3269SOL    HW110706   4.577   4.815   2.217
 3269SOL    HW210707   4.612   4.666   2.275
 3270SOL     OW10708   1.344   4.082   5.100
 3270SOL    HW110709   1.290   4.154   5.144
 3270SOL    HW210710   1.441   4.103   5.109
 3271SOL     OW10711   5.492   3.918   2.912
 3271SOL    HW110712   5.536   3.829   2.922
 3271SOL    HW210713   5.560   3.987   2.887
 3272SOL     OW10714   3.583   3.766   6.904
 3272SOL    HW110715   3.674   3.776   6.864
 3272SOL    HW210716   3.514   3.789   6.836
 3273SOL     OW10717   0.555   6.375   1.817
 3273SOL    HW110718   0.476   6.314   1.827
 3273SOL    HW210719   0.599   6.385   1.906
 3274SOL     OW10720   4.305   1.015   1.252
 3274SOL    HW110721   4.254   1.101   1.262
 3274SOL    HW210722   4.391   1.021   1.303
 3275SOL     OW10723   0.435   0.647   6.483
 3275SOL    HW110724   0.387   0.586   6.547
 3275SOL    HW210725   0.531   0.655   6.512
 3276SOL     OW10726   3.612   6.142   0.362
 3276SOL    HW110727   3.683   6.091   0.411
 3276SOL    HW210728   3.591   6.095   0.276
 3277SOL     OW10729   5.309   0.236   0.026
 3277SOL    HW110730   5.287   0.163   0.092
 3277SOL    HW210731   5.315   0.197   6.958
 3278SOL     OW10732   0.033   1.085   5.685
 3278SOL    HW110733   0.056   1.089   5.782
 3278SOL    HW210734   0.045   0.992   5.651
 3279SOL     OW10735   6.384   1.008   0.997
 3279SOL    HW110736   6.334   1.022   0.911
 3279SOL    HW210737   6.474   0.969   0.977
 3280SOL     OW10738   3.503   5.194   5.726
 3280SOL    HW110739   3.542   5.268   5.781
 3280SOL    HW210740   3.489   5.113   5.785
 3281SOL     OW10741   2.233   5.104   0.958
 3281SOL    HW110742   2.305   5.073   0.897
 3281SOL    HW210743   2.187   5.183   0.918
 3282SOL     OW10744   1.316   5.164   4.652
 3282SOL    HW110745   1.278   5.230   4.588
 3282SOL    HW210746   1.300   5.194   4.745
 3283SOL     OW10747   3.574   1.158   0.982
 3283SOL    HW110748   3.661   1.188   1.022
 3283SOL    HW210749   3.553   1.214   0.902
 3284SOL     OW10750   6.310   6.262   6.799
 3284SOL    HW110751   6.324   6.284   6.702
 3284SOL    HW210752   6.213   6.248   6.816
 3285SOL     OW10753   5.322   2.573   3.486
 3285SOL    HW110754   5.260   2.567   3.408
 3285SOL    HW210755   5.415   2.591   3.454
 3286SOL     OW10756   4.099   3.400   2.785
 3286SOL    HW110757   4.086   3.325   2.850
 3286SOL    HW210758   4.059   3.375   2.697
 3287SOL     OW10759   1.671   6.283   6.895
 3287SOL    HW110760   1.632   6.197   6.930
 3287SOL    HW210761   1.650   6.292   6.798
 3288SOL     OW10762   0.542   5.529   6.998
 3288SOL    HW110763   0.626   5.565   6.958
 3288SOL    HW210764   0.466   5.592   6.981
 3289SOL     OW10765   2.309   6.535   4.949
 3289SOL    HW110766   2.213   6.514   4.932
 3289SOL    HW210767   2.316   6.604   5.021
 3290SOL     OW10768   0.608   0.041   1.674
 3290SOL    HW110769   0.545   0.064   1.600
 3290SOL    HW210770   0.664   6.986   1.647
 3291SOL     OW10771   1.376   6.494   0.351
 3291SOL    HW110772   1.443   6.468   0.282
 3291SOL    HW210773   1.407   6.577   0.399
 3292SOL     OW10774   0.670   0.995   0.172
 3292SOL    HW110775   0.615   1.063   0.219
 3292SOL    HW210776   0.613   0.916   0.149
 3293SOL     OW10777   6.769   3.166   3.435
 3293SOL    HW110778   6.716   3.234   3.487
 3293SOL    HW210779   6.795   3.204   3.346
 3294SOL     OW10780   0.669   1.164   6.059
 3294SOL    HW110781   0.716   1.147   6.145
 3294SOL    HW210782   0.684   1.087   5.997
 3295SOL     OW10783   1.777   2.910   1.741
 3295SOL    HW110784   1.759   2.963   1.659
 3295SOL    HW210785   1.794   2.815   1.716
 3296SOL     OW10786   1.684   6.216   1.860
 3296SOL    HW110787   1.648   6.239   1.770
 3296SOL    HW210788   1.684   6.297   1.918
 3297SOL     OW10789   3.241   0.245   4.644
 3297SOL    HW110790   3.217   0.338   4.672
 3297SOL    HW210791   3.164   0.184   4.662
 3298SOL     OW10792   5.792   2.051   4.106
 3298SOL    HW110793   5.819   2.146   4.087
 3298SOL    HW210794   5.707   2.051   4.160
 3299SOL     OW10795   1.624   6.287   4.409
 3299SOL    HW110796   1.676   6.202   4.407
 3299SOL    HW210797   1.579   6.296   4.498
 3300SOL     OW10798   0.534   0.747   5.879
 3300SOL    HW110799   0.583   0.669   5.840
 3300SOL    HW210800   0.457   0.770   5.819
 3301SOL     OW10801   2.050   3.329   3.078
 3301SOL    HW110802   1.959   3.297   3.055
 3301SOL    HW210803   2.061   3.424   3.049
 3302SOL     OW10804   1.838   5.725   5.492
 3302SOL    HW110805   1.811   5.668   5.569
 3302SOL    HW210806   1.782   5.808   5.490
 3303SOL     OW10807   3.891   2.924   2.008
 3303SOL    HW110808   3.964   2.991   2.019
 3303SOL    HW210809   3.888   2.893   1.913
 3304SOL     OW10810   1.583   5.476   4.367
 3304SOL    HW110811   1.587   5.405   4.437
 3304SOL    HW210812   1.491   5.514   4.364
 3305SOL     OW10813   2.069   1.226   3.301
 3305SOL    HW110814   2.071   1.214   3.202
 3305SOL    HW210815   2.067   1.137   3.345
 3306SOL     OW10816   2.078   5.543   3.992
 3306SOL    HW110817   2.132   5.467   4.029
 3306SOL    HW210818   2.055   5.606   4.066
 3307SOL     OW10819   6.818   6.005   6.677
 3307SOL    HW110820   6.811   6.060   6.761
 3307SOL    HW210821   6.880   6.049   6.613
 3308SOL     OW10822   4.771   5.728   6.764
 3308SOL    HW110823   4.774   5.807   6.825
 3308SOL    HW210824   4.863   5.703   6.736
 3309SOL     OW10825   0.882   5.123   2.827
 3309SOL    HW110826   0.824   5.204   2.815
 3309SOL    HW210827   0.835   5.043   2.788
 3310SOL     OW10828   6.664   4.164   5.199
 3310SOL    HW110829   6.681   4.259   5.174
 3310SOL    HW210830   6.730   4.135   5.269
 3311SOL     OW10831   2.372   3.723   1.671
 3311SOL    HW110832   2.396   3.647   1.731
 3311SOL    HW210833   2.452   3.780   1.655
 3312SOL     OW10834   3.593   4.746   5.985
 3312SOL    HW110835   3.668   4.687   5.952
 3312SOL    HW210836   3.514   4.735   5.925
 3313SOL     OW10837   6.895   5.442   2.919
 3313SOL    HW110838   6.948   5.359   2.936
 3313SOL    HW210839   6.811   5.440   2.972
 3314SOL     OW10840   1.995   1.846   4.118
 3314SOL    HW110841   2.056   1.887   4.050
 3314SOL    HW210842   2.016   1.883   4.208
 3315SOL     OW10843   6.049   3.513   4.180
 3315SOL    HW110844   6.131   3.566   4.201
 3315SOL    HW210845   6.071   3.416   4.177
 3316SOL     OW10846   4.102   1.634   6.205
 3316SOL    HW110847   4.016   1.590   6.231
 3316SOL    HW210848   4.096   1.732   6.224
 3317SOL     OW10849   4.657   3.317   1.566
 3317SOL    HW110850   4.601   3.239   1.594
 3317SOL    HW210851   4.625   3.400   1.611
 3318SOL     OW10852   3.150   0.486   0.752
 3318SOL    HW110853   3.105   0.415   0.806
 3318SOL    HW210854   3.101   0.572   0.763
 3319SOL     OW10855   6.126   0.300   4.583
 3319SOL    HW110856   6.186   0.247   4.523
 3319SOL    HW210857   6.164   0.302   4.675
 3320SOL     OW10858   5.686   0.943   5.509
 3320SOL    HW110859   5.688   0.845   5.487
 3320SOL    HW210860   5.765   0.966   5.566
 3321SOL     OW10861   3.777   2.206   1.607
 3321SOL    HW110862   3.836   2.270   1.557
 3321SOL    HW210863   3.770   2.236   1.702
 3322SOL     OW10864   5.201   3.172   1.474
 3322SOL    HW110865   5.207   3.184   1.573
 3322SOL    HW210866   5.187   3.260   1.430
 3323SOL     OW10867   2.321   4.142   6.325
 3323SOL    HW110868   2.358   4.111   6.413
 3323SOL    HW210869   2.239   4.089   6.304
 3324SOL     OW10870   0.977   3.693   6.312
 3324SOL    HW110871   0.955   3.780   6.356
 3324SOL    HW210872   0.952   3.618   6.373
 3325SOL     OW10873   1.940   2.445   6.191
 3325SOL    HW110874   2.033   2.418   6.165
 3325SOL    HW210875   1.931   2.544   6.186
 3326SOL     OW10876   5.942   1.584   2.197
 3326SOL    HW110877   5.958   1.658   2.263
 3326SOL    HW210878   6.020   1.521   2.200
 3327SOL     OW10879   3.116   6.324   1.467
 3327SOL    HW110880   3.179   6.394   1.501
 3327SOL    HW210881   3.149   6.234   1.492
 3328SOL     OW10882   4.635   1.523   2.037
 3328SOL    HW110883   4.566   1.492   2.102
 3328SOL    HW210884   4.725   1.524   2.081
 3329SOL     OW10885   5.364   0.742   4.249
 3329SOL    HW110886   5.370   0.799   4.167
 3329SOL    HW210887   5.347   0.647   4.222
 3330SOL     OW10888   5.994   6.190   1.359
 3330SOL    HW110889   6.047   6.195   1.274
 3330SOL    HW210890   6.057   6.194   1.437
 3331SOL     OW10891   0.702   3.427   2.244
 3331SOL    HW110892   0.634   3.389   2.182
 3331SOL    HW210893   0.671   3.417   2.338
 3332SOL     OW10894   6.231   4.036   0.421
 3332SOL    HW110895   6.268   3.960   0.474
 3332SOL    HW210896   6.239   4.120   0.474
 3333SOL     OW10897   2.914   4.141   6.566
 3333SOL    HW110898   2.920   4.213   6.636
 3333SOL    HW210899   2.880   4.180   6.481
 3334SOL     OW10900   2.024   4.096   2.024
 3334SOL    HW110901   2.021   4.194   2.044
 3334SOL    HW210902   2.110   4.058   2.057
 3335SOL     OW10903   4.619   0.018   6.324
 3335SOL    HW110904   4.681   7.006   6.253
 3335SOL    HW210905   4.553   0.081   6.284
 3336SOL     OW10906   1.504   6.288   4.649
 3336SOL    HW110907   1.418   6.338   4.635
 3336SOL    HW210908   1.501   6.241   4.737
 3337SOL     OW10909   2.945   4.274   1.218
 3337SOL    HW110910   2.995   4.290   1.133
 3337SOL    HW210911   2.956   4.352   1.279
 3338SOL     OW10912   0.328   3.071   0.926
 3338SOL    HW110913   0.339   3.004   0.852
 3338SOL    HW210914   0.268   3.145   0.896
 3339SOL     OW10915   1.297   6.402   6.652
 3339SOL    HW110916   1.269   6.313   6.616
 3339SOL    HW210917   1.320   6.394   6.749
 3340SOL     OW10918   3.500   1.444   3.071
 3340SOL    HW110919   3.505   1.453   2.972
 3340SOL    HW210920   3.434   1.509   3.107
 3341SOL     OW10921   1.816   4.515   3.878
 3341SOL    HW110922   1.847   4.431   3.923
 3341SOL    HW210923   1.873   4.592   3.907
 3342SOL     OW10924   1.148   7.020   3.781
 3342SOL    HW110925   1.106   0.084   3.756
 3342SOL    HW210926   1.077   6.950   3.789
 3343SOL     OW10927   5.772   4.572   6.862
 3343SOL    HW110928   5.715   4.644   6.822
 3343SOL    HW210929   5.861   4.609   6.887
 3344SOL     OW10930   5.891   3.908   3.941
 3344SOL    HW110931   5.852   3.957   4.019
 3344SOL    HW210932   5.888   3.967   3.860
 3345SOL     OW10933   1.237   4.159   6.429
 3345SOL    HW110934   1.140   4.146   6.410
 3345SOL    HW210935   1.284   4.071   6.425
 3346SOL     OW10936   1.219   1.075   6.891
 3346SOL    HW110937   1.202   0.977   6.895
 3346SOL    HW210938   1.314   1.094   6.917
 3347SOL     OW10939   1.258   2.203   5.451
 3347SOL    HW110940   1.337   2.143   5.444
 3347SOL    HW210941   1.257   2.246   5.541
 3348SOL     OW10942   4.062   3.318   4.704
 3348SOL    HW110943   4.041   3.223   4.728
 3348SOL    HW210944   4.063   3.374   4.787
 3349SOL     OW10945   2.080   5.155   3.473
 3349SOL    HW110946   2.091   5.252   3.452
 3349SOL    HW210947   1.999   5.142   3.531
 3350SOL     OW10948   0.376   2.576   6.066
 3350SOL    HW110949   0.336   2.629   6.141
 3350SOL    HW210950   0.305   2.519   6.025
 3351SOL     OW10951   4.697   0.947   2.148
 3351SOL    HW110952   4.667   1.039   2.123
 3351SOL    HW210953   4.766   0.952   2.220
 3352SOL     OW10954   6.480   2.892   1.132
 3352SOL    HW110955   6.549   2.964   1.119
 3352SOL    HW210956   6.425   2.913   1.213
 3353SOL     OW10957   3.135   5.933   1.435
 3353SOL    HW110958   3.091   6.002   1.379
 3353SOL    HW210959   3.077   5.913   1.515
 3354SOL     OW10960   3.958   2.305   5.333
 3354SOL    HW110961   3.903   2.343   5.408
 3354SOL    HW210962   3.947   2.361   5.252
 3355SOL     OW10963   1.678   1.698   6.034
 3355SOL    HW110964   1.589   1.698   6.078
 3355SOL    HW210965   1.750   1.710   6.103
 3356SOL     OW10966   0.866   5.546   6.010
 3356SOL    HW110967   0.940   5.556   5.944
 3356SOL    HW210968   0.802   5.475   5.979
 3357SOL     OW10969   2.641   3.550   1.725
 3357SOL    HW110970   2.561   3.538   1.783
 3357SOL    HW210971   2.621   3.517   1.633
 3358SOL     OW10972   4.599   1.545   2.456
 3358SOL    HW110973   4.644   1.482   2.393
 3358SOL    HW210974   4.538   1.606   2.406
 3359SOL     OW10975   0.509   5.891   3.049
 3359SOL    HW110976   0.417   5.906   3.086
 3359SOL    HW210977   0.566   5.971   3.068
 3360SOL     OW10978   1.240   1.356   6.289
 3360SOL    HW110979   1.232   1.350   6.388
 3360SOL    HW210980   1.295   1.437   6.265
 3361SOL     OW10981   6.701   5.042   4.485
 3361SOL    HW110982   6.762   5.027   4.563
 3361SOL    HW210983   6.729   5.125   4.437
 3362SOL     OW10984   3.731   1.532   2.738
 3362SOL    HW110985   3.633   1.513   2.743
 3362SOL    HW210986   3.764   1.562   2.828
 3363SOL     OW10987   6.917   2.125   1.805
 3363SOL    HW110988   6.943   2.030   1.794
 3363SOL    HW210989   6.886   2.140   1.899
 3364SOL     OW10990   2.270   4.646   4.021
 3364SOL    HW110991   2.192   4.708   4.026
 3364SOL    HW210992   2.238   4.551   4.017
 3365SOL     OW10993   0.153   2.729   4.666
 3365SOL    HW110994   0.090   2.795   4.625
 3365SOL    HW210995   0.137   2.639   4.627
 3366SOL     OW10996   5.413   4.668   4.350
 3366SOL    HW110997   5.316   4.686   4.370
 3366SOL    HW210998   5.465   4.753   4.356
 3367SOL     OW10999   4.121   3.670   2.630
 3367SOL    HW111000   4.080   3.741   2.687
 3367SOL    HW211001   4.219   3.664   2.649
 3368SOL     OW11002   0.705   5.710   6.800
 3368SOL    HW111003   0.636   5.731   6.731
 3368SOL    HW211004   0.776   5.781   6.800
 3369SOL     OW11005   3.814   2.287   0.703
 3369SOL    HW111006   3.750   2.360   0.727
 3369SOL    HW211007   3.769   2.222   0.641
 3370SOL     OW11008   6.736   6.732   1.554
 3370SOL    HW111009   6.812   6.670   1.576
 3370SOL    HW211010   6.722   6.735   1.455
 3371SOL     OW11011   2.623   3.137   1.707
 3371SOL    HW111012   2.719   3.151   1.732
 3371SOL    HW211013   2.617   3.075   1.629
 3372SOL     OW11014   6.653   1.795   6.835
 3372SOL    HW111015   6.646   1.698   6.859
 3372SOL    HW211016   6.686   1.846   6.914
 3373SOL     OW11017   0.375   2.334   4.096
 3373SOL    HW111018   0.376   2.434   4.088
 3373SOL    HW211019   0.295   2.307   4.150
 3374SOL     OW11020   1.216   6.738   3.637
 3374SOL    HW111021   1.195   6.645   3.607
 3374SOL    HW211022   1.149   6.767   3.705
 3375SOL     OW11023   6.726   4.617   0.543
 3375SOL    HW111024   6.693   4.663   0.460
 3375SOL    HW211025   6.651   4.608   0.609
 3376SOL     OW11026   3.529   2.845   5.055
 3376SOL    HW111027   3.536   2.747   5.037
 3376SOL    HW211028   3.602   2.894   5.008
 3377SOL     OW11029   6.594   5.179   5.825
 3377SOL    HW111030   6.566   5.147   5.916
 3377SOL    HW211031   6.541   5.259   5.800
 3378SOL     OW11032   1.783   6.724   0.189
 3378SOL    HW111033   1.854   6.795   0.193
 3378SOL    HW211034   1.808   6.657   0.119
 3379SOL     OW11035   1.120   2.103   5.036
 3379SOL    HW111036   1.098   2.184   4.983
 3379SOL    HW211037   1.219   2.096   5.046
 3380SOL     OW11038   4.542   6.797   4.992
 3380SOL    HW111039   4.501   6.797   4.900
 3380SOL    HW211040   4.472   6.822   5.059
 3381SOL     OW11041   0.001   2.975   1.495
 3381SOL    HW111042   6.945   2.923   1.524
 3381SOL    HW211043   0.045   3.016   1.575
 3382SOL     OW11044   0.619   2.706   6.399
 3382SOL    HW111045   0.540   2.683   6.456
 3382SOL    HW211046   0.677   2.772   6.447
 3383SOL     OW11047   3.396   5.575   1.283
 3383SOL    HW111048   3.329   5.566   1.356
 3383SOL    HW211049   3.370   5.649   1.221
 3384SOL     OW11050   1.810   3.083   0.472
 3384SOL    HW111051   1.794   3.178   0.448
 3384SOL    HW211052   1.885   3.047   0.415
 3385SOL     OW11053   6.883   3.720   5.068
 3385SOL    HW111054   6.867   3.806   5.020
 3385SOL    HW211055   6.804   3.660   5.055
 3386SOL     OW11056   5.407   4.269   0.361
 3386SOL    HW111057   5.437   4.175   0.373
 3386SOL    HW211058   5.363   4.280   0.272
 3387SOL     OW11059   4.375   0.059   2.988
 3387SOL    HW111060   4.288   0.016   2.962
 3387SOL    HW211061   4.450   0.007   2.947
 3388SOL     OW11062   5.544   2.950   2.483
 3388SOL    HW111063   5.562   2.962   2.581
 3388SOL    HW211064   5.517   2.856   2.465
 3389SOL     OW11065   6.510   5.478   6.162
 3389SOL    HW111066   6.532   5.572   6.190
 3389SOL    HW211067   6.567   5.414   6.212
 3390SOL     OW11068   4.769   0.002   5.986
 3390SOL    HW111069   4.797   0.023   5.892
 3390SOL    HW211070   4.698   0.066   6.015
 3391SOL     OW11071   4.557   2.580   3.915
 3391SOL    HW111072   4.607   2.645   3.858
 3391SOL    HW211073   4.518   2.508   3.857
 3392SOL     OW11074   3.275   6.405   4.392
 3392SOL    HW111075   3.185   6.399   4.349
 3392SOL    HW211076   3.343   6.363   4.332
 3393SOL     OW11077   6.498   6.257   0.485
 3393SOL    HW111078   6.517   6.222   0.576
 3393SOL    HW211079   6.507   6.183   0.418
 3394SOL     OW11080   5.085   3.753   1.190
 3394SOL    HW111081   5.000   3.789   1.151
 3394SOL    HW211082   5.131   3.825   1.243
 3395SOL     OW11083   5.115   2.529   3.306
 3395SOL    HW111084   5.075   2.536   3.214
 3395SOL    HW211085   5.094   2.439   3.345
 3396SOL     OW11086   5.502   1.555   3.417
 3396SOL    HW111087   5.515   1.466   3.373
 3396SOL    HW211088   5.405   1.576   3.423
 3397SOL     OW11089   3.198   5.368   6.942
 3397SOL    HW111090   3.292   5.366   6.908
 3397SOL    HW211091   3.138   5.322   6.876
 3398SOL     OW11092   1.101   0.447   4.288
 3398SOL    HW111093   1.013   0.470   4.329
 3398SOL    HW211094   1.103   0.349   4.266
 3399SOL     OW11095   5.676   5.157   2.929
 3399SOL    HW111096   5.750   5.187   2.868
 3399SOL    HW211097   5.688   5.060   2.950
 3400SOL     OW11098   5.730   3.504   6.670
 3400SOL    HW111099   5.734   3.551   6.759
 3400SOL    HW211100   5.721   3.572   6.597
 3401SOL     OW11101   6.520   3.514   6.135
 3401SOL    HW111102   6.460   3.488   6.211
 3401SOL    HW211103   6.466   3.522   6.051
 3402SOL     OW11104   5.309   5.907   6.441
 3402SOL    HW111105   5.330   5.956   6.357
 3402SOL    HW211106   5.210   5.894   6.448
 3403SOL     OW11107   4.460   5.210   6.634
 3403SOL    HW111108   4.471   5.126   6.581
 3403SOL    HW211109   4.370   5.212   6.677
 3404SOL     OW11110   5.434   2.304   0.866
 3404SOL    HW111111   5.359   2.285   0.803
 3404SOL    HW211112   5.479   2.219   0.891
 3405SOL     OW11113   6.136   3.917   6.389
 3405SOL    HW111114   6.185   3.929   6.476
 3405SOL    HW211115   6.194   3.866   6.325
 3406SOL     OW11116   1.267   3.441   2.333
 3406SOL    HW111117   1.185   3.402   2.290
 3406SOL    HW211118   1.280   3.534   2.300
 3407SOL     OW11119   1.529   4.313   6.660
 3407SOL    HW111120   1.578   4.375   6.720
 3407SOL    HW211121   1.432   4.311   6.685
 3408SOL     OW11122   5.032   2.949   4.689
 3408SOL    HW111123   5.046   2.851   4.704
 3408SOL    HW211124   5.076   2.977   4.603
 3409SOL     OW11125   4.212   6.192   0.199
 3409SOL    HW111126   4.168   6.164   0.114
 3409SOL    HW211127   4.204   6.118   0.266
 3410SOL     OW11128   6.880   6.485   1.606
 3410SOL    HW111129   6.780   6.481   1.606
 3410SOL    HW211130   6.915   6.431   1.683
 3411SOL     OW11131   0.446   2.599   0.487
 3411SOL    HW111132   0.387   2.518   0.491
 3411SOL    HW211133   0.541   2.570   0.492
 3412SOL     OW11134   4.933   3.624   1.455
 3412SOL    HW111135   5.029   3.654   1.459
 3412SOL    HW211136   4.929   3.524   1.457
 3413SOL     OW11137   6.223   1.547   1.214
 3413SOL    HW111138   6.293   1.519   1.280
 3413SOL    HW211139   6.209   1.473   1.148
 3414SOL     OW11140   3.503   2.213   5.668
 3414SOL    HW111141   3.412   2.196   5.631
 3414SOL    HW211142   3.543   2.126   5.698
 3415SOL     OW11143   2.013   2.805   3.975
 3415SOL    HW111144   2.073   2.775   4.049
 3415SOL    HW211145   2.068   2.846   3.903
 3416SOL     OW11146   5.441   6.705   0.553
 3416SOL    HW111147   5.400   6.658   0.631
 3416SOL    HW211148   5.472   6.637   0.487
 3417SOL     OW11149   0.642   6.308   4.332
 3417SOL    HW111150   0.695   6.279   4.411
 3417SOL    HW211151   0.676   6.397   4.300
 3418SOL     OW11152   3.999   5.511   3.387
 3418SOL    HW111153   3.926   5.447   3.411
 3418SOL    HW211154   4.088   5.467   3.397
 3419SOL     OW11155   3.323   5.447   5.986
 3419SOL    HW111156   3.280   5.528   5.947
 3419SOL    HW211157   3.368   5.471   6.072
 3420SOL     OW11158   6.027   3.238   3.371
 3420SOL    HW111159   6.060   3.148   3.402
 3420SOL    HW211160   5.935   3.228   3.333
 3421SOL     OW11161   5.006   1.526   3.690
 3421SOL    HW111162   5.034   1.616   3.659
 3421SOL    HW211163   4.906   1.519   3.692
 3422SOL     OW11164   2.907   0.249   0.021
 3422SOL    HW111165   2.960   0.280   0.100
 3422SOL    HW211166   2.851   0.325   7.010
 3423SOL     OW11167   6.704   4.947   5.930
 3423SOL    HW111168   6.772   4.889   5.885
 3423SOL    HW211169   6.682   5.025   5.871
 3424SOL     OW11170   2.331   6.465   1.132
 3424SOL    HW111171   2.401   6.485   1.200
 3424SOL    HW211172   2.325   6.541   1.067
 3425SOL     OW11173   4.632   4.765   2.573
 3425SOL    HW111174   4.605   4.751   2.478
 3425SOL    HW211175   4.677   4.682   2.607
 3426SOL     OW11176   4.579   2.615   1.461
 3426SOL    HW111177   4.556   2.529   1.415
 3426SOL    HW211178   4.613   2.681   1.393
 3427SOL     OW11179   0.863   1.747   1.177
 3427SOL    HW111180   0.835   1.652   1.169
 3427SOL    HW211181   0.808   1.804   1.117
 3428SOL     OW11182   3.537   5.068   0.187
 3428SOL    HW111183   3.510   5.068   0.283
 3428SOL    HW211184   3.521   5.159   0.147
 3429SOL     OW11185   0.768   2.314   1.193
 3429SOL    HW111186   0.684   2.323   1.247
 3429SOL    HW211187   0.798   2.219   1.192
 3430SOL     OW11188   2.114   5.786   5.449
 3430SOL    HW111189   2.031   5.770   5.503
 3430SOL    HW211190   2.096   5.760   5.353
 3431SOL     OW11191   1.618   5.930   1.885
 3431SOL    HW111192   1.648   6.020   1.853
 3431SOL    HW211193   1.697   5.872   1.902
 3432SOL     OW11194   2.310   4.560   5.541
 3432SOL    HW111195   2.322   4.647   5.588
 3432SOL    HW211196   2.399   4.520   5.522
 3433SOL     OW11197   1.106   0.235   5.085
 3433SOL    HW111198   1.099   0.237   4.985
 3433SOL    HW211199   1.121   0.328   5.119
 3434SOL     OW11200   3.726   1.369   2.419
 3434SOL    HW111201   3.761   1.363   2.326
 3434SOL    HW211202   3.672   1.452   2.429
 3435SOL     OW11203   2.215   1.407   1.324
 3435SOL    HW111204   2.315   1.413   1.321
 3435SOL    HW211205   2.181   1.454   1.406
 3436SOL     OW11206   3.874   5.946   0.209
 3436SOL    HW111207   3.885   5.943   0.308
 3436SOL    HW211208   3.777   5.940   0.186
 3437SOL     OW11209   2.819   6.595   5.431
 3437SOL    HW111210   2.886   6.585   5.505
 3437SOL    HW211211   2.762   6.675   5.449
 3438SOL     OW11212   0.788   3.364   0.896
 3438SOL    HW111213   0.711   3.326   0.947
 3438SOL    HW211214   0.790   3.463   0.909
 3439SOL     OW11215   3.385   5.801   4.317
 3439SOL    HW111216   3.428   5.713   4.299
 3439SOL    HW211217   3.411   5.832   4.409
 3440SOL     OW11218   3.322   2.876   2.364
 3440SOL    HW111219   3.303   2.839   2.273
 3440SOL    HW211220   3.383   2.955   2.355
 3441SOL     OW11221   6.548   6.033   6.292
 3441SOL    HW111222   6.498   6.004   6.210
 3441SOL    HW211223   6.629   6.085   6.265
 3442SOL     OW11224   2.253   3.816   1.450
 3442SOL    HW111225   2.156   3.793   1.442
 3442SOL    HW211226   2.294   3.760   1.522
 3443SOL     OW11227   3.826   6.195   2.289
 3443SOL    HW111228   3.763   6.123   2.318
 3443SOL    HW211229   3.785   6.247   2.214
 3444SOL     OW11230   4.365   5.233   0.059
 3444SOL    HW111231   4.267   5.231   0.038
 3444SOL    HW211232   4.394   5.142   0.090
 3445SOL     OW11233   5.448   4.972   2.301
 3445SOL    HW111234   5.518   5.018   2.356
 3445SOL    HW211235   5.484   4.883   2.270
 3446SOL     OW11236   6.332   0.485   1.444
 3446SOL    HW111237   6.345   0.471   1.346
 3446SOL    HW211238   6.374   0.409   1.494
 3447SOL     OW11239   4.680   6.582   0.380
 3447SOL    HW111240   4.662   6.484   0.394
 3447SOL    HW211241   4.656   6.632   0.463
 3448SOL     OW11242   3.358   0.014   6.196
 3448SOL    HW111243   3.316   0.008   6.286
 3448SOL    HW211244   3.286   0.025   6.127
 3449SOL     OW11245   5.977   5.108   4.534
 3449SOL    HW111246   5.982   5.014   4.498
 3449SOL    HW211247   5.988   5.173   4.459
 3450SOL     OW11248   0.801   1.499   6.462
 3450SOL    HW111249   0.851   1.413   6.473
 3450SOL    HW211250   0.741   1.513   6.540
 3451SOL     OW11251   2.689   6.367   6.809
 3451SOL    HW111252   2.736   6.400   6.891
 3451SOL    HW211253   2.756   6.324   6.748
 3452SOL     OW11254   5.495   0.445   6.853
 3452SOL    HW111255   5.536   0.368   6.901
 3452SOL    HW211256   5.567   0.503   6.815
 3453SOL     OW11257   5.868   5.370   6.025
 3453SOL    HW111258   5.908   5.293   6.075
 3453SOL    HW211259   5.838   5.440   6.089
 3454SOL     OW11260   0.889   3.539   5.665
 3454SOL    HW111261   0.907   3.586   5.579
 3454SOL    HW211262   0.796   3.559   5.696
 3455SOL     OW11263   2.449   1.432   4.320
 3455SOL    HW111264   2.365   1.397   4.360
 3455SOL    HW211265   2.434   1.452   4.223
 3456SOL     OW11266   5.619   4.824   1.532
 3456SOL    HW111267   5.649   4.906   1.581
 3456SOL    HW211268   5.533   4.791   1.571
 3457SOL     OW11269   4.460   5.673   3.993
 3457SOL    HW111270   4.394   5.617   4.043
 3457SOL    HW211271   4.526   5.614   3.947
 3458SOL     OW11272   4.450   0.889   2.322
 3458SOL    HW111273   4.388   0.815   2.348
 3458SOL    HW211274   4.405   0.950   2.258
 3459SOL     OW11275   5.081   2.400   2.540
 3459SOL    HW111276   4.997   2.357   2.575
 3459SOL    HW211277   5.057   2.472   2.475
 3460SOL     OW11278   3.470   1.922   6.842
 3460SOL    HW111279   3.429   1.948   6.755
 3460SOL    HW211280   3.410   1.858   6.889
 3461SOL     OW11281   4.746   3.722   0.098
 3461SOL    HW111282   4.793   3.784   0.036
 3461SOL    HW211283   4.801   3.639   0.111
 3462SOL     OW11284   0.805   3.918   5.359
 3462SOL    HW111285   0.735   3.931   5.289
 3462SOL    HW211286   0.880   3.982   5.344
 3463SOL     OW11287   0.546   4.224   1.550
 3463SOL    HW111288   0.612   4.149   1.554
 3463SOL    HW211289   0.473   4.208   1.616
 3464SOL     OW11290   0.071   4.885   6.210
 3464SOL    HW111291   0.142   4.893   6.280
 3464SOL    HW211292   0.036   4.792   6.209
 3465SOL     OW11293   1.660   2.554   2.115
 3465SOL    HW111294   1.640   2.481   2.179
 3465SOL    HW211295   1.692   2.515   2.029
 3466SOL     OW11296   6.913   5.455   6.016
 3466SOL    HW111297   6.889   5.358   6.008
 3466SOL    HW211298   6.830   5.510   6.011
 3467SOL     OW11299   1.608   2.802   6.280
 3467SOL    HW111300   1.686   2.864   6.268
 3467SOL    HW211301   1.623   2.744   6.360
 3468SOL     OW11302   4.363   6.273   2.446
 3468SOL    HW111303   4.415   6.190   2.429
 3468SOL    HW211304   4.265   6.254   2.436
 3469SOL     OW11305   6.058   0.539   3.228
 3469SOL    HW111306   5.993   0.545   3.304
 3469SOL    HW211307   6.149   0.566   3.258
 3470SOL     OW11308   6.803   3.951   0.592
 3470SOL    HW111309   6.726   3.895   0.625
 3470SOL    HW211310   6.841   3.909   0.510
 3471SOL     OW11311   4.171   5.339   4.319
 3471SOL    HW111312   4.236   5.284   4.372
 3471SOL    HW211313   4.079   5.299   4.327
 3472SOL     OW11314   1.660   0.672   2.600
 3472SOL    HW111315   1.621   0.582   2.620
 3472SOL    HW211316   1.677   0.679   2.502
 3473SOL     OW11317   6.645   1.516   6.712
 3473SOL    HW111318   6.709   1.524   6.635
 3473SOL    HW211319   6.691   1.473   6.789
 3474SOL     OW11320   2.980   5.226   1.868
 3474SOL    HW111321   3.068   5.273   1.882
 3474SOL    HW211322   2.906   5.285   1.899
 3475SOL     OW11323   0.789   6.161   4.802
 3475SOL    HW111324   0.852   6.170   4.879
 3475SOL    HW211325   0.717   6.096   4.826
 3476SOL     OW11326   3.637   1.793   3.039
 3476SOL    HW111327   3.628   1.758   3.132
 3476SOL    HW211328   3.697   1.873   3.039
 3477SOL     OW11329   3.178   5.328   1.275
 3477SOL    HW111330   3.090   5.328   1.323
 3477SOL    HW211331   3.179   5.256   1.207
 3478SOL     OW11332   2.362   5.443   4.976
 3478SOL    HW111333   2.402   5.352   4.980
 3478SOL    HW211334   2.417   5.501   4.915
 3479SOL     OW11335   0.985   1.245   2.870
 3479SOL    HW111336   0.960   1.264   2.775
 3479SOL    HW211337   0.902   1.238   2.925
 3480SOL     OW11338   6.834   0.067   4.706
 3480SOL    HW111339   6.793   0.144   4.755
 3480SOL    HW211340   6.933   0.079   4.700
 3481SOL     OW11341   4.587   0.524   6.739
 3481SOL    HW111342   4.506   0.466   6.731
 3481SOL    HW211343   4.577   0.583   6.820
 3482SOL     OW11344   5.767   1.585   1.069
 3482SOL    HW111345   5.827   1.519   1.024
 3482SOL    HW211346   5.671   1.562   1.049
 3483SOL     OW11347   3.945   1.273   1.768
 3483SOL    HW111348   3.866   1.289   1.827
 3483SOL    HW211349   3.963   1.354   1.713
 3484SOL     OW11350   2.824   3.754   1.722
 3484SOL    HW111351   2.896   3.751   1.791
 3484SOL    HW211352   2.776   3.667   1.720
 3485SOL     OW11353   1.452   0.018   4.328
 3485SOL    HW111354   1.416   6.959   4.285
 3485SOL    HW211355   1.375   0.079   4.350
 3486SOL     OW11356   2.721   1.477   3.110
 3486SOL    HW111357   2.820   1.494   3.114
 3486SOL    HW211358   2.702   1.406   3.043
 3487SOL     OW11359   5.878   1.990   5.931
 3487SOL    HW111360   5.805   1.950   5.987
 3487SOL    HW211361   5.900   2.081   5.967
 3488SOL     OW11362   5.523   2.364   4.171
 3488SOL    HW111363   5.491   2.410   4.088
 3488SOL    HW211364   5.588   2.423   4.219
 3489SOL     OW11365   3.069   6.658   0.472
 3489SOL    HW111366   3.071   6.685   0.568
 3489SOL    HW211367   3.158   6.674   0.431
 3490SOL     OW11368   4.644   4.489   6.647
 3490SOL    HW111369   4.703   4.546   6.590
 3490SOL    HW211370   4.696   4.453   6.725
 3491SOL     OW11371   5.408   2.939   4.510
 3491SOL    HW111372   5.402   3.003   4.587
 3491SOL    HW211373   5.324   2.945   4.456
 3492SOL     OW11374   0.612   6.004   1.213
 3492SOL    HW111375   0.533   6.043   1.260
 3492SOL    HW211376   0.613   5.905   1.227
 3493SOL     OW11377   6.678   5.398   6.528
 3493SOL    HW111378   6.588   5.354   6.536
 3493SOL    HW211379   6.708   5.429   6.618
 3494SOL     OW11380   3.944   0.333   1.404
 3494SOL    HW111381   4.023   0.373   1.451
 3494SOL    HW211382   3.976   0.274   1.330
 3495SOL     OW11383   4.313   4.939   2.134
 3495SOL    HW111384   4.400   4.920   2.089
 3495SOL    HW211385   4.329   4.957   2.231
 3496SOL     OW11386   0.355   3.625   0.931
 3496SOL    HW111387   0.426   3.691   0.907
 3496SOL    HW211388   0.387   3.567   1.006
 3497SOL     OW11389   4.155   6.942   2.936
 3497SOL    HW111390   4.090   7.000   2.886
 3497SOL    HW211391   4.203   6.883   2.871
 3498SOL     OW11392   2.269   2.329   0.183
 3498SOL    HW111393   2.336   2.363   0.249
 3498SOL    HW211394   2.294   2.236   0.155
 3499SOL     OW11395   5.086   2.886   4.108
 3499SOL    HW111396   4.996   2.927   4.098
 3499SOL    HW211397   5.084   2.794   4.068
 3500SOL     OW11398   0.409   4.121   5.198
 3500SOL    HW111399   0.457   4.196   5.244
 3500SOL    HW211400   0.463   4.038   5.204
 3501SOL     OW11401   1.203   5.225   3.688
 3501SOL    HW111402   1.185   5.145   3.744
 3501SOL    HW211403   1.123   5.247   3.633
 3502SOL     OW11404   6.895   2.425   2.299
 3502SOL    HW111405   6.937   2.364   2.232
 3502SOL    HW211406   6.802   2.393   2.320
 3503SOL     OW11407   5.865   5.894   5.361
 3503SOL    HW111408   5.858   5.928   5.267
 3503SOL    HW211409   5.957   5.912   5.396
 3504SOL     OW11410   2.289   2.387   1.110
 3504SOL    HW111411   2.294   2.291   1.081
 3504SOL    HW211412   2.372   2.435   1.081
 3505SOL     OW11413   5.354   4.967   5.000
 3505SOL    HW111414   5.376   4.884   4.948
 3505SOL    HW211415   5.439   5.010   5.032
 3506SOL     OW11416   4.654   5.768   5.297
 3506SOL    HW111417   4.651   5.668   5.299
 3506SOL    HW211418   4.727   5.800   5.357
 3507SOL     OW11419   2.436   0.533   6.945
 3507SOL    HW111420   2.433   0.620   6.994
 3507SOL    HW211421   2.418   0.458   7.009
 3508SOL     OW11422   3.895   2.883   6.001
 3508SOL    HW111423   3.801   2.894   5.969
 3508SOL    HW211424   3.956   2.865   5.923
 3509SOL     OW11425   4.901   6.904   6.190
 3509SOL    HW111426   4.870   6.810   6.181
 3509SOL    HW211427   4.855   6.961   6.121
 3510SOL     OW11428   2.078   2.341   1.953
 3510SOL    HW111429   2.031   2.329   1.865
 3510SOL    HW211430   2.068   2.436   1.983
 3511SOL     OW11431   1.529   4.724   6.832
 3511SOL    HW111432   1.624   4.735   6.859
 3511SOL    HW211433   1.475   4.692   6.910
 3512SOL     OW11434   6.796   3.880   0.899
 3512SOL    HW111435   6.863   3.835   0.840
 3512SOL    HW211436   6.812   3.854   0.994
 3513SOL     OW11437   5.825   3.979   0.659
 3513SOL    HW111438   5.726   3.960   0.660
 3513SOL    HW211439   5.874   3.895   0.683
 3514SOL     OW11440   0.355   0.847   2.112
 3514SOL    HW111441   0.270   0.840   2.164
 3514SOL    HW211442   0.335   0.864   2.016
 3515SOL     OW11443   4.309   6.447   2.894
 3515SOL    HW111444   4.405   6.460   2.869
 3515SOL    HW211445   4.264   6.388   2.827
 3516SOL     OW11446   4.850   0.830   0.806
 3516SOL    HW111447   4.872   0.921   0.843
 3516SOL    HW211448   4.929   0.770   0.816
 3517SOL     OW11449   0.506   2.399   0.236
 3517SOL    HW111450   0.592   2.447   0.220
 3517SOL    HW211451   0.460   2.383   0.149
 3518SOL     OW11452   5.444   4.129   5.102
 3518SOL    HW111453   5.484   4.081   5.180
 3518SOL    HW211454   5.474   4.224   5.103
 3519SOL     OW11455   1.981   0.280   6.398
 3519SOL    HW111456   2.044   0.354   6.423
 3519SOL    HW211457   2.007   0.197   6.447
 3520SOL     OW11458   2.942   4.857   0.997
 3520SOL    HW111459   2.962   4.940   0.945
 3520SOL    HW211460   2.843   4.844   1.004
 3521SOL     OW11461   5.562   3.334   1.468
 3521SOL    HW111462   5.490   3.402   1.480
 3521SOL    HW211463   5.598   3.340   1.375
 3522SOL     OW11464   4.276   5.520   2.241
 3522SOL    HW111465   4.179   5.517   2.220
 3522SOL    HW211466   4.326   5.459   2.180
 3523SOL     OW11467   2.974   4.432   5.626
 3523SOL    HW111468   2.997   4.335   5.612
 3523SOL    HW211469   2.974   4.478   5.537
 3524SOL     OW11470   2.552   1.205   1.154
 3524SOL    HW111471   2.511   1.118   1.125
 3524SOL    HW211472   2.628   1.186   1.217
 3525SOL     OW11473   0.776   3.704   2.229
 3525SOL    HW111474   0.692   3.755   2.245
 3525SOL    HW211475   0.754   3.608   2.211
 3526SOL     OW11476   1.460   6.215   3.849
 3526SOL    HW111477   1.515   6.224   3.932
 3526SOL    HW211478   1.376   6.268   3.859
 3527SOL     OW11479   6.156   3.267   5.902
 3527SOL    HW111480   6.190   3.184   5.857
 3527SOL    HW211481   6.213   3.345   5.877
 3528SOL     OW11482   1.094   5.403   3.942
 3528SOL    HW111483   1.114   5.368   3.851
 3528SOL    HW211484   1.179   5.411   3.995
 3529SOL     OW11485   4.076   6.938   5.140
 3529SOL    HW111486   4.112   0.004   5.168
 3529SOL    HW211487   4.135   6.866   5.173
 3530SOL     OW11488   2.558   5.149   3.292
 3530SOL    HW111489   2.588   5.225   3.234
 3530SOL    HW211490   2.492   5.093   3.241
 3531SOL     OW11491   4.817   4.607   1.301
 3531SOL    HW111492   4.863   4.677   1.355
 3531SOL    HW211493   4.728   4.586   1.343
 3532SOL     OW11494   3.309   0.219   0.671
 3532SOL    HW111495   3.212   0.218   0.646
 3532SOL    HW211496   3.317   0.213   0.771
 3533SOL     OW11497   1.186   2.411   3.212
 3533SOL    HW111498   1.191   2.423   3.113
 3533SOL    HW211499   1.221   2.492   3.257
 3534SOL     OW11500   5.968   0.926   5.194
 3534SOL    HW111501   5.872   0.953   5.194
 3534SOL    HW211502   6.005   0.935   5.286
 3535SOL     OW11503   6.579   5.584   0.651
 3535SOL    HW111504   6.602   5.682   0.655
 3535SOL    HW211505   6.641   5.539   0.586
 3536SOL     OW11506   2.228   2.740   3.603
 3536SOL    HW111507   2.297   2.672   3.578
 3536SOL    HW211508   2.139   2.695   3.612
 3537SOL     OW11509   2.508   4.906   0.275
 3537SOL    HW111510   2.536   4.994   0.312
 3537SOL    HW211511   2.423   4.917   0.223
 3538SOL     OW11512   2.206   1.314   4.138
 3538SOL    HW111513   2.140   1.253   4.094
 3538SOL    HW211514   2.194   1.407   4.101
 3539SOL     OW11515   5.713   3.933   6.185
 3539SOL    HW111516   5.706   3.835   6.201
 3539SOL    HW211517   5.653   3.981   6.250
 3540SOL     OW11518   2.254   1.410   5.568
 3540SOL    HW111519   2.323   1.338   5.565
 3540SOL    HW211520   2.165   1.370   5.590
 3541SOL     OW11521   2.542   2.749   6.630
 3541SOL    HW111522   2.479   2.674   6.652
 3541SOL    HW211523   2.625   2.712   6.588
 3542SOL     OW11524   6.681   3.077   1.160
 3542SOL    HW111525   6.632   3.163   1.142
 3542SOL    HW211526   6.749   3.092   1.233
 3543SOL     OW11527   1.890   3.636   4.279
 3543SOL    HW111528   1.823   3.680   4.338
 3543SOL    HW211529   1.975   3.620   4.331
 3544SOL     OW11530   1.941   4.669   6.435
 3544SOL    HW111531   1.890   4.614   6.501
 3544SOL    HW211532   1.908   4.650   6.343
 3545SOL     OW11533   3.776   4.712   6.921
 3545SOL    HW111534   3.724   4.760   6.992
 3545SOL    HW211535   3.872   4.706   6.947
 3546SOL     OW11536   6.703   4.995   3.283
 3546SOL    HW111537   6.793   5.031   3.260
 3546SOL    HW211538   6.665   5.047   3.360
 3547SOL     OW11539   7.010   4.262   5.242
 3547SOL    HW111540   0.066   4.239   5.185
 3547SOL    HW211541   6.928   4.264   5.186
 3548SOL     OW11542   5.771   0.245   5.660
 3548SOL    HW111543   5.763   0.298   5.745
 3548SOL    HW211544   5.868   0.233   5.638
 3549SOL     OW11545   2.117   4.409   5.671
 3549SOL    HW111546   2.207   4.446   5.649
 3549SOL    HW211547   2.048   4.458   5.617
 3550SOL     OW11548   5.880   2.176   4.634
 3550SOL    HW111549   5.901   2.259   4.582
 3550SOL    HW211550   5.922   2.097   4.588
 3551SOL     OW11551   3.811   1.646   4.209
 3551SOL    HW111552   3.856   1.571   4.160
 3551SOL    HW211553   3.881   1.707   4.248
 3552SOL     OW11554   6.445   6.252   2.161
 3552SOL    HW111555   6.543   6.271   2.152
 3552SOL    HW211556   6.427   6.156   2.140
 3553SOL     OW11557   3.733   5.693   6.744
 3553SOL    HW111558   3.813   5.658   6.792
 3553SOL    HW211559   3.674   5.617   6.718
 3554SOL     OW11560   4.823   2.652   0.818
 3554SOL    HW111561   4.893   2.715   0.851
 3554SOL    HW211562   4.859   2.599   0.741
 3555SOL     OW11563   1.265   2.745   4.151
 3555SOL    HW111564   1.250   2.699   4.063
 3555SOL    HW211565   1.337   2.814   4.140
 3556SOL     OW11566   3.761   1.364   4.049
 3556SOL    HW111567   3.724   1.281   4.091
 3556SOL    HW211568   3.861   1.358   4.046
 3557SOL     OW11569   1.167   6.269   3.846
 3557SOL    HW111570   1.157   6.263   3.746
 3557SOL    HW211571   1.076   6.270   3.888
 3558SOL     OW11572   2.446   4.403   1.262
 3558SOL    HW111573   2.525   4.408   1.323
 3558SOL    HW211574   2.369   4.450   1.303
 3559SOL     OW11575   0.884   5.884   5.066
 3559SOL    HW111576   0.908   5.979   5.086
 3559SOL    HW211577   0.920   5.859   4.976
 3560SOL     OW11578   2.140   4.760   3.169
 3560SOL    HW111579   2.168   4.856   3.160
 3560SOL    HW211580   2.045   4.750   3.139
 3561SOL     OW11581   5.088   3.736   5.914
 3561SOL    HW111582   5.102   3.768   6.008
 3561SOL    HW211583   5.169   3.685   5.884
 3562SOL     OW11584   3.441   1.903   3.807
 3562SOL    HW111585   3.505   1.847   3.754
 3562SOL    HW211586   3.392   1.964   3.746
 3563SOL     OW11587   6.106   1.972   6.324
 3563SOL    HW111588   6.091   1.888   6.376
 3563SOL    HW211589   6.177   2.027   6.368
 3564SOL     OW11590   0.691   4.917   3.325
 3564SOL    HW111591   0.596   4.924   3.356
 3564SOL    HW211592   0.709   4.825   3.290
 3565SOL     OW11593   3.326   5.936   3.535
 3565SOL    HW111594   3.370   5.846   3.536
 3565SOL    HW211595   3.343   5.982   3.622
 3566SOL     OW11596   6.407   1.287   6.157
 3566SOL    HW111597   6.318   1.287   6.111
 3566SOL    HW211598   6.416   1.371   6.212
 3567SOL     OW11599   0.426   2.558   6.582
 3567SOL    HW111600   0.454   2.560   6.678
 3567SOL    HW211601   0.480   2.489   6.533
 3568SOL     OW11602   5.585   3.988   5.277
 3568SOL    HW111603   5.619   3.896   5.255
 3568SOL    HW211604   5.538   3.985   5.365
 3569SOL     OW11605   3.046   2.072   6.102
 3569SOL    HW111606   3.142   2.098   6.114
 3569SOL    HW211607   3.026   2.060   6.005
 3570SOL     OW11608   4.819   0.601   6.223
 3570SOL    HW111609   4.833   0.656   6.141
 3570SOL    HW211610   4.739   0.635   6.273
 3571SOL     OW11611   0.451   5.204   0.378
 3571SOL    HW111612   0.529   5.170   0.326
 3571SOL    HW211613   0.433   5.300   0.353
 3572SOL     OW11614   5.450   4.108   3.323
 3572SOL    HW111615   5.387   4.168   3.373
 3572SOL    HW211616   5.532   4.159   3.297
 3573SOL     OW11617   0.609   4.583   3.713
 3573SOL    HW111618   0.553   4.532   3.648
 3573SOL    HW211619   0.698   4.538   3.723
 3574SOL     OW11620   0.087   4.601   0.551
 3574SOL    HW111621   0.184   4.576   0.556
 3574SOL    HW211622   0.077   4.699   0.563
 3575SOL     OW11623   5.452   4.421   2.795
 3575SOL    HW111624   5.388   4.468   2.856
 3575SOL    HW211625   5.403   4.351   2.743
 3576SOL     OW11626   2.320   1.867   5.149
 3576SOL    HW111627   2.392   1.813   5.108
 3576SOL    HW211628   2.288   1.822   5.233
 3577SOL     OW11629   1.253   2.494   5.979
 3577SOL    HW111630   1.228   2.590   5.992
 3577SOL    HW211631   1.353   2.487   5.969
 3578SOL     OW11632   3.384   2.576   0.840
 3578SOL    HW111633   3.367   2.485   0.801
 3578SOL    HW211634   3.339   2.645   0.783
 3579SOL     OW11635   6.436   3.944   4.320
 3579SOL    HW111636   6.490   3.947   4.404
 3579SOL    HW211637   6.497   3.932   4.242
 3580SOL     OW11638   6.203   2.496   1.079
 3580SOL    HW111639   6.168   2.449   0.998
 3580SOL    HW211640   6.287   2.546   1.055
 3581SOL     OW11641   0.016   6.092   3.865
 3581SOL    HW111642   0.110   6.066   3.843
 3581SOL    HW211643   0.004   6.190   3.848
 3582SOL     OW11644   0.954   2.062   5.718
 3582SOL    HW111645   0.915   2.083   5.628
 3582SOL    HW211646   1.046   2.025   5.707
 3583SOL     OW11647   1.580   3.562   6.354
 3583SOL    HW111648   1.585   3.549   6.255
 3583SOL    HW211649   1.658   3.518   6.398
 3584SOL     OW11650   5.883   5.671   6.952
 3584SOL    HW111651   5.874   5.695   0.025
 3584SOL    HW211652   5.957   5.725   6.911
 3585SOL     OW11653   4.412   5.776   5.013
 3585SOL    HW111654   4.425   5.851   5.077
 3585SOL    HW211655   4.444   5.805   4.922
 3586SOL     OW11656   0.221   2.026   5.488
 3586SOL    HW111657   0.169   2.046   5.405
 3586SOL    HW211658   0.225   2.108   5.545
 3587SOL     OW11659   3.201   5.062   6.405
 3587SOL    HW111660   3.298   5.075   6.384
 3587SOL    HW211661   3.146   5.097   6.329
 3588SOL     OW11662   1.253   2.957   4.818
 3588SOL    HW111663   1.290   2.973   4.910
 3588SOL    HW211664   1.191   3.032   4.794
 3589SOL     OW11665   4.177   2.166   4.899
 3589SOL    HW111666   4.185   2.199   4.805
 3589SOL    HW211667   4.136   2.237   4.956
 3590SOL     OW11668   1.209   2.769   6.052
 3590SOL    HW111669   1.282   2.814   6.103
 3590SOL    HW211670   1.140   2.837   6.026
 3591SOL     OW11671   4.812   3.454   6.556
 3591SOL    HW111672   4.892   3.491   6.603
 3591SOL    HW211673   4.830   3.452   6.458
 3592SOL     OW11674   6.589   4.442   2.215
 3592SOL    HW111675   6.612   4.482   2.304
 3592SOL    HW211676   6.572   4.516   2.149
 3593SOL     OW11677   2.030   5.933   4.690
 3593SOL    HW111678   2.012   6.029   4.714
 3593SOL    HW211679   2.129   5.920   4.678
 3594SOL     OW11680   4.361   0.517   3.060
 3594SOL    HW111681   4.324   0.523   3.153
 3594SOL    HW211682   4.289   0.487   2.997
 3595SOL     OW11683   2.352   5.212   6.947
 3595SOL    HW111684   2.319   5.274   6.875
 3595SOL    HW211685   2.294   5.223   0.005
 3596SOL     OW11686   6.487   2.466   3.502
 3596SOL    HW111687   6.586   2.480   3.504
 3596SOL    HW211688   6.452   2.458   3.596
 3597SOL     OW11689   2.317   0.738   5.226
 3597SOL    HW111690   2.296   0.642   5.207
 3597SOL    HW211691   2.375   0.774   5.153
 3598SOL     OW11692   1.126   5.910   6.582
 3598SOL    HW111693   1.053   5.888   6.647
 3598SOL    HW211694   1.157   5.826   6.538
 3599SOL     OW11695   0.633   1.755   5.715
 3599SOL    HW111696   0.700   1.823   5.688
 3599SOL    HW211697   0.551   1.801   5.751
 3600SOL     OW11698   0.948   3.492   0.201
 3600SOL    HW111699   1.009   3.436   0.144
 3600SOL    HW211700   0.937   3.582   0.159
 3601SOL     OW11701   5.864   4.991   0.115
 3601SOL    HW111702   5.780   5.011   0.166
 3601SOL    HW211703   5.924   4.933   0.171
 3602SOL     OW11704   1.147   2.234   0.631
 3602SOL    HW111705   1.148   2.215   0.729
 3602SOL    HW211706   1.089   2.313   0.612
 3603SOL     OW11707   3.206   6.794   3.882
 3603SOL    HW111708   3.179   6.883   3.919
 3603SOL    HW211709   3.174   6.786   3.787
 3604SOL     OW11710   0.223   5.098   3.274
 3604SOL    HW111711   0.235   5.117   3.371
 3604SOL    HW211712   0.173   5.174   3.231
 3605SOL     OW11713   5.215   4.025   5.029
 3605SOL    HW111714   5.302   4.069   5.051
 3605SOL    HW211715   5.158   4.022   5.111
 3606SOL     OW11716   0.245   6.205   5.654
 3606SOL    HW111717   0.216   6.251   5.570
 3606SOL    HW211718   0.164   6.174   5.704
 3607SOL     OW11719   5.013   6.115   0.767
 3607SOL    HW111720   5.073   6.162   0.831
 3607SOL    HW211721   5.019   6.160   0.677
 3608SOL     OW11722   6.095   2.272   3.120
 3608SOL    HW111723   6.044   2.189   3.099
 3608SOL    HW211724   6.033   2.342   3.155
 3609SOL     OW11725   0.821   0.659   3.932
 3609SOL    HW111726   0.746   0.622   3.878
 3609SOL    HW211727   0.794   0.664   4.028
 3610SOL     OW11728   1.432   6.664   5.796
 3610SOL    HW111729   1.405   6.757   5.819
 3610SOL    HW211730   1.516   6.640   5.845
 3611SOL     OW11731   4.701   6.379   5.964
 3611SOL    HW111732   4.659   6.311   5.904
 3611SOL    HW211733   4.681   6.355   6.059
 3612SOL     OW11734   6.176   0.118   6.246
 3612SOL    HW111735   6.161   0.216   6.263
 3612SOL    HW211736   6.096   0.067   6.278
 3613SOL     OW11737   4.649   5.380   1.869
 3613SOL    HW111738   4.574   5.346   1.813
 3613SOL    HW211739   4.647   5.480   1.870
 3614SOL     OW11740   3.843   3.552   2.623
 3614SOL    HW111741   3.929   3.602   2.610
 3614SOL    HW211742   3.850   3.493   2.703
 3615SOL     OW11743   5.618   5.908   0.059
 3615SOL    HW111744   5.614   5.848   7.003
 3615SOL    HW211745   5.709   5.950   0.065
 3616SOL     OW11746   0.269   2.972   6.035
 3616SOL    HW111747   0.171   2.952   6.032
 3616SOL    HW211748   0.308   2.956   5.945
 3617SOL     OW11749   4.161   1.139   6.607
 3617SOL    HW111750   4.064   1.144   6.628
 3617SOL    HW211751   4.195   1.047   6.627
 3618SOL     OW11752   2.445   2.111   5.252
 3618SOL    HW111753   2.396   2.036   5.207
 3618SOL    HW211754   2.515   2.147   5.190
 3619SOL     OW11755   5.713   2.967   3.778
 3619SOL    HW111756   5.711   3.062   3.746
 3619SOL    HW211757   5.779   2.915   3.725
 3620SOL     OW11758   6.385   5.941   6.067
 3620SOL    HW111759   6.370   5.890   5.983
 3620SOL    HW211760   6.300   5.943   6.120
 3621SOL     OW11761   3.717   2.947   5.691
 3621SOL    HW111762   3.713   2.985   5.784
 3621SOL    HW211763   3.678   3.013   5.626
 3622SOL     OW11764   1.758   1.929   4.854
 3622SOL    HW111765   1.743   2.024   4.828
 3622SOL    HW211766   1.670   1.884   4.871
 3623SOL     OW11767   6.458   5.727   4.358
 3623SOL    HW111768   6.397   5.756   4.285
 3623SOL    HW211769   6.551   5.717   4.323
 3624SOL     OW11770   2.239   6.090   2.272
 3624SOL    HW111771   2.193   6.002   2.276
 3624SOL    HW211772   2.222   6.133   2.184
 3625SOL     OW11773   5.568   3.523   6.957
 3625SOL    HW111774   5.631   3.600   6.945
 3625SOL    HW211775   5.520   3.533   0.021
 3626SOL     OW11776   1.343   3.265   6.460
 3626SOL    HW111777   1.404   3.186   6.462
 3626SOL    HW211778   1.364   3.321   6.380
 3627SOL     OW11779   3.403   2.888   3.529
 3627SOL    HW111780   3.455   2.815   3.485
 3627SOL    HW211781   3.456   2.923   3.607
 3628SOL     OW11782   1.425   0.943   1.704
 3628SOL    HW111783   1.411   0.986   1.793
 3628SOL    HW211784   1.490   0.867   1.714
 3629SOL     OW11785   6.719   2.374   4.555
 3629SOL    HW111786   6.790   2.304   4.547
 3629SOL    HW211787   6.659   2.353   4.632
 3630SOL     OW11788   4.935   2.679   3.465
 3630SOL    HW111789   5.015   2.676   3.405
 3630SOL    HW211790   4.860   2.627   3.423
 3631SOL     OW11791   1.910   6.935   3.663
 3631SOL    HW111792   1.915   7.005   3.734
 3631SOL    HW211793   1.883   6.848   3.704
 3632SOL     OW11794   4.925   6.348   1.391
 3632SOL    HW111795   4.949   6.331   1.487
 3632SOL    HW211796   4.941   6.444   1.369
 3633SOL     OW11797   3.709   1.609   5.463
 3633SOL    HW111798   3.778   1.592   5.393
 3633SOL    HW211799   3.666   1.698   5.446
 3634SOL     OW11800   0.702   5.017   4.533
 3634SOL    HW111801   0.742   4.961   4.460
 3634SOL    HW211802   0.671   4.958   4.607
 3635SOL     OW11803   2.463   6.814   6.067
 3635SOL    HW111804   2.380   6.759   6.056
 3635SOL    HW211805   2.498   6.802   6.160
 3636SOL     OW11806   0.736   5.748   0.184
 3636SOL    HW111807   0.681   5.762   0.266
 3636SOL    HW211808   0.721   5.823   0.120
 3637SOL     OW11809   6.573   2.027   1.389
 3637SOL    HW111810   6.517   2.022   1.306
 3637SOL    HW211811   6.538   2.100   1.449
 3638SOL     OW11812   0.365   4.628   4.651
 3638SOL    HW111813   0.393   4.610   4.556
 3638SOL    HW211814   0.401   4.557   4.710
 3639SOL     OW11815   3.473   4.092   1.419
 3639SOL    HW111816   3.376   4.096   1.441
 3639SOL    HW211817   3.524   4.060   1.499
 3640SOL     OW11818   3.597   1.060   0.563
 3640SOL    HW111819   3.647   0.973   0.555
 3640SOL    HW211820   3.515   1.045   0.618
 3641SOL     OW11821   5.085   3.262   3.836
 3641SOL    HW111822   5.061   3.196   3.765
 3641SOL    HW211823   5.018   3.336   3.838
 3642SOL     OW11824   4.822   0.782   0.457
 3642SOL    HW111825   4.843   0.712   0.525
 3642SOL    HW211826   4.896   0.850   0.455
 3643SOL     OW11827   2.764   5.569   5.241
 3643SOL    HW111828   2.802   5.658   5.216
 3643SOL    HW211829   2.817   5.496   5.197
 3644SOL     OW11830   6.945   1.622   1.833
 3644SOL    HW111831   6.855   1.638   1.792
 3644SOL    HW211832   6.987   1.542   1.791
 3645SOL     OW11833   7.018   3.326   3.652
 3645SOL    HW111834   7.000   3.249   3.713
 3645SOL    HW211835   0.029   3.292   3.564
 3646SOL     OW11836   6.672   4.464   6.488
 3646SOL    HW111837   6.746   4.531   6.480
 3646SOL    HW211838   6.708   4.378   6.522
 3647SOL     OW11839   2.419   4.034   6.542
 3647SOL    HW111840   2.498   3.974   6.550
 3647SOL    HW211841   2.434   4.118   6.594
 3648SOL     OW11842   3.931   5.028   2.304
 3648SOL    HW111843   3.968   4.952   2.358
 3648SOL    HW211844   3.866   5.079   2.359
 3649SOL     OW11845   4.841   2.867   1.791
 3649SOL    HW111846   4.748   2.904   1.788
 3649SOL    HW211847   4.866   2.849   1.886
 3650SOL     OW11848   0.478   5.215   1.108
 3650SOL    HW111849   0.578   5.213   1.112
 3650SOL    HW211850   0.441   5.146   1.169
 3651SOL     OW11851   0.319   0.122   4.098
 3651SOL    HW111852   0.283   0.176   4.174
 3651SOL    HW211853   0.383   0.177   4.045
 3652SOL     OW11854   5.665   6.612   3.545
 3652SOL    HW111855   5.686   6.514   3.550
 3652SOL    HW211856   5.657   6.640   3.449
 3653SOL     OW11857   0.204   1.547   4.477
 3653SOL    HW111858   0.189   1.610   4.401
 3653SOL    HW211859   0.201   1.597   4.563
 3654SOL     OW11860   2.204   4.701   0.753
 3654SOL    HW111861   2.290   4.664   0.788
 3654SOL    HW211862   2.206   4.703   0.653
 3655SOL     OW11863   1.561   6.663   3.273
 3655SOL    HW111864   1.553   6.759   3.248
 3655SOL    HW211865   1.484   6.612   3.234
 3656SOL     OW11866   0.986   3.828   2.122
 3656SOL    HW111867   0.909   3.789   2.173
 3656SOL    HW211868   1.044   3.881   2.185
 3657SOL     OW11869   4.894   5.080   6.021
 3657SOL    HW111870   4.852   5.116   6.104
 3657SOL    HW211871   4.860   5.132   5.942
 3658SOL     OW11872   1.636   5.765   5.247
 3658SOL    HW111873   1.628   5.692   5.179
 3658SOL    HW211874   1.723   5.757   5.295
 3659SOL     OW11875   1.461   3.236   4.554
 3659SOL    HW111876   1.440   3.139   4.565
 3659SOL    HW211877   1.443   3.264   4.460
 3660SOL     OW11878   5.332   0.304   3.266
 3660SOL    HW111879   5.412   0.353   3.299
 3660SOL    HW211880   5.315   0.329   3.170
 3661SOL     OW11881   5.361   1.954   5.441
 3661SOL    HW111882   5.434   1.908   5.491
 3661SOL    HW211883   5.335   2.039   5.488
 3662SOL     OW11884   4.513   6.896   3.839
 3662SOL    HW111885   4.471   6.965   3.898
 3662SOL    HW211886   4.449   6.820   3.827
 3663SOL     OW11887   1.892   2.068   0.749
 3663SOL    HW111888   1.943   2.126   0.686
 3663SOL    HW211889   1.909   1.972   0.727
 3664SOL     OW11890   5.492   1.974   1.935
 3664SOL    HW111891   5.560   2.044   1.914
 3664SOL    HW211892   5.478   1.916   1.855
 3665SOL     OW11893   2.192   6.061   5.087
 3665SOL    HW111894   2.188   6.137   5.152
 3665SOL    HW211895   2.108   6.007   5.094
 3666SOL     OW11896   1.061   4.359   3.507
 3666SOL    HW111897   1.108   4.355   3.596
 3666SOL    HW211898   0.962   4.359   3.522
 3667SOL     OW11899   0.861   0.957   2.432
 3667SOL    HW111900   0.857   0.858   2.450
 3667SOL    HW211901   0.786   0.982   2.371
 3668SOL     OW11902   1.763   0.920   2.460
 3668SOL    HW111903   1.728   0.829   2.485
 3668SOL    HW211904   1.732   0.987   2.527
 3669SOL     OW11905   4.966   1.079   3.666
 3669SOL    HW111906   4.976   1.179   3.658
 3669SOL    HW211907   4.988   1.037   3.578
 3670SOL     OW11908   2.806   5.052   0.555
 3670SOL    HW111909   2.801   4.954   0.534
 3670SOL    HW211910   2.824   5.103   0.470
 3671SOL     OW11911   5.733   1.039   3.769
 3671SOL    HW111912   5.713   1.077   3.859
 3671SOL    HW211913   5.832   1.037   3.755
 3672SOL     OW11914   5.583   1.833   1.680
 3672SOL    HW111915   5.494   1.809   1.642
 3672SOL    HW211916   5.632   1.894   1.617
 3673SOL     OW11917   4.472   6.207   6.361
 3673SOL    HW111918   4.443   6.263   6.438
 3673SOL    HW211919   4.392   6.180   6.307
 3674SOL     OW11920   0.726   6.930   5.079
 3674SOL    HW111921   0.822   6.957   5.070
 3674SOL    HW211922   0.674   7.007   5.115
 3675SOL     OW11923   1.813   3.319   4.370
 3675SOL    HW111924   1.814   3.412   4.335
 3675SOL    HW211925   1.796   3.320   4.468
 3676SOL     OW11926   5.323   4.303   3.462
 3676SOL    HW111927   5.374   4.332   3.543
 3676SOL    HW211928   5.240   4.358   3.453
 3677SOL     OW11929   2.055   6.046   3.274
 3677SOL    HW111930   2.075   5.969   3.214
 3677SOL    HW211931   1.975   6.025   3.331
 3678SOL     OW11932   0.476   2.011   5.405
 3678SOL    HW111933   0.491   2.095   5.353
 3678SOL    HW211934   0.386   2.015   5.449
 3679SOL     OW11935   0.971   0.281   3.327
 3679SOL    HW111936   1.043   0.256   3.262
 3679SOL    HW211937   1.012   0.315   3.411
 3680SOL     OW11938   5.786   2.484   3.597
 3680SOL    HW111939   5.715   2.512   3.533
 3680SOL    HW211940   5.749   2.488   3.690
 3681SOL     OW11941   0.390   0.046   6.069
 3681SOL    HW111942   0.476   0.009   6.103
 3681SOL    HW211943   0.383   0.143   6.091
 3682SOL     OW11944   5.902   2.286   6.974
 3682SOL    HW111945   5.864   2.194   6.964
 3682SOL    HW211946   5.840   2.342   0.006
 3683SOL     OW11947   6.812   0.554   2.704
 3683SOL    HW111948   6.741   0.556   2.633
 3683SOL    HW211949   6.893   0.506   2.668
 3684SOL     OW11950   2.032   4.397   6.851
 3684SOL    HW111951   2.123   4.435   6.832
 3684SOL    HW211952   2.035   4.345   6.935
 3685SOL     OW11953   6.669   6.303   6.558
 3685SOL    HW111954   6.673   6.354   6.643
 3685SOL    HW211955   6.761   6.292   6.521
 3686SOL     OW11956   5.805   5.965   3.592
 3686SOL    HW111957   5.827   5.869   3.606
 3686SOL    HW211958   5.728   5.990   3.651
 3687SOL     OW11959   3.489   5.706   4.980
 3687SOL    HW111960   3.549   5.682   5.057
 3687SOL    HW211961   3.452   5.798   4.994
 3688SOL     OW11962   6.508   3.226   6.004
 3688SOL    HW111963   6.575   3.298   6.024
 3688SOL    HW211964   6.464   3.197   6.089
 3689SOL     OW11965   2.276   0.042   6.040
 3689SOL    HW111966   2.313   6.977   6.070
 3689SOL    HW211967   2.254   0.037   5.942
 3690SOL     OW11968   5.012   5.589   0.066
 3690SOL    HW111969   4.920   5.563   0.036
 3690SOL    HW211970   5.040   5.672   0.019
 3691SOL     OW11971   2.679   2.957   6.711
 3691SOL    HW111972   2.634   2.868   6.701
 3691SOL    HW211973   2.663   3.011   6.628
 3692SOL     OW11974   0.472   5.426   5.562
 3692SOL    HW111975   0.457   5.513   5.515
 3692SOL    HW211976   0.550   5.379   5.520
 3693SOL     OW11977   2.003   3.420   2.735
 3693SOL    HW111978   2.070   3.390   2.803
 3693SOL    HW211979   2.050   3.468   2.661
 3694SOL     OW11980   1.479   5.702   2.724
 3694SOL    HW111981   1.416   5.776   2.747
 3694SOL    HW211982   1.572   5.728   2.753
 3695SOL     OW11983   6.772   2.935   1.600
 3695SOL    HW111984   6.775   3.032   1.627
 3695SOL    HW211985   6.687   2.894   1.632
 3696SOL     OW11986   3.398   5.608   5.589
 3696SOL    HW111987   3.419   5.510   5.593
 3696SOL    HW211988   3.399   5.646   5.682
 3697SOL     OW11989   0.187   6.681   2.905
 3697SOL    HW111990   0.225   6.603   2.954
 3697SOL    HW211991   0.104   6.654   2.857
 3698SOL     OW11992   2.148   0.943   4.650
 3698SOL    HW111993   2.132   0.844   4.654
 3698SOL    HW211994   2.158   0.972   4.555
 3699SOL     OW11995   0.833   2.223   3.882
 3699SOL    HW111996   0.924   2.258   3.904
 3699SOL    HW211997   0.764   2.276   3.932
 3700SOL     OW11998   0.286   6.642   5.048
 3700SOL    HW111999   0.194   6.604   5.064
 3700SOL    HW212000   0.354   6.569   5.057
 3701SOL     OW12001   1.195   0.441   3.870
 3701SOL    HW112002   1.280   0.419   3.822
 3701SOL    HW212003   1.216   0.486   3.957
 3702SOL     OW12004   5.773   6.882   2.265
 3702SOL    HW112005   5.810   6.798   2.307
 3702SOL    HW212006   5.840   6.955   2.272
 3703SOL     OW12007   5.555   1.305   5.708
 3703SOL    HW112008   5.589   1.220   5.750
 3703SOL    HW212009   5.460   1.293   5.680
 3704SOL     OW12010   3.663   1.924   1.772
 3704SOL    HW112011   3.700   2.009   1.810
 3704SOL    HW212012   3.680   1.920   1.674
 3705SOL     OW12013   4.535   4.918   3.608
 3705SOL    HW112014   4.447   4.946   3.647
 3705SOL    HW212015   4.608   4.975   3.645
 3706SOL     OW12016   1.628   2.826   6.655
 3706SOL    HW112017   1.724   2.849   6.646
 3706SOL    HW212018   1.598   2.771   6.577
 3707SOL     OW12019   5.538   4.424   4.519
 3707SOL    HW112020   5.490   4.492   4.463
 3707SOL    HW212021   5.581   4.469   4.597
 3708SOL     OW12022   0.049   0.829   6.102
 3708SOL    HW112023   0.058   0.926   6.127
 3708SOL    HW212024   0.108   0.810   6.024
 3709SOL     OW12025   3.012   0.724   0.752
 3709SOL    HW112026   2.916   0.709   0.775
 3709SOL    HW212027   3.020   0.739   0.653
 3710SOL     OW12028   6.531   5.136   6.140
 3710SOL    HW112029   6.607   5.193   6.172
 3710SOL    HW212030   6.488   5.091   6.219
 3711SOL     OW12031   0.432   0.443   3.997
 3711SOL    HW112032   0.507   0.377   3.999
 3711SOL    HW212033   0.364   0.415   3.930
 3712SOL     OW12034   0.170   5.972   0.057
 3712SOL    HW112035   0.220   6.013   7.004
 3712SOL    HW212036   0.207   5.881   0.076
 3713SOL     OW12037   0.956   6.146   5.081
 3713SOL    HW112038   0.955   6.246   5.080
 3713SOL    HW212039   1.048   6.113   5.063
 3714SOL     OW12040   5.086   6.057   5.602
 3714SOL    HW112041   5.096   5.963   5.570
 3714SOL    HW212042   5.101   6.120   5.526
 3715SOL     OW12043   6.694   4.258   2.741
 3715SOL    HW112044   6.737   4.347   2.724
 3715SOL    HW212045   6.663   4.220   2.654
 3716SOL     OW12046   6.635   0.128   4.964
 3716SOL    HW112047   6.657   0.030   4.966
 3716SOL    HW212048   6.552   0.145   5.018
 3717SOL     OW12049   6.204   6.625   6.496
 3717SOL    HW112050   6.274   6.611   6.426
 3717SOL    HW212051   6.248   6.632   6.586
 3718SOL     OW12052   1.538   0.717   0.219
 3718SOL    HW112053   1.631   0.686   0.198
 3718SOL    HW212054   1.475   0.682   0.150
 3719SOL     OW12055   5.202   4.887   0.902
 3719SOL    HW112056   5.282   4.935   0.866
 3719SOL    HW212057   5.207   4.791   0.877
 3720SOL     OW12058   5.952   2.572   6.998
 3720SOL    HW112059   5.936   2.499   6.932
 3720SOL    HW212060   5.894   2.651   6.975
 3721SOL     OW12061   5.821   4.572   1.569
 3721SOL    HW112062   5.828   4.591   1.471
 3721SOL    HW212063   5.747   4.627   1.608
 3722SOL     OW12064   6.600   5.865   0.684
 3722SOL    HW112065   6.666   5.904   0.620
 3722SOL    HW212066   6.514   5.915   0.677
 3723SOL     OW12067   6.473   5.597   1.794
 3723SOL    HW112068   6.464   5.695   1.779
 3723SOL    HW212069   6.392   5.563   1.842
 3724SOL     OW12070   1.776   3.995   4.955
 3724SOL    HW112071   1.875   3.985   4.960
 3724SOL    HW212072   1.750   4.020   4.862
 3725SOL     OW12073   5.721   5.504   0.688
 3725SOL    HW112074   5.648   5.565   0.719
 3725SOL    HW212075   5.789   5.494   0.761
 3726SOL     OW12076   5.700   3.612   0.308
 3726SOL    HW112077   5.704   3.711   0.318
 3726SOL    HW212078   5.792   3.576   0.292
 3727SOL     OW12079   6.814   2.141   5.332
 3727SOL    HW112080   6.830   2.231   5.291
 3727SOL    HW212081   6.758   2.086   5.270
 3728SOL     OW12082   1.441   3.682   6.562
 3728SOL    HW112083   1.488   3.626   6.493
 3728SOL    HW212084   1.405   3.622   6.634
 3729SOL     OW12085   0.863   2.526   3.608
 3729SOL    HW112086   0.826   2.602   3.555
 3729SOL    HW212087   0.816   2.520   3.696
 3730SOL     OW12088   2.805   5.310   5.693
 3730SOL    HW112089   2.802   5.396   5.743
 3730SOL    HW212090   2.712   5.274   5.681
 3731SOL     OW12091   6.774   0.862   0.391
 3731SOL    HW112092   6.848   0.871   0.324
 3731SOL    HW212093   6.778   0.938   0.456
 3732SOL     OW12094   2.794   1.531   6.649
 3732SOL    HW112095   2.813   1.622   6.612
 3732SOL    HW212096   2.815   1.529   6.746
 3733SOL     OW12097   1.260   3.930   2.287
 3733SOL    HW112098   1.288   3.938   2.383
 3733SOL    HW212099   1.242   4.021   2.250
 3734SOL     OW12100   5.665   1.383   2.451
 3734SOL    HW112101   5.754   1.417   2.419
 3734SOL    HW212102   5.597   1.394   2.379
 3735SOL     OW12103   2.062   0.947   3.358
 3735SOL    HW112104   2.145   0.894   3.374
 3735SOL    HW212105   1.983   0.886   3.358
 3736SOL     OW12106   0.529   2.496   0.848
 3736SOL    HW112107   0.538   2.565   0.776
 3736SOL    HW212108   0.520   2.542   0.936
 3737SOL     OW12109   5.076   0.346   3.389
 3737SOL    HW112110   5.049   0.440   3.365
 3737SOL    HW212111   5.174   0.335   3.374
 3738SOL     OW12112   6.891   6.511   2.172
 3738SOL    HW112113   6.877   6.610   2.183
 3738SOL    HW212114   6.923   6.473   2.259
 3739SOL     OW12115   2.635   4.516   1.745
 3739SOL    HW112116   2.718   4.520   1.800
 3739SOL    HW212117   2.572   4.588   1.774
 3740SOL     OW12118   5.709   0.606   0.655
 3740SOL    HW112119   5.675   0.687   0.702
 3740SOL    HW212120   5.809   0.607   0.652
 3741SOL     OW12121   5.088   3.380   0.976
 3741SOL    HW112122   5.052   3.430   0.897
 3741SOL    HW212123   5.075   3.433   1.059
 3742SOL     OW12124   3.157   1.377   6.958
 3742SOL    HW112125   3.079   1.341   7.010
 3742SOL    HW212126   3.179   1.314   6.884
 3743SOL     OW12127   5.399   2.933   1.443
 3743SOL    HW112128   5.339   2.980   1.508
 3743SOL    HW212129   5.366   2.950   1.350
 3744SOL     OW12130   1.231   5.604   3.017
 3744SOL    HW112131   1.292   5.682   3.032
 3744SOL    HW212132   1.190   5.576   3.104
 3745SOL     OW12133   3.830   4.988   1.443
 3745SOL    HW112134   3.814   4.955   1.350
 3745SOL    HW212135   3.775   4.936   1.507
 3746SOL     OW12136   5.469   1.241   2.970
 3746SOL    HW112137   5.451   1.155   2.921
 3746SOL    HW212138   5.433   1.318   2.917
 3747SOL     OW12139   2.661   6.547   5.110
 3747SOL    HW112140   2.615   6.628   5.148
 3747SOL    HW212141   2.744   6.576   5.062
 3748SOL     OW12142   5.926   0.929   0.626
 3748SOL    HW112143   5.865   0.945   0.549
 3748SOL    HW212144   6.011   0.980   0.613
 3749SOL     OW12145   1.647   5.694   3.827
 3749SOL    HW112146   1.611   5.787   3.839
 3749SOL    HW212147   1.575   5.634   3.794
 3750SOL     OW12148   1.166   3.877   0.628
 3750SOL    HW112149   1.086   3.824   0.599
 3750SOL    HW212150   1.249   3.825   0.612
 3751SOL     OW12151   0.268   3.680   1.558
 3751SOL    HW112152   0.321   3.596   1.566
 3751SOL    HW212153   0.259   3.705   1.462
 3752SOL     OW12154   5.128   0.405   6.498
 3752SOL    HW112155   5.049   0.348   6.478
 3752SOL    HW212156   5.136   0.478   6.430
 3753SOL     OW12157   6.326   6.905   4.524
 3753SOL    HW112158   6.377   6.954   4.595
 3753SOL    HW212159   6.281   6.970   4.463
 3754SOL     OW12160   2.470   0.955   1.111
 3754SOL    HW112161   2.494   0.907   1.027
 3754SOL    HW212162   2.466   0.890   1.187
 3755SOL     OW12163   4.874   4.629   5.071
 3755SOL    HW112164   4.864   4.599   4.977
 3755SOL    HW212165   4.792   4.606   5.123
 3756SOL     OW12166   3.023   5.188   6.152
 3756SOL    HW112167   2.970   5.272   6.168
 3756SOL    HW212168   2.966   5.122   6.103
 3757SOL     OW12169   6.175   5.380   0.823
 3757SOL    HW112170   6.197   5.454   0.760
 3757SOL    HW212171   6.159   5.417   0.914
 3758SOL     OW12172   2.657   1.566   4.438
 3758SOL    HW112173   2.693   1.648   4.395
 3758SOL    HW212174   2.576   1.534   4.388
 3759SOL     OW12175   4.353   6.890   6.264
 3759SOL    HW112176   4.298   6.813   6.229
 3759SOL    HW212177   4.424   6.912   6.197
 3760SOL     OW12178   1.124   1.366   4.451
 3760SOL    HW112179   1.098   1.372   4.355
 3760SOL    HW212180   1.144   1.270   4.474
 3761SOL     OW12181   0.217   0.884   5.288
 3761SOL    HW112182   0.236   0.866   5.192
 3761SOL    HW212183   0.124   0.921   5.298
 3762SOL     OW12184   1.584   4.578   0.960
 3762SOL    HW112185   1.664   4.626   0.923
 3762SOL    HW212186   1.613   4.492   1.002
 3763SOL     OW12187   0.425   3.423   7.005
 3763SOL    HW112188   0.491   3.423   0.057
 3763SOL    HW212189   0.425   3.333   6.961
 3764SOL     OW12190   1.562   0.126   2.419
 3764SOL    HW112191   1.534   0.166   2.332
 3764SOL    HW212192   1.492   0.145   2.488
 3765SOL     OW12193   5.001   1.566   1.042
 3765SOL    HW112194   4.950   1.589   1.126
 3765SOL    HW212195   4.999   1.644   0.980
 3766SOL     OW12196   1.880   1.607   4.082
 3766SOL    HW112197   1.934   1.681   4.124
 3766SOL    HW212198   1.783   1.623   4.098
 3767SOL     OW12199   2.561   4.343   0.113
 3767SOL    HW112200   2.489   4.336   0.183
 3767SOL    HW212201   2.591   4.251   0.087
 3768SOL     OW12202   0.549   6.741   4.442
 3768SOL    HW112203   0.488   6.663   4.426
 3768SOL    HW212204   0.498   6.815   4.487
 3769SOL     OW12205   5.902   5.595   4.784
 3769SOL    HW112206   5.932   5.617   4.877
 3769SOL    HW212207   5.854   5.507   4.784
 3770SOL     OW12208   1.191   0.613   6.378
 3770SOL    HW112209   1.152   0.612   6.470
 3770SOL    HW212210   1.119   0.596   6.311
 3771SOL     OW12211   5.021   3.148   0.194
 3771SOL    HW112212   5.071   3.076   0.241
 3771SOL    HW212213   5.085   3.213   0.152
 3772SOL     OW12214   0.389   0.850   0.404
 3772SOL    HW112215   0.472   0.801   0.428
 3772SOL    HW212216   0.410   0.947   0.392
 3773SOL     OW12217   5.831   3.466   5.781
 3773SOL    HW112218   5.772   3.386   5.782
 3773SOL    HW212219   5.872   3.478   5.872
 3774SOL     OW12220   6.083   5.502   1.121
 3774SOL    HW112221   6.124   5.586   1.086
 3774SOL    HW212222   6.007   5.475   1.062
 3775SOL     OW12223   4.713   5.598   2.692
 3775SOL    HW112224   4.646   5.529   2.719
 3775SOL    HW212225   4.799   5.554   2.666
 3776SOL     OW12226   3.926   1.742   6.561
 3776SOL    HW112227   3.875   1.766   6.643
 3776SOL    HW212228   3.945   1.644   6.561
 3777SOL     OW12229   3.335   5.230   3.220
 3777SOL    HW112230   3.235   5.233   3.214
 3777SOL    HW212231   3.365   5.137   3.240
 3778SOL     OW12232   2.893   5.030   2.427
 3778SOL    HW112233   2.948   5.108   2.453
 3778SOL    HW212234   2.890   5.023   2.327
 3779SOL     OW12235   0.616   4.944   0.547
 3779SOL    HW112236   0.651   4.940   0.454
 3779SOL    HW212237   0.684   4.987   0.606
 3780SOL     OW12238   5.726   4.900   4.602
 3780SOL    HW112239   5.762   4.934   4.689
 3780SOL    HW212240   5.802   4.883   4.540
 3781SOL     OW12241   0.521   6.807   4.147
 3781SOL    HW112242   0.570   6.864   4.082
 3781SOL    HW212243   0.543   6.835   4.240
 3782SOL     OW12244   2.427   0.411   2.870
 3782SOL    HW112245   2.470   0.441   2.785
 3782SOL    HW212246   2.452   0.475   2.943
 3783SOL     OW12247   5.872   5.425   3.806
 3783SOL    HW112248   5.943   5.385   3.864
 3783SOL    HW212249   5.783   5.416   3.851
 3784SOL     OW12250   5.234   2.992   2.944
 3784SOL    HW112251   5.188   2.924   3.001
 3784SOL    HW212252   5.176   3.015   2.866
 3785SOL     OW12253   1.855   3.362   5.725
 3785SOL    HW112254   1.763   3.400   5.727
 3785SOL    HW212255   1.872   3.321   5.635
 3786SOL     OW12256   2.528   4.773   3.164
 3786SOL    HW112257   2.608   4.780   3.223
 3786SOL    HW212258   2.464   4.847   3.184
 3787SOL     OW12259   6.554   1.338   2.481
 3787SOL    HW112260   6.509   1.311   2.396
 3787SOL    HW212261   6.566   1.437   2.482
 3788SOL     OW12262   0.201   4.511   5.148
 3788SOL    HW112263   0.133   4.547   5.085
 3788SOL    HW212264   0.172   4.421   5.180
 3789SOL     OW12265   0.214   4.293   4.801
 3789SOL    HW112266   0.282   4.366   4.803
 3789SOL    HW212267   0.261   4.204   4.801
 3790SOL     OW12268   1.200   4.810   5.687
 3790SOL    HW112269   1.280   4.861   5.718
 3790SOL    HW212270   1.127   4.818   5.756
 3791SOL     OW12271   5.311   0.853   6.387
 3791SOL    HW112272   5.252   0.773   6.384
 3791SOL    HW212273   5.268   0.924   6.443
 3792SOL     OW12274   1.040   2.174   3.286
 3792SOL    HW112275   1.002   2.167   3.194
 3792SOL    HW212276   1.116   2.239   3.286
 3793SOL     OW12277   4.423   6.508   2.267
 3793SOL    HW112278   4.495   6.572   2.295
 3793SOL    HW212279   4.450   6.463   2.182
 3794SOL     OW12280   2.118   2.401   1.334
 3794SOL    HW112281   2.186   2.400   1.261
 3794SOL    HW212282   2.027   2.387   1.295
 3795SOL     OW12283   4.919   6.114   1.250
 3795SOL    HW112284   5.004   6.068   1.224
 3795SOL    HW212285   4.939   6.205   1.285
 3796SOL     OW12286   3.958   1.826   2.343
 3796SOL    HW112287   3.935   1.922   2.326
 3796SOL    HW212288   3.908   1.794   2.424
 3797SOL     OW12289   0.833   3.215   2.402
 3797SOL    HW112290   0.798   3.300   2.363
 3797SOL    HW212291   0.886   3.235   2.484
 3798SOL     OW12292   2.423   5.951   3.703
 3798SOL    HW112293   2.350   6.001   3.749
 3798SOL    HW212294   2.398   5.855   3.694
 3799SOL     OW12295   6.463   2.760   3.989
 3799SOL    HW112296   6.421   2.776   3.900
 3799SOL    HW212297   6.550   2.810   3.995
 3800SOL     OW12298   5.457   2.057   4.022
 3800SOL    HW112299   5.378   2.096   3.973
 3800SOL    HW212300   5.443   2.067   4.120
 3801SOL     OW12301   5.935   6.490   1.434
 3801SOL    HW112302   5.990   6.571   1.451
 3801SOL    HW212303   5.948   6.424   1.508
 3802SOL     OW12304   1.724   2.183   1.602
 3802SOL    HW112305   1.638   2.137   1.578
 3802SOL    HW212306   1.801   2.131   1.565
 3803SOL     OW12307   4.170   3.358   2.313
 3803SOL    HW112308   4.110   3.433   2.282
 3803SOL    HW212309   4.258   3.366   2.267
 3804SOL     OW12310   4.817   1.163   3.302
 3804SOL    HW112311   4.837   1.068   3.323
 3804SOL    HW212312   4.887   1.222   3.343
 3805SOL     OW12313   1.669   3.046   1.247
 3805SOL    HW112314   1.744   2.996   1.291
 3805SOL    HW212315   1.582   3.020   1.289
 3806SOL     OW12316   3.838   3.698   5.736
 3806SOL    HW112317   3.914   3.672   5.677
 3806SOL    HW212318   3.866   3.775   5.794
 3807SOL     OW12319   1.862   5.555   2.913
 3807SOL    HW112320   1.775   5.602   2.900
 3807SOL    HW212321   1.890   5.562   3.009
 3808SOL     OW12322   4.458   0.978   0.152
 3808SOL    HW112323   4.430   0.941   0.241
 3808SOL    HW212324   4.440   0.910   0.081
 3809SOL     OW12325   5.287   2.161   1.916
 3809SOL    HW112326   5.361   2.099   1.939
 3809SOL    HW212327   5.217   2.158   1.987
 3810SOL     OW12328   4.984   2.827   3.714
 3810SOL    HW112329   4.967   2.786   3.804
 3810SOL    HW212330   4.986   2.756   3.644
 3811SOL     OW12331   0.214   6.045   4.322
 3811SOL    HW112332   0.123   6.020   4.355
 3811SOL    HW212333   0.213   6.045   4.222
 3812SOL     OW12334   4.603   4.860   5.307
 3812SOL    HW112335   4.573   4.826   5.396
 3812SOL    HW212336   4.616   4.783   5.245
 3813SOL     OW12337   4.683   3.097   0.469
 3813SOL    HW112338   4.589   3.115   0.440
 3813SOL    HW212339   4.700   2.998   0.468
 3814SOL     OW12340   6.232   0.054   5.957
 3814SOL    HW112341   6.205   0.075   6.051
 3814SOL    HW212342   6.153   0.066   5.896
 3815SOL     OW12343   3.503   2.138   1.226
 3815SOL    HW112344   3.498   2.145   1.325
 3815SOL    HW212345   3.594   2.107   1.198
 3816SOL     OW12346   1.024   5.655   6.899
 3816SOL    HW112347   1.074   5.597   6.964
 3816SOL    HW212348   0.949   5.602   6.859
 3817SOL     OW12349   5.074   3.640   2.596
 3817SOL    HW112350   5.085   3.544   2.572
 3817SOL    HW212351   5.128   3.660   2.678
 3818SOL     OW12352   6.477   0.919   6.806
 3818SOL    HW112353   6.390   0.881   6.839
 3818SOL    HW212354   6.553   0.879   6.858
 3819SOL     OW12355   5.624   5.326   2.010
 3819SOL    HW112356   5.603   5.422   2.029
 3819SOL    HW212357   5.552   5.268   2.045
 3820SOL     OW12358   5.248   0.255   3.746
 3820SOL    HW112359   5.226   0.162   3.717
 3820SOL    HW212360   5.346   0.271   3.736
 3821SOL     OW12361   2.349   1.270   2.016
 3821SOL    HW112362   2.417   1.304   1.950
 3821SOL    HW212363   2.288   1.345   2.042
 3822SOL     OW12364   2.484   0.214   0.740
 3822SOL    HW112365   2.495   0.130   0.686
 3822SOL    HW212366   2.419   0.198   0.814
 3823SOL     OW12367   3.095   3.649   6.489
 3823SOL    HW112368   3.141   3.618   6.405
 3823SOL    HW212369   3.000   3.672   6.467
 3824SOL     OW12370   0.650   3.384   0.136
 3824SOL    HW112371   0.614   3.352   0.224
 3824SOL    HW212372   0.743   3.418   0.148
 3825SOL     OW12373   0.313   5.663   0.593
 3825SOL    HW112374   0.394   5.609   0.568
 3825SOL    HW212375   0.283   5.715   0.513
 3826SOL     OW12376   1.063   3.834   0.280
 3826SOL    HW112377   1.012   3.807   0.199
 3826SOL    HW212378   1.006   3.823   0.361
 3827SOL     OW12379   2.078   1.190   1.926
 3827SOL    HW112380   1.992   1.155   1.888
 3827SOL    HW212381   2.150   1.182   1.857
 3828SOL     OW12382   3.564   3.358   3.270
 3828SOL    HW112383   3.489   3.382   3.331
 3828SOL    HW212384   3.645   3.411   3.295
 3829SOL     OW12385   1.645   5.057   2.074
 3829SOL    HW112386   1.601   5.088   1.990
 3829SOL    HW212387   1.744   5.064   2.064
 3830SOL     OW12388   0.590   0.798   5.169
 3830SOL    HW112389   0.537   0.880   5.191
 3830SOL    HW212390   0.625   0.757   5.254
 3831SOL     OW12391   4.830   2.406   2.675
 3831SOL    HW112392   4.803   2.310   2.684
 3831SOL    HW212393   4.752   2.459   2.641
 3832SOL     OW12394   6.435   0.821   2.945
 3832SOL    HW112395   6.359   0.756   2.946
 3832SOL    HW212396   6.462   0.839   2.851
 3833SOL     OW12397   0.500   6.461   6.750
 3833SOL    HW112398   0.430   6.526   6.723
 3833SOL    HW212399   0.550   6.430   6.669
 3834SOL     OW12400   4.006   4.117   1.384
 3834SOL    HW112401   3.998   4.028   1.429
 3834SOL    HW212402   3.956   4.114   1.297
 3835SOL     OW12403   3.967   5.391   4.597
 3835SOL    HW112404   3.886   5.429   4.553
 3835SOL    HW212405   4.044   5.454   4.586
 3836SOL     OW12406   1.011   4.887   6.142
 3836SOL    HW112407   1.016   4.794   6.104
 3836SOL    HW212408   1.036   4.953   6.071
 3837SOL     OW12409   4.542   4.261   6.002
 3837SOL    HW112410   4.523   4.355   5.975
 3837SOL    HW212411   4.504   4.244   6.093
 3838SOL     OW12412   1.147   3.675   4.541
 3838SOL    HW112413   1.078   3.628   4.596
 3838SOL    HW212414   1.165   3.622   4.458
 3839SOL     OW12415   5.690   0.997   3.290
 3839SOL    HW112416   5.688   0.975   3.387
 3839SOL    HW212417   5.734   1.086   3.277
 3840SOL     OW12418   2.592   1.074   6.693
 3840SOL    HW112419   2.647   1.122   6.625
 3840SOL    HW212420   2.644   0.996   6.728
 3841SOL     OW12421   0.103   3.856   4.849
 3841SOL    HW112422   0.090   3.803   4.933
 3841SOL    HW212423   0.195   3.895   4.848
 3842SOL     OW12424   2.619   3.008   1.486
 3842SOL    HW112425   2.555   3.003   1.410
 3842SOL    HW212426   2.710   2.976   1.456
 3843SOL     OW12427   5.814   4.937   2.203
 3843SOL    HW112428   5.745   4.885   2.254
 3843SOL    HW212429   5.868   4.992   2.266
 3844SOL     OW12430   0.982   2.944   5.323
 3844SOL    HW112431   1.054   2.917   5.388
 3844SOL    HW212432   0.922   3.011   5.366
 3845SOL     OW12433   2.741   3.969   5.754
 3845SOL    HW112434   2.722   4.067   5.757
 3845SOL    HW212435   2.673   3.920   5.808
 3846SOL     OW12436   6.773   5.470   3.455
 3846SOL    HW112437   6.873   5.477   3.451
 3846SOL    HW212438   6.736   5.552   3.499
 3847SOL     OW12439   5.216   1.879   3.910
 3847SOL    HW112440   5.187   1.973   3.891
 3847SOL    HW212441   5.228   1.867   4.009
 3848SOL     OW12442   4.690   5.341   2.434
 3848SOL    HW112443   4.637   5.299   2.508
 3848SOL    HW212444   4.638   5.416   2.394
 3849SOL     OW12445   1.351   0.823   6.115
 3849SOL    HW112446   1.326   0.819   6.212
 3849SOL    HW212447   1.350   0.918   6.084
 3850SOL     OW12448   2.596   3.348   1.520
 3850SOL    HW112449   2.583   3.279   1.591
 3850SOL    HW212450   2.510   3.363   1.472
 3851SOL     OW12451   0.979   4.730   2.404
 3851SOL    HW112452   0.946   4.818   2.372
 3851SOL    HW212453   1.078   4.725   2.393
 3852SOL     OW12454   4.036   6.487   3.789
 3852SOL    HW112455   3.962   6.545   3.753
 3852SOL    HW212456   4.120   6.540   3.795
 3853SOL     OW12457   0.763   4.106   3.256
 3853SOL    HW112458   0.862   4.110   3.268
 3853SOL    HW212459   0.734   4.175   3.189
 3854SOL     OW12460   1.650   2.891   2.752
 3854SOL    HW112461   1.675   2.915   2.658
 3854SOL    HW212462   1.616   2.797   2.755
 3855SOL     OW12463   5.789   6.332   6.265
 3855SOL    HW112464   5.757   6.279   6.187
 3855SOL    HW212465   5.712   6.360   6.321
 3856SOL     OW12466   6.888   0.468   5.991
 3856SOL    HW112467   6.826   0.487   5.915
 3856SOL    HW212468   6.873   0.536   6.064
 3857SOL     OW12469   0.007   6.483   0.038
 3857SOL    HW112470   6.935   6.469   0.067
 3857SOL    HW212471   0.060   6.400   0.053
 3858SOL     OW12472   1.690   0.770   5.395
 3858SOL    HW112473   1.744   0.710   5.455
 3858SOL    HW212474   1.597   0.777   5.430
 3859SOL     OW12475   6.299   1.174   2.808
 3859SOL    HW112476   6.222   1.112   2.826
 3859SOL    HW212477   6.349   1.142   2.728
 3860SOL     OW12478   3.167   0.558   5.212
 3860SOL    HW112479   3.080   0.510   5.212
 3860SOL    HW212480   3.242   0.491   5.206
 3861SOL     OW12481   4.321   4.704   3.300
 3861SOL    HW112482   4.293   4.621   3.253
 3861SOL    HW212483   4.404   4.741   3.258
 3862SOL     OW12484   0.419   0.749   4.470
 3862SOL    HW112485   0.468   0.800   4.541
 3862SOL    HW212486   0.374   0.670   4.512
 3863SOL     OW12487   5.378   2.861   6.768
 3863SOL    HW112488   5.390   2.850   6.669
 3863SOL    HW212489   5.400   2.955   6.795
 3864SOL     OW12490   2.581   0.055   5.280
 3864SOL    HW112491   2.663   0.031   5.332
 3864SOL    HW212492   2.606   0.114   5.203
 3865SOL     OW12493   3.087   0.390   0.186
 3865SOL    HW112494   3.131   0.423   0.270
 3865SOL    HW212495   3.047   0.467   0.137
 3866SOL     OW12496   3.529   0.901   1.091
 3866SOL    HW112497   3.525   0.987   1.041
 3866SOL    HW212498   3.461   0.901   1.165
 3867SOL     OW12499   1.198   4.640   3.657
 3867SOL    HW112500   1.250   4.588   3.589
 3867SOL    HW212501   1.105   4.656   3.623
 3868SOL     OW12502   3.186   6.970   0.309
 3868SOL    HW112503   3.228   6.998   0.223
 3868SOL    HW212504   3.089   6.996   0.308
 3869SOL     OW12505   5.619   3.948   4.952
 3869SOL    HW112506   5.558   4.025   4.972
 3869SOL    HW212507   5.564   3.866   4.937
 3870SOL     OW12508   5.450   6.051   6.255
 3870SOL    HW112509   5.486   6.013   6.169
 3870SOL    HW212510   5.423   6.146   6.240
 3871SOL     OW12511   3.692   0.533   3.091
 3871SOL    HW112512   3.704   0.473   3.170
 3871SOL    HW212513   3.614   0.594   3.107
 3872SOL     OW12514   3.861   2.961   3.973
 3872SOL    HW112515   3.790   2.917   4.027
 3872SOL    HW212516   3.896   3.040   4.022
 3873SOL     OW12517   5.995   2.957   1.271
 3873SOL    HW112518   5.971   3.034   1.330
 3873SOL    HW212519   5.946   2.875   1.302
 3874SOL     OW12520   4.203   5.923   0.333
 3874SOL    HW112521   4.146   5.875   0.266
 3874SOL    HW212522   4.252   5.856   0.389
 3875SOL     OW12523   2.006   2.763   1.894
 3875SOL    HW112524   1.957   2.708   1.961
 3875SOL    HW212525   1.950   2.841   1.867
 3876SOL     OW12526   4.370   5.283   0.883
 3876SOL    HW112527   4.427   5.302   0.803
 3876SOL    HW212528   4.326   5.193   0.872
 3877SOL     OW12529   6.109   3.118   0.474
 3877SOL    HW112530   6.127   3.024   0.444
 3877SOL    HW212531   6.100   3.120   0.574
 3878SOL     OW12532   3.697   6.920   4.604
 3878SOL    HW112533   3.709   6.943   4.507
 3878SOL    HW212534   3.729   6.827   4.620
 3879SOL     OW12535   5.011   5.479   1.659
 3879SOL    HW112536   5.031   5.461   1.563
 3879SOL    HW212537   4.962   5.402   1.699
 3880SOL     OW12538   6.101   4.967   3.788
 3880SOL    HW112539   6.133   4.907   3.714
 3880SOL    HW212540   6.001   4.969   3.788
 3881SOL     OW12541   0.935   3.978   1.537
 3881SOL    HW112542   1.012   3.921   1.563
 3881SOL    HW212543   0.932   4.059   1.596
 3882SOL     OW12544   0.949   1.533   5.339
 3882SOL    HW112545   0.856   1.547   5.371
 3882SOL    HW212546   0.987   1.620   5.309
 3883SOL     OW12547   4.030   1.017   3.828
 3883SOL    HW112548   4.091   1.078   3.879
 3883SOL    HW212549   4.032   0.926   3.869
 3884SOL     OW12550   0.361   5.362   3.447
 3884SOL    HW112551   0.414   5.390   3.367
 3884SOL    HW212552   0.399   5.406   3.529
 3885SOL     OW12553   6.697   0.648   2.459
 3885SOL    HW112554   6.642   0.634   2.541
 3885SOL    HW212555   6.678   0.575   2.394
 3886SOL     OW12556   6.383   6.036   4.917
 3886SOL    HW112557   6.470   6.075   4.887
 3886SOL    HW212558   6.361   5.957   4.861
 3887SOL     OW12559   0.702   0.440   6.369
 3887SOL    HW112560   0.637   0.374   6.406
 3887SOL    HW212561   0.692   0.527   6.418
 3888SOL     OW12562   6.593   0.022   5.409
 3888SOL    HW112563   6.640   6.977   5.352
 3888SOL    HW212564   6.639   0.111   5.399
 3889SOL     OW12565   6.700   3.093   5.813
 3889SOL    HW112566   6.616   3.139   5.843
 3889SOL    HW212567   6.692   2.995   5.828
 3890SOL     OW12568   5.473   5.786   3.040
 3890SOL    HW112569   5.499   5.881   3.019
 3890SOL    HW212570   5.386   5.785   3.088
 3891SOL     OW12571   6.050   4.296   4.642
 3891SOL    HW112572   6.076   4.276   4.737
 3891SOL    HW212573   5.973   4.237   4.616
 3892SOL     OW12574   0.003   2.170   1.168
 3892SOL    HW112575   6.997   2.201   1.258
 3892SOL    HW212576   0.102   2.156   1.167
 3893SOL     OW12577   4.044   4.395   1.110
 3893SOL    HW112578   4.005   4.486   1.097
 3893SOL    HW212579   4.127   4.401   1.165
 3894SOL     OW12580   3.218   2.783   1.114
 3894SOL    HW112581   3.307   2.746   1.140
 3894SOL    HW212582   3.161   2.710   1.077
 3895SOL     OW12583   1.295   0.296   5.651
 3895SOL    HW112584   1.287   0.198   5.632
 3895SOL    HW212585   1.386   0.316   5.686
 3896SOL     OW12586   0.113   1.383   6.062
 3896SOL    HW112587   0.187   1.319   6.040
 3896SOL    HW212588   0.025   1.343   6.035
 3897SOL     OW12589   3.616   5.999   2.380
 3897SOL    HW112590   3.518   6.018   2.390
 3897SOL    HW212591   3.631   5.946   2.297
 3898SOL     OW12592   3.666   3.565   4.238
 3898SOL    HW112593   3.723   3.641   4.271
 3898SOL    HW212594   3.723   3.483   4.230
 3899SOL     OW12595   5.483   0.662   3.948
 3899SOL    HW112596   5.529   0.666   3.859
 3899SOL    HW212597   5.458   0.755   3.976
 3900SOL     OW12598   5.315   2.626   3.765
 3900SOL    HW112599   5.324   2.581   3.676
 3900SOL    HW212600   5.400   2.672   3.788
 3901SOL     OW12601   2.953   6.599   5.073
 3901SOL    HW112602   2.913   6.545   5.148
 3901SOL    HW212603   3.037   6.555   5.042
 3902SOL     OW12604   6.137   3.966   2.343
 3902SOL    HW112605   6.147   4.065   2.330
 3902SOL    HW212606   6.046   3.945   2.377
 3903SOL     OW12607   4.606   5.210   0.501
 3903SOL    HW112608   4.670   5.136   0.480
 3903SOL    HW212609   4.516   5.188   0.465
 3904SOL     OW12610   1.769   6.580   5.336
 3904SOL    HW112611   1.681   6.625   5.319
 3904SOL    HW212612   1.755   6.481   5.342
 3905SOL     OW12613   6.045   0.249   5.637
 3905SOL    HW112614   6.072   0.258   5.541
 3905SOL    HW212615   6.085   0.324   5.690
 3906SOL     OW12616   3.164   5.079   5.328
 3906SOL    HW112617   3.156   5.175   5.299
 3906SOL    HW212618   3.078   5.049   5.369
 3907SOL     OW12619   6.571   6.729   5.490
 3907SOL    HW112620   6.531   6.653   5.440
 3907SOL    HW212621   6.671   6.723   5.488
 3908SOL     OW12622   1.416   0.722   0.454
 3908SOL    HW112623   1.459   0.724   0.364
 3908SOL    HW212624   1.331   0.775   0.452
 3909SOL     OW12625   0.957   5.307   5.644
 3909SOL    HW112626   1.042   5.320   5.694
 3909SOL    HW212627   0.930   5.394   5.601
 3910SOL     OW12628   3.765   3.913   2.306
 3910SOL    HW112629   3.791   3.822   2.273
 3910SOL    HW212630   3.693   3.950   2.248
 3911SOL     OW12631   4.132   1.539   7.012
 3911SOL    HW112632   4.223   1.547   6.972
 3911SOL    HW212633   4.141   1.508   0.084
 3912SOL     OW12634   3.400   0.771   6.452
 3912SOL    HW112635   3.302   0.793   6.445
 3912SOL    HW212636   3.453   0.855   6.444
 3913SOL     OW12637   2.706   5.750   6.607
 3913SOL    HW112638   2.638   5.701   6.552
 3913SOL    HW212639   2.768   5.684   6.650
 3914SOL     OW12640   3.810   0.902   1.117
 3914SOL    HW112641   3.867   0.830   1.158
 3914SOL    HW212642   3.715   0.889   1.143
 3915SOL     OW12643   4.304   6.239   1.600
 3915SOL    HW112644   4.310   6.338   1.610
 3915SOL    HW212645   4.340   6.195   1.682
 3916SOL     OW12646   1.656   6.359   2.868
 3916SOL    HW112647   1.637   6.297   2.792
 3916SOL    HW212648   1.754   6.370   2.879
 3917SOL     OW12649   0.976   5.113   0.199
 3917SOL    HW112650   0.954   5.160   0.113
 3917SOL    HW212651   1.005   5.019   0.179
 3918SOL     OW12652   4.556   6.356   2.058
 3918SOL    HW112653   4.532   6.404   1.974
 3918SOL    HW212654   4.650   6.379   2.084
 3919SOL     OW12655   3.186   6.686   6.499
 3919SOL    HW112656   3.275   6.715   6.463
 3919SOL    HW212657   3.117   6.694   6.428
 3920SOL     OW12658   2.868   1.990   6.832
 3920SOL    HW112659   2.943   2.048   6.863
 3920SOL    HW212660   2.895   1.942   6.748
 3921SOL     OW12661   0.587   3.015   0.268
 3921SOL    HW112662   0.583   2.916   0.252
 3921SOL    HW212663   0.510   3.060   0.224
 3922SOL     OW12664   5.449   4.902   0.761
 3922SOL    HW112665   5.402   4.818   0.734
 3922SOL    HW212666   5.543   4.899   0.729
 3923SOL     OW12667   6.049   1.859   0.067
 3923SOL    HW112668   5.969   1.911   0.037
 3923SOL    HW212669   6.020   1.767   0.096
 3924SOL     OW12670   0.518   5.317   2.996
 3924SOL    HW112671   0.519   5.326   3.096
 3924SOL    HW212672   0.434   5.271   2.968
 3925SOL     OW12673   4.329   4.529   0.978
 3925SOL    HW112674   4.279   4.563   0.898
 3925SOL    HW212675   4.353   4.432   0.964
 3926SOL     OW12676   6.858   6.418   3.341
 3926SOL    HW112677   6.916   6.355   3.395
 3926SOL    HW212678   6.812   6.367   3.269
 3927SOL     OW12679   6.701   3.902   4.713
 3927SOL    HW112680   6.665   3.975   4.770
 3927SOL    HW212681   6.795   3.923   4.687
 3928SOL     OW12682   3.377   5.251   4.561
 3928SOL    HW112683   3.290   5.214   4.528
 3928SOL    HW212684   3.430   5.177   4.605
 3929SOL     OW12685   0.140   2.263   6.711
 3929SOL    HW112686   0.170   2.325   6.639
 3929SOL    HW212687   0.069   2.202   6.676
 3930SOL     OW12688   1.593   2.334   3.836
 3930SOL    HW112689   1.514   2.277   3.814
 3930SOL    HW212690   1.675   2.278   3.842
 3931SOL     OW12691   2.543   1.758   2.919
 3931SOL    HW112692   2.469   1.696   2.895
 3931SOL    HW212693   2.544   1.773   3.018
 3932SOL     OW12694   1.695   4.225   3.452
 3932SOL    HW112695   1.765   4.295   3.465
 3932SOL    HW212696   1.609   4.268   3.426
 3933SOL     OW12697   2.000   6.464   6.494
 3933SOL    HW112698   2.089   6.467   6.449
 3933SOL    HW212699   1.947   6.545   6.468
 3934SOL     OW12700   0.472   1.526   1.426
 3934SOL    HW112701   0.500   1.430   1.435
 3934SOL    HW212702   0.378   1.536   1.457
 3935SOL     OW12703   1.914   0.425   5.057
 3935SOL    HW112704   1.874   0.366   5.126
 3935SOL    HW212705   1.842   0.461   4.997
 3936SOL     OW12706   0.094   5.924   5.545
 3936SOL    HW112707   0.068   5.833   5.577
 3936SOL    HW212708   0.012   5.980   5.532
 3937SOL     OW12709   0.539   0.042   2.644
 3937SOL    HW112710   0.551   0.018   2.548
 3937SOL    HW212711   0.445   0.022   2.672
 3938SOL     OW12712   6.473   3.210   3.917
 3938SOL    HW112713   6.414   3.145   3.965
 3938SOL    HW212714   6.566   3.175   3.915
 3939SOL     OW12715   3.239   1.644   2.963
 3939SOL    HW112716   3.271   1.641   3.057
 3939SOL    HW212717   3.275   1.727   2.919
 3940SOL     OW12718   3.679   4.997   2.031
 3940SOL    HW112719   3.620   4.918   2.017
 3940SOL    HW212720   3.754   4.972   2.093
 3941SOL     OW12721   6.261   1.074   5.157
 3941SOL    HW112722   6.190   1.042   5.221
 3941SOL    HW212723   6.241   1.168   5.130
 3942SOL     OW12724   0.720   6.320   5.428
 3942SOL    HW112725   0.738   6.411   5.390
 3942SOL    HW212726   0.761   6.251   5.369
 3943SOL     OW12727   0.663   3.242   2.706
 3943SOL    HW112728   0.608   3.256   2.789
 3943SOL    HW212729   0.760   3.244   2.730
 3944SOL     OW12730   5.448   3.679   5.365
 3944SOL    HW112731   5.469   3.727   5.449
 3944SOL    HW212732   5.366   3.717   5.324
 3945SOL     OW12733   1.086   2.386   2.611
 3945SOL    HW112734   1.010   2.413   2.551
 3945SOL    HW212735   1.093   2.287   2.613
 3946SOL     OW12736   6.097   4.402   5.796
 3946SOL    HW112737   6.112   4.314   5.751
 3946SOL    HW212738   6.184   4.441   5.823
 3947SOL     OW12739   6.160   5.595   1.421
 3947SOL    HW112740   6.256   5.615   1.401
 3947SOL    HW212741   6.142   5.609   1.518
 3948SOL     OW12742   0.410   4.788   0.575
 3948SOL    HW112743   0.489   4.844   0.599
 3948SOL    HW212744   0.342   4.793   0.648
 3949SOL     OW12745   5.410   0.084   2.959
 3949SOL    HW112746   5.366   0.174   2.960
 3949SOL    HW212747   5.343   0.013   2.980
 3950SOL     OW12748   3.177   4.043   1.469
 3950SOL    HW112749   3.163   4.035   1.567
 3950SOL    HW212750   3.092   4.023   1.421
 3951SOL     OW12751   0.251   0.368   6.757
 3951SOL    HW112752   0.162   0.378   6.803
 3951SOL    HW212753   0.241   0.391   6.660
 3952SOL     OW12754   5.924   3.510   4.620
 3952SOL    HW112755   5.935   3.554   4.530
 3952SOL    HW212756   5.847   3.551   4.668
 3953SOL     OW12757   3.390   4.365   0.213
 3953SOL    HW112758   3.404   4.463   0.197
 3953SOL    HW212759   3.396   4.347   0.311
 3954SOL     OW12760   5.870   5.605   5.497
 3954SOL    HW112761   5.921   5.668   5.555
 3954SOL    HW212762   5.844   5.524   5.550
 3955SOL     OW12763   4.629   6.831   6.935
 3955SOL    HW112764   4.599   6.918   6.976
 3955SOL    HW212765   4.627   6.759   7.004
 3956SOL     OW12766   1.166   1.920   3.737
 3956SOL    HW112767   1.224   2.001   3.727
 3956SOL    HW212768   1.119   1.924   3.825
 3957SOL     OW12769   4.151   6.899   3.229
 3957SOL    HW112770   4.236   6.927   3.274
 3957SOL    HW212771   4.156   6.921   3.131
 3958SOL     OW12772   5.340   0.411   6.169
 3958SOL    HW112773   5.368   0.449   6.257
 3958SOL    HW212774   5.253   0.363   6.180
 3959SOL     OW12775   3.739   6.937   0.538
 3959SOL    HW112776   3.643   6.915   0.520
 3959SOL    HW212777   3.794   6.912   0.459
 3960SOL     OW12778   5.500   1.874   6.077
 3960SOL    HW112779   5.530   1.959   6.034
 3960SOL    HW212780   5.510   1.881   6.176
 3961SOL     OW12781   5.595   2.712   2.145
 3961SOL    HW112782   5.529   2.787   2.151
 3961SOL    HW212783   5.682   2.747   2.112
 3962SOL     OW12784   1.804   5.301   6.689
 3962SOL    HW112785   1.856   5.269   6.610
 3962SOL    HW212786   1.844   5.386   6.723
 3963SOL     OW12787   4.607   4.464   3.612
 3963SOL    HW112788   4.611   4.492   3.516
 3963SOL    HW212789   4.516   4.484   3.648
 3964SOL     OW12790   4.539   4.795   5.021
 3964SOL    HW112791   4.505   4.747   4.940
 3964SOL    HW212792   4.541   4.893   5.004
 3965SOL     OW12793   4.122   3.488   6.417
 3965SOL    HW112794   4.157   3.573   6.378
 3965SOL    HW212795   4.063   3.442   6.350
 3966SOL     OW12796   6.493   5.129   0.258
 3966SOL    HW112797   6.426   5.191   0.300
 3966SOL    HW212798   6.581   5.140   0.304
 3967SOL     OW12799   1.668   4.595   2.633
 3967SOL    HW112800   1.723   4.591   2.717
 3967SOL    HW212801   1.574   4.620   2.656
 3968SOL     OW12802   0.072   0.507   1.023
 3968SOL    HW112803   0.164   0.468   1.013
 3968SOL    HW212804   0.059   0.538   1.117
 3969SOL     OW12805   1.106   3.479   2.871
 3969SOL    HW112806   1.153   3.409   2.817
 3969SOL    HW212807   1.171   3.552   2.894
 3970SOL     OW12808   4.932   4.939   3.685
 3970SOL    HW112809   4.914   4.859   3.628
 3970SOL    HW212810   4.971   4.910   3.772
 3971SOL     OW12811   2.555   5.058   2.561
 3971SOL    HW112812   2.649   5.072   2.529
 3971SOL    HW212813   2.553   4.979   2.622
 3972SOL     OW12814   1.224   5.057   1.788
 3972SOL    HW112815   1.213   4.959   1.777
 3972SOL    HW212816   1.193   5.084   1.879
 3973SOL     OW12817   2.117   4.259   5.949
 3973SOL    HW112818   2.130   4.312   5.865
 3973SOL    HW212819   2.028   4.213   5.945
 3974SOL     OW12820   1.415   0.043   5.666
 3974SOL    HW112821   1.464   0.111   5.721
 3974SOL    HW212822   1.377   6.996   5.727
 3975SOL     OW12823   5.421   0.533   6.415
 3975SOL    HW112824   5.381   0.583   6.492
 3975SOL    HW212825   5.518   0.518   6.432
 3976SOL     OW12826   1.671   5.097   1.507
 3976SOL    HW112827   1.586   5.050   1.484
 3976SOL    HW212828   1.736   5.032   1.546
 3977SOL     OW12829   3.088   4.103   5.160
 3977SOL    HW112830   2.999   4.146   5.176
 3977SOL    HW212831   3.160   4.172   5.167
 3978SOL     OW12832   5.624   0.322   4.762
 3978SOL    HW112833   5.701   0.347   4.703
 3978SOL    HW212834   5.541   0.366   4.728
 3979SOL     OW12835   2.330   6.136   1.534
 3979SOL    HW112836   2.358   6.044   1.505
 3979SOL    HW212837   2.280   6.130   1.620
 3980SOL     OW12838   6.827   4.257   6.583
 3980SOL    HW112839   6.906   4.317   6.575
 3980SOL    HW212840   6.801   4.223   6.493
 3981SOL     OW12841   1.888   1.797   6.270
 3981SOL    HW112842   1.842   1.885   6.287
 3981SOL    HW212843   1.947   1.775   6.348
 3982SOL     OW12844   1.775   0.895   4.409
 3982SOL    HW112845   1.743   0.887   4.315
 3982SOL    HW212846   1.861   0.846   4.419
 3983SOL     OW12847   4.162   5.531   3.848
 3983SOL    HW112848   4.204   5.479   3.922
 3983SOL    HW212849   4.107   5.605   3.886
 3984SOL     OW12850   1.417   0.772   2.666
 3984SOL    HW112851   1.404   0.791   2.569
 3984SOL    HW212852   1.505   0.727   2.680
 3985SOL     OW12853   3.017   4.679   6.917
 3985SOL    HW112854   2.997   4.583   6.938
 3985SOL    HW212855   3.029   4.730   7.002
 3986SOL     OW12856   0.186   2.329   2.986
 3986SOL    HW112857   0.088   2.323   3.002
 3986SOL    HW212858   0.235   2.323   3.073
 3987SOL     OW12859   2.501   6.113   4.411
 3987SOL    HW112860   2.512   6.163   4.325
 3987SOL    HW212861   2.441   6.164   4.472
 3988SOL     OW12862   3.283   2.881   6.406
 3988SOL    HW112863   3.202   2.848   6.455
 3988SOL    HW212864   3.310   2.813   6.338
 3989SOL     OW12865   6.309   1.853   0.552
 3989SOL    HW112866   6.366   1.846   0.470
 3989SOL    HW212867   6.260   1.767   0.566
 3990SOL     OW12868   5.856   1.611   3.736
 3990SOL    HW112869   5.761   1.628   3.713
 3990SOL    HW212870   5.861   1.537   3.803
 3991SOL     OW12871   5.907   1.912   2.176
 3991SOL    HW112872   5.974   1.978   2.209
 3991SOL    HW212873   5.938   1.875   2.088
 3992SOL     OW12874   3.939   2.317   6.612
 3992SOL    HW112875   3.840   2.321   6.606
 3992SOL    HW212876   3.975   2.264   6.534
 3993SOL     OW12877   0.536   2.489   3.198
 3993SOL    HW112878   0.453   2.543   3.189
 3993SOL    HW212879   0.615   2.550   3.201
 3994SOL     OW12880   0.804   2.586   5.814
 3994SOL    HW112881   0.707   2.607   5.800
 3994SOL    HW212882   0.823   2.580   5.912
 3995SOL     OW12883   2.138   3.310   4.277
 3995SOL    HW112884   2.154   3.218   4.242
 3995SOL    HW212885   2.098   3.366   4.205
 3996SOL     OW12886   0.891   1.144   4.578
 3996SOL    HW112887   0.978   1.124   4.534
 3996SOL    HW212888   0.818   1.093   4.532
 3997SOL     OW12889   4.881   3.230   2.590
 3997SOL    HW112890   4.947   3.298   2.557
 3997SOL    HW212891   4.817   3.208   2.516
 3998SOL     OW12892   4.878   1.161   2.594
 3998SOL    HW112893   4.812   1.109   2.539
 3998SOL    HW212894   4.959   1.104   2.610
 3999SOL     OW12895   5.165   3.549   3.575
 3999SOL    HW112896   5.236   3.485   3.604
 3999SOL    HW212897   5.195   3.643   3.595
 4000SOL     OW12898   3.107   5.295   2.728
 4000SOL    HW112899   3.182   5.238   2.694
 4000SOL    HW212900   3.129   5.324   2.821
 4001SOL     OW12901   1.496   2.079   3.979
 4001SOL    HW112902   1.446   2.088   3.893
 4001SOL    HW212903   1.564   2.006   3.971
 4002SOL     OW12904   2.837   3.271   0.371
 4002SOL    HW112905   2.816   3.194   0.431
 4002SOL    HW212906   2.833   3.356   0.424
 4003SOL     OW12907   2.943   6.818   5.239
 4003SOL    HW112908   3.018   6.812   5.305
 4003SOL    HW212909   2.950   6.743   5.174
 4004SOL     OW12910   6.566   2.501   4.074
 4004SOL    HW112911   6.593   2.440   4.000
 4004SOL    HW212912   6.504   2.571   4.039
 4005SOL     OW12913   5.057   5.172   0.931
 4005SOL    HW112914   5.154   5.147   0.935
 4005SOL    HW212915   5.009   5.112   0.867
 4006SOL     OW12916   4.297   4.984   1.824
 4006SOL    HW112917   4.269   4.917   1.893
 4006SOL    HW212918   4.356   4.939   1.756
 4007SOL     OW12919   0.640   3.079   1.708
 4007SOL    HW112920   0.603   3.062   1.799
 4007SOL    HW212921   0.565   3.087   1.642
 4008SOL     OW12922   3.145   1.560   3.962
 4008SOL    HW112923   3.119   1.628   4.031
 4008SOL    HW212924   3.220   1.596   3.906
 4009SOL     OW12925   4.747   2.801   0.536
 4009SOL    HW112926   4.828   2.797   0.477
 4009SOL    HW212927   4.768   2.763   0.626
 4010SOL     OW12928   1.846   3.596   1.066
 4010SOL    HW112929   1.906   3.517   1.056
 4010SOL    HW212930   1.865   3.641   1.153
 4011SOL     OW12931   1.089   0.690   1.386
 4011SOL    HW112932   1.082   0.605   1.333
 4011SOL    HW212933   1.108   0.668   1.482
 4012SOL     OW12934   4.481   4.851   1.655
 4012SOL    HW112935   4.567   4.839   1.705
 4012SOL    HW212936   4.440   4.761   1.638
 4013SOL     OW12937   2.806   0.479   1.063
 4013SOL    HW112938   2.785   0.530   0.979
 4013SOL    HW212939   2.765   0.388   1.057
 4014SOL     OW12940   4.362   6.054   3.463
 4014SOL    HW112941   4.376   5.999   3.546
 4014SOL    HW212942   4.266   6.049   3.436
 4015SOL     OW12943   4.297   5.715   6.638
 4015SOL    HW112944   4.266   5.621   6.652
 4015SOL    HW212945   4.397   5.717   6.630
 4016SOL     OW12946   1.406   5.672   6.734
 4016SOL    HW112947   1.334   5.679   6.666
 4016SOL    HW212948   1.367   5.644   6.822
 4017SOL     OW12949   0.308   6.977   6.767
 4017SOL    HW112950   0.220   6.974   6.815
 4017SOL    HW212951   0.306   6.911   6.691
 4018SOL     OW12952   6.018   6.627   2.235
 4018SOL    HW112953   5.951   6.596   2.302
 4018SOL    HW212954   5.974   6.638   2.146
 4019SOL     OW12955   5.467   3.812   1.999
 4019SOL    HW112956   5.443   3.761   2.081
 4019SOL    HW212957   5.567   3.815   1.990
 4020SOL     OW12958   5.898   2.249   6.009
 4020SOL    HW112959   5.851   2.337   6.011
 4020SOL    HW212960   5.958   2.246   5.929
 4021SOL     OW12961   2.890   3.541   5.390
 4021SOL    HW112962   2.812   3.562   5.449
 4021SOL    HW212963   2.914   3.621   5.336
 4022SOL     OW12964   3.990   0.464   0.176
 4022SOL    HW112965   4.052   0.498   0.247
 4022SOL    HW212966   4.011   0.508   0.089
 4023SOL     OW12967   6.759   1.141   4.155
 4023SOL    HW112968   6.752   1.145   4.055
 4023SOL    HW212969   6.856   1.133   4.181
 4024SOL     OW12970   2.798   5.369   4.468
 4024SOL    HW112971   2.762   5.333   4.382
 4024SOL    HW212972   2.873   5.431   4.449
 4025SOL     OW12973   0.629   5.773   5.109
 4025SOL    HW112974   0.725   5.791   5.086
 4025SOL    HW212975   0.570   5.805   5.035
 4026SOL     OW12976   6.566   6.668   3.883
 4026SOL    HW112977   6.471   6.638   3.874
 4026SOL    HW212978   6.572   6.742   3.950
 4027SOL     OW12979   3.023   3.686   1.896
 4027SOL    HW112980   3.059   3.694   1.989
 4027SOL    HW212981   3.097   3.661   1.834
 4028SOL     OW12982   2.029   2.694   3.251
 4028SOL    HW112983   2.041   2.668   3.155
 4028SOL    HW212984   2.005   2.791   3.257
 4029SOL     OW12985   2.691   4.448   6.855
 4029SOL    HW112986   2.617   4.463   6.921
 4029SOL    HW212987   2.706   4.532   6.802
 4030SOL     OW12988   1.408   1.581   6.895
 4030SOL    HW112989   1.435   1.501   6.949
 4030SOL    HW212990   1.333   1.628   6.941
 4031SOL     OW12991   4.724   6.402   3.267
 4031SOL    HW112992   4.801   6.359   3.314
 4031SOL    HW212993   4.642   6.347   3.279
 4032SOL     OW12994   6.431   0.130   3.125
 4032SOL    HW112995   6.451   0.032   3.121
 4032SOL    HW212996   6.439   0.169   3.034
 4033SOL     OW12997   3.165   3.202   2.258
 4033SOL    HW112998   3.077   3.250   2.264
 4033SOL    HW212999   3.197   3.204   2.163
 4034SOL     OW13000   6.600   1.771   5.022
 4034SOL    HW113001   6.688   1.740   4.986
 4034SOL    HW213002   6.557   1.696   5.073
 4035SOL     OW13003   0.185   2.639   0.817
 4035SOL    HW113004   0.256   2.672   0.755
 4035SOL    HW213005   0.145   2.716   0.866
 4036SOL     OW13006   4.963   6.773   2.455
 4036SOL    HW113007   4.889   6.838   2.470
 4036SOL    HW213008   5.037   6.817   2.404
 4037SOL     OW13009   1.973   1.790   0.776
 4037SOL    HW113010   1.982   1.823   0.870
 4037SOL    HW213011   1.910   1.713   0.774
 4038SOL     OW13012   4.476   4.544   1.909
 4038SOL    HW113013   4.395   4.577   1.958
 4038SOL    HW213014   4.493   4.448   1.935
 4039SOL     OW13015   4.920   4.792   1.491
 4039SOL    HW113016   4.937   4.719   1.557
 4039SOL    HW213017   5.008   4.830   1.460
 4040SOL     OW13018   2.863   0.215   5.859
 4040SOL    HW113019   2.784   0.167   5.821
 4040SOL    HW213020   2.912   0.262   5.786
 4041SOL     OW13021   2.407   5.857   1.557
 4041SOL    HW113022   2.491   5.816   1.522
 4041SOL    HW213023   2.339   5.786   1.574
 4042SOL     OW13024   6.279   5.190   2.618
 4042SOL    HW113025   6.358   5.245   2.592
 4042SOL    HW213026   6.263   5.200   2.717
 4043SOL     OW13027   5.059   2.191   4.098
 4043SOL    HW113028   5.104   2.201   4.186
 4043SOL    HW213029   4.962   2.171   4.112
 4044SOL     OW13030   5.180   0.381   3.968
 4044SOL    HW113031   5.090   0.350   3.998
 4044SOL    HW213032   5.200   0.344   3.877
 4045SOL     OW13033   2.899   5.030   6.616
 4045SOL    HW113034   2.950   4.960   6.566
 4045SOL    HW213035   2.807   4.998   6.635
 4046SOL     OW13036   0.645   1.172   3.812
 4046SOL    HW113037   0.552   1.208   3.818
 4046SOL    HW213038   0.649   1.083   3.858
 4047SOL     OW13039   2.669   2.619   0.767
 4047SOL    HW113040   2.693   2.529   0.729
 4047SOL    HW213041   2.594   2.658   0.715
 4048SOL     OW13042   5.548   1.263   2.664
 4048SOL    HW113043   5.534   1.330   2.737
 4048SOL    HW213044   5.587   1.308   2.585
 4049SOL     OW13045   6.292   6.028   0.181
 4049SOL    HW113046   6.369   6.091   0.187
 4049SOL    HW213047   6.207   6.079   0.171
 4050SOL     OW13048   2.164   6.524   0.643
 4050SOL    HW113049   2.090   6.456   0.647
 4050SOL    HW213050   2.150   6.593   0.715
 4051SOL     OW13051   3.467   3.214   0.047
 4051SOL    HW113052   3.467   3.293   7.008
 4051SOL    HW213053   3.532   3.231   0.121
 4052SOL     OW13054   6.975   0.533   1.994
 4052SOL    HW113055   6.949   0.450   2.044
 4052SOL    HW213056   6.910   0.549   1.921
 4053SOL     OW13057   3.125   5.288   3.761
 4053SOL    HW113058   3.138   5.267   3.858
 4053SOL    HW213059   3.213   5.285   3.714
 4054SOL     OW13060   0.915   2.874   1.374
 4054SOL    HW113061   0.911   2.862   1.275
 4054SOL    HW213062   0.993   2.932   1.397
 4055SOL     OW13063   3.737   3.449   5.896
 4055SOL    HW113064   3.764   3.517   5.964
 4055SOL    HW213065   3.710   3.495   5.811
 4056SOL     OW13066   3.796   3.138   0.453
 4056SOL    HW113067   3.865   3.210   0.461
 4056SOL    HW213068   3.839   3.053   0.422
 4057SOL     OW13069   5.212   1.938   1.279
 4057SOL    HW113070   5.117   1.915   1.259
 4057SOL    HW213071   5.261   1.955   1.194
 4058SOL     OW13072   1.418   0.822   4.686
 4058SOL    HW113073   1.435   0.765   4.766
 4058SOL    HW213074   1.505   0.861   4.655
 4059SOL     OW13075   1.021   2.878   3.555
 4059SOL    HW113076   0.970   2.820   3.492
 4059SOL    HW213077   1.113   2.895   3.519
 4060SOL     OW13078   4.929   5.911   4.696
 4060SOL    HW113079   5.004   5.935   4.758
 4060SOL    HW213080   4.905   5.815   4.710
 4061SOL     OW13081   3.355   4.961   1.807
 4061SOL    HW113082   3.349   5.040   1.869
 4061SOL    HW213083   3.432   4.903   1.834
 4062SOL     OW13084   3.199   1.914   2.810
 4062SOL    HW113085   3.295   1.898   2.786
 4062SOL    HW213086   3.141   1.851   2.760
 4063SOL     OW13087   5.402   6.798   5.318
 4063SOL    HW113088   5.307   6.812   5.290
 4063SOL    HW213089   5.429   6.703   5.298
 4064SOL     OW13090   1.704   6.550   3.469
 4064SOL    HW113091   1.771   6.618   3.499
 4064SOL    HW213092   1.657   6.583   3.387
 4065SOL     OW13093   0.830   6.650   0.474
 4065SOL    HW113094   0.813   6.707   0.555
 4065SOL    HW213095   0.925   6.621   0.473
 4066SOL     OW13096   5.253   5.244   2.784
 4066SOL    HW113097   5.292   5.334   2.768
 4066SOL    HW213098   5.321   5.174   2.762
 4067SOL     OW13099   6.214   2.847   2.170
 4067SOL    HW113100   6.268   2.799   2.101
 4067SOL    HW213101   6.228   2.805   2.259
 4068SOL     OW13102   3.379   0.900   4.289
 4068SOL    HW113103   3.361   0.808   4.325
 4068SOL    HW213104   3.361   0.968   4.361
 4069SOL     OW13105   4.029   4.279   6.326
 4069SOL    HW113106   4.066   4.354   6.270
 4069SOL    HW213107   3.947   4.310   6.373
 4070SOL     OW13108   0.957   3.227   2.644
 4070SOL    HW113109   0.961   3.236   2.743
 4070SOL    HW213110   1.050   3.226   2.607
 4071SOL     OW13111   1.192   0.500   5.134
 4071SOL    HW113112   1.248   0.527   5.212
 4071SOL    HW213113   1.108   0.554   5.133
 4072SOL     OW13114   0.845   5.959   4.321
 4072SOL    HW113115   0.785   5.955   4.401
 4072SOL    HW213116   0.911   6.033   4.332
 4073SOL     OW13117   2.308   5.741   6.476
 4073SOL    HW113118   2.244   5.671   6.442
 4073SOL    HW213119   2.315   5.815   6.409
 4074SOL     OW13120   0.743   2.741   2.191
 4074SOL    HW113121   0.737   2.840   2.204
 4074SOL    HW213122   0.778   2.699   2.275
 4075SOL     OW13123   4.211   2.235   2.263
 4075SOL    HW113124   4.206   2.304   2.191
 4075SOL    HW213125   4.201   2.144   2.223
 4076SOL     OW13126   2.423   3.383   5.814
 4076SOL    HW113127   2.331   3.405   5.782
 4076SOL    HW213128   2.490   3.403   5.742
 4077SOL     OW13129   3.207   6.720   0.011
 4077SOL    HW113130   3.227   6.709   6.937
 4077SOL    HW213131   3.275   6.780   0.053
 4078SOL     OW13132   6.889   5.109   1.616
 4078SOL    HW113133   6.937   5.157   1.689
 4078SOL    HW213134   6.937   5.024   1.595
 4079SOL     OW13135   0.618   1.985   3.252
 4079SOL    HW113136   0.698   1.984   3.191
 4079SOL    HW213137   0.607   2.077   3.289
 4080SOL     OW13138   2.739   3.230   0.895
 4080SOL    HW113139   2.674   3.166   0.853
 4080SOL    HW213140   2.809   3.179   0.944
 4081SOL     OW13141   1.715   1.847   3.682
 4081SOL    HW113142   1.644   1.911   3.654
 4081SOL    HW213143   1.726   1.851   3.781
 4082SOL     OW13144   1.270   2.020   0.784
 4082SOL    HW113145   1.321   2.105   0.770
 4082SOL    HW213146   1.303   1.975   0.867
 4083SOL     OW13147   5.793   4.013   3.108
 4083SOL    HW113148   5.877   4.065   3.121
 4083SOL    HW213149   5.810   3.916   3.130
 4084SOL     OW13150   4.971   2.486   3.059
 4084SOL    HW113151   4.879   2.447   3.070
 4084SOL    HW213152   4.965   2.569   3.003
 4085SOL     OW13153   2.562   5.922   0.712
 4085SOL    HW113154   2.588   5.826   0.723
 4085SOL    HW213155   2.515   5.933   0.624
 4086SOL     OW13156   0.003   5.018   1.226
 4086SOL    HW113157   0.043   5.030   1.136
 4086SOL    HW213158   0.007   5.105   1.276
 4087SOL     OW13159   2.328   1.300   2.880
 4087SOL    HW113160   2.288   1.262   2.964
 4087SOL    HW213161   2.321   1.232   2.807
 4088SOL     OW13162   6.434   1.512   6.291
 4088SOL    HW113163   6.526   1.539   6.261
 4088SOL    HW213164   6.367   1.578   6.258
 4089SOL     OW13165   6.449   5.024   4.770
 4089SOL    HW113166   6.366   4.971   4.754
 4089SOL    HW213167   6.461   5.090   4.695
 4090SOL     OW13168   1.997   5.668   5.192
 4090SOL    HW113169   2.025   5.622   5.108
 4090SOL    HW213170   1.987   5.766   5.175
 4091SOL     OW13171   0.712   6.338   0.136
 4091SOL    HW113172   0.622   6.313   0.100
 4091SOL    HW213173   0.734   6.279   0.214
 4092SOL     OW13174   6.030   2.595   3.813
 4092SOL    HW113175   6.079   2.515   3.779
 4092SOL    HW213176   5.940   2.568   3.847
 4093SOL     OW13177   5.265   6.738   0.828
 4093SOL    HW113178   5.266   6.638   0.822
 4093SOL    HW213179   5.325   6.767   0.902
 4094SOL     OW13180   1.236   4.849   6.313
 4094SOL    HW113181   1.136   4.855   6.321
 4094SOL    HW213182   1.265   4.757   6.335
 4095SOL     OW13183   0.838   3.455   0.470
 4095SOL    HW113184   0.788   3.368   0.472
 4095SOL    HW213185   0.862   3.477   0.375
 4096SOL     OW13186   3.616   0.778   6.118
 4096SOL    HW113187   3.562   0.857   6.147
 4096SOL    HW213188   3.701   0.809   6.076
 4097SOL     OW13189   5.182   4.548   5.048
 4097SOL    HW113190   5.092   4.584   5.026
 4097SOL    HW213191   5.195   4.550   5.148
 4098SOL     OW13192   1.215   2.650   1.051
 4098SOL    HW113193   1.259   2.622   0.966
 4098SOL    HW213194   1.136   2.592   1.069
 4099SOL     OW13195   3.429   5.190   0.761
 4099SOL    HW113196   3.337   5.197   0.798
 4099SOL    HW213197   3.454   5.094   0.752
 4100SOL     OW13198   0.896   6.723   4.320
 4100SOL    HW113199   0.969   6.779   4.358
 4100SOL    HW213200   0.810   6.743   4.368
 4101SOL     OW13201   0.996   1.216   6.805
 4101SOL    HW113202   1.092   1.190   6.807
 4101SOL    HW213203   0.942   1.140   6.767
 4102SOL     OW13204   1.806   0.111   0.384
 4102SOL    HW113205   1.769   0.196   0.348
 4102SOL    HW213206   1.853   0.129   0.470
 4103SOL     OW13207   0.509   0.570   2.102
 4103SOL    HW113208   0.531   0.642   2.167
 4103SOL    HW213209   0.502   0.608   2.010
 4104SOL     OW13210   0.428   4.921   3.477
 4104SOL    HW113211   0.351   4.979   3.501
 4104SOL    HW213212   0.399   4.825   3.478
 4105SOL     OW13213   6.547   0.564   2.684
 4105SOL    HW113214   6.592   0.586   2.771
 4105SOL    HW213215   6.530   0.466   2.679
 4106SOL     OW13216   0.414   3.064   3.885
 4106SOL    HW113217   0.376   3.087   3.796
 4106SOL    HW213218   0.345   3.016   3.939
 4107SOL     OW13219   0.737   6.070   0.876
 4107SOL    HW113220   0.755   5.978   0.908
 4107SOL    HW213221   0.724   6.131   0.954
 4108SOL     OW13222   6.239   4.884   4.689
 4108SOL    HW113223   6.184   4.924   4.763
 4108SOL    HW213224   6.221   4.932   4.604
 4109SOL     OW13225   6.099   6.546   4.799
 4109SOL    HW113226   6.024   6.536   4.865
 4109SOL    HW213227   6.120   6.643   4.787
 4110SOL     OW13228   3.971   3.412   6.201
 4110SOL    HW113229   4.027   3.404   6.118
 4110SOL    HW213230   3.894   3.348   6.195
 4111SOL     OW13231   5.684   4.801   6.430
 4111SOL    HW113232   5.604   4.859   6.415
 4111SOL    HW213233   5.726   4.778   6.342
 4112SOL     OW13234   4.727   6.268   4.152
 4112SOL    HW113235   4.718   6.358   4.110
 4112SOL    HW213236   4.660   6.205   4.112
 4113SOL     OW13237   5.437   6.075   4.845
 4113SOL    HW113238   5.409   6.140   4.915
 4113SOL    HW213239   5.394   6.098   4.757
 4114SOL     OW13240   5.425   1.827   3.533
 4114SOL    HW113241   5.454   1.863   3.444
 4114SOL    HW213242   5.505   1.796   3.584
 4115SOL     OW13243   3.017   4.892   3.017
 4115SOL    HW113244   3.117   4.884   3.012
 4115SOL    HW213245   2.992   4.916   3.111
 4116SOL     OW13246   4.286   1.859   3.294
 4116SOL    HW113247   4.380   1.870   3.262
 4116SOL    HW213248   4.228   1.928   3.251
 4117SOL     OW13249   0.879   3.152   2.910
 4117SOL    HW113250   0.927   3.130   2.995
 4117SOL    HW213251   0.825   3.072   2.881
 4118SOL     OW13252   5.059   6.921   6.982
 4118SOL    HW113253   4.980   6.881   6.934
 4118SOL    HW213254   5.143   6.892   6.937
 4119SOL     OW13255   2.945   1.850   3.455
 4119SOL    HW113256   2.952   1.767   3.399
 4119SOL    HW213257   3.027   1.906   3.441
 4120SOL     OW13258   3.030   1.313   6.003
 4120SOL    HW113259   2.945   1.360   5.979
 4120SOL    HW213260   3.106   1.377   5.999
 4121SOL     OW13261   6.763   6.909   3.980
 4121SOL    HW113262   6.825   6.978   4.017
 4121SOL    HW213263   6.742   6.931   3.885
 4122SOL     OW13264   1.336   6.566   4.433
 4122SOL    HW113265   1.276   6.548   4.511
 4122SOL    HW213266   1.351   6.480   4.383
 4123SOL     OW13267   4.219   4.851   5.217
 4123SOL    HW113268   4.136   4.799   5.236
 4123SOL    HW213269   4.196   4.948   5.210
 4124SOL     OW13270   6.715   6.875   1.039
 4124SOL    HW113271   6.735   6.792   0.986
 4124SOL    HW213272   6.755   6.954   0.993
 4125SOL     OW13273   4.285   2.305   2.954
 4125SOL    HW113274   4.212   2.237   2.955
 4125SOL    HW213275   4.295   2.341   2.861
 4126SOL     OW13276   1.760   3.553   3.390
 4126SOL    HW113277   1.829   3.485   3.366
 4126SOL    HW213278   1.681   3.508   3.432
 4127SOL     OW13279   5.477   3.715   4.890
 4127SOL    HW113280   5.428   3.663   4.960
 4127SOL    HW213281   5.412   3.750   4.823
 4128SOL     OW13282   0.680   3.607   1.290
 4128SOL    HW113283   0.684   3.707   1.293
 4128SOL    HW213284   0.710   3.570   1.378
 4129SOL     OW13285   3.188   1.121   0.170
 4129SOL    HW113286   3.217   1.162   0.256
 4129SOL    HW213287   3.122   1.180   0.124
 4130SOL     OW13288   6.251   2.489   0.395
 4130SOL    HW113289   6.307   2.482   0.312
 4130SOL    HW213290   6.310   2.478   0.476
 4131SOL     OW13291   0.321   1.980   3.209
 4131SOL    HW113292   0.416   1.975   3.239
 4131SOL    HW213293   0.316   1.978   3.110
 4132SOL     OW13294   5.039   4.108   3.508
 4132SOL    HW113295   4.981   4.027   3.514
 4132SOL    HW213296   5.134   4.080   3.494
 4133SOL     OW13297   3.390   5.970   1.397
 4133SOL    HW113298   3.428   5.879   1.411
 4133SOL    HW213299   3.291   5.967   1.406
 4134SOL     OW13300   1.742   3.974   0.937
 4134SOL    HW113301   1.742   3.906   0.863
 4134SOL    HW213302   1.795   3.939   1.014
 4135SOL     OW13303   0.360   2.379   1.787
 4135SOL    HW113304   0.323   2.416   1.702
 4135SOL    HW213305   0.459   2.390   1.789
 4136SOL     OW13306   1.356   3.557   3.356
 4136SOL    HW113307   1.395   3.644   3.388
 4136SOL    HW213308   1.282   3.530   3.417
 4137SOL     OW13309   1.756   3.170   0.803
 4137SOL    HW113310   1.679   3.143   0.746
 4137SOL    HW213311   1.785   3.093   0.860
 4138SOL     OW13312   3.728   5.564   2.472
 4138SOL    HW113313   3.754   5.659   2.490
 4138SOL    HW213314   3.788   5.503   2.523
 4139SOL     OW13315   1.337   1.241   5.098
 4139SOL    HW113316   1.347   1.160   5.040
 4139SOL    HW213317   1.253   1.289   5.073
 4140SOL     OW13318   3.344   1.230   4.789
 4140SOL    HW113319   3.415   1.266   4.728
 4140SOL    HW213320   3.350   1.275   4.878
 4141SOL     OW13321   5.338   6.790   1.271
 4141SOL    HW113322   5.390   6.799   1.186
 4141SOL    HW213323   5.274   6.866   1.279
 4142SOL     OW13324   6.319   4.083   0.843
 4142SOL    HW113325   6.279   4.164   0.802
 4142SOL    HW213326   6.371   4.108   0.925
 4143SOL     OW13327   5.671   2.881   1.163
 4143SOL    HW113328   5.716   2.944   1.226
 4143SOL    HW213329   5.725   2.797   1.155
 4144SOL     OW13330   4.968   1.633   0.189
 4144SOL    HW113331   5.056   1.633   0.142
 4144SOL    HW213332   4.900   1.586   0.132
 4145SOL     OW13333   0.704   6.385   1.424
 4145SOL    HW113334   0.770   6.433   1.367
 4145SOL    HW213335   0.740   6.296   1.450
 4146SOL     OW13336   6.831   0.197   3.473
 4146SOL    HW113337   6.732   0.184   3.469
 4146SOL    HW213338   6.852   0.295   3.472
 4147SOL     OW13339   4.352   4.787   5.817
 4147SOL    HW113340   4.267   4.783   5.765
 4147SOL    HW213341   4.371   4.696   5.855
 4148SOL     OW13342   2.663   0.456   4.556
 4148SOL    HW113343   2.653   0.366   4.600
 4148SOL    HW213344   2.735   0.451   4.486
 4149SOL     OW13345   0.086   4.499   1.569
 4149SOL    HW113346   0.173   4.482   1.615
 4149SOL    HW213347   0.025   4.421   1.582
 4150SOL     OW13348   0.443   0.624   5.621
 4150SOL    HW113349   0.386   0.705   5.632
 4150SOL    HW213350   0.411   0.571   5.542
 4151SOL     OW13351   2.725   6.323   5.726
 4151SOL    HW113352   2.655   6.309   5.656
 4151SOL    HW213353   2.693   6.286   5.813
 4152SOL     OW13354   3.988   5.846   1.226
 4152SOL    HW113355   4.057   5.777   1.202
 4152SOL    HW213356   4.033   5.933   1.244
 4153SOL     OW13357   5.833   5.378   1.384
 4153SOL    HW113358   5.777   5.421   1.455
 4153SOL    HW213359   5.773   5.338   1.315
 4154SOL     OW13360   6.693   5.257   4.121
 4154SOL    HW113361   6.678   5.278   4.025
 4154SOL    HW213362   6.608   5.272   4.172
 4155SOL     OW13363   0.107   0.952   1.034
 4155SOL    HW113364   0.165   1.033   1.036
 4155SOL    HW213365   0.139   0.885   1.101
 4156SOL     OW13366   6.170   5.452   5.431
 4156SOL    HW113367   6.105   5.460   5.356
 4156SOL    HW213368   6.165   5.535   5.488
 4157SOL     OW13369   5.386   5.635   3.709
 4157SOL    HW113370   5.311   5.599   3.764
 4157SOL    HW213371   5.433   5.559   3.664
 4158SOL     OW13372   0.678   3.016   2.220
 4158SOL    HW113373   0.753   3.083   2.215
 4158SOL    HW213374   0.616   3.041   2.294
 4159SOL     OW13375   1.505   3.268   3.004
 4159SOL    HW113376   1.599   3.278   2.970
 4159SOL    HW213377   1.441   3.280   2.928
 4160SOL     OW13378   5.404   0.079   6.839
 4160SOL    HW113379   5.417   0.110   6.744
 4160SOL    HW213380   5.493   0.057   6.879
 4161SOL     OW13381   1.031   1.937   0.891
 4161SOL    HW113382   1.004   2.003   0.961
 4161SOL    HW213383   1.117   1.965   0.849
 4162SOL     OW13384   5.971   6.233   0.477
 4162SOL    HW113385   5.882   6.256   0.516
 4162SOL    HW213386   6.035   6.208   0.550
 4163SOL     OW13387   5.023   0.546   3.790
 4163SOL    HW113388   4.996   0.463   3.742
 4163SOL    HW213389   5.113   0.576   3.756
 4164SOL     OW13390   1.250   0.033   4.842
 4164SOL    HW113391   1.247   6.983   4.774
 4164SOL    HW213392   1.174   0.096   4.828
 4165SOL     OW13393   4.082   0.477   5.649
 4165SOL    HW113394   4.108   0.425   5.730
 4165SOL    HW213395   3.994   0.445   5.615
 4166SOL     OW13396   5.619   1.174   0.752
 4166SOL    HW113397   5.643   1.077   0.763
 4166SOL    HW213398   5.525   1.181   0.717
 4167SOL     OW13399   3.206   3.881   0.012
 4167SOL    HW113400   3.229   3.954   6.972
 4167SOL    HW213401   3.273   3.878   0.087
 4168SOL     OW13402   0.304   4.208   1.346
 4168SOL    HW113403   0.396   4.193   1.381
 4168SOL    HW213404   0.303   4.292   1.290
 4169SOL     OW13405   6.420   5.209   4.567
 4169SOL    HW113406   6.371   5.227   4.482
 4169SOL    HW213407   6.499   5.270   4.573
 4170SOL     OW13408   4.463   3.253   6.069
 4170SOL    HW113409   4.376   3.205   6.071
 4170SOL    HW213410   4.458   3.329   6.005
 4171SOL     OW13411   6.224   5.706   1.022
 4171SOL    HW113412   6.277   5.685   0.939
 4171SOL    HW213413   6.192   5.801   1.017
 4172SOL     OW13414   2.137   1.524   6.493
 4172SOL    HW113415   2.212   1.464   6.466
 4172SOL    HW213416   2.050   1.476   6.480
 4173SOL     OW13417   5.527   3.979   4.656
 4173SOL    HW113418   5.589   4.047   4.617
 4173SOL    HW213419   5.560   3.950   4.745
 4174SOL     OW13420   4.628   1.125   2.405
 4174SOL    HW113421   4.596   1.133   2.499
 4174SOL    HW213422   4.589   1.042   2.363
 4175SOL     OW13423   1.721   4.796   4.086
 4175SOL    HW113424   1.660   4.749   4.150
 4175SOL    HW213425   1.722   4.894   4.107
 4176SOL     OW13426   3.872   6.468   1.301
 4176SOL    HW113427   3.808   6.404   1.258
 4176SOL    HW213428   3.927   6.421   1.369
 4177SOL     OW13429   5.785   4.733   5.845
 4177SOL    HW113430   5.860   4.733   5.779
 4177SOL    HW213431   5.797   4.658   5.910
 4178SOL     OW13432   4.297   6.382   4.051
 4178SOL    HW113433   4.249   6.469   4.059
 4178SOL    HW213434   4.374   6.392   3.988
 4179SOL     OW13435   5.365   3.655   3.080
 4179SOL    HW113436   5.317   3.581   3.128
 4179SOL    HW213437   5.301   3.699   3.016
 4180SOL     OW13438   3.962   3.432   0.703
 4180SOL    HW113439   4.044   3.451   0.650
 4180SOL    HW213440   3.974   3.349   0.756
 4181SOL     OW13441   4.165   0.997   6.918
 4181SOL    HW113442   4.203   1.088   6.901
 4181SOL    HW213443   4.107   0.999   7.000
 4182SOL     OW13444   0.626   5.772   3.700
 4182SOL    HW113445   0.685   5.833   3.753
 4182SOL    HW213446   0.672   5.685   3.685
 4183SOL     OW13447   2.759   1.656   6.976
 4183SOL    HW113448   2.705   1.574   6.957
 4183SOL    HW213449   2.709   1.737   6.945
 4184SOL     OW13450   3.179   6.948   2.619
 4184SOL    HW113451   3.171   6.876   2.549
 4184SOL    HW213452   3.091   6.958   2.666
 4185SOL     OW13453   1.166   4.527   2.786
 4185SOL    HW113454   1.142   4.433   2.810
 4185SOL    HW213455   1.237   4.527   2.716
 4186SOL     OW13456   2.656   4.863   6.583
 4186SOL    HW113457   2.722   4.808   6.635
 4186SOL    HW213458   2.626   4.812   6.502
 4187SOL     OW13459   3.299   3.813   5.469
 4187SOL    HW113460   3.393   3.787   5.490
 4187SOL    HW213461   3.244   3.731   5.456
 4188SOL     OW13462   5.418   1.004   5.590
 4188SOL    HW113463   5.506   1.014   5.544
 4188SOL    HW213464   5.373   1.093   5.596
 4189SOL     OW13465   2.944   5.081   4.659
 4189SOL    HW113466   2.971   4.987   4.635
 4189SOL    HW213467   2.993   5.110   4.741
 4190SOL     OW13468   0.732   0.848   0.835
 4190SOL    HW113469   0.814   0.854   0.778
 4190SOL    HW213470   0.663   0.794   0.789
 4191SOL     OW13471   5.002   4.451   3.801
 4191SOL    HW113472   5.091   4.495   3.790
 4191SOL    HW213473   4.970   4.463   3.895
 4192SOL     OW13474   1.019   1.329   3.715
 4192SOL    HW113475   0.963   1.411   3.718
 4192SOL    HW213476   1.115   1.354   3.700
 4193SOL     OW13477   6.281   0.609   0.791
 4193SOL    HW113478   6.334   0.624   0.874
 4193SOL    HW213479   6.276   0.511   0.772
 4194SOL     OW13480   5.246   0.192   4.871
 4194SOL    HW113481   5.289   0.216   4.784
 4194SOL    HW213482   5.254   0.093   4.886
 4195SOL     OW13483   3.659   6.554   1.098
 4195SOL    HW113484   3.728   6.567   1.169
 4195SOL    HW213485   3.697   6.576   1.009
 4196SOL     OW13486   6.013   2.448   2.601
 4196SOL    HW113487   6.032   2.497   2.516
 4196SOL    HW213488   5.967   2.509   2.665
 4197SOL     OW13489   4.790   5.179   5.780
 4197SOL    HW113490   4.817   5.167   5.684
 4197SOL    HW213491   4.691   5.170   5.788
 4198SOL     OW13492   6.346   2.150   0.554
 4198SOL    HW113493   6.329   2.054   0.576
 4198SOL    HW213494   6.438   2.175   0.585
 4199SOL     OW13495   1.908   1.878   5.986
 4199SOL    HW113496   1.817   1.850   6.017
 4199SOL    HW213497   1.952   1.933   6.058
 4200SOL     OW13498   3.202   0.696   5.896
 4200SOL    HW113499   3.301   0.690   5.885
 4200SOL    HW213500   3.180   0.742   5.982
 4201SOL     OW13501   5.967   6.526   3.706
 4201SOL    HW113502   5.971   6.596   3.635
 4201SOL    HW213503   5.901   6.554   3.776
 4202SOL     OW13504   3.710   5.679   5.904
 4202SOL    HW113505   3.718   5.778   5.917
 4202SOL    HW213506   3.748   5.654   5.816
 4203SOL     OW13507   3.727   4.446   6.869
 4203SOL    HW113508   3.735   4.421   6.773
 4203SOL    HW213509   3.763   4.539   6.882
 4204SOL     OW13510   4.060   3.598   3.584
 4204SOL    HW113511   4.051   3.521   3.520
 4204SOL    HW213512   4.038   3.683   3.536
 4205SOL     OW13513   4.106   5.943   3.425
 4205SOL    HW113514   4.086   6.026   3.476
 4205SOL    HW213515   4.040   5.872   3.449
 4206SOL     OW13516   6.639   0.567   5.526
 4206SOL    HW113517   6.650   0.548   5.428
 4206SOL    HW213518   6.584   0.495   5.568
 4207SOL     OW13519   1.858   1.633   1.617
 4207SOL    HW113520   1.834   1.565   1.687
 4207SOL    HW213521   1.791   1.629   1.543
 4208SOL     OW13522   0.088   3.363   5.416
 4208SOL    HW113523   0.149   3.382   5.339
 4208SOL    HW213524   0.092   3.439   5.481
 4209SOL     OW13525   6.857   0.558   4.040
 4209SOL    HW113526   6.799   0.476   4.034
 4209SOL    HW213527   6.810   0.629   4.092
 4210SOL     OW13528   4.066   3.137   2.044
 4210SOL    HW113529   4.025   3.228   2.036
 4210SOL    HW213530   4.106   3.127   2.135
 4211SOL     OW13531   4.518   6.727   6.387
 4211SOL    HW113532   4.477   6.653   6.440
 4211SOL    HW213533   4.447   6.791   6.358
 4212SOL     OW13534   6.369   1.534   2.816
 4212SOL    HW113535   6.376   1.600   2.742
 4212SOL    HW213536   6.298   1.467   2.796
 4213SOL     OW13537   2.001   0.366   1.538
 4213SOL    HW113538   1.994   0.456   1.582
 4213SOL    HW213539   1.972   0.373   1.442
 4214SOL     OW13540   1.185   5.115   5.579
 4214SOL    HW113541   1.142   5.077   5.497
 4214SOL    HW213542   1.125   5.185   5.618
 4215SOL     OW13543   5.085   0.214   5.840
 4215SOL    HW113544   5.039   0.125   5.836
 4215SOL    HW213545   5.108   0.244   5.748
 4216SOL     OW13546   1.737   1.223   2.943
 4216SOL    HW113547   1.654   1.258   2.987
 4216SOL    HW213548   1.813   1.286   2.961
 4217SOL     OW13549   1.148   0.771   2.250
 4217SOL    HW113550   1.203   0.850   2.275
 4217SOL    HW213551   1.057   0.779   2.291
 4218SOL     OW13552   4.240   1.230   1.727
 4218SOL    HW113553   4.142   1.242   1.707
 4218SOL    HW213554   4.260   1.132   1.737
 4219SOL     OW13555   3.598   6.201   3.732
 4219SOL    HW113556   3.637   6.257   3.806
 4219SOL    HW213557   3.669   6.141   3.695
 4220SOL     OW13558   6.429   3.158   3.589
 4220SOL    HW113559   6.480   3.093   3.646
 4220SOL    HW213560   6.479   3.245   3.586
 4221SOL     OW13561   5.438   5.022   6.106
 4221SOL    HW113562   5.452   5.119   6.087
 4221SOL    HW213563   5.494   4.967   6.043
 4222SOL     OW13564   0.167   2.241   2.610
 4222SOL    HW113565   0.161   2.206   2.517
 4222SOL    HW213566   0.114   2.181   2.671
 4223SOL     OW13567   3.330   3.133   6.794
 4223SOL    HW113568   3.359   3.037   6.802
 4223SOL    HW213569   3.329   3.175   6.885
 4224SOL     OW13570   4.651   4.257   4.126
 4224SOL    HW113571   4.737   4.222   4.164
 4224SOL    HW213572   4.651   4.244   4.027
 4225SOL     OW13573   3.386   1.918   5.800
 4225SOL    HW113574   3.353   1.884   5.888
 4225SOL    HW213575   3.331   1.880   5.726
 4226SOL     OW13576   1.222   0.584   2.059
 4226SOL    HW113577   1.221   0.496   2.107
 4226SOL    HW213578   1.195   0.657   2.122
 4227SOL     OW13579   4.147   4.975   1.341
 4227SOL    HW113580   4.058   5.021   1.343
 4227SOL    HW213581   4.212   5.031   1.290
 4228SOL     OW13582   0.990   4.742   5.122
 4228SOL    HW113583   0.917   4.704   5.065
 4228SOL    HW213584   0.967   4.836   5.147
 4229SOL     OW13585   5.019   5.958   5.875
 4229SOL    HW113586   4.971   5.871   5.870
 4229SOL    HW213587   4.979   6.022   5.809
 4230SOL     OW13588   1.065   5.967   2.789
 4230SOL    HW113589   1.010   5.956   2.872
 4230SOL    HW213590   1.027   6.042   2.734
 4231SOL     OW13591   5.730   0.090   5.286
 4231SOL    HW113592   5.704   7.022   5.316
 4231SOL    HW213593   5.822   0.087   5.246
 4232SOL     OW13594   0.660   4.835   2.958
 4232SOL    HW113595   0.674   4.851   3.056
 4232SOL    HW213596   0.744   4.856   2.908
 4233SOL     OW13597   0.170   0.388   6.207
 4233SOL    HW113598   0.092   0.327   6.200
 4233SOL    HW213599   0.185   0.433   6.119
 4234SOL     OW13600   2.295   6.187   4.597
 4234SOL    HW113601   2.300   6.110   4.661
 4234SOL    HW213602   2.302   6.273   4.648
 4235SOL     OW13603   5.188   3.921   5.591
 4235SOL    HW113604   5.125   3.885   5.660
 4235SOL    HW213605   5.282   3.909   5.622
 4236SOL     OW13606   6.486   3.711   2.567
 4236SOL    HW113607   6.493   3.625   2.618
 4236SOL    HW213608   6.563   3.718   2.504
 4237SOL     OW13609   5.309   6.017   2.771
 4237SOL    HW113610   5.343   6.018   2.676
 4237SOL    HW213611   5.261   5.931   2.788
 4238SOL     OW13612   2.736   6.033   2.889
 4238SOL    HW113613   2.822   6.035   2.939
 4238SOL    HW213614   2.664   5.995   2.946
 4239SOL     OW13615   6.377   2.016   2.575
 4239SOL    HW113616   6.302   1.967   2.532
 4239SOL    HW213617   6.349   2.109   2.596
 4240SOL     OW13618   2.580   5.923   0.234
 4240SOL    HW113619   2.598   5.988   0.160
 4240SOL    HW213620   2.543   5.838   0.197
 4241SOL     OW13621   6.318   0.639   0.273
 4241SOL    HW113622   6.262   0.647   0.191
 4241SOL    HW213623   6.259   0.631   0.353
 4242SOL     OW13624   2.833   1.374   3.683
 4242SOL    HW113625   2.798   1.282   3.666
 4242SOL    HW213626   2.915   1.390   3.629
 4243SOL     OW13627   6.588   2.727   3.248
 4243SOL    HW113628   6.538   2.640   3.245
 4243SOL    HW213629   6.683   2.712   3.222
 4244SOL     OW13630   4.403   4.270   1.458
 4244SOL    HW113631   4.349   4.186   1.460
 4244SOL    HW213632   4.472   4.267   1.530
 4245SOL     OW13633   0.172   1.349   6.482
 4245SOL    HW113634   0.199   1.277   6.546
 4245SOL    HW213635   0.254   1.385   6.437
 4246SOL     OW13636   6.804   3.950   3.382
 4246SOL    HW113637   6.725   3.909   3.427
 4246SOL    HW213638   6.871   3.878   3.359
 4247SOL     OW13639   2.938   5.719   3.575
 4247SOL    HW113640   3.016   5.690   3.520
 4247SOL    HW213641   2.949   5.815   3.601
 4248SOL     OW13642   3.203   1.893   3.149
 4248SOL    HW113643   3.258   1.964   3.105
 4248SOL    HW213644   3.116   1.883   3.099
 4249SOL     OW13645   5.488   2.260   3.457
 4249SOL    HW113646   5.483   2.234   3.553
 4249SOL    HW213647   5.396   2.277   3.422
 4250SOL     OW13648   5.962   4.559   2.918
 4250SOL    HW113649   5.937   4.590   3.010
 4250SOL    HW213650   5.982   4.639   2.860
 4251SOL     OW13651   5.260   4.643   1.894
 4251SOL    HW113652   5.258   4.660   1.992
 4251SOL    HW213653   5.175   4.599   1.866
 4252SOL     OW13654   5.211   6.939   6.599
 4252SOL    HW113655   5.120   6.947   6.559
 4252SOL    HW213656   5.277   6.919   6.527
 4253SOL     OW13657   3.330   0.177   0.987
 4253SOL    HW113658   3.337   0.117   1.066
 4253SOL    HW213659   3.421   0.208   0.961
 4254SOL     OW13660   0.958   3.556   2.022
 4254SOL    HW113661   0.978   3.649   2.053
 4254SOL    HW213662   0.952   3.555   1.922
 4255SOL     OW13663   6.906   4.023   3.790
 4255SOL    HW113664   6.845   4.098   3.816
 4255SOL    HW213665   6.975   4.010   3.861
 4256SOL     OW13666   1.903   6.391   0.704
 4256SOL    HW113667   1.814   6.433   0.686
 4256SOL    HW213668   1.891   6.309   0.760
 4257SOL     OW13669   2.529   0.500   4.263
 4257SOL    HW113670   2.579   0.505   4.349
 4257SOL    HW213671   2.488   0.589   4.243
 4258SOL     OW13672   4.461   6.214   0.774
 4258SOL    HW113673   4.475   6.153   0.696
 4258SOL    HW213674   4.374   6.263   0.763
 4259SOL     OW13675   2.719   0.767   0.720
 4259SOL    HW113676   2.653   0.818   0.776
 4259SOL    HW213677   2.680   0.748   0.631
 4260SOL     OW13678   5.758   0.270   1.569
 4260SOL    HW113679   5.818   0.349   1.554
 4260SOL    HW213680   5.695   0.262   1.492
 4261SOL     OW13681   2.013   0.139   2.959
 4261SOL    HW113682   1.978   0.053   2.922
 4261SOL    HW213683   2.102   0.159   2.918
 4262SOL     OW13684   0.751   4.957   6.193
 4262SOL    HW113685   0.693   4.928   6.270
 4262SOL    HW213686   0.833   4.900   6.190
 4263SOL     OW13687   3.235   6.833   2.929
 4263SOL    HW113688   3.265   6.864   2.839
 4263SOL    HW213689   3.291   6.877   2.999
 4264SOL     OW13690   6.981   2.461   2.569
 4264SOL    HW113691   0.038   2.402   2.562
 4264SOL    HW213692   6.941   2.474   2.478
 4265SOL     OW13693   4.762   1.591   1.497
 4265SOL    HW113694   4.665   1.582   1.475
 4265SOL    HW213695   4.814   1.523   1.446
 4266SOL     OW13696   1.914   5.205   0.525
 4266SOL    HW113697   1.907   5.105   0.518
 4266SOL    HW213698   1.865   5.247   0.449
 4267SOL     OW13699   1.902   3.009   3.753
 4267SOL    HW113700   1.811   2.973   3.776
 4267SOL    HW213701   1.971   2.946   3.788
 4268SOL     OW13702   1.383   6.096   0.142
 4268SOL    HW113703   1.461   6.054   0.096
 4268SOL    HW213704   1.302   6.039   0.128
 4269SOL     OW13705   3.041   0.929   2.139
 4269SOL    HW113706   3.012   0.969   2.226
 4269SOL    HW213707   3.104   0.853   2.157
 4270SOL     OW13708   4.074   3.471   3.208
 4270SOL    HW113709   4.117   3.434   3.290
 4270SOL    HW213710   4.050   3.396   3.146
 4271SOL     OW13711   6.343   1.119   0.076
 4271SOL    HW113712   6.296   1.132   0.164
 4271SOL    HW213713   6.440   1.101   0.092
 4272SOL     OW13714   6.463   2.510   4.557
 4272SOL    HW113715   6.560   2.494   4.570
 4272SOL    HW213716   6.422   2.542   4.642
 4273SOL     OW13717   4.694   6.841   4.603
 4273SOL    HW113718   4.753   6.790   4.666
 4273SOL    HW213719   4.683   6.788   4.518
 4274SOL     OW13720   0.972   6.204   1.945
 4274SOL    HW113721   1.024   6.178   1.864
 4274SOL    HW213722   1.025   6.183   2.027
 4275SOL     OW13723   6.689   1.795   4.504
 4275SOL    HW113724   6.633   1.849   4.441
 4275SOL    HW213725   6.643   1.788   4.592
 4276SOL     OW13726   1.566   4.511   3.623
 4276SOL    HW113727   1.583   4.604   3.657
 4276SOL    HW213728   1.652   4.460   3.619
 4277SOL     OW13729   6.386   4.620   3.303
 4277SOL    HW113730   6.400   4.550   3.373
 4277SOL    HW213731   6.288   4.636   3.289
 4278SOL     OW13732   6.552   0.228   4.444
 4278SOL    HW113733   6.560   0.286   4.363
 4278SOL    HW213734   6.625   0.159   4.444
 4279SOL     OW13735   3.241   0.905   3.871
 4279SOL    HW113736   3.315   0.910   3.938
 4279SOL    HW213737   3.210   0.998   3.849
 4280SOL     OW13738   4.457   0.609   5.525
 4280SOL    HW113739   4.506   0.685   5.482
 4280SOL    HW213740   4.421   0.549   5.455
 4281SOL     OW13741   0.425   4.438   3.567
 4281SOL    HW113742   0.439   4.389   3.482
 4281SOL    HW213743   0.358   4.389   3.623
 4282SOL     OW13744   3.091   4.368   5.998
 4282SOL    HW113745   3.174   4.415   5.968
 4282SOL    HW213746   3.084   4.280   5.950
 4283SOL     OW13747   0.934   0.992   3.499
 4283SOL    HW113748   0.859   0.997   3.433
 4283SOL    HW213749   0.897   0.971   3.590
 4284SOL     OW13750   3.773   4.953   1.186
 4284SOL    HW113751   3.675   4.941   1.200
 4284SOL    HW213752   3.791   5.048   1.162
 4285SOL     OW13753   1.147   0.395   5.449
 4285SOL    HW113754   1.189   0.358   5.533
 4285SOL    HW213755   1.211   0.458   5.405
 4286SOL     OW13756   4.528   6.642   6.117
 4286SOL    HW113757   4.563   6.548   6.112
 4286SOL    HW213758   4.511   6.666   6.212
 4287SOL     OW13759   5.558   1.927   6.343
 4287SOL    HW113760   5.658   1.924   6.353
 4287SOL    HW213761   5.524   2.011   6.386
 4288SOL     OW13762   0.019   5.728   3.948
 4288SOL    HW113763   6.944   5.712   3.964
 4288SOL    HW213764   0.053   5.795   4.013
 4289SOL     OW13765   6.720   3.205   6.607
 4289SOL    HW113766   6.700   3.300   6.580
 4289SOL    HW213767   6.654   3.144   6.563
 4290SOL     OW13768   1.312   6.522   3.189
 4290SOL    HW113769   1.244   6.475   3.244
 4290SOL    HW213770   1.285   6.519   3.093
 4291SOL     OW13771   4.703   3.535   0.702
 4291SOL    HW113772   4.624   3.562   0.646
 4291SOL    HW213773   4.733   3.443   0.676
 4292SOL     OW13774   5.612   2.989   0.635
 4292SOL    HW113775   5.611   2.901   0.587
 4292SOL    HW213776   5.568   2.978   0.724
 4293SOL     OW13777   2.472   3.699   0.420
 4293SOL    HW113778   2.457   3.604   0.394
 4293SOL    HW213779   2.567   3.711   0.448
 4294SOL     OW13780   2.297   2.445   6.795
 4294SOL    HW113781   2.349   2.516   6.843
 4294SOL    HW213782   2.221   2.487   6.746
 4295SOL     OW13783   4.169   5.931   4.597
 4295SOL    HW113784   4.112   5.865   4.646
 4295SOL    HW213785   4.231   5.883   4.536
 4296SOL     OW13786   3.081   6.904   0.812
 4296SOL    HW113787   3.137   6.980   0.779
 4296SOL    HW213788   3.113   6.818   0.771
 4297SOL     OW13789   5.058   0.387   6.950
 4297SOL    HW113790   5.137   0.412   7.006
 4297SOL    HW213791   5.083   0.310   6.890
 4298SOL     OW13792   3.865   5.052   7.023
 4298SOL    HW113793   3.776   5.012   0.022
 4298SOL    HW213794   3.919   4.986   6.969
 4299SOL     OW13795   0.910   2.798   6.385
 4299SOL    HW113796   1.000   2.828   6.418
 4299SOL    HW213797   0.920   2.718   6.326
 4300SOL     OW13798   3.479   6.611   0.186
 4300SOL    HW113799   3.506   6.559   0.267
 4300SOL    HW213800   3.542   6.687   0.173
 4301SOL     OW13801   3.900   1.730   1.603
 4301SOL    HW113802   3.939   1.785   1.677
 4301SOL    HW213803   3.882   1.789   1.524
 4302SOL     OW13804   1.280   6.848   6.517
 4302SOL    HW113805   1.232   6.806   6.440
 4302SOL    HW213806   1.255   6.800   6.601
 4303SOL     OW13807   0.326   4.511   4.074
 4303SOL    HW113808   0.316   4.509   3.975
 4303SOL    HW213809   0.399   4.574   4.099
 4304SOL     OW13810   3.144   3.890   2.959
 4304SOL    HW113811   3.118   3.844   3.044
 4304SOL    HW213812   3.230   3.852   2.925
 4305SOL     OW13813   0.341   6.892   5.030
 4305SOL    HW113814   0.259   6.942   5.002
 4305SOL    HW213815   0.317   6.797   5.049
 4306SOL     OW13816   5.543   4.149   5.694
 4306SOL    HW113817   5.643   4.140   5.700
 4306SOL    HW213818   5.520   4.238   5.656
 4307SOL     OW13819   4.915   4.144   5.618
 4307SOL    HW113820   4.955   4.081   5.684
 4307SOL    HW213821   4.838   4.100   5.571
 4308SOL     OW13822   6.327   4.782   0.430
 4308SOL    HW113823   6.397   4.826   0.485
 4308SOL    HW213824   6.242   4.836   0.435
 4309SOL     OW13825   1.285   1.172   0.327
 4309SOL    HW113826   1.241   1.173   0.237
 4309SOL    HW213827   1.381   1.195   0.317
 4310SOL     OW13828   1.300   2.720   2.206
 4310SOL    HW113829   1.266   2.672   2.125
 4310SOL    HW213830   1.385   2.768   2.182
 4311SOL     OW13831   2.023   5.887   2.927
 4311SOL    HW113832   2.098   5.892   2.992
 4311SOL    HW213833   1.960   5.964   2.942
 4312SOL     OW13834   2.057   5.193   1.356
 4312SOL    HW113835   2.132   5.128   1.366
 4312SOL    HW213836   2.080   5.260   1.284
 4313SOL     OW13837   4.661   1.414   1.744
 4313SOL    HW113838   4.656   1.455   1.835
 4313SOL    HW213839   4.650   1.485   1.675
 4314SOL     OW13840   6.143   1.528   4.403
 4314SOL    HW113841   6.055   1.564   4.434
 4314SOL    HW213842   6.131   1.434   4.370
 4315SOL     OW13843   2.136   6.294   2.426
 4315SOL    HW113844   2.173   6.214   2.379
 4315SOL    HW213845   2.205   6.366   2.428
 4316SOL     OW13846   5.642   0.569   2.026
 4316SOL    HW113847   5.569   0.605   2.084
 4316SOL    HW213848   5.707   0.519   2.082
 4317SOL     OW13849   4.891   2.680   4.760
 4317SOL    HW113850   4.833   2.756   4.790
 4317SOL    HW213851   4.849   2.635   4.681
 4318SOL     OW13852   0.852   3.640   5.057
 4318SOL    HW113853   0.858   3.737   5.081
 4318SOL    HW213854   0.943   3.606   5.034
 4319SOL     OW13855   1.942   1.873   1.688
 4319SOL    HW113856   2.016   1.874   1.755
 4319SOL    HW213857   1.920   1.778   1.665
 4320SOL     OW13858   5.463   5.204   0.304
 4320SOL    HW113859   5.547   5.150   0.312
 4320SOL    HW213860   5.464   5.279   0.371
 4321SOL     OW13861   0.038   6.563   5.095
 4321SOL    HW113862   0.019   6.481   5.041
 4321SOL    HW213863   7.002   6.638   5.063
 4322SOL     OW13864   6.407   2.566   6.828
 4322SOL    HW113865   6.382   2.614   6.744
 4322SOL    HW213866   6.357   2.479   6.833
 4323SOL     OW13867   4.636   3.970   1.409
 4323SOL    HW113868   4.652   3.871   1.406
 4323SOL    HW213869   4.695   4.015   1.342
 4324SOL     OW13870   5.419   4.412   6.685
 4324SOL    HW113871   5.408   4.511   6.692
 4324SOL    HW213872   5.407   4.370   6.775
 4325SOL     OW13873   2.479   0.871   1.609
 4325SOL    HW113874   2.532   0.908   1.685
 4325SOL    HW213875   2.393   0.922   1.600
 4326SOL     OW13876   5.031   4.875   4.025
 4326SOL    HW113877   5.058   4.971   4.025
 4326SOL    HW213878   5.110   4.818   4.004
 4327SOL     OW13879   5.846   6.085   1.847
 4327SOL    HW113880   5.887   6.149   1.912
 4327SOL    HW213881   5.830   5.997   1.891
 4328SOL     OW13882   4.707   4.006   5.479
 4328SOL    HW113883   4.658   4.072   5.422
 4328SOL    HW213884   4.734   3.927   5.422
 4329SOL     OW13885   4.638   1.502   5.706
 4329SOL    HW113886   4.678   1.581   5.658
 4329SOL    HW213887   4.540   1.499   5.688
 4330SOL     OW13888   2.454   6.572   4.102
 4330SOL    HW113889   2.369   6.554   4.152
 4330SOL    HW213890   2.446   6.659   4.054
 4331SOL     OW13891   5.683   1.367   1.909
 4331SOL    HW113892   5.672   1.456   1.954
 4331SOL    HW213893   5.601   1.311   1.925
 4332SOL     OW13894   5.538   3.304   1.948
 4332SOL    HW113895   5.557   3.206   1.952
 4332SOL    HW213896   5.441   3.320   1.969
 4333SOL     OW13897   3.365   0.959   4.807
 4333SOL    HW113898   3.384   0.920   4.897
 4333SOL    HW213899   3.332   1.052   4.818
 4334SOL     OW13900   1.383   2.764   2.458
 4334SOL    HW113901   1.333   2.746   2.373
 4334SOL    HW213902   1.398   2.863   2.467
 4335SOL     OW13903   3.322   3.191   2.622
 4335SOL    HW113904   3.244   3.129   2.615
 4335SOL    HW213905   3.302   3.276   2.574
 4336SOL     OW13906   3.181   6.444   6.623
 4336SOL    HW113907   3.190   6.534   6.580
 4336SOL    HW213908   3.265   6.391   6.608
 4337SOL     OW13909   0.667   4.380   1.030
 4337SOL    HW113910   0.650   4.478   1.023
 4337SOL    HW213911   0.691   4.357   1.125
 4338SOL     OW13912   6.269   6.647   5.093
 4338SOL    HW113913   6.194   6.585   5.118
 4338SOL    HW213914   6.296   6.700   5.173
 4339SOL     OW13915   5.452   3.400   5.402
 4339SOL    HW113916   5.455   3.500   5.407
 4339SOL    HW213917   5.528   3.367   5.347
 4340SOL     OW13918   6.658   2.566   1.766
 4340SOL    HW113919   6.694   2.554   1.858
 4340SOL    HW213920   6.645   2.664   1.747
 4341SOL     OW13921   0.262   6.090   2.558
 4341SOL    HW113922   0.259   6.055   2.652
 4341SOL    HW213923   0.290   6.016   2.497
 4342SOL     OW13924   5.902   4.048   3.706
 4342SOL    HW113925   5.941   4.139   3.694
 4342SOL    HW213926   5.922   3.992   3.626
 4343SOL     OW13927   2.514   6.337   4.997
 4343SOL    HW113928   2.555   6.370   5.081
 4343SOL    HW213929   2.441   6.399   4.968
 4344SOL     OW13930   0.559   4.936   2.116
 4344SOL    HW113931   0.558   5.036   2.119
 4344SOL    HW213932   0.472   4.904   2.077
 4345SOL     OW13933   3.164   3.624   5.002
 4345SOL    HW113934   3.099   3.552   5.024
 4345SOL    HW213935   3.121   3.713   5.017
 4346SOL     OW13936   2.076   3.108   2.207
 4346SOL    HW113937   2.096   3.043   2.280
 4346SOL    HW213938   2.023   3.185   2.244
 4347SOL     OW13939   6.919   6.721   2.494
 4347SOL    HW113940   6.847   6.790   2.491
 4347SOL    HW213941   6.999   6.754   2.443
 4348SOL     OW13942   0.046   4.398   3.572
 4348SOL    HW113943   0.007   4.310   3.545
 4348SOL    HW213944   0.074   4.448   3.490
 4349SOL     OW13945   6.508   1.903   2.360
 4349SOL    HW113946   6.605   1.926   2.352
 4349SOL    HW213947   6.473   1.933   2.449
 4350SOL     OW13948   3.687   1.540   4.460
 4350SOL    HW113949   3.753   1.483   4.509
 4350SOL    HW213950   3.718   1.553   4.366
 4351SOL     OW13951   1.781   4.718   0.850
 4351SOL    HW113952   1.791   4.709   0.751
 4351SOL    HW213953   1.853   4.779   0.885
 4352SOL     OW13954   6.768   3.474   2.324
 4352SOL    HW113955   6.740   3.386   2.287
 4352SOL    HW213956   6.687   3.530   2.343
 4353SOL     OW13957   4.292   2.878   6.506
 4353SOL    HW113958   4.322   2.886   6.600
 4353SOL    HW213959   4.233   2.957   6.483
 4354SOL     OW13960   2.323   6.766   5.116
 4354SOL    HW113961   2.254   6.755   5.187
 4354SOL    HW213962   2.281   6.806   5.034
 4355SOL     OW13963   2.013   0.354   2.766
 4355SOL    HW113964   2.023   0.445   2.805
 4355SOL    HW213965   1.991   0.289   2.839
 4356SOL     OW13966   5.081   3.873   0.853
 4356SOL    HW113967   5.056   3.811   0.779
 4356SOL    HW213968   5.023   3.855   0.933
 4357SOL     OW13969   6.974   1.115   1.315
 4357SOL    HW113970   0.009   1.110   1.234
 4357SOL    HW213971   6.879   1.102   1.289
 4358SOL     OW13972   0.339   6.819   0.451
 4358SOL    HW113973   0.305   6.727   0.431
 4358SOL    HW213974   0.275   6.865   0.513
 4359SOL     OW13975   1.963   1.229   6.240
 4359SOL    HW113976   1.988   1.157   6.304
 4359SOL    HW213977   1.972   1.196   6.146
 4360SOL     OW13978   1.230   2.923   3.388
 4360SOL    HW113979   1.258   3.000   3.331
 4360SOL    HW213980   1.269   2.838   3.352
 4361SOL     OW13981   2.424   3.004   1.227
 4361SOL    HW113982   2.459   3.095   1.205
 4361SOL    HW213983   2.326   3.009   1.243
 4362SOL     OW13984   5.869   5.734   3.367
 4362SOL    HW113985   5.784   5.764   3.411
 4362SOL    HW213986   5.849   5.702   3.275
 4363SOL     OW13987   5.249   2.222   1.347
 4363SOL    HW113988   5.257   2.123   1.358
 4363SOL    HW213989   5.211   2.243   1.257
 4364SOL     OW13990   3.162   3.370   4.624
 4364SOL    HW113991   3.215   3.441   4.671
 4364SOL    HW213992   3.124   3.407   4.540
 4365SOL     OW13993   2.433   1.344   2.362
 4365SOL    HW113994   2.488   1.403   2.303
 4365SOL    HW213995   2.458   1.249   2.349
 4366SOL     OW13996   6.046   0.134   6.949
 4366SOL    HW113997   6.040   0.050   6.894
 4366SOL    HW213998   5.999   0.119   0.013
 4367SOL     OW13999   2.138   4.169   4.603
 4367SOL    HW114000   2.051   4.218   4.610
 4367SOL    HW214001   2.193   4.187   4.684
 4368SOL     OW14002   3.782   4.505   0.588
 4368SOL    HW114003   3.780   4.504   0.688
 4368SOL    HW214004   3.876   4.490   0.556
 4369SOL     OW14005   4.145   5.497   2.689
 4369SOL    HW114006   4.206   5.457   2.620
 4369SOL    HW214007   4.159   5.596   2.690
 4370SOL     OW14008   3.814   5.538   1.780
 4370SOL    HW114009   3.878   5.615   1.774
 4370SOL    HW214010   3.831   5.475   1.705
 4371SOL     OW14011   0.955   1.909   2.061
 4371SOL    HW114012   0.942   1.875   1.968
 4371SOL    HW214013   0.868   1.907   2.110
 4372SOL     OW14014   2.910   1.511   2.796
 4372SOL    HW114015   2.844   1.436   2.788
 4372SOL    HW214016   2.951   1.510   2.888
 4373SOL     OW14017   6.216   2.320   6.913
 4373SOL    HW114018   6.131   2.270   6.932
 4373SOL    HW214019   6.215   2.354   6.819
 4374SOL     OW14020   0.885   1.799   0.668
 4374SOL    HW114021   0.985   1.806   0.663
 4374SOL    HW214022   0.850   1.870   0.729
 4375SOL     OW14023   4.574   6.931   2.892
 4375SOL    HW114024   4.589   6.903   2.987
 4375SOL    HW214025   4.644   6.889   2.834
 4376SOL     OW14026   0.359   6.647   1.770
 4376SOL    HW114027   0.350   6.710   1.847
 4376SOL    HW214028   0.454   6.615   1.764
 4377SOL     OW14029   5.535   4.516   0.161
 4377SOL    HW114030   5.443   4.555   0.171
 4377SOL    HW214031   5.580   4.514   0.250
 4378SOL     OW14032   1.902   2.700   2.660
 4378SOL    HW114033   1.939   2.781   2.706
 4378SOL    HW214034   1.811   2.721   2.624
 4379SOL     OW14035   1.738   2.312   2.575
 4379SOL    HW114036   1.739   2.378   2.650
 4379SOL    HW214037   1.795   2.345   2.500
 4380SOL     OW14038   0.771   6.839   2.828
 4380SOL    HW114039   0.754   6.826   2.926
 4380SOL    HW214040   0.688   6.871   2.784
 4381SOL     OW14041   1.655   4.665   5.629
 4381SOL    HW114042   1.751   4.680   5.608
 4381SOL    HW214043   1.609   4.625   5.549
 4382SOL     OW14044   6.852   3.518   5.376
 4382SOL    HW114045   6.880   3.613   5.393
 4382SOL    HW214046   6.930   3.457   5.388
 4383SOL     OW14047   0.853   2.519   6.076
 4383SOL    HW114048   0.765   2.562   6.098
 4383SOL    HW214049   0.850   2.423   6.106
 4384SOL     OW14050   6.036   1.580   5.059
 4384SOL    HW114051   6.098   1.519   5.009
 4384SOL    HW214052   6.077   1.671   5.065
 4385SOL     OW14053   6.026   2.479   4.716
 4385SOL    HW114054   6.021   2.464   4.618
 4385SOL    HW214055   5.939   2.453   4.758
 4386SOL     OW14056   2.094   3.038   6.190
 4386SOL    HW114057   2.038   3.068   6.267
 4386SOL    HW214058   2.191   3.039   6.216
 4387SOL     OW14059   6.763   1.450   1.045
 4387SOL    HW114060   6.756   1.444   1.145
 4387SOL    HW214061   6.809   1.535   1.020
 4388SOL     OW14062   5.095   2.311   6.770
 4388SOL    HW114063   5.143   2.241   6.823
 4388SOL    HW214064   5.101   2.398   6.819
 4389SOL     OW14065   6.632   3.179   0.657
 4389SOL    HW114066   6.644   3.116   0.734
 4389SOL    HW214067   6.669   3.268   0.681
 4390SOL     OW14068   3.903   0.945   1.420
 4390SOL    HW114069   3.959   0.940   1.502
 4390SOL    HW214070   3.958   0.916   1.341
 4391SOL     OW14071   2.183   5.499   0.023
 4391SOL    HW114072   2.214   5.441   0.098
 4391SOL    HW214073   2.234   5.476   6.963
 4392SOL     OW14074   0.071   3.164   4.388
 4392SOL    HW114075   0.089   3.181   4.291
 4392SOL    HW214076   7.023   3.227   4.420
 4393SOL     OW14077   5.889   0.606   2.712
 4393SOL    HW114078   5.933   0.666   2.780
 4393SOL    HW214079   5.841   0.662   2.645
 4394SOL     OW14080   6.549   6.017   2.479
 4394SOL    HW114081   6.607   6.034   2.559
 4394SOL    HW214082   6.542   6.100   2.424
 4395SOL     OW14083   2.634   6.543   2.176
 4395SOL    HW114084   2.614   6.494   2.261
 4395SOL    HW214085   2.569   6.516   2.105
 4396SOL     OW14086   1.993   1.912   3.776
 4396SOL    HW114087   2.029   1.910   3.682
 4396SOL    HW214088   2.066   1.936   3.839
 4397SOL     OW14089   0.255   1.638   4.757
 4397SOL    HW114090   0.155   1.640   4.752
 4397SOL    HW214091   0.285   1.645   4.852
 4398SOL     OW14092   0.293   3.768   5.719
 4398SOL    HW114093   0.336   3.846   5.674
 4398SOL    HW214094   0.315   3.684   5.669
 4399SOL     OW14095   2.411   0.210   2.284
 4399SOL    HW114096   2.401   0.268   2.203
 4399SOL    HW214097   2.374   0.119   2.264
 4400SOL     OW14098   3.382   6.108   5.247
 4400SOL    HW114099   3.329   6.186   5.282
 4400SOL    HW214100   3.364   6.028   5.304
 4401SOL     OW14101   3.526   7.005   5.966
 4401SOL    HW114102   3.528   6.908   5.941
 4401SOL    HW214103   3.488   7.014   6.059
 4402SOL     OW14104   2.592   0.288   2.013
 4402SOL    HW114105   2.565   0.228   1.937
 4402SOL    HW214106   2.575   0.383   1.987
 4403SOL     OW14107   1.210   0.702   1.637
 4403SOL    HW114108   1.265   0.770   1.685
 4403SOL    HW214109   1.171   0.638   1.703
 4404SOL     OW14110   1.618   4.871   5.798
 4404SOL    HW114111   1.628   4.785   5.749
 4404SOL    HW214112   1.521   4.890   5.813
 4405SOL     OW14113   1.458   3.928   0.960
 4405SOL    HW114114   1.420   3.959   1.047
 4405SOL    HW214115   1.556   3.912   0.970
 4406SOL     OW14116   0.690   3.601   0.665
 4406SOL    HW114117   0.750   3.544   0.608
 4406SOL    HW214118   0.740   3.682   0.695
 4407SOL     OW14119   6.277   5.252   0.344
 4407SOL    HW114120   6.317   5.342   0.329
 4407SOL    HW214121   6.242   5.216   0.257
 4408SOL     OW14122   3.172   0.939   1.216
 4408SOL    HW114123   3.148   0.870   1.147
 4408SOL    HW214124   3.110   0.931   1.294
 4409SOL     OW14125   5.088   0.982   2.600
 4409SOL    HW114126   5.139   1.042   2.662
 4409SOL    HW214127   5.102   0.887   2.626
 4410SOL     OW14128   1.135   4.931   6.827
 4410SOL    HW114129   1.208   4.878   6.786
 4410SOL    HW214130   1.057   4.935   6.764
 4411SOL     OW14131   3.872   4.118   4.887
 4411SOL    HW114132   3.943   4.159   4.829
 4411SOL    HW214133   3.844   4.030   4.848
 4412SOL     OW14134   4.529   6.045   4.114
 4412SOL    HW114135   4.466   6.015   4.186
 4412SOL    HW214136   4.516   5.987   4.033
 4413SOL     OW14137   6.232   4.955   4.423
 4413SOL    HW114138   6.291   5.024   4.381
 4413SOL    HW214139   6.172   4.916   4.353
 4414SOL     OW14140   3.177   5.220   0.806
 4414SOL    HW114141   3.110   5.153   0.774
 4414SOL    HW214142   3.130   5.293   0.855
 4415SOL     OW14143   4.300   2.713   0.905
 4415SOL    HW114144   4.202   2.693   0.904
 4415SOL    HW214145   4.337   2.703   0.813
 4416SOL     OW14146   4.010   1.212   4.520
 4416SOL    HW114147   3.911   1.217   4.506
 4416SOL    HW214148   4.042   1.296   4.563
 4417SOL     OW14149   5.711   4.649   3.376
 4417SOL    HW114150   5.633   4.665   3.316
 4417SOL    HW214151   5.758   4.736   3.392
 4418SOL     OW14152   6.418   1.718   2.611
 4418SOL    HW114153   6.384   1.779   2.539
 4418SOL    HW214154   6.500   1.671   2.579
 4419SOL     OW14155   5.708   6.758   6.440
 4419SOL    HW114156   5.676   6.721   6.353
 4419SOL    HW214157   5.640   6.739   6.511
 4420SOL     OW14158   4.895   0.876   1.805
 4420SOL    HW114159   4.903   0.948   1.873
 4420SOL    HW214160   4.953   0.799   1.831
 4421SOL     OW14161   2.334   1.058   5.292
 4421SOL    HW114162   2.289   1.131   5.240
 4421SOL    HW214163   2.369   0.989   5.229
 4422SOL     OW14164   2.242   3.680   7.002
 4422SOL    HW114165   2.299   3.714   6.927
 4422SOL    HW214166   2.184   3.754   0.013
 4423SOL     OW14167   0.205   3.149   5.749
 4423SOL    HW114168   0.274   3.118   5.684
 4423SOL    HW214169   0.118   3.104   5.727
 4424SOL     OW14170   5.528   1.234   4.396
 4424SOL    HW114171   5.572   1.149   4.426
 4424SOL    HW214172   5.432   1.215   4.373
 4425SOL     OW14173   2.635   4.051   0.466
 4425SOL    HW114174   2.570   4.026   0.394
 4425SOL    HW214175   2.601   4.132   0.514
 4426SOL     OW14176   0.201   1.782   3.879
 4426SOL    HW114177   0.209   1.684   3.863
 4426SOL    HW214178   0.158   1.799   3.968
 4427SOL     OW14179   0.633   6.136   3.056
 4427SOL    HW114180   0.567   6.210   3.068
 4427SOL    HW214181   0.721   6.174   3.028
 4428SOL     OW14182   3.342   0.514   3.446
 4428SOL    HW114183   3.249   0.479   3.440
 4428SOL    HW214184   3.342   0.613   3.431
 4429SOL     OW14185   2.966   6.873   2.919
 4429SOL    HW114186   2.909   6.793   2.938
 4429SOL    HW214187   3.060   6.844   2.904
 4430SOL     OW14188   4.968   4.082   4.559
 4430SOL    HW114189   5.060   4.121   4.567
 4430SOL    HW214190   4.936   4.055   4.650
 4431SOL     OW14191   2.599   1.328   1.923
 4431SOL    HW114192   2.685   1.307   1.968
 4431SOL    HW214193   2.611   1.406   1.862
 4432SOL     OW14194   2.592   3.421   6.066
 4432SOL    HW114195   2.519   3.412   5.998
 4432SOL    HW214196   2.674   3.458   6.021
 4433SOL     OW14197   5.186   1.997   4.353
 4433SOL    HW114198   5.187   1.988   4.452
 4433SOL    HW214199   5.253   2.066   4.325
 4434SOL     OW14200   5.143   1.378   2.935
 4434SOL    HW114201   5.067   1.389   2.870
 4434SOL    HW214202   5.164   1.466   2.977
 4435SOL     OW14203   5.115   2.936   1.755
 4435SOL    HW114204   5.131   2.970   1.662
 4435SOL    HW214205   5.024   2.895   1.760
 4436SOL     OW14206   4.294   1.422   1.454
 4436SOL    HW114207   4.252   1.382   1.536
 4436SOL    HW214208   4.382   1.377   1.436
 4437SOL     OW14209   6.814   2.668   2.749
 4437SOL    HW114210   6.790   2.571   2.752
 4437SOL    HW214211   6.862   2.688   2.664
 4438SOL     OW14212   5.291   6.829   6.840
 4438SOL    HW114213   5.269   6.876   6.755
 4438SOL    HW214214   5.387   6.842   6.862
 4439SOL     OW14215   6.972   4.273   1.632
 4439SOL    HW114216   6.982   4.290   1.730
 4439SOL    HW214217   0.016   4.205   1.603
 4440SOL     OW14218   2.711   4.475   0.516
 4440SOL    HW114219   2.738   4.461   0.420
 4440SOL    HW214220   2.661   4.394   0.548
 4441SOL     OW14221   0.382   2.394   2.711
 4441SOL    HW114222   0.312   2.347   2.657
 4441SOL    HW214223   0.362   2.384   2.808
 4442SOL     OW14224   2.222   5.328   4.287
 4442SOL    HW114225   2.217   5.394   4.362
 4442SOL    HW214226   2.284   5.362   4.216
 4443SOL     OW14227   1.064   3.493   6.696
 4443SOL    HW114228   1.036   3.507   6.601
 4443SOL    HW214229   1.014   3.416   6.734
 4444SOL     OW14230   3.218   4.155   4.887
 4444SOL    HW114231   3.203   4.130   4.791
 4444SOL    HW214232   3.206   4.254   4.898
 4445SOL     OW14233   1.557   6.681   0.439
 4445SOL    HW114234   1.572   6.735   0.521
 4445SOL    HW214235   1.542   6.741   0.361
 4446SOL     OW14236   5.279   0.927   1.602
 4446SOL    HW114237   5.215   0.949   1.528
 4446SOL    HW214238   5.370   0.910   1.564
 4447SOL     OW14239   5.458   4.425   5.659
 4447SOL    HW114240   5.362   4.445   5.677
 4447SOL    HW214241   5.474   4.424   5.561
 4448SOL     OW14242   2.584   3.866   1.612
 4448SOL    HW114243   2.669   3.826   1.647
 4448SOL    HW214244   2.598   3.897   1.518
 4449SOL     OW14245   4.747   0.930   6.227
 4449SOL    HW114246   4.698   0.848   6.197
 4449SOL    HW214247   4.813   0.956   6.156
 4450SOL     OW14248   3.396   2.998   5.284
 4450SOL    HW114249   3.428   2.932   5.216
 4450SOL    HW214250   3.381   2.952   5.371
 4451SOL     OW14251   6.524   4.728   2.945
 4451SOL    HW114252   6.538   4.739   3.043
 4451SOL    HW214253   6.435   4.764   2.919
 4452SOL     OW14254   4.924   6.333   4.344
 4452SOL    HW114255   4.876   6.303   4.427
 4452SOL    HW214256   4.869   6.310   4.264
 4453SOL     OW14257   1.137   3.280   1.379
 4453SOL    HW114258   1.236   3.286   1.363
 4453SOL    HW214259   1.119   3.210   1.447
 4454SOL     OW14260   1.746   1.999   0.348
 4454SOL    HW114261   1.666   1.999   0.409
 4454SOL    HW214262   1.820   1.948   0.391
 4455SOL     OW14263   4.226   6.466   5.873
 4455SOL    HW114264   4.202   6.380   5.918
 4455SOL    HW214265   4.246   6.449   5.776
 4456SOL     OW14266   2.846   6.096   1.953
 4456SOL    HW114267   2.774   6.093   1.884
 4456SOL    HW214268   2.852   6.008   2.000
 4457SOL     OW14269   4.211   1.250   2.591
 4457SOL    HW114270   4.205   1.151   2.606
 4457SOL    HW214271   4.124   1.293   2.617
 4458SOL     OW14272   2.014   2.467   0.793
 4458SOL    HW114273   1.923   2.506   0.774
 4458SOL    HW214274   2.009   2.413   0.877
 4459SOL     OW14275   4.044   1.485   4.624
 4459SOL    HW114276   4.086   1.550   4.560
 4459SOL    HW214277   4.108   1.463   4.697
 4460SOL     OW14278   1.849   2.701   6.053
 4460SOL    HW114279   1.939   2.731   6.085
 4460SOL    HW214280   1.848   2.699   5.953
 4461SOL     OW14281   1.809   0.030   0.905
 4461SOL    HW114282   1.819   6.956   0.924
 4461SOL    HW214283   1.720   0.062   0.939
 4462SOL     OW14284   5.697   5.301   1.753
 4462SOL    HW114285   5.663   5.317   1.846
 4462SOL    HW214286   5.655   5.366   1.690
 4463SOL     OW14287   4.884   1.364   0.675
 4463SOL    HW114288   4.917   1.420   0.600
 4463SOL    HW214289   4.814   1.414   0.726
 4464SOL     OW14290   0.668   5.403   0.656
 4464SOL    HW114291   0.682   5.388   0.754
 4464SOL    HW214292   0.702   5.324   0.605
 4465SOL     OW14293   3.572   5.704   1.475
 4465SOL    HW114294   3.545   5.651   1.395
 4465SOL    HW214295   3.537   5.659   1.557
 4466SOL     OW14296   1.403   2.130   3.748
 4466SOL    HW114297   1.340   2.208   3.741
 4466SOL    HW214298   1.433   2.103   3.657
 4467SOL     OW14299   2.014   5.505   2.697
 4467SOL    HW114300   2.087   5.572   2.704
 4467SOL    HW214301   1.962   5.503   2.783
 4468SOL     OW14302   1.776   3.930   0.312
 4468SOL    HW114303   1.823   3.898   0.230
 4468SOL    HW214304   1.752   4.026   0.302
 4469SOL     OW14305   3.329   0.328   1.702
 4469SOL    HW114306   3.390   0.406   1.691
 4469SOL    HW214307   3.271   0.342   1.782
 4470SOL     OW14308   0.006   2.702   2.182
 4470SOL    HW114309   0.006   2.654   2.269
 4470SOL    HW214310   0.076   2.662   2.122
 4471SOL     OW14311   0.441   2.119   6.429
 4471SOL    HW114312   0.487   2.202   6.398
 4471SOL    HW214313   0.405   2.069   6.350
 4472SOL     OW14314   1.109   3.342   1.910
 4472SOL    HW114315   1.060   3.319   1.826
 4472SOL    HW214316   1.063   3.417   1.957
 4473SOL     OW14317   5.649   2.815   4.600
 4473SOL    HW114318   5.551   2.819   4.618
 4473SOL    HW214319   5.675   2.891   4.539
 4474SOL     OW14320   1.970   0.588   2.383
 4474SOL    HW114321   1.992   0.654   2.455
 4474SOL    HW214322   2.011   0.618   2.297
 4475SOL     OW14323   1.315   4.325   2.224
 4475SOL    HW114324   1.407   4.305   2.191
 4475SOL    HW214325   1.294   4.264   2.301
 4476SOL     OW14326   5.048   0.359   3.033
 4476SOL    HW114327   5.030   0.434   3.097
 4476SOL    HW214328   5.017   0.272   3.073
 4477SOL     OW14329   1.911   6.930   5.015
 4477SOL    HW114330   1.829   6.938   4.958
 4477SOL    HW214331   1.919   7.009   5.075
 4478SOL     OW14332   3.519   0.161   3.177
 4478SOL    HW114333   3.553   0.108   3.100
 4478SOL    HW214334   3.490   0.252   3.145
 4479SOL     OW14335   0.664   1.773   0.988
 4479SOL    HW114336   0.683   1.676   0.998
 4479SOL    HW214337   0.571   1.786   0.955
 4480SOL     OW14338   1.203   4.267   5.273
 4480SOL    HW114339   1.142   4.343   5.294
 4480SOL    HW214340   1.241   4.231   5.358
 4481SOL     OW14341   3.941   5.532   4.891
 4481SOL    HW114342   4.034   5.563   4.908
 4481SOL    HW214343   3.902   5.496   4.976
 4482SOL     OW14344   1.521   2.800   4.931
 4482SOL    HW114345   1.461   2.776   4.855
 4482SOL    HW214346   1.585   2.871   4.902
 4483SOL     OW14347   5.711   2.541   2.366
 4483SOL    HW114348   5.639   2.475   2.385
 4483SOL    HW214349   5.675   2.613   2.306
 4484SOL     OW14350   3.315   2.129   6.100
 4484SOL    HW114351   3.372   2.189   6.044
 4484SOL    HW214352   3.366   2.044   6.120
 4485SOL     OW14353   5.545   1.860   4.629
 4485SOL    HW114354   5.550   1.828   4.534
 4485SOL    HW214355   5.496   1.947   4.633
 4486SOL     OW14356   5.686   5.313   5.283
 4486SOL    HW114357   5.672   5.240   5.216
 4486SOL    HW214358   5.726   5.276   5.366
 4487SOL     OW14359   2.861   2.982   6.439
 4487SOL    HW114360   2.877   2.997   6.341
 4487SOL    HW214361   2.769   3.014   6.463
 4488SOL     OW14362   0.527   3.267   5.849
 4488SOL    HW114363   0.505   3.351   5.899
 4488SOL    HW214364   0.529   3.287   5.751
 4489SOL     OW14365   5.269   5.683   5.339
 4489SOL    HW114366   5.316   5.626   5.272
 4489SOL    HW214367   5.189   5.634   5.373
 4490SOL     OW14368   6.000   2.298   1.942
 4490SOL    HW114369   5.923   2.239   1.963
 4490SOL    HW214370   5.993   2.383   1.995
 4491SOL     OW14371   6.740   3.131   3.792
 4491SOL    HW114372   6.836   3.117   3.818
 4491SOL    HW214373   6.733   3.208   3.729
 4492SOL     OW14374   5.913   4.903   1.604
 4492SOL    HW114375   5.905   4.810   1.640
 4492SOL    HW214376   5.995   4.947   1.642
 4493SOL     OW14377   4.804   5.271   4.746
 4493SOL    HW114378   4.717   5.222   4.742
 4493SOL    HW214379   4.795   5.351   4.805
 4494SOL     OW14380   0.459   0.908   6.698
 4494SOL    HW114381   0.379   0.928   6.642
 4494SOL    HW214382   0.534   0.969   6.671
 4495SOL     OW14383   3.899   6.091   4.631
 4495SOL    HW114384   3.838   6.018   4.599
 4495SOL    HW214385   3.994   6.063   4.617
 4496SOL     OW14386   5.717   6.420   0.862
 4496SOL    HW114387   5.780   6.357   0.907
 4496SOL    HW214388   5.650   6.453   0.928
 4497SOL     OW14389   5.194   2.033   6.562
 4497SOL    HW114390   5.280   2.043   6.511
 4497SOL    HW214391   5.171   1.936   6.568
 4498SOL     OW14392   0.362   3.083   0.151
 4498SOL    HW114393   0.328   3.012   0.089
 4498SOL    HW214394   0.295   3.156   0.159
 4499SOL     OW14395   5.695   3.725   4.047
 4499SOL    HW114396   5.761   3.792   4.012
 4499SOL    HW214397   5.738   3.672   4.120
 4500SOL     OW14398   3.129   3.094   4.559
 4500SOL    HW114399   3.091   3.042   4.635
 4500SOL    HW214400   3.132   3.191   4.583
 4501SOL     OW14401   6.807   3.342   3.026
 4501SOL    HW114402   6.807   3.242   3.025
 4501SOL    HW214403   6.716   3.375   3.052
 4502SOL     OW14404   0.330   3.002   6.663
 4502SOL    HW114405   0.406   3.038   6.609
 4502SOL    HW214406   0.361   2.924   6.717
 4503SOL     OW14407   3.358   0.038   1.628
 4503SOL    HW114408   3.353   6.966   1.658
 4503SOL    HW214409   3.357   0.099   1.707
 4504SOL     OW14410   6.463   1.083   4.674
 4504SOL    HW114411   6.442   0.993   4.634
 4504SOL    HW214412   6.470   1.073   4.774
 4505SOL     OW14413   6.064   5.048   1.780
 4505SOL    HW114414   6.131   5.116   1.810
 4505SOL    HW214415   5.995   5.036   1.851
 4506SOL     OW14416   4.793   2.934   3.508
 4506SOL    HW114417   4.849   2.854   3.532
 4506SOL    HW214418   4.744   2.965   3.590
 4507SOL     OW14419   5.857   4.682   3.160
 4507SOL    HW114420   5.781   4.650   3.217
 4507SOL    HW214421   5.831   4.768   3.116
 4508SOL     OW14422   1.792   5.283   0.288
 4508SOL    HW114423   1.838   5.338   0.219
 4508SOL    HW214424   1.693   5.300   0.285
 4509SOL     OW14425   4.484   2.510   2.351
 4509SOL    HW114426   4.534   2.534   2.268
 4509SOL    HW214427   4.392   2.479   2.327
 4510SOL     OW14428   3.999   1.849   4.278
 4510SOL    HW114429   3.994   1.860   4.377
 4510SOL    HW214430   3.942   1.918   4.233
 4511SOL     OW14431   5.686   3.915   6.680
 4511SOL    HW114432   5.765   3.879   6.630
 4511SOL    HW214433   5.623   3.960   6.616
 4512SOL     OW14434   2.640   1.256   5.409
 4512SOL    HW114435   2.702   1.182   5.385
 4512SOL    HW214436   2.588   1.284   5.328
 4513SOL     OW14437   0.687   4.925   6.463
 4513SOL    HW114438   0.626   4.982   6.518
 4513SOL    HW214439   0.760   4.889   6.521
 4514SOL     OW14440   3.985   2.238   6.076
 4514SOL    HW114441   4.043   2.215   6.154
 4514SOL    HW214442   4.037   2.293   6.011
 4515SOL     OW14443   7.018   1.807   5.540
 4515SOL    HW114444   0.005   1.721   5.591
 4515SOL    HW214445   0.083   1.854   5.538
 4516SOL     OW14446   2.280   0.255   0.450
 4516SOL    HW114447   2.309   0.215   0.536
 4516SOL    HW214448   2.275   0.183   0.380
 4517SOL     OW14449   4.439   0.820   6.599
 4517SOL    HW114450   4.413   0.843   6.505
 4517SOL    HW214451   4.451   0.903   6.652
 4518SOL     OW14452   0.250   0.318   2.346
 4518SOL    HW114453   0.260   0.368   2.260
 4518SOL    HW214454   0.202   0.232   2.330
 4519SOL     OW14455   6.768   6.992   1.590
 4519SOL    HW114456   6.777   7.013   1.493
 4519SOL    HW214457   6.748   6.894   1.601
 4520SOL     OW14458   4.161   6.372   5.174
 4520SOL    HW114459   4.253   6.333   5.171
 4520SOL    HW214460   4.117   6.360   5.084
 4521SOL     OW14461   6.417   1.904   4.704
 4521SOL    HW114462   6.342   1.840   4.686
 4521SOL    HW214463   6.421   1.924   4.802
 4522SOL     OW14464   5.504   5.326   3.327
 4522SOL    HW114465   5.454   5.395   3.274
 4522SOL    HW214466   5.456   5.239   3.321
 4523SOL     OW14467   0.936   4.622   0.447
 4523SOL    HW114468   0.904   4.699   0.393
 4523SOL    HW214469   1.025   4.643   0.487
 4524SOL     OW14470   6.441   2.707   2.045
 4524SOL    HW114471   6.494   2.778   2.091
 4524SOL    HW214472   6.466   2.617   2.083
 4525SOL     OW14473   4.986   2.277   5.745
 4525SOL    HW114474   5.015   2.299   5.652
 4525SOL    HW214475   4.886   2.274   5.748
 4526SOL     OW14476   0.146   0.114   6.488
 4526SOL    HW114477   0.134   0.213   6.491
 4526SOL    HW214478   0.114   0.074   6.574
 4527SOL     OW14479   6.082   1.502   4.110
 4527SOL    HW114480   6.020   1.553   4.171
 4527SOL    HW214481   6.029   1.439   4.054
 4528SOL     OW14482   4.749   0.600   0.045
 4528SOL    HW114483   4.778   0.583   0.139
 4528SOL    HW214484   4.826   0.634   7.014
 4529SOL     OW14485   2.049   0.281   4.822
 4529SOL    HW114486   1.997   0.292   4.907
 4529SOL    HW214487   2.027   0.192   4.781
 4530SOL     OW14488   1.733   5.063   4.086
 4530SOL    HW114489   1.806   5.131   4.076
 4530SOL    HW214490   1.648   5.100   4.050
 4531SOL     OW14491   0.531   2.760   5.097
 4531SOL    HW114492   0.543   2.858   5.083
 4531SOL    HW214493   0.610   2.722   5.144
 4532SOL     OW14494   6.804   1.266   2.511
 4532SOL    HW114495   6.852   1.340   2.559
 4532SOL    HW214496   6.707   1.289   2.504
 4533SOL     OW14497   1.342   1.690   1.968
 4533SOL    HW114498   1.406   1.753   1.924
 4533SOL    HW214499   1.371   1.673   2.062
 4534SOL     OW14500   4.718   4.247   4.785
 4534SOL    HW114501   4.681   4.251   4.692
 4534SOL    HW214502   4.787   4.175   4.791
 4535SOL     OW14503   3.371   0.900   2.998
 4535SOL    HW114504   3.456   0.946   2.973
 4535SOL    HW214505   3.299   0.925   2.933
 4536SOL     OW14506   4.221   1.636   4.444
 4536SOL    HW114507   4.234   1.560   4.381
 4536SOL    HW214508   4.310   1.666   4.478
 4537SOL     OW14509   4.174   3.366   0.169
 4537SOL    HW114510   4.152   3.270   0.183
 4537SOL    HW214511   4.090   3.419   0.164
 4538SOL     OW14512   1.590   0.260   2.889
 4538SOL    HW114513   1.549   0.335   2.836
 4538SOL    HW214514   1.630   0.297   2.973
 4539SOL     OW14515   3.207   6.098   4.753
 4539SOL    HW114516   3.273   6.161   4.714
 4539SOL    HW214517   3.212   6.103   4.853
 4540SOL     OW14518   2.493   2.174   6.486
 4540SOL    HW114519   2.403   2.130   6.481
 4540SOL    HW214520   2.493   2.255   6.429
 4541SOL     OW14521   5.942   1.622   0.147
 4541SOL    HW114522   6.006   1.558   0.105
 4541SOL    HW214523   5.857   1.625   0.094
 4542SOL     OW14524   0.225   1.683   1.428
 4542SOL    HW114525   0.247   1.744   1.503
 4542SOL    HW214526   0.270   1.715   1.344
 4543SOL     OW14527   4.418   2.099   1.059
 4543SOL    HW114528   4.436   2.087   1.157
 4543SOL    HW214529   4.323   2.077   1.040
 4544SOL     OW14530   3.480   5.589   6.643
 4544SOL    HW114531   3.492   5.514   6.709
 4544SOL    HW214532   3.502   5.556   6.551
 4545SOL     OW14533   5.529   2.977   4.251
 4545SOL    HW114534   5.485   2.943   4.334
 4545SOL    HW214535   5.461   2.982   4.178
 4546SOL     OW14536   1.669   1.214   4.819
 4546SOL    HW114537   1.590   1.171   4.777
 4546SOL    HW214538   1.643   1.303   4.858
 4547SOL     OW14539   6.415   2.169   1.194
 4547SOL    HW114540   6.434   2.126   1.106
 4547SOL    HW214541   6.318   2.158   1.217
 4548SOL     OW14542   1.389   3.326   3.809
 4548SOL    HW114543   1.315   3.393   3.821
 4548SOL    HW214544   1.447   3.326   3.891
 4549SOL     OW14545   6.127   4.435   1.823
 4549SOL    HW114546   6.134   4.468   1.729
 4549SOL    HW214547   6.065   4.357   1.827
 4550SOL     OW14548   0.819   5.379   3.215
 4550SOL    HW114549   0.822   5.281   3.194
 4550SOL    HW214550   0.776   5.428   3.139
 4551SOL     OW14551   0.075   3.506   4.691
 4551SOL    HW114552   7.007   3.504   4.732
 4551SOL    HW214553   0.123   3.421   4.711
 4552SOL     OW14554   6.718   2.362   1.571
 4552SOL    HW114555   6.634   2.310   1.557
 4552SOL    HW214556   6.701   2.436   1.636
 4553SOL     OW14557   4.024   4.100   6.775
 4553SOL    HW114558   4.019   4.058   6.866
 4553SOL    HW214559   3.937   4.087   6.728
 4554SOL     OW14560   6.200   6.744   1.319
 4554SOL    HW114561   6.163   6.759   1.411
 4554SOL    HW214562   6.219   6.646   1.307
 4555SOL     OW14563   2.689   1.912   5.052
 4555SOL    HW114564   2.730   1.968   5.125
 4555SOL    HW214565   2.762   1.871   4.998
 4556SOL     OW14566   5.184   3.272   4.189
 4556SOL    HW114567   5.096   3.270   4.238
 4556SOL    HW214568   5.199   3.183   4.146
 4557SOL     OW14569   4.847   5.872   5.482
 4557SOL    HW114570   4.906   5.793   5.463
 4557SOL    HW214571   4.903   5.947   5.519
 4558SOL     OW14572   6.734   4.420   5.117
 4558SOL    HW114573   6.780   4.508   5.129
 4558SOL    HW214574   6.697   4.414   5.024
 4559SOL     OW14575   0.633   3.476   1.866
 4559SOL    HW114576   0.619   3.575   1.879
 4559SOL    HW214577   0.619   3.429   1.953
 4560SOL     OW14578   5.112   4.267   1.700
 4560SOL    HW114579   5.181   4.197   1.718
 4560SOL    HW214580   5.028   4.224   1.666
 4561SOL     OW14581   2.543   2.053   2.845
 4561SOL    HW114582   2.628   2.001   2.838
 4561SOL    HW214583   2.467   1.990   2.858
 4562SOL     OW14584   1.995   6.641   5.961
 4562SOL    HW114585   2.014   6.737   5.941
 4562SOL    HW214586   1.905   6.633   6.004
 4563SOL     OW14587   0.341   2.851   0.706
 4563SOL    HW114588   0.434   2.827   0.734
 4563SOL    HW214589   0.335   2.845   0.606
 4564SOL     OW14590   0.070   5.781   2.159
 4564SOL    HW114591   0.153   5.837   2.162
 4564SOL    HW214592   0.019   5.802   2.076
 4565SOL     OW14593   0.504   0.579   4.989
 4565SOL    HW114594   0.548   0.582   4.899
 4565SOL    HW214595   0.550   0.644   5.051
 4566SOL     OW14596   6.786   2.747   7.004
 4566SOL    HW114597   6.790   2.833   0.032
 4566SOL    HW214598   6.695   2.708   7.011
 4567SOL     OW14599   6.547   1.153   5.854
 4567SOL    HW114600   6.506   1.238   5.820
 4567SOL    HW214601   6.612   1.119   5.786
 4568SOL     OW14602   1.787   2.993   6.131
 4568SOL    HW114603   1.820   2.900   6.111
 4568SOL    HW214604   1.835   3.059   6.073
 4569SOL     OW14605   1.648   1.622   3.023
 4569SOL    HW114606   1.607   1.533   3.005
 4569SOL    HW214607   1.724   1.637   2.960
 4570SOL     OW14608   0.213   0.033   2.336
 4570SOL    HW114609   0.306   7.021   2.324
 4570SOL    HW214610   0.167   7.005   2.408
 4571SOL     OW14611   4.464   4.286   6.261
 4571SOL    HW114612   4.514   4.203   6.287
 4571SOL    HW214613   4.394   4.306   6.330
 4572SOL     OW14614   2.137   0.475   6.495
 4572SOL    HW114615   2.157   0.555   6.440
 4572SOL    HW214616   2.216   0.453   6.553
 4573SOL     OW14617   6.305   0.299   0.324
 4573SOL    HW114618   6.362   0.374   0.291
 4573SOL    HW214619   6.220   0.294   0.272
 4574SOL     OW14620   5.694   3.443   0.570
 4574SOL    HW114621   5.670   3.511   0.500
 4574SOL    HW214622   5.793   3.435   0.576
 4575SOL     OW14623   5.779   1.146   5.986
 4575SOL    HW114624   5.712   1.107   5.923
 4575SOL    HW214625   5.871   1.116   5.960
 4576SOL     OW14626   2.970   6.246   5.631
 4576SOL    HW114627   3.001   6.173   5.693
 4576SOL    HW214628   2.885   6.284   5.666
 4577SOL     OW14629   0.982   2.379   4.326
 4577SOL    HW114630   1.073   2.344   4.306
 4577SOL    HW214631   0.987   2.479   4.338
 4578SOL     OW14632   1.060   2.481   5.128
 4578SOL    HW114633   1.095   2.572   5.147
 4578SOL    HW214634   1.009   2.447   5.207
 4579SOL     OW14635   3.791   0.443   3.342
 4579SOL    HW114636   3.869   0.384   3.363
 4579SOL    HW214637   3.707   0.401   3.377
 4580SOL     OW14638   5.382   4.390   0.955
 4580SOL    HW114639   5.394   4.301   1.000
 4580SOL    HW214640   5.299   4.388   0.900
 4581SOL     OW14641   2.180   5.584   2.231
 4581SOL    HW114642   2.104   5.580   2.296
 4581SOL    HW214643   2.265   5.603   2.280
 4582SOL     OW14644   4.517   0.962   4.814
 4582SOL    HW114645   4.587   0.957   4.743
 4582SOL    HW214646   4.455   1.038   4.795
 4583SOL     OW14647   2.866   2.323   6.886
 4583SOL    HW114648   2.912   2.405   6.920
 4583SOL    HW214649   2.888   2.310   6.789
 4584SOL     OW14650   0.390   4.378   5.724
 4584SOL    HW114651   0.368   4.366   5.821
 4584SOL    HW214652   0.351   4.464   5.692
 4585SOL     OW14653   2.368   5.743   3.325
 4585SOL    HW114654   2.366   5.836   3.360
 4585SOL    HW214655   2.314   5.683   3.384
 4586SOL     OW14656   4.037   4.549   0.472
 4586SOL    HW114657   4.083   4.604   0.541
 4586SOL    HW214658   3.967   4.604   0.426
 4587SOL     OW14659   3.235   4.127   3.698
 4587SOL    HW114660   3.227   4.080   3.786
 4587SOL    HW214661   3.331   4.150   3.682
 4588SOL     OW14662   2.440   3.455   5.415
 4588SOL    HW114663   2.360   3.396   5.404
 4588SOL    HW214664   2.521   3.408   5.380
 4589SOL     OW14665   6.409   0.812   2.185
 4589SOL    HW114666   6.466   0.768   2.115
 4589SOL    HW214667   6.345   0.745   2.222
 4590SOL     OW14668   4.572   5.362   1.054
 4590SOL    HW114669   4.536   5.425   1.122
 4590SOL    HW214670   4.497   5.325   0.999
 4591SOL     OW14671   1.349   0.289   4.421
 4591SOL    HW114672   1.416   0.226   4.461
 4591SOL    HW214673   1.364   0.381   4.458
 4592SOL     OW14674   2.325   1.614   2.822
 4592SOL    HW114675   2.259   1.559   2.873
 4592SOL    HW214676   2.366   1.557   2.750
 4593SOL     OW14677   5.218   5.652   2.592
 4593SOL    HW114678   5.193   5.708   2.670
 4593SOL    HW214679   5.140   5.594   2.566
 4594SOL     OW14680   2.603   1.295   2.941
 4594SOL    HW114681   2.595   1.234   3.020
 4594SOL    HW214682   2.512   1.330   2.917
 4595SOL     OW14683   4.524   3.327   5.530
 4595SOL    HW114684   4.556   3.400   5.591
 4595SOL    HW214685   4.504   3.245   5.584
 4596SOL     OW14686   6.292   0.449   2.242
 4596SOL    HW114687   6.265   0.545   2.241
 4596SOL    HW214688   6.231   0.397   2.302
 4597SOL     OW14689   4.034   5.142   6.510
 4597SOL    HW114690   4.123   5.099   6.497
 4597SOL    HW214691   4.000   5.123   6.602
 4598SOL     OW14692   1.680   5.885   0.409
 4598SOL    HW114693   1.732   5.821   0.352
 4598SOL    HW214694   1.735   5.911   0.489
 4599SOL     OW14695   1.569   4.785   0.158
 4599SOL    HW114696   1.633   4.840   0.106
 4599SOL    HW214697   1.477   4.826   0.152
 4600SOL     OW14698   1.108   5.561   5.885
 4600SOL    HW114699   1.180   5.624   5.857
 4600SOL    HW214700   1.138   5.467   5.871
 4601SOL     OW14701   2.023   1.084   5.171
 4601SOL    HW114702   1.975   1.051   5.089
 4601SOL    HW214703   2.025   1.011   5.239
 4602SOL     OW14704   2.900   6.466   0.760
 4602SOL    HW114705   2.926   6.509   0.846
 4602SOL    HW214706   2.808   6.428   0.768
 4603SOL     OW14707   3.718   6.500   0.611
 4603SOL    HW114708   3.694   6.497   0.513
 4603SOL    HW214709   3.669   6.428   0.659
 4604SOL     OW14710   4.179   0.322   6.978
 4604SOL    HW114711   4.256   0.291   0.011
 4604SOL    HW214712   4.143   0.408   7.016
 4605SOL     OW14713   1.786   6.623   2.408
 4605SOL    HW114714   1.742   6.541   2.372
 4605SOL    HW214715   1.842   6.599   2.487
 4606SOL     OW14716   0.889   6.906   2.489
 4606SOL    HW114717   0.900   6.824   2.433
 4606SOL    HW214718   0.797   6.909   2.526
 4607SOL     OW14719   1.937   3.145   1.934
 4607SOL    HW114720   1.991   3.113   2.011
 4607SOL    HW214721   1.940   3.077   1.860
 4608SOL     OW14722   0.482   5.838   3.472
 4608SOL    HW114723   0.453   5.932   3.491
 4608SOL    HW214724   0.533   5.802   3.550
 4609SOL     OW14725   4.571   4.921   6.682
 4609SOL    HW114726   4.645   4.966   6.731
 4609SOL    HW214727   4.499   4.896   6.746
 4610SOL     OW14728   5.242   1.948   0.570
 4610SOL    HW114729   5.174   2.020   0.551
 4610SOL    HW214730   5.206   1.860   0.539
 4611SOL     OW14731   0.899   6.373   6.298
 4611SOL    HW114732   0.904   6.279   6.333
 4611SOL    HW214733   0.809   6.388   6.257
 4612SOL     OW14734   1.287   6.270   0.493
 4612SOL    HW114735   1.262   6.332   0.419
 4612SOL    HW214736   1.347   6.198   0.457
 4613SOL     OW14737   1.754   5.429   2.010
 4613SOL    HW114738   1.834   5.403   1.955
 4613SOL    HW214739   1.671   5.393   1.967
 4614SOL     OW14740   6.389   3.279   2.490
 4614SOL    HW114741   6.464   3.215   2.470
 4614SOL    HW214742   6.339   3.248   2.571
 4615SOL     OW14743   1.895   0.838   6.988
 4615SOL    HW114744   1.951   0.757   6.969
 4615SOL    HW214745   1.905   0.903   6.912
 4616SOL     OW14746   6.162   1.072   4.812
 4616SOL    HW114747   6.168   1.040   4.717
 4616SOL    HW214748   6.253   1.099   4.844
 4617SOL     OW14749   0.724   2.325   2.243
 4617SOL    HW114750   0.776   2.342   2.159
 4617SOL    HW214751   0.769   2.369   2.320
 4618SOL     OW14752   2.335   2.784   5.186
 4618SOL    HW114753   2.360   2.711   5.122
 4618SOL    HW214754   2.356   2.873   5.145
 4619SOL     OW14755   3.187   6.297   3.450
 4619SOL    HW114756   3.167   6.305   3.352
 4619SOL    HW214757   3.259   6.363   3.474
 4620SOL     OW14758   2.582   4.791   0.820
 4620SOL    HW114759   2.618   4.790   0.913
 4620SOL    HW214760   2.526   4.709   0.805
 4621SOL     OW14761   4.719   0.268   2.504
 4621SOL    HW114762   4.749   0.299   2.594
 4621SOL    HW214763   4.675   0.345   2.456
 4622SOL     OW14764   3.444   4.702   0.608
 4622SOL    HW114765   3.505   4.624   0.621
 4622SOL    HW214766   3.370   4.676   0.546
 4623SOL     OW14767   5.664   6.270   1.118
 4623SOL    HW114768   5.635   6.223   1.201
 4623SOL    HW214769   5.737   6.335   1.141
 4624SOL     OW14770   3.606   0.063   2.965
 4624SOL    HW114771   3.613   7.002   2.911
 4624SOL    HW214772   3.678   0.126   2.937
 4625SOL     OW14773   1.788   4.722   1.297
 4625SOL    HW114774   1.717   4.761   1.238
 4625SOL    HW214775   1.757   4.636   1.335
 4626SOL     OW14776   5.479   4.222   2.319
 4626SOL    HW114777   5.500   4.190   2.227
 4626SOL    HW214778   5.418   4.157   2.364
 4627SOL     OW14779   2.055   4.568   5.109
 4627SOL    HW114780   2.154   4.562   5.095
 4627SOL    HW214781   2.011   4.590   5.023
 4628SOL     OW14782   4.774   4.086   4.365
 4628SOL    HW114783   4.860   4.103   4.415
 4628SOL    HW214784   4.703   4.061   4.431
 4629SOL     OW14785   2.811   5.243   5.289
 4629SOL    HW114786   2.875   5.242   5.366
 4629SOL    HW214787   2.773   5.151   5.276
 4630SOL     OW14788   2.523   6.137   2.180
 4630SOL    HW114789   2.623   6.148   2.179
 4630SOL    HW214790   2.482   6.206   2.120
 4631SOL     OW14791   1.511   6.127   3.588
 4631SOL    HW114792   1.492   6.147   3.684
 4631SOL    HW214793   1.479   6.202   3.531
 4632SOL     OW14794   2.924   4.794   2.806
 4632SOL    HW114795   2.872   4.712   2.830
 4632SOL    HW214796   2.951   4.842   2.890
 4633SOL     OW14797   5.991   0.547   5.084
 4633SOL    HW114798   5.936   0.602   5.022
 4633SOL    HW214799   5.931   0.493   5.143
 4634SOL     OW14800   2.535   4.185   5.717
 4634SOL    HW114801   2.518   4.258   5.651
 4634SOL    HW214802   2.484   4.103   5.690
 4635SOL     OW14803   5.045   3.506   1.727
 4635SOL    HW114804   5.041   3.569   1.650
 4635SOL    HW214805   4.952   3.489   1.762
 4636SOL     OW14806   2.003   4.302   0.077
 4636SOL    HW114807   1.909   4.286   0.049
 4636SOL    HW214808   2.027   4.238   0.150
 4637SOL     OW14809   0.906   6.518   1.252
 4637SOL    HW114810   0.852   6.568   1.184
 4637SOL    HW214811   0.959   6.584   1.307
 4638SOL     OW14812   4.483   4.539   0.090
 4638SOL    HW114813   4.442   4.521   0.180
 4638SOL    HW214814   4.552   4.470   0.071
 4639SOL     OW14815   3.391   3.392   5.946
 4639SOL    HW114816   3.425   3.453   6.017
 4639SOL    HW214817   3.299   3.360   5.970
 4640SOL     OW14818   4.867   4.021   3.796
 4640SOL    HW114819   4.800   3.948   3.787
 4640SOL    HW214820   4.920   4.008   3.880
 4641SOL     OW14821   2.287   0.369   4.822
 4641SOL    HW114822   2.201   0.323   4.801
 4641SOL    HW214823   2.350   0.359   4.744
 4642SOL     OW14824   0.971   6.831   3.777
 4642SOL    HW114825   0.970   6.772   3.859
 4642SOL    HW214826   0.883   6.825   3.731
 4643SOL     OW14827   0.060   1.972   0.777
 4643SOL    HW114828   0.087   2.016   0.692
 4643SOL    HW214829   0.007   2.036   0.833
 4644SOL     OW14830   0.647   5.265   5.316
 4644SOL    HW114831   0.675   5.176   5.350
 4644SOL    HW214832   0.727   5.323   5.302
 4645SOL     OW14833   0.603   0.231   4.013
 4645SOL    HW114834   0.628   0.135   4.020
 4645SOL    HW214835   0.660   0.276   3.944
 4646SOL     OW14836   2.261   5.628   3.559
 4646SOL    HW114837   2.227   5.651   3.650
 4646SOL    HW214838   2.318   5.546   3.564
 4647SOL     OW14839   1.725   0.107   3.210
 4647SOL    HW114840   1.690   0.194   3.176
 4647SOL    HW214841   1.824   0.112   3.222
 4648SOL     OW14842   3.359   0.674   3.193
 4648SOL    HW114843   3.387   0.698   3.286
 4648SOL    HW214844   3.397   0.742   3.129
 4649SOL     OW14845   5.205   0.721   0.088
 4649SOL    HW114846   5.249   0.632   0.102
 4649SOL    HW214847   5.117   0.708   0.041
 4650SOL     OW14848   4.736   5.902   2.662
 4650SOL    HW114849   4.819   5.942   2.702
 4650SOL    HW214850   4.730   5.805   2.686
 4651SOL     OW14851   6.268   3.705   0.165
 4651SOL    HW114852   6.270   3.726   0.263
 4651SOL    HW214853   6.187   3.651   0.144
 4652SOL     OW14854   5.764   6.282   4.062
 4652SOL    HW114855   5.832   6.238   4.122
 4652SOL    HW214856   5.684   6.307   4.116
 4653SOL     OW14857   5.059   5.649   1.049
 4653SOL    HW114858   4.975   5.596   1.045
 4653SOL    HW214859   5.135   5.595   1.013
 4654SOL     OW14860   0.649   7.006   0.174
 4654SOL    HW114861   0.655   6.966   0.266
 4654SOL    HW214862   0.703   6.952   0.110
 4655SOL     OW14863   6.036   3.946   1.222
 4655SOL    HW114864   5.968   3.980   1.156
 4655SOL    HW214865   6.066   4.022   1.280
 4656SOL     OW14866   1.116   0.489   1.817
 4656SOL    HW114867   1.144   0.539   1.899
 4656SOL    HW214868   1.048   0.420   1.841
 4657SOL     OW14869   4.242   5.805   1.504
 4657SOL    HW114870   4.263   5.902   1.514
 4657SOL    HW214871   4.227   5.784   1.408
 4658SOL     OW14872   3.483   0.620   3.899
 4658SOL    HW114873   3.487   0.597   3.997
 4658SOL    HW214874   3.518   0.712   3.885
 4659SOL     OW14875   3.454   4.463   5.901
 4659SOL    HW114876   3.431   4.418   5.814
 4659SOL    HW214877   3.408   4.552   5.905
 4660SOL     OW14878   1.023   4.940   5.407
 4660SOL    HW114879   1.011   4.868   5.476
 4660SOL    HW214880   0.937   4.953   5.358
 4661SOL     OW14881   3.101   4.476   6.441
 4661SOL    HW114882   3.075   4.400   6.382
 4661SOL    HW214883   3.181   4.522   6.402
 4662SOL     OW14884   3.240   6.968   5.153
 4662SOL    HW114885   3.340   6.964   5.156
 4662SOL    HW214886   3.206   6.914   5.076
 4663SOL     OW14887   0.346   1.445   1.142
 4663SOL    HW114888   0.408   1.489   1.206
 4663SOL    HW214889   0.252   1.477   1.160
 4664SOL     OW14890   1.767   1.065   0.923
 4664SOL    HW114891   1.720   1.116   0.851
 4664SOL    HW214892   1.771   0.968   0.898
 4665SOL     OW14893   3.515   6.084   6.438
 4665SOL    HW114894   3.540   6.069   6.343
 4665SOL    HW214895   3.595   6.072   6.496
 4666SOL     OW14896   2.256   2.598   0.105
 4666SOL    HW114897   2.232   2.683   0.152
 4666SOL    HW214898   2.224   2.520   0.159
 4667SOL     OW14899   6.687   3.895   2.019
 4667SOL    HW114900   6.631   3.914   2.100
 4667SOL    HW214901   6.746   3.973   2.000
 4668SOL     OW14902   4.599   2.301   3.277
 4668SOL    HW114903   4.621   2.249   3.359
 4668SOL    HW214904   4.550   2.384   3.302
 4669SOL     OW14905   4.936   6.027   7.011
 4669SOL    HW114906   4.863   6.081   0.030
 4669SOL    HW214907   4.965   6.071   6.926
 4670SOL     OW14908   1.868   2.658   5.790
 4670SOL    HW114909   1.906   2.601   5.717
 4670SOL    HW214910   1.776   2.687   5.765
 4671SOL     OW14911   0.109   3.186   0.101
 4671SOL    HW114912   0.023   3.230   0.128
 4671SOL    HW214913   0.122   3.195   0.002
 4672SOL     OW14914   2.610   4.913   5.511
 4672SOL    HW114915   2.603   4.897   5.413
 4672SOL    HW214916   2.583   4.830   5.560
 4673SOL     OW14917   4.533   6.983   2.068
 4673SOL    HW114918   4.516   0.014   2.151
 4673SOL    HW214919   4.446   6.965   2.023
 4674SOL     OW14920   5.083   0.590   6.290
 4674SOL    HW114921   4.988   0.622   6.289
 4674SOL    HW214922   5.122   0.601   6.199
 4675SOL     OW14923   2.427   1.432   6.638
 4675SOL    HW114924   2.512   1.403   6.682
 4675SOL    HW214925   2.429   1.405   6.542
 4676SOL     OW14926   6.290   6.420   4.159
 4676SOL    HW114927   6.263   6.441   4.253
 4676SOL    HW214928   6.299   6.505   4.107
 4677SOL     OW14929   2.371   1.387   6.381
 4677SOL    HW114930   2.439   1.451   6.347
 4677SOL    HW214931   2.326   1.342   6.304
 4678SOL     OW14932   1.962   4.353   2.831
 4678SOL    HW114933   1.974   4.447   2.798
 4678SOL    HW214934   2.045   4.300   2.813
 4679SOL     OW14935   3.414   1.158   0.013
 4679SOL    HW114936   3.334   1.124   0.062
 4679SOL    HW214937   3.466   1.220   0.071
 4680SOL     OW14938   2.621   1.320   0.622
 4680SOL    HW114939   2.569   1.274   0.551
 4680SOL    HW214940   2.559   1.353   0.693
 4681SOL     OW14941   4.936   6.141   6.116
 4681SOL    HW114942   4.907   6.149   6.021
 4681SOL    HW214943   5.017   6.083   6.121
 4682SOL     OW14944   4.282   4.444   5.579
 4682SOL    HW114945   4.301   4.509   5.653
 4682SOL    HW214946   4.237   4.363   5.617
 4683SOL     OW14947   4.107   4.777   2.959
 4683SOL    HW114948   4.195   4.824   2.959
 4683SOL    HW214949   4.058   4.797   3.044
 4684SOL     OW14950   6.560   1.877   5.625
 4684SOL    HW114951   6.636   1.941   5.613
 4684SOL    HW214952   6.595   1.786   5.646
 4685SOL     OW14953   0.459   6.298   5.317
 4685SOL    HW114954   0.547   6.316   5.361
 4685SOL    HW214955   0.454   6.202   5.290
 4686SOL     OW14956   4.458   5.011   0.381
 4686SOL    HW114957   4.549   4.985   0.415
 4686SOL    HW214958   4.447   4.978   0.287
 4687SOL     OW14959   6.418   4.023   5.261
 4687SOL    HW114960   6.413   4.024   5.162
 4687SOL    HW214961   6.481   4.093   5.293
 4688SOL     OW14962   6.076   3.782   5.278
 4688SOL    HW114963   6.047   3.863   5.331
 4688SOL    HW214964   6.175   3.773   5.283
 4689SOL     OW14965   6.081   0.353   0.168
 4689SOL    HW114966   5.983   0.352   0.186
 4689SOL    HW214967   6.103   0.424   0.101
 4690SOL     OW14968   1.190   0.582   0.021
 4690SOL    HW114969   1.161   0.513   6.979
 4690SOL    HW214970   1.196   0.542   0.112
 4691SOL     OW14971   2.890   4.742   2.215
 4691SOL    HW114972   2.852   4.669   2.158
 4691SOL    HW214973   2.855   4.733   2.308
 4692SOL     OW14974   6.076   5.612   1.675
 4692SOL    HW114975   6.004   5.678   1.695
 4692SOL    HW214976   6.051   5.523   1.712
 4693SOL     OW14977   0.903   1.030   3.168
 4693SOL    HW114978   0.828   1.085   3.132
 4693SOL    HW214979   0.946   1.078   3.244
 4694SOL     OW14980   2.243   0.016   0.339
 4694SOL    HW114981   2.149   0.020   0.374
 4694SOL    HW214982   2.248   6.973   0.264
 4695SOL     OW14983   2.182   3.474   1.648
 4695SOL    HW114984   2.255   3.487   1.715
 4695SOL    HW214985   2.094   3.473   1.695
 4696SOL     OW14986   0.075   4.371   6.567
 4696SOL    HW114987   0.131   4.343   6.646
 4696SOL    HW214988   0.134   4.386   6.488
 4697SOL     OW14989   2.416   3.334   0.884
 4697SOL    HW114990   2.470   3.336   0.799
 4697SOL    HW214991   2.349   3.260   0.879
 4698SOL     OW14992   4.796   5.845   3.525
 4698SOL    HW114993   4.831   5.831   3.433
 4698SOL    HW214994   4.745   5.764   3.554
 4699SOL     OW14995   1.825   6.604   1.822
 4699SOL    HW114996   1.732   6.607   1.859
 4699SOL    HW214997   1.825   6.634   1.727
 4700SOL     OW14998   6.948   1.492   2.590
 4700SOL    HW114999   6.912   1.539   2.671
 4700SOL    HW215000   6.996   1.559   2.532
 4701SOL     OW15001   2.379   1.782   0.145
 4701SOL    HW115002   2.312   1.820   0.208
 4701SOL    HW215003   2.461   1.839   0.145
 4702SOL     OW15004   5.797   4.911   6.894
 4702SOL    HW115005   5.830   4.932   6.986
 4702SOL    HW215006   5.873   4.882   6.837
 4703SOL     OW15007   1.277   1.654   1.666
 4703SOL    HW115008   1.376   1.648   1.659
 4703SOL    HW215009   1.242   1.571   1.709
 4704SOL     OW15010   1.343   6.738   0.037
 4704SOL    HW115011   1.356   6.827   0.081
 4704SOL    HW215012   1.257   6.737   7.009
 4705SOL     OW15013   3.461   3.339   2.235
 4705SOL    HW115014   3.379   3.348   2.292
 4705SOL    HW215015   3.488   3.242   2.231
 4706SOL     OW15016   4.087   6.686   6.477
 4706SOL    HW115017   4.018   6.652   6.541
 4706SOL    HW215018   4.068   6.782   6.456
 4707SOL     OW15019   2.325   5.872   1.222
 4707SOL    HW115020   2.367   5.843   1.308
 4707SOL    HW215021   2.358   5.815   1.147
 4708SOL     OW15022   1.090   1.997   6.533
 4708SOL    HW115023   1.060   1.961   6.445
 4708SOL    HW215024   1.160   1.936   6.572
 4709SOL     OW15025   4.493   5.803   6.306
 4709SOL    HW115026   4.502   5.706   6.287
 4709SOL    HW215027   4.510   5.820   6.403
 4710SOL     OW15028   3.978   1.130   4.952
 4710SOL    HW115029   3.995   1.149   5.049
 4710SOL    HW215030   3.889   1.085   4.942
 4711SOL     OW15031   5.641   1.119   1.540
 4711SOL    HW115032   5.732   1.160   1.546
 4711SOL    HW215033   5.571   1.190   1.549
 4712SOL     OW15034   3.027   4.449   0.353
 4712SOL    HW115035   2.927   4.448   0.346
 4712SOL    HW215036   3.055   4.388   0.427
 4713SOL     OW15037   3.454   2.997   0.921
 4713SOL    HW115038   3.515   2.931   0.877
 4713SOL    HW215039   3.381   3.023   0.857
 4714SOL     OW15040   1.194   2.191   6.933
 4714SOL    HW115041   1.189   2.270   6.872
 4714SOL    HW215042   1.146   2.114   6.892
 4715SOL     OW15043   6.910   2.761   2.469
 4715SOL    HW115044   6.847   2.700   2.421
 4715SOL    HW215045   6.894   2.855   2.440
 4716SOL     OW15046   4.624   6.024   6.526
 4716SOL    HW115047   4.650   6.064   6.614
 4716SOL    HW215048   4.558   6.083   6.480
 4717SOL     OW15049   0.536   6.753   3.611
 4717SOL    HW115050   0.565   6.667   3.569
 4717SOL    HW215051   0.463   6.794   3.557
 4718SOL     OW15052   5.593   2.672   0.825
 4718SOL    HW115053   5.621   2.631   0.912
 4718SOL    HW215054   5.609   2.608   0.751
 4719SOL     OW15055   5.407   2.914   2.154
 4719SOL    HW115056   5.437   3.005   2.182
 4719SOL    HW215057   5.329   2.885   2.211
 4720SOL     OW15058   2.222   5.680   6.072
 4720SOL    HW115059   2.307   5.677   6.020
 4720SOL    HW215060   2.146   5.649   6.014
 4721SOL     OW15061   6.350   2.489   1.829
 4721SOL    HW115062   6.446   2.507   1.805
 4721SOL    HW215063   6.343   2.474   1.927
 4722SOL     OW15064   0.718   6.244   6.742
 4722SOL    HW115065   0.749   6.194   6.823
 4722SOL    HW215066   0.639   6.197   6.702
 4723SOL     OW15067   1.888   4.332   6.256
 4723SOL    HW115068   1.923   4.271   6.327
 4723SOL    HW215069   1.937   4.315   6.171
 4724SOL     OW15070   5.289   6.289   2.855
 4724SOL    HW115071   5.243   6.335   2.780
 4724SOL    HW215072   5.302   6.192   2.833
 4725SOL     OW15073   6.292   6.157   2.809
 4725SOL    HW115074   6.211   6.202   2.773
 4725SOL    HW215075   6.309   6.072   2.758
 4726SOL     OW15076   1.405   2.437   6.296
 4726SOL    HW115077   1.464   2.358   6.312
 4726SOL    HW215078   1.311   2.406   6.282
 4727SOL     OW15079   1.020   6.286   0.424
 4727SOL    HW115080   0.940   6.274   0.483
 4727SOL    HW215081   1.103   6.279   0.478
 4728SOL     OW15082   5.250   0.567   1.467
 4728SOL    HW115083   5.334   0.525   1.432
 4728SOL    HW215084   5.252   0.569   1.567
 4729SOL     OW15085   2.452   1.714   1.227
 4729SOL    HW115086   2.374   1.760   1.270
 4729SOL    HW215087   2.459   1.621   1.263
 4730SOL     OW15088   3.531   5.720   4.671
 4730SOL    HW115089   3.525   5.630   4.626
 4730SOL    HW215090   3.542   5.708   4.769
 4731SOL     OW15091   4.332   7.011   6.559
 4731SOL    HW115092   4.426   0.023   6.564
 4731SOL    HW215093   4.321   6.956   6.477
 4732SOL     OW15094   0.809   3.172   5.884
 4732SOL    HW115095   0.720   3.209   5.857
 4732SOL    HW215096   0.809   3.152   5.982
 4733SOL     OW15097   1.521   4.462   3.995
 4733SOL    HW115098   1.600   4.503   3.950
 4733SOL    HW215099   1.491   4.381   3.943
 4734SOL     OW15100   4.893   2.475   0.515
 4734SOL    HW115101   4.967   2.509   0.457
 4734SOL    HW215102   4.805   2.499   0.474
 4735SOL     OW15103   0.352   5.504   4.724
 4735SOL    HW115104   0.268   5.460   4.757
 4735SOL    HW215105   0.365   5.483   4.628
 4736SOL     OW15106   6.900   2.448   6.593
 4736SOL    HW115107   6.880   2.398   6.677
 4736SOL    HW215108   6.998   2.441   6.573
 4737SOL     OW15109   2.071   4.597   2.393
 4737SOL    HW115110   2.139   4.663   2.361
 4737SOL    HW215111   1.986   4.609   2.342
 4738SOL     OW15112   0.231   6.442   3.280
 4738SOL    HW115113   0.227   6.377   3.356
 4738SOL    HW215114   0.182   6.526   3.305
 4739SOL     OW15115   4.276   6.298   3.171
 4739SOL    HW115116   4.273   6.352   3.087
 4739SOL    HW215117   4.295   6.202   3.149
 4740SOL     OW15118   1.462   1.246   1.267
 4740SOL    HW115119   1.480   1.178   1.197
 4740SOL    HW215120   1.363   1.256   1.280
 4741SOL     OW15121   3.821   3.441   1.284
 4741SOL    HW115122   3.762   3.520   1.299
 4741SOL    HW215123   3.773   3.375   1.225
 4742SOL     OW15124   3.050   6.545   5.589
 4742SOL    HW115125   3.048   6.453   5.550
 4742SOL    HW215126   3.126   6.552   5.653
 4743SOL     OW15127   1.701   3.669   2.932
 4743SOL    HW115128   1.750   3.672   3.018
 4743SOL    HW215129   1.705   3.576   2.894
 4744SOL     OW15130   1.842   4.387   0.681
 4744SOL    HW115131   1.933   4.408   0.718
 4744SOL    HW215132   1.800   4.315   0.737
 4745SOL     OW15133   2.972   3.345   5.628
 4745SOL    HW115134   2.910   3.302   5.694
 4745SOL    HW215135   3.013   3.426   5.670
 4746SOL     OW15136   5.168   6.171   3.274
 4746SOL    HW115137   5.152   6.085   3.323
 4746SOL    HW215138   5.239   6.157   3.205
 4747SOL     OW15139   1.774   4.020   7.007
 4747SOL    HW115140   1.744   4.102   0.033
 4747SOL    HW215141   1.711   4.002   6.931
 4748SOL     OW15142   2.612   5.765   1.318
 4748SOL    HW115143   2.693   5.708   1.330
 4748SOL    HW215144   2.630   5.834   1.248
 4749SOL     OW15145   2.374   6.417   5.715
 4749SOL    HW115146   2.339   6.324   5.731
 4749SOL    HW215147   2.426   6.419   5.630
 4750SOL     OW15148   6.919   4.195   4.953
 4750SOL    HW115149   7.000   4.137   4.958
 4750SOL    HW215150   6.837   4.137   4.949
 4751SOL     OW15151   4.288   1.906   2.926
 4751SOL    HW115152   4.229   1.971   2.974
 4751SOL    HW215153   4.288   1.928   2.828
 4752SOL     OW15154   4.259   1.247   6.859
 4752SOL    HW115155   4.235   1.210   6.769
 4752SOL    HW215156   4.311   1.332   6.846
 4753SOL     OW15157   6.749   0.030   4.441
 4753SOL    HW115158   6.832   0.017   4.387
 4753SOL    HW215159   6.771   0.025   4.538
 4754SOL     OW15160   5.637   4.161   4.458
 4754SOL    HW115161   5.600   4.252   4.478
 4754SOL    HW215162   5.598   4.128   4.372
 4755SOL     OW15163   2.841   0.819   0.233
 4755SOL    HW115164   2.777   0.837   0.158
 4755SOL    HW215165   2.934   0.815   0.197
 4756SOL     OW15166   5.926   3.001   6.156
 4756SOL    HW115167   5.879   2.956   6.081
 4756SOL    HW215168   5.863   3.013   6.233
 4757SOL     OW15169   2.663   1.996   1.590
 4757SOL    HW115170   2.579   2.000   1.645
 4757SOL    HW215171   2.738   2.037   1.641
 4758SOL     OW15172   1.568   6.913   3.138
 4758SOL    HW115173   1.626   6.991   3.161
 4758SOL    HW215174   1.594   6.878   3.048
 4759SOL     OW15175   0.015   4.977   5.952
 4759SOL    HW115176   7.010   4.914   5.879
 4759SOL    HW215177   0.052   4.924   6.029
 4760SOL     OW15178   2.592   1.853   0.375
 4760SOL    HW115179   2.665   1.794   0.409
 4760SOL    HW215180   2.617   1.890   0.286
 4761SOL     OW15181   1.010   6.320   0.773
 4761SOL    HW115182   0.918   6.293   0.745
 4761SOL    HW215183   1.076   6.252   0.740
 4762SOL     OW15184   1.479   5.118   1.874
 4762SOL    HW115185   1.389   5.104   1.833
 4762SOL    HW215186   1.492   5.215   1.892
 4763SOL     OW15187   6.134   0.606   2.563
 4763SOL    HW115188   6.181   0.627   2.648
 4763SOL    HW215189   6.059   0.542   2.581
 4764SOL     OW15190   4.800   3.983   5.048
 4764SOL    HW115191   4.773   4.063   5.102
 4764SOL    HW215192   4.764   3.900   5.091
 4765SOL     OW15193   3.777   0.769   5.306
 4765SOL    HW115194   3.843   0.758   5.380
 4765SOL    HW215195   3.687   0.789   5.344
 4766SOL     OW15196   5.618   5.739   3.464
 4766SOL    HW115197   5.630   5.646   3.499
 4766SOL    HW215198   5.532   5.777   3.499
 4767SOL     OW15199   2.994   5.224   4.886
 4767SOL    HW115200   3.006   5.153   4.955
 4767SOL    HW215201   2.983   5.313   4.930
 4768SOL     OW15202   4.441   2.080   6.256
 4768SOL    HW115203   4.439   2.114   6.162
 4768SOL    HW215204   4.534   2.085   6.292
 4769SOL     OW15205   5.129   5.834   7.016
 4769SOL    HW115206   5.196   5.894   6.972
 4769SOL    HW215207   5.038   5.871   7.003
 4770SOL     OW15208   6.846   1.584   4.499
 4770SOL    HW115209   6.824   1.520   4.425
 4770SOL    HW215210   6.784   1.663   4.495
 4771SOL     OW15211   3.236   6.332   5.592
 4771SOL    HW115212   3.145   6.289   5.588
 4771SOL    HW215213   3.243   6.389   5.674
 4772SOL     OW15214   3.769   4.893   0.454
 4772SOL    HW115215   3.771   4.991   0.437
 4772SOL    HW215216   3.740   4.875   0.548
 4773SOL     OW15217   6.879   5.258   5.262
 4773SOL    HW115218   6.803   5.319   5.239
 4773SOL    HW215219   6.925   5.291   5.344
 4774SOL     OW15220   1.607   3.627   0.941
 4774SOL    HW115221   1.690   3.639   0.994
 4774SOL    HW215222   1.574   3.533   0.952
 4775SOL     OW15223   5.035   6.237   2.983
 4775SOL    HW115224   5.048   6.215   3.079
 4775SOL    HW215225   5.123   6.259   2.941
 4776SOL     OW15226   0.780   0.096   5.420
 4776SOL    HW115227   0.758   0.080   5.516
 4776SOL    HW215228   0.779   0.008   5.371
 4777SOL     OW15229   1.219   4.957   1.334
 4777SOL    HW115230   1.310   4.933   1.368
 4777SOL    HW215231   1.168   5.005   1.406
 4778SOL     OW15232   6.729   3.413   3.967
 4778SOL    HW115233   6.637   3.385   3.939
 4778SOL    HW215234   6.772   3.468   3.895
 4779SOL     OW15235   5.332   0.340   2.992
 4779SOL    HW115236   5.249   0.395   2.995
 4779SOL    HW215237   5.412   0.401   2.990
 4780SOL     OW15238   6.075   2.247   0.222
 4780SOL    HW115239   6.155   2.305   0.203
 4780SOL    HW215240   6.043   2.206   0.137
 4781SOL     OW15241   2.527   5.695   3.065
 4781SOL    HW115242   2.501   5.788   3.090
 4781SOL    HW215243   2.455   5.631   3.092
 4782SOL     OW15244   5.983   5.717   6.431
 4782SOL    HW115245   6.082   5.715   6.422
 4782SOL    HW215246   5.950   5.809   6.410
 4783SOL     OW15247   4.891   3.504   0.174
 4783SOL    HW115248   4.864   3.414   0.210
 4783SOL    HW215249   4.975   3.495   0.121
 4784SOL     OW15250   6.223   2.407   6.668
 4784SOL    HW115251   6.216   2.468   6.588
 4784SOL    HW215252   6.273   2.325   6.642
 4785SOL     OW15253   0.837   6.097   3.274
 4785SOL    HW115254   0.746   6.130   3.296
 4785SOL    HW215255   0.830   6.016   3.215
 4786SOL     OW15256   2.808   0.325   0.674
 4786SOL    HW115257   2.773   0.234   0.693
 4786SOL    HW215258   2.763   0.362   0.593
 4787SOL     OW15259   4.121   1.203   3.019
 4787SOL    HW115260   4.029   1.175   3.047
 4787SOL    HW215261   4.140   1.294   3.054
 4788SOL     OW15262   6.607   6.550   0.020
 4788SOL    HW115263   6.510   6.525   0.026
 4788SOL    HW215264   6.618   6.646   0.045
 4789SOL     OW15265   5.831   1.613   2.524
 4789SOL    HW115266   5.925   1.636   2.499
 4789SOL    HW215267   5.769   1.652   2.456
 4790SOL     OW15268   5.514   1.784   5.641
 4790SOL    HW115269   5.456   1.763   5.720
 4790SOL    HW215270   5.574   1.860   5.664
 4791SOL     OW15271   0.565   2.684   1.123
 4791SOL    HW115272   0.593   2.759   1.183
 4791SOL    HW215273   0.465   2.680   1.120
 4792SOL     OW15274   2.686   4.659   3.669
 4792SOL    HW115275   2.711   4.688   3.762
 4792SOL    HW215276   2.608   4.597   3.673
 4793SOL     OW15277   1.878   2.745   5.351
 4793SOL    HW115278   1.791   2.747   5.401
 4793SOL    HW215279   1.891   2.832   5.303
 4794SOL     OW15280   5.291   6.638   4.901
 4794SOL    HW115281   5.385   6.613   4.923
 4794SOL    HW215282   5.259   6.584   4.824
 4795SOL     OW15283   6.178   2.297   4.172
 4795SOL    HW115284   6.214   2.308   4.264
 4795SOL    HW215285   6.211   2.210   4.133
 4796SOL     OW15286   4.130   0.830   4.819
 4796SOL    HW115287   4.132   0.767   4.897
 4796SOL    HW215288   4.187   0.910   4.840
 4797SOL     OW15289   0.645   0.184   5.168
 4797SOL    HW115290   0.545   0.191   5.173
 4797SOL    HW215291   0.682   0.164   5.259
 4798SOL     OW15292   0.280   4.232   5.488
 4798SOL    HW115293   0.291   4.279   5.575
 4798SOL    HW215294   0.349   4.266   5.423
 4799SOL     OW15295   3.796   1.687   0.868
 4799SOL    HW115296   3.813   1.592   0.840
 4799SOL    HW215297   3.788   1.745   0.786
 4800SOL     OW15298   2.434   2.663   6.907
 4800SOL    HW115299   2.399   2.651   7.000
 4800SOL    HW215300   2.420   2.757   6.879
 4801SOL     OW15301   3.168   2.756   6.918
 4801SOL    HW115302   3.107   2.819   6.869
 4801SOL    HW215303   3.262   2.789   6.911
 4802SOL     OW15304   0.244   6.451   1.953
 4802SOL    HW115305   0.173   6.507   1.995
 4802SOL    HW215306   0.278   6.497   1.871
 4803SOL     OW15307   0.041   4.278   6.959
 4803SOL    HW115308   6.966   4.267   6.978
 4803SOL    HW215309   0.094   4.241   0.011
 4804SOL     OW15310   6.933   6.592   1.371
 4804SOL    HW115311   6.870   6.551   1.305
 4804SOL    HW215312   6.919   6.549   1.460
 4805SOL     OW15313   6.026   0.874   2.618
 4805SOL    HW115314   6.064   0.963   2.592
 4805SOL    HW215315   6.082   0.801   2.577
 4806SOL     OW15316   1.477   4.206   2.564
 4806SOL    HW115317   1.386   4.245   2.556
 4806SOL    HW215318   1.508   4.212   2.659
 4807SOL     OW15319   0.494   4.524   7.007
 4807SOL    HW115320   0.569   4.495   0.044
 4807SOL    HW215321   0.459   4.612   0.013
 4808SOL     OW15322   4.444   5.630   0.301
 4808SOL    HW115323   4.470   5.534   0.292
 4808SOL    HW215324   4.429   5.668   0.209
 4809SOL     OW15325   3.511   4.934   0.707
 4809SOL    HW115326   3.495   4.841   0.673
 4809SOL    HW215327   3.608   4.947   0.725
 4810SOL     OW15328   1.111   3.979   2.975
 4810SOL    HW115329   1.162   3.923   2.910
 4810SOL    HW215330   1.080   3.922   3.051
 4811SOL     OW15331   3.060   3.770   2.166
 4811SOL    HW115332   2.980   3.830   2.167
 4811SOL    HW215333   3.132   3.809   2.224
 4812SOL     OW15334   0.746   6.365   2.832
 4812SOL    HW115335   0.813   6.358   2.906
 4812SOL    HW215336   0.766   6.446   2.777
 4813SOL     OW15337   5.544   1.339   6.232
 4813SOL    HW115338   5.568   1.262   6.292
 4813SOL    HW215339   5.499   1.305   6.150
 4814SOL     OW15340   0.152   3.286   0.900
 4814SOL    HW115341   0.157   3.365   0.839
 4814SOL    HW215342   0.125   3.317   0.991
 4815SOL     OW15343   5.362   4.174   2.973
 4815SOL    HW115344   5.378   4.076   2.977
 4815SOL    HW215345   5.326   4.199   2.883
 4816SOL     OW15346   2.283   5.078   1.244
 4816SOL    HW115347   2.301   5.120   1.154
 4816SOL    HW215348   2.293   4.979   1.236
 4817SOL     OW15349   2.528   1.448   0.376
 4817SOL    HW115350   2.560   1.515   0.444
 4817SOL    HW215351   2.460   1.388   0.419
 4818SOL     OW15352   0.497   0.716   4.207
 4818SOL    HW115353   0.407   0.697   4.168
 4818SOL    HW215354   0.487   0.738   4.304
 4819SOL     OW15355   2.187   2.153   1.475
 4819SOL    HW115356   2.275   2.163   1.521
 4819SOL    HW215357   2.157   2.242   1.442
 4820SOL     OW15358   6.469   2.374   0.914
 4820SOL    HW115359   6.473   2.378   1.014
 4820SOL    HW215360   6.391   2.318   0.886
 4821SOL     OW15361   0.509   0.068   1.947
 4821SOL    HW115362   0.553   0.038   1.862
 4821SOL    HW215363   0.578   0.098   2.012
 4822SOL     OW15364   1.764   3.538   4.043
 4822SOL    HW115365   1.827   3.566   4.115
 4822SOL    HW215366   1.714   3.617   4.009
 4823SOL     OW15367   1.076   0.749   4.042
 4823SOL    HW115368   1.155   0.687   4.047
 4823SOL    HW215369   0.995   0.696   4.018
 4824SOL     OW15370   5.244   1.821   4.164
 4824SOL    HW115371   5.210   1.887   4.230
 4824SOL    HW215372   5.327   1.777   4.200
 4825SOL     OW15373   2.020   1.874   4.933
 4825SOL    HW115374   1.923   1.880   4.909
 4825SOL    HW215375   2.049   1.959   4.977
 4826SOL     OW15376   0.321   0.726   6.218
 4826SOL    HW115377   0.224   0.751   6.221
 4826SOL    HW215378   0.348   0.686   6.305
 4827SOL     OW15379   6.160   2.027   1.689
 4827SOL    HW115380   6.162   1.974   1.604
 4827SOL    HW215381   6.128   2.119   1.670
 4828SOL     OW15382   5.696   3.031   1.392
 4828SOL    HW115383   5.615   2.974   1.408
 4828SOL    HW215384   5.671   3.127   1.398
 4829SOL     OW15385   4.257   6.372   6.839
 4829SOL    HW115386   4.211   6.447   6.886
 4829SOL    HW215387   4.356   6.381   6.850
 4830SOL     OW15388   4.279   6.619   3.586
 4830SOL    HW115389   4.334   6.539   3.614
 4830SOL    HW215390   4.205   6.589   3.527
 4831SOL     OW15391   0.230   4.956   6.422
 4831SOL    HW115392   0.254   5.042   6.377
 4831SOL    HW215393   0.313   4.911   6.456
 4832SOL     OW15394   3.291   3.163   5.612
 4832SOL    HW115395   3.298   3.237   5.546
 4832SOL    HW215396   3.202   3.117   5.601
 4833SOL     OW15397   5.239   2.187   3.182
 4833SOL    HW115398   5.205   2.213   3.091
 4833SOL    HW215399   5.273   2.093   3.180
 4834SOL     OW15400   4.208   6.692   0.960
 4834SOL    HW115401   4.221   6.634   1.040
 4834SOL    HW215402   4.166   6.779   0.988
 4835SOL     OW15403   6.956   1.336   6.302
 4835SOL    HW115404   6.941   1.412   6.238
 4835SOL    HW215405   0.002   1.362   6.369
 4836SOL     OW15406   4.820   3.012   4.087
 4836SOL    HW115407   4.784   3.019   4.179
 4836SOL    HW215408   4.800   3.096   4.036
 4837SOL     OW15409   5.871   4.254   1.889
 4837SOL    HW115410   5.837   4.160   1.883
 4837SOL    HW215411   5.794   4.317   1.902
 4838SOL     OW15412   0.642   4.623   0.843
 4838SOL    HW115413   0.685   4.578   0.765
 4838SOL    HW215414   0.588   4.701   0.811
 4839SOL     OW15415   1.564   2.596   6.095
 4839SOL    HW115416   1.600   2.673   6.149
 4839SOL    HW215417   1.502   2.542   6.151
 4840SOL     OW15418   0.530   5.676   5.936
 4840SOL    HW115419   0.492   5.592   5.897
 4840SOL    HW215420   0.476   5.754   5.906
 4841SOL     OW15421   3.158   6.032   1.922
 4841SOL    HW115422   3.110   6.115   1.951
 4841SOL    HW215423   3.248   6.057   1.885
 4842SOL     OW15424   3.509   4.952   2.477
 4842SOL    HW115425   3.425   5.002   2.500
 4842SOL    HW215426   3.518   4.947   2.378
 4843SOL     OW15427   5.901   3.023   0.684
 4843SOL    HW115428   5.938   2.962   0.615
 4843SOL    HW215429   5.801   3.015   0.687
 4844SOL     OW15430   6.597   3.259   5.459
 4844SOL    HW115431   6.622   3.321   5.533
 4844SOL    HW215432   6.517   3.295   5.410
 4845SOL     OW15433   5.773   5.563   5.239
 4845SOL    HW115434   5.740   5.468   5.240
 4845SOL    HW215435   5.809   5.586   5.330
 4846SOL     OW15436   0.013   2.503   3.736
 4846SOL    HW115437   7.007   2.409   3.720
 4846SOL    HW215438   0.101   2.518   3.690
 4847SOL     OW15439   2.557   1.203   6.090
 4847SOL    HW115440   2.512   1.258   6.020
 4847SOL    HW215441   2.606   1.264   6.153
 4848SOL     OW15442   1.633   0.711   3.882
 4848SOL    HW115443   1.552   0.767   3.900
 4848SOL    HW215444   1.711   0.771   3.862
 4849SOL     OW15445   1.543   6.537   6.922
 4849SOL    HW115446   1.529   6.439   6.908
 4849SOL    HW215447   1.485   6.568   6.998
 4850SOL     OW15448   4.419   1.425   2.647
 4850SOL    HW115449   4.482   1.431   2.570
 4850SOL    HW215450   4.333   1.383   2.617
 4851SOL     OW15451   4.231   5.877   5.902
 4851SOL    HW115452   4.152   5.933   5.877
 4851SOL    HW215453   4.222   5.786   5.860
 4852SOL     OW15454   1.004   6.427   5.100
 4852SOL    HW115455   1.013   6.476   5.186
 4852SOL    HW215456   1.095   6.405   5.065
 4853SOL     OW15457   2.834   1.126   3.347
 4853SOL    HW115458   2.734   1.128   3.344
 4853SOL    HW215459   2.864   1.080   3.430
 4854SOL     OW15460   4.492   0.156   1.743
 4854SOL    HW115461   4.439   0.222   1.796
 4854SOL    HW215462   4.546   0.099   1.805
 4855SOL     OW15463   6.225   2.715   2.445
 4855SOL    HW115464   6.258   2.639   2.389
 4855SOL    HW215465   6.284   2.726   2.524
 4856SOL     OW15466   1.871   3.707   2.507
 4856SOL    HW115467   1.914   3.655   2.580
 4856SOL    HW215468   1.776   3.677   2.497
 4857SOL     OW15469   2.119   2.102   5.055
 4857SOL    HW115470   2.215   2.078   5.045
 4857SOL    HW215471   2.087   2.078   5.147
 4858SOL     OW15472   0.786   0.671   4.202
 4858SOL    HW115473   0.840   0.639   4.280
 4858SOL    HW215474   0.692   0.688   4.232
 4859SOL     OW15475   7.015   0.818   4.545
 4859SOL    HW115476   0.089   0.836   4.561
 4859SOL    HW215477   7.003   0.783   4.452
 4860SOL     OW15478   4.143   4.805   1.569
 4860SOL    HW115479   4.077   4.843   1.634
 4860SOL    HW215480   4.157   4.870   1.495
 4861SOL     OW15481   5.193   4.808   0.063
 4861SOL    HW115482   5.143   4.863   7.020
 4861SOL    HW215483   5.259   4.750   0.014
 4862SOL     OW15484   2.522   4.652   4.370
 4862SOL    HW115485   2.452   4.722   4.353
 4862SOL    HW215486   2.503   4.572   4.313
 4863SOL     OW15487   6.057   3.959   1.555
 4863SOL    HW115488   6.097   3.912   1.634
 4863SOL    HW215489   5.974   3.913   1.526
 4864SOL     OW15490   4.051   1.061   2.803
 4864SOL    HW115491   3.956   1.089   2.790
 4864SOL    HW215492   4.094   1.121   2.871
 4865SOL     OW15493   2.371   0.246   4.561
 4865SOL    HW115494   2.468   0.221   4.571
 4865SOL    HW215495   2.351   0.261   4.464
 4866SOL     OW15496   6.235   2.538   1.609
 4866SOL    HW115497   6.279   2.616   1.564
 4866SOL    HW215498   6.282   2.519   1.695
 4867SOL     OW15499   3.535   5.444   2.118
 4867SOL    HW115500   3.557   5.530   2.164
 4867SOL    HW215501   3.590   5.434   2.035
 4868SOL     OW15502   6.520   5.371   2.825
 4868SOL    HW115503   6.444   5.306   2.831
 4868SOL    HW215504   6.605   5.322   2.809
 4869SOL     OW15505   1.776   1.040   1.314
 4869SOL    HW115506   1.847   1.040   1.243
 4869SOL    HW215507   1.755   1.134   1.340
 4870SOL     OW15508   0.148   5.819   1.810
 4870SOL    HW115509   0.060   5.825   1.857
 4870SOL    HW215510   0.216   5.778   1.870
 4871SOL     OW15511   1.476   1.128   3.850
 4871SOL    HW115512   1.404   1.181   3.805
 4871SOL    HW215513   1.554   1.118   3.789
 4872SOL     OW15514   6.332   6.506   3.466
 4872SOL    HW115515   6.415   6.500   3.410
 4872SOL    HW215516   6.254   6.475   3.413
 4873SOL     OW15517   6.646   5.694   3.026
 4873SOL    HW115518   6.585   5.714   3.103
 4873SOL    HW215519   6.732   5.657   3.060
 4874SOL     OW15520   6.449   3.299   2.923
 4874SOL    HW115521   6.510   3.242   2.867
 4874SOL    HW215522   6.503   3.346   2.993
 4875SOL     OW15523   6.163   2.411   1.361
 4875SOL    HW115524   6.237   2.437   1.422
 4875SOL    HW215525   6.166   2.468   1.279
 4876SOL     OW15526   6.043   1.800   3.781
 4876SOL    HW115527   6.119   1.774   3.721
 4876SOL    HW215528   5.960   1.751   3.754
 4877SOL     OW15529   1.469   1.991   6.394
 4877SOL    HW115530   1.456   2.077   6.444
 4877SOL    HW215531   1.548   1.942   6.430
 4878SOL     OW15532   6.112   1.411   2.689
 4878SOL    HW115533   6.013   1.415   2.701
 4878SOL    HW215534   6.141   1.316   2.680
 4879SOL     OW15535   3.814   0.156   2.702
 4879SOL    HW115536   3.857   0.117   2.783
 4879SOL    HW215537   3.770   0.084   2.649
 4880SOL     OW15538   5.324   3.039   0.805
 4880SOL    HW115539   5.326   2.947   0.766
 4880SOL    HW215540   5.404   3.052   0.863
 4881SOL     OW15541   1.750   0.521   0.189
 4881SOL    HW115542   1.811   0.450   0.154
 4881SOL    HW215543   1.674   0.534   0.125
 4882SOL     OW15544   5.121   0.913   4.972
 4882SOL    HW115545   5.045   0.930   5.035
 4882SOL    HW215546   5.190   0.857   5.018
 4883SOL     OW15547   4.920   5.113   1.944
 4883SOL    HW115548   4.993   5.054   1.977
 4883SOL    HW215549   4.891   5.175   2.017
 4884SOL     OW15550   2.488   6.601   1.340
 4884SOL    HW115551   2.419   6.540   1.379
 4884SOL    HW215552   2.528   6.656   1.413
 4885SOL     OW15553   2.780   5.414   1.991
 4885SOL    HW115554   2.764   5.430   2.089
 4885SOL    HW215555   2.696   5.432   1.940
 4886SOL     OW15556   0.860   5.584   1.466
 4886SOL    HW115557   0.932   5.555   1.528
 4886SOL    HW215558   0.773   5.590   1.515
 4887SOL     OW15559   1.001   0.253   2.606
 4887SOL    HW115560   1.032   0.339   2.647
 4887SOL    HW215561   0.902   0.245   2.618
 4888SOL     OW15562   2.652   0.235   3.766
 4888SOL    HW115563   2.743   0.205   3.796
 4888SOL    HW215564   2.624   0.182   3.687
 4889SOL     OW15565   6.896   1.412   5.689
 4889SOL    HW115566   6.937   1.350   5.622
 4889SOL    HW215567   6.872   1.361   5.771
 4890SOL     OW15568   0.359   1.176   0.088
 4890SOL    HW115569   0.416   1.156   0.008
 4890SOL    HW215570   0.326   1.270   0.083
 4891SOL     OW15571   1.757   4.440   6.826
 4891SOL    HW115572   1.845   4.422   6.871
 4891SOL    HW215573   1.755   4.534   6.792
 4892SOL     OW15574   3.529   6.223   1.391
 4892SOL    HW115575   3.480   6.136   1.395
 4892SOL    HW215576   3.593   6.228   1.468
 4893SOL     OW15577   0.048   2.938   1.791
 4893SOL    HW115578   7.010   3.014   1.771
 4893SOL    HW215579   0.033   2.906   1.885
 4894SOL     OW15580   2.256   1.209   3.522
 4894SOL    HW115581   2.204   1.205   3.607
 4894SOL    HW215582   2.197   1.242   3.448
 4895SOL     OW15583   0.728   4.344   4.066
 4895SOL    HW115584   0.786   4.370   4.143
 4895SOL    HW215585   0.709   4.246   4.071
 4896SOL     OW15586   1.921   4.634   1.893
 4896SOL    HW115587   1.869   4.580   1.959
 4896SOL    HW215588   1.862   4.661   1.817
 4897SOL     OW15589   2.111   3.751   5.713
 4897SOL    HW115590   2.146   3.709   5.796
 4897SOL    HW215591   2.187   3.765   5.648
 4898SOL     OW15592   4.307   0.852   4.383
 4898SOL    HW115593   4.353   0.772   4.421
 4898SOL    HW215594   4.218   0.864   4.427
 4899SOL     OW15595   5.760   5.605   3.145
 4899SOL    HW115596   5.676   5.661   3.150
 4899SOL    HW215597   5.784   5.591   3.049
 4900SOL     OW15598   3.108   6.386   4.923
 4900SOL    HW115599   3.188   6.416   4.976
 4900SOL    HW215600   3.084   6.457   4.857
 4901SOL     OW15601   3.204   0.680   4.963
 4901SOL    HW115602   3.177   0.776   4.956
 4901SOL    HW215603   3.180   0.646   5.054
 4902SOL     OW15604   2.105   1.797   4.698
 4902SOL    HW115605   2.059   1.824   4.782
 4902SOL    HW215606   2.184   1.857   4.683
 4903SOL     OW15607   4.182   5.726   0.047
 4903SOL    HW115608   4.137   5.722   6.982
 4903SOL    HW215609   4.280   5.738   0.034
 4904SOL     OW15610   1.908   0.214   4.071
 4904SOL    HW115611   1.905   0.302   4.022
 4904SOL    HW215612   2.001   0.179   4.070
 4905SOL     OW15613   3.715   6.790   2.759
 4905SOL    HW115614   3.799   6.738   2.770
 4905SOL    HW215615   3.638   6.737   2.793
 4906SOL     OW15616   5.012   2.230   6.410
 4906SOL    HW115617   4.918   2.250   6.438
 4906SOL    HW215618   5.061   2.189   6.487
 4907SOL     OW15619   4.507   5.733   1.919
 4907SOL    HW115620   4.418   5.694   1.940
 4907SOL    HW215621   4.566   5.726   1.999
 4908SOL     OW15622   5.386   5.204   0.009
 4908SOL    HW115623   5.393   5.177   0.105
 4908SOL    HW215624   5.395   5.303   0.001
 4909SOL     OW15625   0.105   6.952   4.072
 4909SOL    HW115626   0.185   6.995   4.115
 4909SOL    HW215627   0.111   6.964   3.973
 4910SOL     OW15628   5.765   0.595   4.905
 4910SOL    HW115629   5.706   0.544   4.968
 4910SOL    HW215630   5.729   0.687   4.893
 4911SOL     OW15631   1.397   4.228   3.912
 4911SOL    HW115632   1.343   4.257   3.991
 4911SOL    HW215633   1.450   4.147   3.936
 4912SOL     OW15634   5.498   1.284   6.664
 4912SOL    HW115635   5.558   1.363   6.673
 4912SOL    HW215636   5.483   1.265   6.567
 4913SOL     OW15637   3.683   2.667   5.371
 4913SOL    HW115638   3.723   2.654   5.462
 4913SOL    HW215639   3.646   2.580   5.338
 4914SOL     OW15640   3.525   0.491   4.583
 4914SOL    HW115641   3.460   0.503   4.658
 4914SOL    HW215642   3.537   0.393   4.565
 4915SOL     OW15643   3.857   6.435   5.783
 4915SOL    HW115644   3.904   6.521   5.801
 4915SOL    HW215645   3.819   6.399   5.868
 4916SOL     OW15646   1.109   0.395   3.523
 4916SOL    HW115647   1.126   0.362   3.616
 4916SOL    HW215648   1.196   0.397   3.472
 4917SOL     OW15649   2.575   5.494   1.359
 4917SOL    HW115650   2.573   5.482   1.260
 4917SOL    HW215651   2.596   5.590   1.381
 4918SOL     OW15652   4.830   5.343   2.836
 4918SOL    HW115653   4.887   5.325   2.756
 4918SOL    HW215654   4.852   5.278   2.908
 4919SOL     OW15655   2.500   3.037   0.358
 4919SOL    HW115656   2.476   2.946   0.324
 4919SOL    HW215657   2.569   3.078   0.298
 4920SOL     OW15658   6.128   1.031   4.546
 4920SOL    HW115659   6.203   0.967   4.558
 4920SOL    HW215660   6.042   0.981   4.536
 4921SOL     OW15661   1.041   5.080   0.464
 4921SOL    HW115662   1.021   5.084   0.367
 4921SOL    HW215663   0.977   5.138   0.514
 4922SOL     OW15664   2.643   2.276   5.069
 4922SOL    HW115665   2.596   2.232   4.992
 4922SOL    HW215666   2.740   2.283   5.050
 4923SOL     OW15667   4.241   1.965   2.660
 4923SOL    HW115668   4.222   2.062   2.644
 4923SOL    HW215669   4.156   1.913   2.652
 4924SOL     OW15670   3.070   1.175   4.841
 4924SOL    HW115671   3.157   1.203   4.802
 4924SOL    HW215672   2.999   1.178   4.770
 4925SOL     OW15673   6.620   0.176   2.487
 4925SOL    HW115674   6.555   0.216   2.551
 4925SOL    HW215675   6.576   0.101   2.438
 4926SOL     OW15676   5.076   1.069   0.672
 4926SOL    HW115677   5.026   1.050   0.587
 4926SOL    HW215678   5.010   1.082   0.746
 4927SOL     OW15679   3.514   3.910   4.410
 4927SOL    HW115680   3.460   3.933   4.491
 4927SOL    HW215681   3.583   3.842   4.434
 4928SOL     OW15682   1.973   6.853   6.616
 4928SOL    HW115683   2.062   6.846   6.662
 4928SOL    HW215684   1.903   6.811   6.672
 4929SOL     OW15685   0.259   5.565   4.044
 4929SOL    HW115686   0.340   5.522   4.004
 4929SOL    HW215687   0.194   5.588   3.972
 4930SOL     OW15688   5.313   1.050   3.286
 4930SOL    HW115689   5.232   1.093   3.247
 4930SOL    HW215690   5.357   0.992   3.216
 4931SOL     OW15691   0.281   6.614   0.712
 4931SOL    HW115692   0.273   6.546   0.640
 4931SOL    HW215693   0.231   6.697   0.685
 4932SOL     OW15694   3.031   2.992   2.013
 4932SOL    HW115695   2.977   2.946   2.083
 4932SOL    HW215696   3.067   3.078   2.050
 4933SOL     OW15697   2.311   0.109   3.256
 4933SOL    HW115698   2.257   0.028   3.279
 4933SOL    HW215699   2.407   0.092   3.276
 4934SOL     OW15700   2.815   5.945   2.268
 4934SOL    HW115701   2.765   5.880   2.326
 4934SOL    HW215702   2.793   5.929   2.172
 4935SOL     OW15703   2.154   1.706   6.165
 4935SOL    HW115704   2.056   1.722   6.178
 4935SOL    HW215705   2.180   1.620   6.210
 4936SOL     OW15706   2.332   4.354   1.715
 4936SOL    HW115707   2.343   4.336   1.812
 4936SOL    HW215708   2.340   4.453   1.699
 4937SOL     OW15709   6.498   2.992   5.493
 4937SOL    HW115710   6.575   2.939   5.457
 4937SOL    HW215711   6.525   3.088   5.500
 4938SOL     OW15712   2.723   5.599   5.819
 4938SOL    HW115713   2.759   5.629   5.730
 4938SOL    HW215714   2.797   5.556   5.872
 4939SOL     OW15715   5.975   1.897   4.576
 4939SOL    HW115716   6.072   1.888   4.555
 4939SOL    HW215717   5.962   1.901   4.675
 4940SOL     OW15718   0.042   1.349   4.784
 4940SOL    HW115719   0.000   1.323   4.697
 4940SOL    HW215720   0.026   1.276   4.851
 4941SOL     OW15721   5.331   2.654   5.405
 4941SOL    HW115722   5.257   2.605   5.360
 4941SOL    HW215723   5.294   2.716   5.474
 4942SOL     OW15724   5.216   2.619   5.865
 4942SOL    HW115725   5.175   2.528   5.873
 4942SOL    HW215726   5.170   2.683   5.927
 4943SOL     OW15727   4.554   3.533   0.035
 4943SOL    HW115728   4.524   3.548   6.964
 4943SOL    HW215729   4.620   3.603   0.061
 4944SOL     OW15730   2.174   4.566   1.822
 4944SOL    HW115731   2.217   4.542   1.910
 4944SOL    HW215732   2.078   4.589   1.837
 4945SOL     OW15733   0.878   0.033   4.334
 4945SOL    HW115734   0.821   6.993   4.280
 4945SOL    HW215735   0.945   0.076   4.275
 4946SOL     OW15736   1.276   4.720   6.981
 4946SOL    HW115737   1.186   4.763   6.990
 4946SOL    HW215738   1.289   4.654   0.031
 4947SOL     OW15739   2.155   1.025   0.958
 4947SOL    HW115740   2.246   0.984   0.958
 4947SOL    HW215741   2.138   1.066   0.868
 4948SOL     OW15742   1.357   2.504   2.566
 4948SOL    HW115743   1.344   2.592   2.520
 4948SOL    HW215744   1.270   2.454   2.567
 4949SOL     OW15745   4.924   6.614   6.181
 4949SOL    HW115746   4.987   6.582   6.251
 4949SOL    HW215747   4.857   6.543   6.160
 4950SOL     OW15748   2.248   6.019   4.177
 4950SOL    HW115749   2.321   6.073   4.219
 4950SOL    HW215750   2.250   5.926   4.215
 4951SOL     OW15751   5.536   1.485   4.957
 4951SOL    HW115752   5.599   1.560   4.979
 4951SOL    HW215753   5.584   1.398   4.963
 4952SOL     OW15754   0.230   0.757   5.923
 4952SOL    HW115755   0.303   0.748   5.991
 4952SOL    HW215756   0.195   0.667   5.900
 4953SOL     OW15757   2.362   5.998   2.673
 4953SOL    HW115758   2.416   5.921   2.708
 4953SOL    HW215759   2.387   6.016   2.578
 4954SOL     OW15760   4.079   3.043   6.837
 4954SOL    HW115761   4.062   3.113   6.906
 4954SOL    HW215762   4.004   2.977   6.836
 4955SOL     OW15763   2.856   6.331   6.401
 4955SOL    HW115764   2.882   6.280   6.482
 4955SOL    HW215765   2.760   6.358   6.407
 4956SOL     OW15766   1.980   6.667   4.659
 4956SOL    HW115767   1.975   6.592   4.594
 4956SOL    HW215768   1.964   6.633   4.752
 4957SOL     OW15769   6.863   1.856   2.008
 4957SOL    HW115770   6.803   1.892   1.937
 4957SOL    HW215771   6.903   1.769   1.978
 4958SOL     OW15772   0.012   5.291   5.505
 4958SOL    HW115773   7.001   5.342   5.583
 4958SOL    HW215774   0.112   5.292   5.506
 4959SOL     OW15775   6.211   1.560   6.586
 4959SOL    HW115776   6.254   1.471   6.597
 4959SOL    HW215777   6.281   1.629   6.571
 4960SOL     OW15778   3.485   5.248   3.649
 4960SOL    HW115779   3.462   5.152   3.631
 4960SOL    HW215780   3.503   5.261   3.746
 4961SOL     OW15781   4.789   1.202   5.944
 4961SOL    HW115782   4.788   1.202   5.844
 4961SOL    HW215783   4.822   1.114   5.978
 4962SOL     OW15784   6.473   1.839   0.345
 4962SOL    HW115785   6.570   1.844   0.324
 4962SOL    HW215786   6.420   1.844   0.261
 4963SOL     OW15787   6.440   6.030   6.895
 4963SOL    HW115788   6.370   5.960   6.897
 4963SOL    HW215789   6.404   6.113   6.851
 4964SOL     OW15790   2.769   6.927   3.868
 4964SOL    HW115791   2.849   6.910   3.810
 4964SOL    HW215792   2.779   6.876   3.953
 4965SOL     OW15793   0.065   0.638   3.184
 4965SOL    HW115794   0.025   0.705   3.121
 4965SOL    HW215795   0.151   0.674   3.220
 4966SOL     OW15796   2.187   6.883   4.927
 4966SOL    HW115797   2.090   6.891   4.946
 4966SOL    HW215798   2.203   6.889   4.829
 4967SOL     OW15799   4.002   4.527   6.620
 4967SOL    HW115800   4.049   4.469   6.685
 4967SOL    HW215801   4.049   4.615   6.613
 4968SOL     OW15802   6.659   2.393   3.839
 4968SOL    HW115803   6.567   2.412   3.803
 4968SOL    HW215804   6.716   2.355   3.766
 4969SOL     OW15805   2.453   0.503   2.601
 4969SOL    HW115806   2.495   0.475   2.514
 4969SOL    HW215807   2.355   0.484   2.598
 4970SOL     OW15808   1.800   2.250   3.489
 4970SOL    HW115809   1.780   2.157   3.459
 4970SOL    HW215810   1.886   2.251   3.540
 4971SOL     OW15811   6.537   6.345   4.267
 4971SOL    HW115812   6.596   6.425   4.259
 4971SOL    HW215813   6.446   6.367   4.234
 4972SOL     OW15814   2.200   3.229   0.151
 4972SOL    HW115815   2.211   3.176   0.066
 4972SOL    HW215816   2.112   3.276   0.149
 4973SOL     OW15817   1.345   0.447   2.495
 4973SOL    HW115818   1.253   0.456   2.533
 4973SOL    HW215819   1.340   0.399   2.407
 4974SOL     OW15820   5.925   4.990   1.361
 4974SOL    HW115821   5.920   4.910   1.300
 4974SOL    HW215822   5.918   4.961   1.456
 4975SOL     OW15823   5.730   4.881   5.272
 4975SOL    HW115824   5.752   4.784   5.282
 4975SOL    HW215825   5.684   4.913   5.355
 4976SOL     OW15826   2.365   0.231   3.852
 4976SOL    HW115827   2.463   0.214   3.860
 4976SOL    HW215828   2.349   0.329   3.836
 4977SOL     OW15829   3.673   4.298   0.408
 4977SOL    HW115830   3.681   4.347   0.321
 4977SOL    HW215831   3.688   4.361   0.484
 4978SOL     OW15832   7.015   4.462   4.974
 4978SOL    HW115833   0.045   4.456   4.889
 4978SOL    HW215834   6.973   4.374   4.994
 4979SOL     OW15835   0.355   0.284   5.828
 4979SOL    HW115836   0.376   0.186   5.827
 4979SOL    HW215837   0.440   0.335   5.838
 4980SOL     OW15838   4.797   6.124   3.504
 4980SOL    HW115839   4.704   6.148   3.529
 4980SOL    HW215840   4.810   6.026   3.516
 4981SOL     OW15841   5.335   6.587   6.470
 4981SOL    HW115842   5.237   6.570   6.481
 4981SOL    HW215843   5.350   6.650   6.395
 4982SOL     OW15844   2.532   1.722   5.979
 4982SOL    HW115845   2.573   1.744   5.890
 4982SOL    HW215846   2.438   1.691   5.966
 4983SOL     OW15847   5.379   2.423   4.587
 4983SOL    HW115848   5.359   2.517   4.614
 4983SOL    HW215849   5.337   2.404   4.498
 4984SOL     OW15850   6.137   4.632   3.896
 4984SOL    HW115851   6.074   4.681   3.956
 4984SOL    HW215852   6.135   4.534   3.918
 4985SOL     OW15853   6.372   6.218   3.310
 4985SOL    HW115854   6.447   6.192   3.371
 4985SOL    HW215855   6.299   6.150   3.317
 4986SOL     OW15856   5.977   4.176   2.390
 4986SOL    HW115857   5.931   4.134   2.312
 4986SOL    HW215858   5.913   4.235   2.439
 4987SOL     OW15859   1.055   0.901   0.956
 4987SOL    HW115860   1.042   0.948   0.869
 4987SOL    HW215861   1.043   0.966   1.031
 4988SOL     OW15862   5.477   0.743   3.626
 4988SOL    HW115863   5.433   0.657   3.654
 4988SOL    HW215864   5.415   0.794   3.567
 4989SOL     OW15865   5.564   0.225   1.375
 4989SOL    HW115866   5.579   0.186   1.284
 4989SOL    HW215867   5.530   0.154   1.436
 4990SOL     OW15868   1.894   1.410   5.209
 4990SOL    HW115869   1.982   1.449   5.236
 4990SOL    HW215870   1.869   1.446   5.119
 4991SOL     OW15871   6.714   4.194   4.493
 4991SOL    HW115872   6.774   4.211   4.572
 4991SOL    HW215873   6.768   4.154   4.419
 4992SOL     OW15874   4.721   0.642   4.692
 4992SOL    HW115875   4.722   0.613   4.596
 4992SOL    HW215876   4.811   0.628   4.732
 4993SOL     OW15877   3.308   5.004   4.168
 4993SOL    HW115878   3.214   5.033   4.185
 4993SOL    HW215879   3.344   4.959   4.249
 4994SOL     OW15880   2.273   0.170   2.779
 4994SOL    HW115881   2.321   0.251   2.812
 4994SOL    HW215882   2.263   0.175   2.680
 4995SOL     OW15883   6.983   3.028   5.712
 4995SOL    HW115884   6.884   3.027   5.720
 4995SOL    HW215885   7.010   2.993   5.622
 4996SOL     OW15886   1.616   1.538   2.703
 4996SOL    HW115887   1.701   1.526   2.753
 4996SOL    HW215888   1.550   1.587   2.761
 4997SOL     OW15889   5.588   2.020   3.346
 4997SOL    HW115890   5.667   1.987   3.398
 4997SOL    HW215891   5.560   2.109   3.381
 4998SOL     OW15892   1.862   3.953   5.481
 4998SOL    HW115893   1.912   3.866   5.479
 4998SOL    HW215894   1.849   3.981   5.576
 4999SOL     OW15895   6.266   4.531   0.959
 4999SOL    HW115896   6.187   4.562   1.010
 4999SOL    HW215897   6.340   4.598   0.967
 5000SOL     OW15898   2.795   6.749   4.083
 5000SOL    HW115899   2.755   6.784   4.167
 5000SOL    HW215900   2.784   6.649   4.080
 5001SOL     OW15901   0.895   4.096   0.725
 5001SOL    HW115902   0.880   4.153   0.806
 5001SOL    HW215903   0.986   4.116   0.688
 5002SOL     OW15904   1.316   3.166   3.594
 5002SOL    HW115905   1.353   3.179   3.687
 5002SOL    HW215906   1.388   3.132   3.534
 5003SOL     OW15907   2.267   6.564   2.799
 5003SOL    HW115908   2.355   6.609   2.784
 5003SOL    HW215909   2.277   6.466   2.788
 5004SOL     OW15910   2.862   5.043   5.985
 5004SOL    HW115911   2.900   4.952   5.996
 5004SOL    HW215912   2.762   5.037   5.974
 5005SOL     OW15913   3.376   2.420   0.487
 5005SOL    HW115914   3.299   2.465   0.441
 5005SOL    HW215915   3.345   2.387   0.576
 5006SOL     OW15916   4.885   6.851   6.799
 5006SOL    HW115917   4.904   6.932   6.744
 5006SOL    HW215918   4.788   6.849   6.821
 5007SOL     OW15919   1.676   0.046   6.934
 5007SOL    HW115920   1.631   6.984   6.906
 5007SOL    HW215921   1.631   0.081   7.017
 5008SOL     OW15922   6.181   6.944   3.132
 5008SOL    HW115923   6.192   6.890   3.216
 5008SOL    HW215924   6.254   7.013   3.128
 5009SOL     OW15925   1.732   6.042   1.294
 5009SOL    HW115926   1.775   6.103   1.361
 5009SOL    HW215927   1.719   5.952   1.335
 5010SOL     OW15928   3.649   3.179   3.082
 5010SOL    HW115929   3.621   3.231   3.162
 5010SOL    HW215930   3.568   3.143   3.035
 5011SOL     OW15931   1.543   3.807   2.697
 5011SOL    HW115932   1.629   3.857   2.708
 5011SOL    HW215933   1.561   3.722   2.648
 5012SOL     OW15934   5.008   3.964   6.345
 5012SOL    HW115935   4.973   3.882   6.390
 5012SOL    HW215936   5.064   3.937   6.266
 5013SOL     OW15937   4.793   1.713   6.878
 5013SOL    HW115938   4.818   1.622   6.911
 5013SOL    HW215939   4.706   1.741   6.919
 5014SOL     OW15940   5.359   4.123   0.993
 5014SOL    HW115941   5.319   4.099   0.905
 5014SOL    HW215942   5.374   4.040   1.047
 5015SOL     OW15943   4.681   2.372   4.272
 5015SOL    HW115944   4.717   2.360   4.365
 5015SOL    HW215945   4.706   2.293   4.216
 5016SOL     OW15946   2.764   2.415   0.612
 5016SOL    HW115947   2.772   2.326   0.568
 5016SOL    HW215948   2.781   2.488   0.545
 5017SOL     OW15949   1.710   1.751   0.030
 5017SOL    HW115950   1.635   1.785   0.087
 5017SOL    HW215951   1.697   1.783   6.959
 5018SOL     OW15952   0.340   4.466   1.687
 5018SOL    HW115953   0.363   4.383   1.738
 5018SOL    HW215954   0.419   4.528   1.688
 5019SOL     OW15955   1.383   5.069   6.543
 5019SOL    HW115956   1.327   5.011   6.484
 5019SOL    HW215957   1.343   5.160   6.547
 5020SOL     OW15958   4.680   6.771   5.909
 5020SOL    HW115959   4.621   6.732   5.980
 5020SOL    HW215960   4.683   6.871   5.920
 5021SOL     OW15961   1.181   1.889   5.725
 5021SOL    HW115962   1.222   1.928   5.642
 5021SOL    HW215963   1.217   1.797   5.739
 5022SOL     OW15964   1.630   0.313   0.325
 5022SOL    HW115965   1.567   0.354   0.390
 5022SOL    HW215966   1.685   0.384   0.282
 5023SOL     OW15967   6.409   2.925   0.810
 5023SOL    HW115968   6.490   2.966   0.851
 5023SOL    HW215969   6.359   2.874   0.880
 5024SOL     OW15970   6.164   5.759   2.525
 5024SOL    HW115971   6.202   5.834   2.579
 5024SOL    HW215972   6.224   5.679   2.533
 5025SOL     OW15973   4.022   1.767   2.070
 5025SOL    HW115974   4.042   1.671   2.086
 5025SOL    HW215975   3.988   1.808   2.155
 5026SOL     OW15976   5.954   6.566   6.567
 5026SOL    HW115977   5.891   6.637   6.533
 5026SOL    HW215978   6.046   6.584   6.534
 5027SOL     OW15979   0.890   6.669   2.260
 5027SOL    HW115980   0.919   6.589   2.312
 5027SOL    HW215981   0.954   6.685   2.185
 5028SOL     OW15982   0.622   6.492   3.518
 5028SOL    HW115983   0.601   6.440   3.435
 5028SOL    HW215984   0.585   6.444   3.598
 5029SOL     OW15985   0.107   3.347   3.385
 5029SOL    HW115986   0.188   3.404   3.405
 5029SOL    HW215987   0.077   3.366   3.292
 5030SOL     OW15988   6.670   0.944   6.123
 5030SOL    HW115989   6.694   1.026   6.071
 5030SOL    HW215990   6.573   0.947   6.147
 5031SOL     OW15991   5.935   0.358   4.892
 5031SOL    HW115992   5.870   0.285   4.873
 5031SOL    HW215993   5.901   0.444   4.855
 5032SOL     OW15994   1.313   3.572   0.693
 5032SOL    HW115995   1.378   3.497   0.705
 5032SOL    HW215996   1.363   3.656   0.672
 5033SOL     OW15997   2.406   5.690   6.768
 5033SOL    HW115998   2.488   5.719   6.819
 5033SOL    HW215999   2.358   5.771   6.735
 5034SOL     OW16000   6.180   1.352   3.174
 5034SOL    HW116001   6.117   1.319   3.104
 5034SOL    HW216002   6.215   1.274   3.227
 5035SOL     OW16003   6.540   4.191   0.436
 5035SOL    HW116004   6.493   4.251   0.371
 5035SOL    HW216005   6.621   4.152   0.393
 5036SOL     OW16006   0.350   4.940   6.782
 5036SOL    HW116007   0.373   4.897   6.695
 5036SOL    HW216008   0.398   5.027   6.789
 5037SOL     OW16009   5.662   2.620   2.646
 5037SOL    HW116010   5.568   2.587   2.637
 5037SOL    HW216011   5.715   2.592   2.566
 5038SOL     OW16012   1.913   3.994   5.754
 5038SOL    HW116013   1.950   3.942   5.831
 5038SOL    HW216014   1.984   4.003   5.684
 5039SOL     OW16015   2.995   3.146   5.386
 5039SOL    HW116016   3.009   3.224   5.447
 5039SOL    HW216017   2.906   3.154   5.342
 5040SOL     OW16018   1.899   4.940   6.612
 5040SOL    HW116019   1.943   4.858   6.575
 5040SOL    HW216020   1.809   4.952   6.569
 5041SOL     OW16021   1.861   2.321   1.215
 5041SOL    HW116022   1.807   2.238   1.230
 5041SOL    HW216023   1.925   2.305   1.140
 5042SOL     OW16024   5.932   3.216   0.886
 5042SOL    HW116025   5.929   3.143   0.817
 5042SOL    HW216026   5.999   3.192   0.956
 5043SOL     OW16027   2.697   1.383   5.663
 5043SOL    HW116028   2.620   1.322   5.680
 5043SOL    HW216029   2.732   1.368   5.570
 5044SOL     OW16030   6.336   6.351   2.467
 5044SOL    HW116031   6.347   6.323   2.372
 5044SOL    HW216032   6.248   6.319   2.502
 5045SOL     OW16033   5.710   3.201   0.202
 5045SOL    HW116034   5.664   3.189   0.290
 5045SOL    HW216035   5.733   3.111   0.164
 5046SOL     OW16036   3.630   4.097   4.716
 5046SOL    HW116037   3.690   4.110   4.794
 5046SOL    HW216038   3.683   4.099   4.631
 5047SOL     OW16039   0.362   3.298   2.324
 5047SOL    HW116040   0.377   3.361   2.247
 5047SOL    HW216041   0.450   3.259   2.352
 5048SOL     OW16042   0.425   1.074   1.291
 5048SOL    HW116043   0.404   1.110   1.382
 5048SOL    HW216044   0.467   0.984   1.299
 5049SOL     OW16045   6.198   1.956   4.371
 5049SOL    HW116046   6.263   2.012   4.422
 5049SOL    HW216047   6.233   1.942   4.278
 5050SOL     OW16048   0.835   1.104   1.805
 5050SOL    HW116049   0.749   1.054   1.808
 5050SOL    HW216050   0.905   1.047   1.762
 5051SOL     OW16051   4.437   3.184   0.381
 5051SOL    HW116052   4.426   3.279   0.355
 5051SOL    HW216053   4.418   3.125   0.302
 5052SOL     OW16054   2.912   5.461   5.950
 5052SOL    HW116055   2.887   5.385   6.010
 5052SOL    HW216056   2.963   5.530   6.002
 5053SOL     OW16057   1.969   3.947   3.863
 5053SOL    HW116058   1.919   3.965   3.779
 5053SOL    HW216059   1.947   4.016   3.931
 5054SOL     OW16060   3.659   5.633   5.209
 5054SOL    HW116061   3.635   5.551   5.261
 5054SOL    HW216062   3.757   5.652   5.221
 5055SOL     OW16063   1.083   6.903   5.339
 5055SOL    HW116064   1.088   6.990   5.390
 5055SOL    HW216065   1.060   6.922   5.244
 5056SOL     OW16066   6.466   3.634   0.450
 5056SOL    HW116067   6.551   3.585   0.470
 5056SOL    HW216068   6.482   3.732   0.455
 5057SOL     OW16069   0.476   5.322   4.914
 5057SOL    HW116070   0.572   5.328   4.886
 5057SOL    HW216071   0.418   5.367   4.846
 5058SOL     OW16072   2.636   3.253   5.666
 5058SOL    HW116073   2.616   3.264   5.569
 5058SOL    HW216074   2.633   3.157   5.691
 5059SOL     OW16075   5.486   3.266   3.590
 5059SOL    HW116076   5.426   3.282   3.669
 5059SOL    HW216077   5.577   3.241   3.623
 5060SOL     OW16078   0.516   2.870   5.397
 5060SOL    HW116079   0.592   2.821   5.355
 5060SOL    HW216080   0.440   2.875   5.332
 5061SOL     OW16081   3.243   3.158   3.530
 5061SOL    HW116082   3.272   3.130   3.439
 5061SOL    HW216083   3.297   3.109   3.599
 5062SOL     OW16084   6.028   1.180   3.000
 5062SOL    HW116085   6.040   1.103   2.938
 5062SOL    HW216086   5.943   1.228   2.977
 5063SOL     OW16087   1.506   6.834   2.201
 5063SOL    HW116088   1.484   6.844   2.298
 5063SOL    HW216089   1.589   6.886   2.180
 5064SOL     OW16090   4.604   4.290   1.671
 5064SOL    HW116091   4.521   4.266   1.722
 5064SOL    HW216092   4.619   4.389   1.677
 5065SOL     OW16093   0.982   2.026   3.515
 5065SOL    HW116094   0.956   1.934   3.489
 5065SOL    HW216095   1.020   2.074   3.436
 5066SOL     OW16096   3.886   4.179   1.133
 5066SOL    HW116097   3.808   4.184   1.069
 5066SOL    HW216098   3.943   4.260   1.122
 5067SOL     OW16099   2.906   1.417   2.384
 5067SOL    HW116100   2.871   1.510   2.388
 5067SOL    HW216101   3.006   1.418   2.386
 5068SOL     OW16102   3.107   5.038   0.304
 5068SOL    HW116103   3.104   5.012   0.400
 5068SOL    HW216104   3.200   5.030   0.269
 5069SOL     OW16105   1.683   2.244   5.820
 5069SOL    HW116106   1.757   2.179   5.806
 5069SOL    HW216107   1.694   2.288   5.909
 5070SOL     OW16108   4.942   4.900   4.545
 5070SOL    HW116109   4.914   4.856   4.630
 5070SOL    HW216110   4.931   4.999   4.553
 5071SOL     OW16111   3.866   1.774   3.586
 5071SOL    HW116112   3.892   1.768   3.682
 5071SOL    HW216113   3.945   1.754   3.528
 5072SOL     OW16114   1.795   1.291   1.390
 5072SOL    HW116115   1.780   1.389   1.379
 5072SOL    HW216116   1.843   1.274   1.476
 5073SOL     OW16117   1.197   4.279   0.892
 5073SOL    HW116118   1.191   4.245   0.798
 5073SOL    HW216119   1.115   4.252   0.943
 5074SOL     OW16120   3.136   1.998   2.128
 5074SOL    HW116121   3.058   1.947   2.092
 5074SOL    HW216122   3.102   2.075   2.182
 5075SOL     OW16123   1.420   2.227   6.552
 5075SOL    HW116124   1.325   2.248   6.531
 5075SOL    HW216125   1.450   2.279   6.632
 5076SOL     OW16126   5.398   7.022   0.889
 5076SOL    HW116127   5.455   7.007   0.808
 5076SOL    HW216128   5.404   0.095   0.916
 5077SOL     OW16129   1.286   4.347   5.833
 5077SOL    HW116130   1.385   4.363   5.832
 5077SOL    HW216131   1.263   4.283   5.907
 5078SOL     OW16132   0.711   0.939   3.936
 5078SOL    HW116133   0.806   0.918   3.912
 5078SOL    HW216134   0.656   0.857   3.929
 5079SOL     OW16135   2.342   2.768   4.852
 5079SOL    HW116136   2.362   2.853   4.900
 5079SOL    HW216137   2.387   2.692   4.898
 5080SOL     OW16138   6.185   6.174   5.875
 5080SOL    HW116139   6.217   6.155   5.782
 5080SOL    HW216140   6.134   6.095   5.910
 5081SOL     OW16141   2.250   4.003   5.894
 5081SOL    HW116142   2.247   4.086   5.950
 5081SOL    HW216143   2.257   4.029   5.797
 5082SOL     OW16144   4.986   6.586   1.323
 5082SOL    HW116145   5.006   6.575   1.226
 5082SOL    HW216146   4.903   6.641   1.334
 5083SOL     OW16147   2.805   0.385   2.805
 5083SOL    HW116148   2.848   0.345   2.886
 5083SOL    HW216149   2.749   0.463   2.833
 5084SOL     OW16150   0.853   5.038   3.651
 5084SOL    HW116151   0.887   5.053   3.744
 5084SOL    HW216152   0.774   4.976   3.654
 5085SOL     OW16153   6.689   2.672   5.591
 5085SOL    HW116154   6.590   2.681   5.602
 5085SOL    HW216155   6.722   2.739   5.525
 5086SOL     OW16156   1.710   4.943   3.036
 5086SOL    HW116157   1.621   4.904   3.061
 5086SOL    HW216158   1.708   4.974   2.941
 5087SOL     OW16159   1.135   5.436   2.054
 5087SOL    HW116160   1.219   5.445   2.106
 5087SOL    HW216161   1.059   5.478   2.104
 5088SOL     OW16162   6.074   6.577   3.970
 5088SOL    HW116163   6.016   6.546   3.895
 5088SOL    HW216164   6.029   6.557   4.057
 5089SOL     OW16165   6.448   4.890   3.445
 5089SOL    HW116166   6.453   4.836   3.361
 5089SOL    HW216167   6.503   4.846   3.516
 5090SOL     OW16168   1.435   3.042   2.397
 5090SOL    HW116169   1.355   3.032   2.337
 5090SOL    HW216170   1.518   3.016   2.346
 5091SOL     OW16171   0.000   1.406   1.623
 5091SOL    HW116172   6.987   1.447   1.540
 5091SOL    HW216173   0.034   1.314   1.603
 5092SOL     OW16174   3.294   3.404   3.384
 5092SOL    HW116175   3.263   3.493   3.419
 5092SOL    HW216176   3.265   3.332   3.446
 5093SOL     OW16177   2.846   1.083   0.608
 5093SOL    HW116178   2.813   1.176   0.620
 5093SOL    HW216179   2.879   1.048   0.696
 5094SOL     OW16180   2.526   5.570   6.456
 5094SOL    HW116181   2.491   5.501   6.392
 5094SOL    HW216182   2.454   5.636   6.476
 5095SOL     OW16183   6.779   2.359   2.757
 5095SOL    HW116184   6.727   2.284   2.716
 5095SOL    HW216185   6.857   2.383   2.698
 5096SOL     OW16186   4.808   4.626   6.480
 5096SOL    HW116187   4.837   4.713   6.439
 5096SOL    HW216188   4.782   4.563   6.407
 5097SOL     OW16189   0.940   0.183   6.294
 5097SOL    HW116190   1.007   0.147   6.230
 5097SOL    HW216191   0.962   0.152   6.387
 5098SOL     OW16192   2.936   0.935   1.887
 5098SOL    HW116193   2.898   0.845   1.908
 5098SOL    HW216194   2.995   0.966   1.962
 5099SOL     OW16195   0.764   6.972   1.382
 5099SOL    HW116196   0.732   6.924   1.464
 5099SOL    HW216197   0.821   6.911   1.327
 5100SOL     OW16198   2.995   5.551   4.455
 5100SOL    HW116199   3.001   5.595   4.544
 5100SOL    HW216200   2.991   5.621   4.384
 5101SOL     OW16201   4.138   6.888   6.054
 5101SOL    HW116202   4.126   6.972   6.001
 5101SOL    HW216203   4.084   6.894   6.138
 5102SOL     OW16204   5.266   6.087   4.308
 5102SOL    HW116205   5.284   5.989   4.323
 5102SOL    HW216206   5.350   6.138   4.320
 5103SOL     OW16207   0.098   1.341   4.298
 5103SOL    HW116208   0.122   1.415   4.361
 5103SOL    HW216209   0.137   1.255   4.333
 5104SOL     OW16210   1.816   6.128   2.185
 5104SOL    HW116211   1.842   6.210   2.133
 5104SOL    HW216212   1.883   6.112   2.257
 5105SOL     OW16213   2.681   2.628   0.029
 5105SOL    HW116214   2.608   2.645   6.986
 5105SOL    HW216215   2.708   2.715   0.071
 5106SOL     OW16216   4.296   1.620   0.590
 5106SOL    HW116217   4.357   1.661   0.522
 5106SOL    HW216218   4.340   1.623   0.680
 5107SOL     OW16219   4.211   2.171   1.587
 5107SOL    HW116220   4.303   2.149   1.618
 5107SOL    HW216221   4.196   2.132   1.496
 5108SOL     OW16222   4.017   4.067   5.221
 5108SOL    HW116223   4.041   3.981   5.177
 5108SOL    HW216224   3.940   4.108   5.174
 5109SOL     OW16225   0.619   2.112   6.754
 5109SOL    HW116226   0.650   2.019   6.738
 5109SOL    HW216227   0.605   2.158   6.666
 5110SOL     OW16228   0.734   0.202   6.120
 5110SOL    HW116229   0.795   0.220   6.197
 5110SOL    HW216230   0.640   0.221   6.147
 5111SOL     OW16231   0.968   0.717   4.868
 5111SOL    HW116232   0.919   0.802   4.848
 5111SOL    HW216233   0.952   0.691   4.963
 5112SOL     OW16234   1.344   0.138   2.619
 5112SOL    HW116235   1.323   0.217   2.676
 5112SOL    HW216236   1.274   0.067   2.633
 5113SOL     OW16237   2.136   6.038   0.928
 5113SOL    HW116238   2.185   6.125   0.932
 5113SOL    HW216239   2.201   5.965   0.906
 5114SOL     OW16240   4.003   0.135   6.903
 5114SOL    HW116241   4.060   0.083   6.839
 5114SOL    HW216242   4.055   0.214   6.937
 5115SOL     OW16243   1.307   5.048   3.313
 5115SOL    HW116244   1.250   5.061   3.394
 5115SOL    HW216245   1.331   5.137   3.274
 5116SOL     OW16246   0.843   6.507   6.962
 5116SOL    HW116247   0.869   6.448   6.885
 5116SOL    HW216248   0.825   6.451   0.019
 5117SOL     OW16249   1.495   4.019   4.088
 5117SOL    HW116250   1.424   3.990   4.151
 5117SOL    HW216251   1.580   3.971   4.108
 5118SOL     OW16252   5.428   0.855   0.234
 5118SOL    HW116253   5.350   0.801   0.203
 5118SOL    HW216254   5.434   0.939   0.179
 5119SOL     OW16255   5.271   0.317   2.591
 5119SOL    HW116256   5.354   0.275   2.628
 5119SOL    HW216257   5.210   0.343   2.666
 5120SOL     OW16258   4.392   0.237   4.495
 5120SOL    HW116259   4.423   0.323   4.453
 5120SOL    HW216260   4.471   0.179   4.514
 5121SOL     OW16261   2.992   2.943   6.855
 5121SOL    HW116262   3.021   3.025   6.806
 5121SOL    HW216263   2.905   2.911   6.818
 5122SOL     OW16264   3.498   6.173   3.370
 5122SOL    HW116265   3.459   6.248   3.317
 5122SOL    HW216266   3.432   6.141   3.438
 5123SOL     OW16267   4.148   2.268   3.843
 5123SOL    HW116268   4.150   2.295   3.939
 5123SOL    HW216269   4.071   2.206   3.828
 5124SOL     OW16270   2.325   5.513   4.553
 5124SOL    HW116271   2.262   5.565   4.610
 5124SOL    HW216272   2.415   5.558   4.552
 5125SOL     OW16273   6.256   4.011   3.942
 5125SOL    HW116274   6.225   4.015   3.847
 5125SOL    HW216275   6.189   4.055   4.001
 5126SOL     OW16276   6.218   5.217   5.924
 5126SOL    HW116277   6.213   5.256   5.832
 5126SOL    HW216278   6.232   5.118   5.917
 5127SOL     OW16279   0.338   3.939   0.309
 5127SOL    HW116280   0.417   3.992   0.277
 5127SOL    HW216281   0.285   3.908   0.230
 5128SOL     OW16282   0.253   0.400   6.474
 5128SOL    HW116283   0.347   0.372   6.455
 5128SOL    HW216284   0.201   0.404   6.388
 5129SOL     OW16285   6.522   0.104   2.783
 5129SOL    HW116286   6.619   0.093   2.760
 5129SOL    HW216287   6.471   0.024   2.751
 5130SOL     OW16288   0.489   5.462   3.732
 5130SOL    HW116289   0.565   5.447   3.795
 5130SOL    HW216290   0.415   5.398   3.753
 5131SOL     OW16291   2.283   4.949   4.113
 5131SOL    HW116292   2.377   4.963   4.083
 5131SOL    HW216293   2.228   5.030   4.092
 5132SOL     OW16294   3.361   2.954   0.094
 5132SOL    HW116295   3.359   2.916   0.002
 5132SOL    HW216296   3.408   3.043   0.093
 5133SOL     OW16297   2.283   5.300   0.179
 5133SOL    HW116298   2.282   5.375   0.244
 5133SOL    HW216299   2.254   5.216   0.226
 5134SOL     OW16300   0.613   3.538   2.853
 5134SOL    HW116301   0.711   3.537   2.834
 5134SOL    HW216302   0.568   3.605   2.793
 5135SOL     OW16303   5.680   3.128   4.700
 5135SOL    HW116304   5.691   3.108   4.602
 5135SOL    HW216305   5.748   3.076   4.752
 5136SOL     OW16306   4.207   0.961   5.755
 5136SOL    HW116307   4.171   0.894   5.690
 5136SOL    HW216308   4.231   1.045   5.707
 5137SOL     OW16309   5.128   3.131   5.538
 5137SOL    HW116310   5.064   3.150   5.463
 5137SOL    HW216311   5.203   3.075   5.504
 5138SOL     OW16312   3.051   2.893   5.322
 5138SOL    HW116313   2.959   2.855   5.325
 5138SOL    HW216314   3.049   2.987   5.356
 5139SOL     OW16315   1.032   0.580   3.119
 5139SOL    HW116316   1.046   0.676   3.096
 5139SOL    HW216317   1.120   0.536   3.136
 5140SOL     OW16318   4.352   2.572   7.017
 5140SOL    HW116319   4.335   2.474   7.008
 5140SOL    HW216320   4.275   2.623   6.978
 5141SOL     OW16321   0.055   3.442   0.655
 5141SOL    HW116322   0.070   3.486   0.567
 5141SOL    HW216323   0.025   3.347   0.641
 5142SOL     OW16324   5.968   0.246   3.411
 5142SOL    HW116325   6.060   0.275   3.437
 5142SOL    HW216326   5.969   0.148   3.389
 5143SOL     OW16327   6.706   4.416   3.674
 5143SOL    HW116328   6.668   4.324   3.661
 5143SOL    HW216329   6.792   4.423   3.623
 5144SOL     OW16330   0.423   4.781   6.535
 5144SOL    HW116331   0.519   4.795   6.511
 5144SOL    HW216332   0.415   4.702   6.596
 5145SOL     OW16333   2.916   4.986   5.445
 5145SOL    HW116334   2.866   5.006   5.529
 5145SOL    HW216335   2.885   4.899   5.407
 5146SOL     OW16336   3.599   4.517   5.471
 5146SOL    HW116337   3.502   4.541   5.464
 5146SOL    HW216338   3.646   4.547   5.387
 5147SOL     OW16339   0.003   5.202   2.927
 5147SOL    HW116340   0.061   5.188   2.846
 5147SOL    HW216341   6.973   5.119   2.944
 5148SOL     OW16342   6.605   6.457   1.494
 5148SOL    HW116343   6.661   6.380   1.463
 5148SOL    HW216344   6.531   6.473   1.429
 5149SOL     OW16345   6.209   5.653   3.103
 5149SOL    HW116346   6.241   5.739   3.064
 5149SOL    HW216347   6.262   5.577   3.065
 5150SOL     OW16348   2.279   5.537   3.021
 5150SOL    HW116349   2.215   5.471   2.981
 5150SOL    HW216350   2.298   5.512   3.116
 5151SOL     OW16351   5.812   2.299   0.849
 5151SOL    HW116352   5.866   2.217   0.868
 5151SOL    HW216353   5.806   2.355   0.932
 5152SOL     OW16354   2.700   4.740   0.198
 5152SOL    HW116355   2.778   4.796   0.169
 5152SOL    HW216356   2.627   4.800   0.231
 5153SOL     OW16357   1.933   0.120   0.003
 5153SOL    HW116358   1.923   0.218   7.013
 5153SOL    HW216359   1.852   0.073   6.990
 5154SOL     OW16360   1.008   3.174   6.167
 5154SOL    HW116361   1.020   3.189   6.265
 5154SOL    HW216362   0.912   3.157   6.146
 5155SOL     OW16363   4.208   6.642   2.373
 5155SOL    HW116364   4.135   6.591   2.418
 5155SOL    HW216365   4.273   6.578   2.332
 5156SOL     OW16366   5.567   3.544   5.992
 5156SOL    HW116367   5.606   3.469   6.044
 5156SOL    HW216368   5.502   3.594   6.049
 5157SOL     OW16369   3.774   2.025   3.373
 5157SOL    HW116370   3.783   1.933   3.411
 5157SOL    HW216371   3.853   2.080   3.401
 5158SOL     OW16372   3.725   1.339   1.935
 5158SOL    HW116373   3.628   1.323   1.951
 5158SOL    HW216374   3.737   1.420   1.877
 5159SOL     OW16375   0.135   3.664   4.093
 5159SOL    HW116376   0.069   3.693   4.024
 5159SOL    HW216377   0.192   3.742   4.120
 5160SOL     OW16378   0.071   5.317   3.148
 5160SOL    HW116379   0.075   5.277   3.056
 5160SOL    HW216380   7.003   5.305   3.186
 5161SOL     OW16381   1.289   3.599   5.938
 5161SOL    HW116382   1.363   3.549   5.892
 5161SOL    HW216383   1.260   3.548   6.019
 5162SOL     OW16384   1.286   5.145   2.981
 5162SOL    HW116385   1.294   5.203   3.063
 5162SOL    HW216386   1.232   5.193   2.912
 5163SOL     OW16387   3.547   6.246   7.017
 5163SOL    HW116388   3.514   6.199   6.935
 5163SOL    HW216389   3.478   6.241   0.066
 5164SOL     OW16390   4.234   2.316   6.984
 5164SOL    HW116391   4.220   2.245   0.030
 5164SOL    HW216392   4.146   2.343   6.946
 5165SOL     OW16393   6.122   4.508   6.164
 5165SOL    HW116394   6.028   4.511   6.199
 5165SOL    HW216395   6.182   4.555   6.228
 5166SOL     OW16396   0.762   5.529   2.687
 5166SOL    HW116397   0.727   5.566   2.601
 5166SOL    HW216398   0.723   5.438   2.703
 5167SOL     OW16399   6.560   6.443   6.332
 5167SOL    HW116400   6.584   6.376   6.403
 5167SOL    HW216401   6.497   6.400   6.267
 5168SOL     OW16402   5.557   4.105   2.084
 5168SOL    HW116403   5.514   4.166   2.017
 5168SOL    HW216404   5.518   4.013   2.075
 5169SOL     OW16405   3.545   1.734   4.782
 5169SOL    HW116406   3.474   1.802   4.801
 5169SOL    HW216407   3.543   1.709   4.686
 5170SOL     OW16408   0.737   4.580   5.994
 5170SOL    HW116409   0.698   4.603   5.904
 5170SOL    HW216410   0.669   4.531   6.048
 5171SOL     OW16411   0.995   6.022   4.587
 5171SOL    HW116412   1.003   5.923   4.599
 5171SOL    HW216413   0.902   6.044   4.557
 5172SOL     OW16414   1.090   2.172   2.115
 5172SOL    HW116415   1.040   2.097   2.071
 5172SOL    HW216416   1.107   2.148   2.211
 5173SOL     OW16417   5.191   4.555   6.112
 5173SOL    HW116418   5.263   4.558   6.182
 5173SOL    HW216419   5.158   4.461   6.102
 5174SOL     OW16420   2.421   4.550   3.665
 5174SOL    HW116421   2.401   4.583   3.572
 5174SOL    HW216422   2.401   4.623   3.731
 5175SOL     OW16423   2.063   3.540   6.820
 5175SOL    HW116424   2.000   3.602   6.773
 5175SOL    HW216425   2.108   3.588   6.895
 5176SOL     OW16426   4.593   2.610   6.505
 5176SOL    HW116427   4.634   2.520   6.522
 5176SOL    HW216428   4.553   2.645   6.589
 5177SOL     OW16429   5.314   0.477   0.144
 5177SOL    HW116430   5.342   0.386   0.111
 5177SOL    HW216431   5.251   0.466   0.221
 5178SOL     OW16432   0.820   4.542   1.972
 5178SOL    HW116433   0.817   4.628   2.022
 5178SOL    HW216434   0.828   4.466   2.037
 5179SOL     OW16435   3.770   6.352   3.927
 5179SOL    HW116436   3.841   6.284   3.947
 5179SOL    HW216437   3.809   6.444   3.934
 5180SOL     OW16438   3.154   3.013   1.000
 5180SOL    HW116439   3.224   2.973   1.060
 5180SOL    HW216440   3.126   2.944   0.933
 5181SOL     OW16441   6.187   1.269   1.982
 5181SOL    HW116442   6.175   1.353   1.928
 5181SOL    HW216443   6.130   1.197   1.943
 5182SOL     OW16444   3.879   4.452   1.672
 5182SOL    HW116445   3.780   4.440   1.683
 5182SOL    HW216446   3.922   4.362   1.661
 5183SOL     OW16447   4.870   1.392   2.727
 5183SOL    HW116448   4.891   1.476   2.677
 5183SOL    HW216449   4.875   1.314   2.665
 5184SOL     OW16450   0.118   2.699   4.204
 5184SOL    HW116451   0.205   2.672   4.247
 5184SOL    HW216452   0.047   2.633   4.228
 5185SOL     OW16453   5.414   0.988   2.808
 5185SOL    HW116454   5.359   0.909   2.784
 5185SOL    HW216455   5.369   1.072   2.776
 5186SOL     OW16456   6.251   3.313   1.373
 5186SOL    HW116457   6.281   3.390   1.430
 5186SOL    HW216458   6.257   3.339   1.277
 5187SOL     OW16459   0.631   6.531   4.158
 5187SOL    HW116460   0.684   6.492   4.084
 5187SOL    HW216461   0.573   6.605   4.123
 5188SOL     OW16462   0.600   5.654   0.978
 5188SOL    HW116463   0.512   5.701   0.975
 5188SOL    HW216464   0.652   5.686   1.057
 5189SOL     OW16465   4.512   4.642   0.548
 5189SOL    HW116466   4.554   4.658   0.459
 5189SOL    HW216467   4.567   4.684   0.620
 5190SOL     OW16468   0.382   3.418   4.235
 5190SOL    HW116469   0.352   3.330   4.273
 5190SOL    HW216470   0.364   3.419   4.137
 5191SOL     OW16471   4.229   0.318   1.532
 5191SOL    HW116472   4.267   0.366   1.454
 5191SOL    HW216473   4.232   0.377   1.613
 5192SOL     OW16474   2.757   5.694   2.660
 5192SOL    HW116475   2.823   5.767   2.642
 5192SOL    HW216476   2.796   5.607   2.630
 5193SOL     OW16477   4.599   4.391   4.986
 5193SOL    HW116478   4.541   4.471   4.971
 5193SOL    HW216479   4.629   4.354   4.898
 5194SOL     OW16480   4.457   1.684   0.119
 5194SOL    HW116481   4.402   1.671   0.036
 5194SOL    HW216482   4.540   1.735   0.096
 5195SOL     OW16483   5.994   6.071   4.788
 5195SOL    HW116484   6.036   5.990   4.747
 5195SOL    HW216485   6.048   6.152   4.764
 5196SOL     OW16486   3.396   4.278   0.540
 5196SOL    HW116487   3.470   4.218   0.509
 5196SOL    HW216488   3.386   4.269   0.639
 5197SOL     OW16489   2.091   5.501   4.997
 5197SOL    HW116490   2.067   5.405   5.008
 5197SOL    HW216491   2.190   5.511   4.992
 5198SOL     OW16492   3.882   6.870   3.132
 5198SOL    HW116493   3.850   6.775   3.139
 5198SOL    HW216494   3.981   6.872   3.147
 5199SOL     OW16495   1.296   5.884   0.769
 5199SOL    HW116496   1.380   5.833   0.785
 5199SOL    HW216497   1.221   5.842   0.821
 5200SOL     OW16498   1.471   1.976   5.427
 5200SOL    HW116499   1.472   1.977   5.527
 5200SOL    HW216500   1.449   1.884   5.394
 5201SOL     OW16501   6.927   6.344   4.299
 5201SOL    HW116502   6.983   6.425   4.284
 5201SOL    HW216503   6.870   6.327   4.218
 5202SOL     OW16504   6.069   4.356   5.276
 5202SOL    HW116505   6.038   4.269   5.316
 5202SOL    HW216506   6.054   4.430   5.341
 5203SOL     OW16507   2.196   1.425   6.160
 5203SOL    HW116508   2.098   1.429   6.176
 5203SOL    HW216509   2.214   1.415   6.062
 5204SOL     OW16510   4.455   6.367   6.576
 5204SOL    HW116511   4.422   6.461   6.583
 5204SOL    HW216512   4.510   6.345   6.656
 5205SOL     OW16513   0.061   5.970   0.294
 5205SOL    HW116514   0.084   5.968   0.197
 5205SOL    HW216515   7.012   6.038   0.310
 5206SOL     OW16516   0.251   5.096   0.537
 5206SOL    HW116517   0.337   5.123   0.494
 5206SOL    HW216518   0.200   5.037   0.474
 5207SOL     OW16519   1.497   6.793   3.708
 5207SOL    HW116520   1.419   6.747   3.665
 5207SOL    HW216521   1.571   6.728   3.722
 5208SOL     OW16522   5.460   1.696   0.031
 5208SOL    HW116523   5.408   1.736   6.979
 5208SOL    HW216524   5.402   1.634   0.083
 5209SOL     OW16525   5.435   0.219   1.654
 5209SOL    HW116526   5.460   0.290   1.720
 5209SOL    HW216527   5.446   0.129   1.697
 5210SOL     OW16528   4.684   2.797   0.150
 5210SOL    HW116529   4.726   2.888   0.151
 5210SOL    HW216530   4.753   2.728   0.127
 5211SOL     OW16531   4.173   2.348   5.918
 5211SOL    HW116532   4.240   2.417   5.892
 5211SOL    HW216533   4.153   2.289   5.840
 5212SOL     OW16534   1.119   2.880   0.679
 5212SOL    HW116535   1.033   2.923   0.649
 5212SOL    HW216536   1.149   2.815   0.609
 5213SOL     OW16537   4.264   3.552   0.817
 5213SOL    HW116538   4.231   3.546   0.723
 5213SOL    HW216539   4.319   3.635   0.828
 5214SOL     OW16540   4.812   2.417   6.514
 5214SOL    HW116541   4.837   2.372   6.600
 5214SOL    HW216542   4.866   2.500   6.504
 5215SOL     OW16543   0.783   4.738   4.332
 5215SOL    HW116544   0.775   4.669   4.404
 5215SOL    HW216545   0.874   4.733   4.290
 5216SOL     OW16546   4.013   4.613   1.445
 5216SOL    HW116547   4.060   4.687   1.494
 5216SOL    HW216548   3.947   4.569   1.507
 5217SOL     OW16549   3.629   5.177   4.388
 5217SOL    HW116550   3.554   5.227   4.432
 5217SOL    HW216551   3.664   5.108   4.451
 5218SOL     OW16552   0.720   0.898   1.095
 5218SOL    HW116553   0.639   0.955   1.080
 5218SOL    HW216554   0.747   0.855   1.009
 5219SOL     OW16555   3.387   1.328   5.041
 5219SOL    HW116556   3.359   1.302   5.134
 5219SOL    HW216557   3.382   1.427   5.031
 5220SOL     OW16558   1.212   6.094   2.519
 5220SOL    HW116559   1.134   6.044   2.557
 5220SOL    HW216560   1.280   6.029   2.486
 5221SOL     OW16561   6.334   1.865   3.277
 5221SOL    HW116562   6.260   1.837   3.215
 5221SOL    HW216563   6.326   1.963   3.295
 5222SOL     OW16564   3.786   6.946   2.517
 5222SOL    HW116565   3.873   6.987   2.544
 5222SOL    HW216566   3.744   6.902   2.596
 5223SOL     OW16567   6.618   2.543   0.459
 5223SOL    HW116568   6.619   2.451   0.419
 5223SOL    HW216569   6.545   2.549   0.527
 5224SOL     OW16570   6.459   3.106   4.736
 5224SOL    HW116571   6.476   3.049   4.655
 5224SOL    HW216572   6.497   3.197   4.721
 5225SOL     OW16573   7.013   0.994   3.860
 5225SOL    HW116574   0.036   1.005   3.772
 5225SOL    HW216575   7.014   1.081   3.910
 5226SOL     OW16576   6.644   6.393   4.685
 5226SOL    HW116577   6.549   6.416   4.662
 5226SOL    HW216578   6.706   6.439   4.622
 5227SOL     OW16579   0.495   3.269   5.524
 5227SOL    HW116580   0.556   3.274   5.445
 5227SOL    HW216581   0.454   3.178   5.528
 5228SOL     OW16582   0.178   2.345   0.825
 5228SOL    HW116583   0.155   2.441   0.813
 5228SOL    HW216584   0.250   2.319   0.761
 5229SOL     OW16585   3.010   6.395   0.301
 5229SOL    HW116586   2.919   6.364   0.328
 5229SOL    HW216587   3.032   6.481   0.348
 5230SOL     OW16588   0.338   5.835   2.067
 5230SOL    HW116589   0.383   5.918   2.035
 5230SOL    HW216590   0.407   5.763   2.080
 5231SOL     OW16591   4.426   2.463   4.150
 5231SOL    HW116592   4.501   2.403   4.177
 5231SOL    HW216593   4.441   2.495   4.057
 5232SOL     OW16594   1.554   3.573   6.075
 5232SOL    HW116595   1.630   3.638   6.075
 5232SOL    HW216596   1.468   3.623   6.069
 5233SOL     OW16597   4.511   1.122   2.698
 5233SOL    HW116598   4.503   1.121   2.797
 5233SOL    HW216599   4.482   1.211   2.663
 5234SOL     OW16600   2.540   2.084   6.185
 5234SOL    HW116601   2.509   2.119   6.274
 5234SOL    HW216602   2.605   2.148   6.145
 5235SOL     OW16603   1.694   2.561   0.944
 5235SOL    HW116604   1.708   2.659   0.932
 5235SOL    HW216605   1.658   2.543   1.035
 5236SOL     OW16606   4.359   5.245   1.804
 5236SOL    HW116607   4.354   5.279   1.898
 5236SOL    HW216608   4.356   5.145   1.804
 5237SOL     OW16609   0.625   0.621   4.746
 5237SOL    HW116610   0.634   0.714   4.710
 5237SOL    HW216611   0.711   0.572   4.733
 5238SOL     OW16612   0.684   4.952   0.266
 5238SOL    HW116613   0.772   4.905   0.271
 5238SOL    HW216614   0.699   5.049   0.244
 5239SOL     OW16615   3.630   3.190   5.525
 5239SOL    HW116616   3.593   3.213   5.615
 5239SOL    HW216617   3.562   3.211   5.455
 5240SOL     OW16618   3.090   2.331   5.485
 5240SOL    HW116619   3.148   2.250   5.490
 5240SOL    HW216620   3.061   2.345   5.390
 5241SOL     OW16621   0.061   5.227   4.433
 5241SOL    HW116622   0.133   5.272   4.380
 5241SOL    HW216623   0.098   5.199   4.522
 5242SOL     OW16624   6.762   6.861   6.891
 5242SOL    HW116625   6.695   6.866   6.965
 5242SOL    HW216626   6.752   6.941   6.832
 5243SOL     OW16627   1.853   5.694   1.514
 5243SOL    HW116628   1.880   5.787   1.491
 5243SOL    HW216629   1.833   5.687   1.612
 5244SOL     OW16630   3.084   4.853   6.531
 5244SOL    HW116631   3.133   4.933   6.496
 5244SOL    HW216632   3.149   4.789   6.572
 5245SOL     OW16633   4.200   4.135   0.151
 5245SOL    HW116634   4.217   4.070   0.226
 5245SOL    HW216635   4.149   4.214   0.186
 5246SOL     OW16636   6.263   2.865   1.337
 5246SOL    HW116637   6.169   2.891   1.314
 5246SOL    HW216638   6.306   2.938   1.389
 5247SOL     OW16639   2.433   0.460   6.286
 5247SOL    HW116640   2.521   0.475   6.242
 5247SOL    HW216641   2.369   0.419   6.220
 5248SOL     OW16642   6.056   1.987   2.803
 5248SOL    HW116643   6.059   1.977   2.704
 5248SOL    HW216644   6.149   1.983   2.840
 5249SOL     OW16645   0.700   5.679   6.447
 5249SOL    HW116646   0.732   5.771   6.425
 5249SOL    HW216647   0.653   5.640   6.368
 5250SOL     OW16648   1.952   5.858   6.836
 5250SOL    HW116649   1.993   5.865   6.927
 5250SOL    HW216650   2.025   5.840   6.769
 5251SOL     OW16651   0.707   3.421   6.783
 5251SOL    HW116652   0.626   3.365   6.799
 5251SOL    HW216653   0.787   3.377   6.823
 5252SOL     OW16654   1.974   6.269   0.423
 5252SOL    HW116655   1.889   6.266   0.371
 5252SOL    HW216656   1.965   6.333   0.499
 5253SOL     OW16657   6.236   4.403   4.457
 5253SOL    HW116658   6.152   4.362   4.492
 5253SOL    HW216659   6.253   4.489   4.505
 5254SOL     OW16660   5.005   0.911   2.911
 5254SOL    HW116661   4.968   0.842   2.848
 5254SOL    HW216662   5.098   0.886   2.938
 5255SOL     OW16663   5.245   2.206   5.103
 5255SOL    HW116664   5.282   2.226   5.194
 5255SOL    HW216665   5.312   2.232   5.033
 5256SOL     OW16666   4.532   2.111   3.831
 5256SOL    HW116667   4.456   2.079   3.889
 5256SOL    HW216668   4.580   2.032   3.793
 5257SOL     OW16669   5.453   7.005   1.765
 5257SOL    HW116670   5.377   6.945   1.740
 5257SOL    HW216671   5.540   6.960   1.745
 5258SOL     OW16672   6.151   3.117   1.687
 5258SOL    HW116673   6.105   3.153   1.605
 5258SOL    HW216674   6.201   3.034   1.663
 5259SOL     OW16675   4.818   6.367   2.176
 5259SOL    HW116676   4.816   6.287   2.237
 5259SOL    HW216677   4.849   6.447   2.227
 5260SOL     OW16678   4.811   3.282   0.331
 5260SOL    HW116679   4.875   3.212   0.300
 5260SOL    HW216680   4.749   3.243   0.399
 5261SOL     OW16681   0.637   4.193   6.454
 5261SOL    HW116682   0.593   4.105   6.475
 5261SOL    HW216683   0.695   4.183   6.374
 5262SOL     OW16684   2.494   1.381   3.855
 5262SOL    HW116685   2.536   1.402   3.767
 5262SOL    HW216686   2.395   1.380   3.845
 5263SOL     OW16687   2.026   1.644   3.814
 5263SOL    HW116688   1.952   1.613   3.874
 5263SOL    HW216689   2.008   1.738   3.784
 5264SOL     OW16690   0.001   2.409   2.031
 5264SOL    HW116691   0.063   2.487   2.032
 5264SOL    HW216692   0.050   2.327   2.002
 5265SOL     OW16693   6.438   3.801   3.918
 5265SOL    HW116694   6.424   3.794   3.819
 5265SOL    HW216695   6.360   3.848   3.959
 5266SOL     OW16696   2.883   5.574   0.272
 5266SOL    HW116697   2.970   5.620   0.252
 5266SOL    HW216698   2.853   5.524   0.190
 5267SOL     OW16699   5.493   2.902   5.050
 5267SOL    HW116700   5.523   2.822   5.102
 5267SOL    HW216701   5.569   2.966   5.039
 5268SOL     OW16702   5.844   1.148   0.408
 5268SOL    HW116703   5.841   1.244   0.381
 5268SOL    HW216704   5.751   1.111   0.410
 5269SOL     OW16705   1.341   5.942   2.756
 5269SOL    HW116706   1.351   6.041   2.743
 5269SOL    HW216707   1.247   5.921   2.780
 5270SOL     OW16708   6.049   0.938   0.906
 5270SOL    HW116709   6.054   1.026   0.954
 5270SOL    HW216710   6.084   0.949   0.813
 5271SOL     OW16711   6.478   5.673   5.667
 5271SOL    HW116712   6.447   5.585   5.704
 5271SOL    HW216713   6.437   5.687   5.577
 5272SOL     OW16714   3.022   5.637   1.693
 5272SOL    HW116715   3.044   5.731   1.716
 5272SOL    HW216716   2.922   5.627   1.688
 5273SOL     OW16717   6.941   3.055   4.058
 5273SOL    HW116718   6.934   2.982   4.125
 5273SOL    HW216719   6.896   3.138   4.093
 5274SOL     OW16720   5.910   6.930   2.640
 5274SOL    HW116721   5.822   6.882   2.645
 5274SOL    HW216722   5.968   6.887   2.571
 5275SOL     OW16723   3.859   2.000   1.468
 5275SOL    HW116724   3.826   2.033   1.380
 5275SOL    HW216725   3.842   2.068   1.538
 5276SOL     OW16726   2.176   0.049   0.696
 5276SOL    HW116727   2.216   6.983   0.714
 5276SOL    HW216728   2.217   0.118   0.756
 5277SOL     OW16729   1.559   1.434   2.296
 5277SOL    HW116730   1.605   1.499   2.358
 5277SOL    HW216731   1.465   1.420   2.326
 5278SOL     OW16732   5.795   6.865   3.590
 5278SOL    HW116733   5.735   6.788   3.571
 5278SOL    HW216734   5.741   6.950   3.589
 5279SOL     OW16735   2.433   5.415   6.255
 5279SOL    HW116736   2.465   5.321   6.268
 5279SOL    HW216737   2.408   5.429   6.160
 5280SOL     OW16738   2.694   6.111   4.613
 5280SOL    HW116739   2.655   6.112   4.521
 5280SOL    HW216740   2.677   6.200   4.657
 5281SOL     OW16741   0.342   2.583   2.503
 5281SOL    HW116742   0.402   2.558   2.426
 5281SOL    HW216743   0.365   2.527   2.583
 5282SOL     OW16744   2.817   2.025   4.008
 5282SOL    HW116745   2.867   1.978   3.935
 5282SOL    HW216746   2.720   2.004   4.000
 5283SOL     OW16747   4.295   6.664   1.443
 5283SOL    HW116748   4.203   6.648   1.407
 5283SOL    HW216749   4.309   6.762   1.457
 5284SOL     OW16750   5.083   3.823   3.324
 5284SOL    HW116751   5.009   3.814   3.391
 5284SOL    HW216752   5.165   3.858   3.369
 5285SOL     OW16753   2.406   4.816   3.854
 5285SOL    HW116754   2.452   4.890   3.903
 5285SOL    HW216755   2.348   4.765   3.918
 5286SOL     OW16756   1.536   4.534   0.085
 5286SOL    HW116757   1.539   4.630   0.113
 5286SOL    HW216758   1.587   4.523   7.023
 5287SOL     OW16759   2.821   6.999   0.782
 5287SOL    HW116760   2.781   6.931   0.843
 5287SOL    HW216761   2.917   6.977   0.765
 5288SOL     OW16762   3.225   0.384   1.983
 5288SOL    HW116763   3.160   0.392   2.058
 5288SOL    HW216764   3.188   0.431   1.902
 5289SOL     OW16765   1.661   4.998   6.524
 5289SOL    HW116766   1.564   5.018   6.536
 5289SOL    HW216767   1.702   5.065   6.462
 5290SOL     OW16768   1.848   5.848   4.890
 5290SOL    HW116769   1.918   5.876   4.825
 5290SOL    HW216770   1.778   5.795   4.842
 5291SOL     OW16771   2.819   5.385   6.216
 5291SOL    HW116772   2.836   5.470   6.265
 5291SOL    HW216773   2.764   5.324   6.273
 5292SOL     OW16774   6.291   3.109   6.518
 5292SOL    HW116775   6.195   3.100   6.544
 5292SOL    HW216776   6.344   3.145   6.595
 5293SOL     OW16777   0.272   0.609   4.700
 5293SOL    HW116778   0.291   0.525   4.751
 5293SOL    HW216779   0.261   0.685   4.764
 5294SOL     OW16780   4.584   3.531   5.694
 5294SOL    HW116781   4.680   3.510   5.679
 5294SOL    HW216782   4.572   3.629   5.707
 5295SOL     OW16783   6.215   0.658   2.890
 5295SOL    HW116784   6.124   0.676   2.927
 5295SOL    HW216785   6.233   0.559   2.893
 5296SOL     OW16786   1.886   5.060   0.204
 5296SOL    HW116787   1.816   5.032   0.138
 5296SOL    HW216788   1.863   5.149   0.242
 5297SOL     OW16789   2.417   2.040   1.737
 5297SOL    HW116790   2.362   2.124   1.741
 5297SOL    HW216791   2.459   2.024   1.827
 5298SOL     OW16792   0.373   5.434   1.275
 5298SOL    HW116793   0.355   5.508   1.210
 5298SOL    HW216794   0.417   5.358   1.228
 5299SOL     OW16795   3.035   2.205   0.650
 5299SOL    HW116796   3.022   2.299   0.682
 5299SOL    HW216797   3.072   2.150   0.725
 5300SOL     OW16798   0.560   5.688   2.513
 5300SOL    HW116799   0.644   5.729   2.479
 5300SOL    HW216800   0.525   5.742   2.590
 5301SOL     OW16801   4.542   1.437   0.266
 5301SOL    HW116802   4.494   1.510   0.218
 5301SOL    HW216803   4.501   1.349   0.243
 5302SOL     OW16804   5.636   4.919   3.242
 5302SOL    HW116805   5.712   4.952   3.298
 5302SOL    HW216806   5.550   4.934   3.291
 5303SOL     OW16807   6.758   6.387   4.053
 5303SOL    HW116808   6.759   6.486   4.035
 5303SOL    HW216809   6.760   6.337   3.966
 5304SOL     OW16810   6.206   1.823   5.802
 5304SOL    HW116811   6.113   1.858   5.789
 5304SOL    HW216812   6.226   1.754   5.732
 5305SOL     OW16813   1.665   6.741   4.323
 5305SOL    HW116814   1.608   6.758   4.242
 5305SOL    HW216815   1.628   6.791   4.401
 5306SOL     OW16816   1.070   5.593   5.262
 5306SOL    HW116817   1.083   5.687   5.292
 5306SOL    HW216818   1.141   5.535   5.302
 5307SOL     OW16819   4.132   6.622   6.856
 5307SOL    HW116820   4.159   6.635   6.760
 5307SOL    HW216821   4.092   6.706   6.891
 5308SOL     OW16822   0.430   6.944   4.567
 5308SOL    HW116823   0.456   0.017   4.558
 5308SOL    HW216824   0.480   6.904   4.643
 5309SOL     OW16825   3.103   4.028   2.508
 5309SOL    HW116826   3.108   4.118   2.465
 5309SOL    HW216827   3.087   4.038   2.606
 5310SOL     OW16828   5.360   2.575   2.235
 5310SOL    HW116829   5.444   2.596   2.183
 5310SOL    HW216830   5.364   2.480   2.266
 5311SOL     OW16831   0.207   5.993   0.821
 5311SOL    HW116832   0.172   6.065   0.761
 5311SOL    HW216833   0.139   5.972   0.891
 5312SOL     OW16834   6.705   4.257   2.034
 5312SOL    HW116835   6.666   4.230   1.945
 5312SOL    HW216836   6.646   4.325   2.077
 5313SOL     OW16837   1.212   5.511   0.033
 5313SOL    HW116838   1.292   5.557   0.072
 5313SOL    HW216839   1.163   5.463   0.106
 5314SOL     OW16840   3.984   4.455   0.031
 5314SOL    HW116841   4.058   4.505   0.078
 5314SOL    HW216842   3.961   4.374   0.084
 5315SOL     OW16843   4.210   4.415   1.325
 5315SOL    HW116844   4.264   4.340   1.364
 5315SOL    HW216845   4.159   4.461   1.397
 5316SOL     OW16846   6.489   5.230   5.068
 5316SOL    HW116847   6.436   5.252   5.150
 5316SOL    HW216848   6.584   5.257   5.081
 5317SOL     OW16849   6.013   1.321   4.841
 5317SOL    HW116850   6.038   1.236   4.794
 5317SOL    HW216851   6.069   1.331   4.923
 5318SOL     OW16852   0.340   1.793   5.849
 5318SOL    HW116853   0.362   1.696   5.856
 5318SOL    HW216854   0.274   1.818   5.920
 5319SOL     OW16855   4.664   0.127   0.052
 5319SOL    HW116856   4.739   0.185   0.020
 5319SOL    HW216857   4.695   0.073   0.131
 5320SOL     OW16858   5.621   5.153   6.610
 5320SOL    HW116859   5.588   5.134   6.702
 5320SOL    HW216860   5.557   5.115   6.543
 5321SOL     OW16861   1.068   5.261   2.526
 5321SOL    HW116862   1.117   5.345   2.504
 5321SOL    HW216863   1.073   5.245   2.625
 5322SOL     OW16864   4.017   6.630   5.886
 5322SOL    HW116865   4.005   6.660   5.981
 5322SOL    HW216866   4.097   6.570   5.879
 5323SOL     OW16867   3.671   3.172   0.922
 5323SOL    HW116868   3.708   3.210   1.006
 5323SOL    HW216869   3.598   3.107   0.944
 5324SOL     OW16870   3.724   2.511   1.714
 5324SOL    HW116871   3.814   2.526   1.674
 5324SOL    HW216872   3.726   2.432   1.774
 5325SOL     OW16873   6.047   6.491   3.340
 5325SOL    HW116874   5.977   6.471   3.271
 5325SOL    HW216875   6.012   6.557   3.405
 5326SOL     OW16876   6.073   5.070   2.336
 5326SOL    HW116877   6.114   5.039   2.251
 5326SOL    HW216878   6.094   5.005   2.409
 5327SOL     OW16879   0.688   5.853   6.073
 5327SOL    HW116880   0.769   5.860   6.014
 5327SOL    HW216881   0.633   5.774   6.045
 5328SOL     OW16882   3.860   2.435   5.741
 5328SOL    HW116883   3.950   2.478   5.733
 5328SOL    HW216884   3.812   2.472   5.820
 5329SOL     OW16885   0.228   3.753   6.660
 5329SOL    HW116886   0.161   3.825   6.680
 5329SOL    HW216887   0.188   3.688   6.594
 5330SOL     OW16888   3.561   4.282   7.006
 5330SOL    HW116889   3.632   4.332   6.956
 5330SOL    HW216890   3.552   4.320   0.075
 5331SOL     OW16891   5.457   0.994   1.114
 5331SOL    HW116892   5.485   0.925   1.181
 5331SOL    HW216893   5.530   1.061   1.103
 5332SOL     OW16894   6.417   4.199   6.800
 5332SOL    HW116895   6.363   4.243   6.729
 5332SOL    HW216896   6.357   4.143   6.858
 5333SOL     OW16897   1.258   0.775   3.762
 5333SOL    HW116898   1.205   0.778   3.677
 5333SOL    HW216899   1.211   0.718   3.829
 5334SOL     OW16900   4.174   5.121   5.234
 5334SOL    HW116901   4.234   5.184   5.284
 5334SOL    HW216902   4.133   5.169   5.157
 5335SOL     OW16903   0.245   4.876   2.244
 5335SOL    HW116904   0.152   4.907   2.261
 5335SOL    HW216905   0.257   4.857   2.146
 5336SOL     OW16906   2.008   1.931   3.474
 5336SOL    HW116907   1.921   1.962   3.434
 5336SOL    HW216908   2.043   1.854   3.421
 5337SOL     OW16909   5.966   5.377   1.777
 5337SOL    HW116910   5.873   5.363   1.743
 5337SOL    HW216911   5.968   5.364   1.876
 5338SOL     OW16912   5.384   1.372   0.052
 5338SOL    HW116913   5.477   1.361   0.019
 5338SOL    HW216914   5.376   1.331   0.143
 5339SOL     OW16915   5.829   1.418   2.719
 5339SOL    HW116916   5.792   1.480   2.650
 5339SOL    HW216917   5.755   1.365   2.759
 5340SOL     OW16918   5.759   3.641   1.425
 5340SOL    HW116919   5.839   3.619   1.369
 5340SOL    HW216920   5.678   3.597   1.385
 5341SOL     OW16921   3.366   4.983   5.143
 5341SOL    HW116922   3.447   4.952   5.193
 5341SOL    HW216923   3.300   5.022   5.207
 5342SOL     OW16924   4.842   6.712   4.817
 5342SOL    HW116925   4.752   6.745   4.847
 5342SOL    HW216926   4.847   6.613   4.830
 5343SOL     OW16927   3.798   3.477   5.078
 5343SOL    HW116928   3.882   3.481   5.025
 5343SOL    HW216929   3.807   3.532   5.160
 5344SOL     OW16930   0.485   1.555   0.100
 5344SOL    HW116931   0.563   1.548   0.039
 5344SOL    HW216932   0.498   1.631   0.164
 5345SOL     OW16933   4.965   0.699   6.946
 5345SOL    HW116934   4.955   0.651   6.859
 5345SOL    HW216935   5.015   0.785   6.932
 5346SOL     OW16936   2.593   5.528   4.272
 5346SOL    HW116937   2.621   5.432   4.268
 5346SOL    HW216938   2.598   5.561   4.366
 5347SOL     OW16939   6.749   3.595   3.410
 5347SOL    HW116940   6.719   3.653   3.334
 5347SOL    HW216941   6.842   3.621   3.437
 5348SOL     OW16942   6.861   1.127   5.518
 5348SOL    HW116943   6.895   1.073   5.441
 5348SOL    HW216944   6.924   1.119   5.595
 5349SOL     OW16945   2.275   3.551   1.001
 5349SOL    HW116946   2.322   3.608   1.068
 5349SOL    HW216947   2.340   3.484   0.964
 5350SOL     OW16948   2.247   6.400   5.396
 5350SOL    HW116949   2.234   6.497   5.375
 5350SOL    HW216950   2.343   6.383   5.420
 5351SOL     OW16951   0.439   5.542   2.171
 5351SOL    HW116952   0.428   5.537   2.270
 5351SOL    HW216953   0.422   5.452   2.131
 5352SOL     OW16954   2.236   4.431   2.860
 5352SOL    HW116955   2.297   4.481   2.921
 5352SOL    HW216956   2.206   4.492   2.787
 5353SOL     OW16957   3.958   5.158   3.492
 5353SOL    HW116958   3.987   5.205   3.576
 5353SOL    HW216959   3.937   5.063   3.513
 5354SOL     OW16960   2.362   4.364   0.313
 5354SOL    HW116961   2.390   4.331   0.404
 5354SOL    HW216962   2.271   4.406   0.319
 5355SOL     OW16963   5.939   4.554   4.551
 5355SOL    HW116964   5.914   4.503   4.469
 5355SOL    HW216965   6.016   4.509   4.596
 5356SOL     OW16966   0.036   3.678   1.918
 5356SOL    HW116967   0.099   3.721   1.982
 5356SOL    HW216968   6.967   3.674   1.957
 5357SOL     OW16969   3.954   4.702   1.175
 5357SOL    HW116970   3.920   4.793   1.196
 5357SOL    HW216971   3.974   4.653   1.260
 5358SOL     OW16972   4.593   2.083   0.596
 5358SOL    HW116973   4.495   2.092   0.615
 5358SOL    HW216974   4.645   2.135   0.664
 5359SOL     OW16975   2.042   1.760   6.483
 5359SOL    HW116976   2.079   1.668   6.490
 5359SOL    HW216977   2.102   1.824   6.531
 5360SOL     OW16978   5.558   5.456   3.575
 5360SOL    HW116979   5.514   5.415   3.494
 5360SOL    HW216980   5.584   5.383   3.639
 5361SOL     OW16981   1.932   6.705   3.899
 5361SOL    HW116982   1.939   6.648   3.981
 5361SOL    HW216983   1.903   6.797   3.926
 5362SOL     OW16984   6.454   6.265   3.028
 5362SOL    HW116985   6.412   6.217   2.951
 5362SOL    HW216986   6.397   6.253   3.109
 5363SOL     OW16987   5.348   6.431   5.468
 5363SOL    HW116988   5.284   6.501   5.501
 5363SOL    HW216989   5.395   6.465   5.387
 5364SOL     OW16990   6.033   7.016   2.203
 5364SOL    HW116991   6.118   0.044   2.208
 5364SOL    HW216992   6.012   6.995   2.107
 5365SOL     OW16993   3.891   2.994   2.301
 5365SOL    HW116994   3.837   2.946   2.370
 5365SOL    HW216995   3.878   2.950   2.212
 5366SOL     OW16996   6.767   0.342   2.097
 5366SOL    HW116997   6.701   0.414   2.114
 5366SOL    HW216998   6.725   0.271   2.041
 5367SOL     OW16999   6.610   6.789   1.284
 5367SOL    HW117000   6.616   6.791   1.185
 5367SOL    HW217001   6.561   6.870   1.317
 5368SOL     OW17002   6.595   6.357   2.548
 5368SOL    HW117003   6.502   6.329   2.525
 5368SOL    HW217004   6.620   6.437   2.493
 5369SOL     OW17005   2.819   5.878   1.152
 5369SOL    HW117006   2.886   5.840   1.088
 5369SOL    HW217007   2.860   5.954   1.202
 5370SOL     OW17008   4.591   3.659   1.211
 5370SOL    HW117009   4.502   3.694   1.183
 5370SOL    HW217010   4.644   3.633   1.130
 5371SOL     OW17011   6.632   5.034   5.587
 5371SOL    HW117012   6.637   5.083   5.674
 5371SOL    HW217013   6.588   4.945   5.601
 5372SOL     OW17014   1.427   6.435   2.518
 5372SOL    HW117015   1.428   6.504   2.590
 5372SOL    HW217016   1.513   6.439   2.467
 5373SOL     OW17017   3.797   6.857   5.677
 5373SOL    HW117018   3.702   6.834   5.657
 5373SOL    HW217019   3.800   6.941   5.732
 5374SOL     OW17020   2.697   4.196   1.089
 5374SOL    HW117021   2.741   4.153   1.010
 5374SOL    HW217022   2.767   4.218   1.157
 5375SOL     OW17023   0.712   5.356   5.867
 5375SOL    HW117024   0.738   5.361   5.771
 5375SOL    HW217025   0.613   5.351   5.875
 5376SOL     OW17026   1.418   2.501   1.832
 5376SOL    HW117027   1.516   2.495   1.849
 5376SOL    HW217028   1.373   2.417   1.863
 5377SOL     OW17029   1.115   0.487   2.684
 5377SOL    HW117030   1.184   0.505   2.754
 5377SOL    HW217031   1.026   0.519   2.716
 5378SOL     OW17032   6.788   0.431   1.659
 5378SOL    HW117033   6.825   0.345   1.693
 5378SOL    HW217034   6.735   0.415   1.576
 5379SOL     OW17035   1.222   3.238   5.109
 5379SOL    HW117036   1.248   3.142   5.121
 5379SOL    HW217037   1.302   3.290   5.076
 5380SOL     OW17038   2.918   0.114   1.014
 5380SOL    HW117039   2.860   0.096   0.934
 5380SOL    HW217040   2.988   0.180   0.990
 5381SOL     OW17041   6.053   5.804   2.268
 5381SOL    HW117042   6.087   5.808   2.362
 5381SOL    HW217043   6.108   5.739   2.215
 5382SOL     OW17044   2.937   2.158   2.623
 5382SOL    HW117045   2.919   2.124   2.716
 5382SOL    HW217046   3.034   2.146   2.602
 5383SOL     OW17047   1.678   2.734   4.470
 5383SOL    HW117048   1.742   2.750   4.546
 5383SOL    HW217049   1.712   2.660   4.413
 5384SOL     OW17050   4.869   5.610   4.695
 5384SOL    HW117051   4.826   5.562   4.772
 5384SOL    HW217052   4.827   5.581   4.609
 5385SOL     OW17053   5.765   3.312   4.868
 5385SOL    HW117054   5.724   3.269   4.788
 5385SOL    HW217055   5.775   3.410   4.852
 5386SOL     OW17056   5.776   1.308   4.303
 5386SOL    HW117057   5.695   1.301   4.362
 5386SOL    HW217058   5.768   1.390   4.246
 5387SOL     OW17059   2.733   6.844   3.511
 5387SOL    HW117060   2.738   6.753   3.469
 5387SOL    HW217061   2.819   6.862   3.560
 5388SOL     OW17062   1.612   6.765   2.876
 5388SOL    HW117063   1.603   6.858   2.839
 5388SOL    HW217064   1.702   6.754   2.918
 5389SOL     OW17065   4.199   1.589   4.955
 5389SOL    HW117066   4.101   1.592   4.937
 5389SOL    HW217067   4.246   1.649   4.891
 5390SOL     OW17068   5.221   4.196   3.795
 5390SOL    HW117069   5.207   4.213   3.892
 5390SOL    HW217070   5.319   4.192   3.775
 5391SOL     OW17071   3.058   1.859   0.112
 5391SOL    HW117072   3.007   1.781   0.148
 5391SOL    HW217073   3.016   1.891   0.027
 5392SOL     OW17074   5.194   3.743   2.151
 5392SOL    HW117075   5.197   3.682   2.072
 5392SOL    HW217076   5.099   3.762   2.176
 5393SOL     OW17077   3.995   0.791   5.121
 5393SOL    HW117078   3.977   0.878   5.075
 5393SOL    HW217079   3.914   0.764   5.173
 5394SOL     OW17080   0.641   6.272   1.070
 5394SOL    HW117081   0.684   6.274   1.160
 5394SOL    HW217082   0.546   6.242   1.080
 5395SOL     OW17083   4.944   1.065   0.926
 5395SOL    HW117084   4.951   1.031   1.020
 5395SOL    HW217085   4.965   1.162   0.925
 5396SOL     OW17086   5.379   5.551   1.450
 5396SOL    HW117087   5.289   5.512   1.433
 5396SOL    HW217088   5.385   5.640   1.406
 5397SOL     OW17089   0.256   2.025   1.856
 5397SOL    HW117090   0.192   2.010   1.781
 5397SOL    HW217091   0.237   2.113   1.899
 5398SOL     OW17092   3.281   2.090   3.647
 5398SOL    HW117093   3.194   2.129   3.615
 5398SOL    HW217094   3.357   2.132   3.596
 5399SOL     OW17095   2.620   6.810   5.830
 5399SOL    HW117096   2.538   6.817   5.887
 5399SOL    HW217097   2.693   6.864   5.872
 5400SOL     OW17098   3.192   3.317   0.866
 5400SOL    HW117099   3.258   3.317   0.791
 5400SOL    HW217100   3.099   3.317   0.829
 5401SOL     OW17101   5.707   3.898   2.584
 5401SOL    HW117102   5.761   3.910   2.668
 5401SOL    HW217103   5.704   3.985   2.534
 5402SOL     OW17104   3.134   6.635   0.742
 5402SOL    HW117105   3.054   6.586   0.777
 5402SOL    HW217106   3.201   6.569   0.708
 5403SOL     OW17107   5.061   3.482   6.666
 5403SOL    HW117108   5.155   3.454   6.648
 5403SOL    HW217109   5.016   3.412   6.722
 5404SOL     OW17110   1.003   0.640   1.027
 5404SOL    HW117111   1.005   0.739   1.012
 5404SOL    HW217112   1.032   0.593   0.944
 5405SOL     OW17113   5.759   5.489   6.802
 5405SOL    HW117114   5.806   5.551   6.865
 5405SOL    HW217115   5.784   5.395   6.822
 5406SOL     OW17116   2.158   0.908   4.966
 5406SOL    HW117117   2.203   0.884   5.052
 5406SOL    HW217118   2.191   0.847   4.893
 5407SOL     OW17119   3.150   1.338   0.703
 5407SOL    HW117120   3.208   1.417   0.724
 5407SOL    HW217121   3.062   1.370   0.668
 5408SOL     OW17122   3.077   1.385   4.617
 5408SOL    HW117123   3.129   1.440   4.683
 5408SOL    HW217124   3.139   1.320   4.573
 5409SOL     OW17125   6.803   1.506   2.310
 5409SOL    HW117126   6.829   1.419   2.267
 5409SOL    HW217127   6.881   1.569   2.304
 5410SOL     OW17128   0.653   2.998   6.813
 5410SOL    HW117129   0.687   3.026   6.903
 5410SOL    HW217130   0.731   2.991   6.749
 5411SOL     OW17131   5.362   4.628   6.940
 5411SOL    HW117132   5.434   4.582   6.992
 5411SOL    HW217133   5.402   4.671   6.859
 5412SOL     OW17134   2.157   1.412   5.882
 5412SOL    HW117135   2.105   1.353   5.820
 5412SOL    HW217136   2.192   1.490   5.831
 5413SOL     OW17137   0.758   6.843   6.409
 5413SOL    HW117138   0.673   6.877   6.449
 5413SOL    HW217139   0.833   6.856   6.475
 5414SOL     OW17140   6.389   4.749   5.414
 5414SOL    HW117141   6.466   4.685   5.419
 5414SOL    HW217142   6.408   4.817   5.343
 5415SOL     OW17143   3.129   6.025   0.468
 5415SOL    HW117144   3.056   6.045   0.533
 5415SOL    HW217145   3.189   6.105   0.460
 5416SOL     OW17146   2.641   5.018   5.191
 5416SOL    HW117147   2.553   5.059   5.216
 5416SOL    HW217148   2.631   4.918   5.189
 5417SOL     OW17149   3.966   0.304   4.547
 5417SOL    HW117150   3.880   0.355   4.536
 5417SOL    HW217151   4.027   0.324   4.471
 5418SOL     OW17152   5.322   5.453   4.993
 5418SOL    HW117153   5.371   5.538   4.972
 5418SOL    HW217154   5.346   5.422   5.086
 5419SOL     OW17155   4.380   6.407   0.086
 5419SOL    HW117156   4.367   6.490   0.139
 5419SOL    HW217157   4.307   6.342   0.106
 5420SOL     OW17158   2.377   1.681   0.729
 5420SOL    HW117159   2.452   1.744   0.747
 5420SOL    HW217160   2.310   1.725   0.670
 5421SOL     OW17161   3.492   5.250   1.758
 5421SOL    HW117162   3.417   5.224   1.697
 5421SOL    HW217163   3.516   5.346   1.742
 5422SOL     OW17164   2.208   5.669   4.716
 5422SOL    HW117165   2.250   5.755   4.742
 5422SOL    HW217166   2.125   5.655   4.771
 5423SOL     OW17167   5.755   5.352   0.460
 5423SOL    HW117168   5.699   5.412   0.403
 5423SOL    HW217169   5.737   5.372   0.556
 5424SOL     OW17170   5.178   4.062   4.102
 5424SOL    HW117171   5.261   4.046   4.048
 5424SOL    HW217172   5.189   4.020   4.192
 5425SOL     OW17173   6.406   2.712   4.779
 5425SOL    HW117174   6.440   2.787   4.835
 5425SOL    HW217175   6.312   2.730   4.751
 5426SOL     OW17176   4.305   5.361   2.517
 5426SOL    HW117177   4.245   5.284   2.498
 5426SOL    HW217178   4.324   5.411   2.433
 5427SOL     OW17179   5.003   2.742   0.417
 5427SOL    HW117180   5.062   2.749   0.497
 5427SOL    HW217181   5.036   2.805   0.346
 5428SOL     OW17182   4.734   6.834   2.174
 5428SOL    HW117183   4.808   6.814   2.111
 5428SOL    HW217184   4.657   6.874   2.124
 5429SOL     OW17185   1.872   0.130   4.543
 5429SOL    HW117186   1.866   0.034   4.513
 5429SOL    HW217187   1.967   0.159   4.542
 5430SOL     OW17188   1.986   2.892   5.038
 5430SOL    HW117189   2.063   2.947   5.005
 5430SOL    HW217190   1.958   2.925   5.129
 5431SOL     OW17191   3.108   3.978   6.210
 5431SOL    HW117192   3.062   3.955   6.296
 5431SOL    HW217193   3.089   4.073   6.187
 5432SOL     OW17194   4.935   5.410   6.775
 5432SOL    HW117195   5.033   5.419   6.788
 5432SOL    HW217196   4.914   5.413   6.677
 5433SOL     OW17197   1.536   0.068   0.986
 5433SOL    HW117198   1.505   0.118   1.066
 5433SOL    HW217199   1.513   6.995   0.995
 5434SOL     OW17200   4.694   0.929   4.618
 5434SOL    HW117201   4.730   0.844   4.656
 5434SOL    HW217202   4.754   0.960   4.544
 5435SOL     OW17203   6.175   3.864   0.967
 5435SOL    HW117204   6.166   3.962   0.948
 5435SOL    HW217205   6.177   3.849   1.065
 5436SOL     OW17206   6.641   5.005   3.883
 5436SOL    HW117207   6.714   4.939   3.903
 5436SOL    HW217208   6.559   4.955   3.854
 5437SOL     OW17209   3.608   5.038   5.531
 5437SOL    HW117210   3.622   4.943   5.559
 5437SOL    HW217211   3.560   5.087   5.603
 5438SOL     OW17212   4.899   5.189   2.331
 5438SOL    HW117213   4.907   5.248   2.251
 5438SOL    HW217214   4.832   5.228   2.394
 5439SOL     OW17215   0.912   3.743   0.068
 5439SOL    HW117216   0.817   3.764   0.092
 5439SOL    HW217217   0.923   3.747   6.992
 5440SOL     OW17218   5.756   6.521   3.893
 5440SOL    HW117219   5.747   6.432   3.938
 5440SOL    HW217220   5.674   6.575   3.908
 5441SOL     OW17221   5.244   3.434   3.201
 5441SOL    HW117222   5.192   3.431   3.286
 5441SOL    HW217223   5.235   3.346   3.154
 5442SOL     OW17224   3.785   0.046   3.358
 5442SOL    HW117225   3.790   6.995   3.292
 5442SOL    HW217226   3.762   0.009   3.448
 5443SOL     OW17227   4.607   6.660   4.074
 5443SOL    HW117228   4.704   6.658   4.098
 5443SOL    HW217229   4.556   6.715   4.141
 5444SOL     OW17230   6.781   1.426   4.280
 5444SOL    HW117231   6.683   1.443   4.289
 5444SOL    HW217232   6.796   1.351   4.216
 5445SOL     OW17233   5.334   4.811   3.269
 5445SOL    HW117234   5.358   4.765   3.184
 5445SOL    HW217235   5.257   4.873   3.253
 5446SOL     OW17236   5.920   4.801   4.413
 5446SOL    HW117237   5.947   4.708   4.439
 5446SOL    HW217238   5.842   4.797   4.351
 5447SOL     OW17239   1.904   1.630   1.179
 5447SOL    HW117240   1.915   1.551   1.119
 5447SOL    HW217241   1.990   1.681   1.183
 5448SOL     OW17242   4.758   4.816   3.976
 5448SOL    HW117243   4.722   4.772   3.894
 5448SOL    HW217244   4.858   4.820   3.970
 5449SOL     OW17245   2.480   1.442   1.310
 5449SOL    HW117246   2.518   1.364   1.260
 5449SOL    HW217247   2.527   1.452   1.397
 5450SOL     OW17248   3.421   6.548   1.478
 5450SOL    HW117249   3.390   6.523   1.386
 5450SOL    HW217250   3.465   6.638   1.475
 5451SOL     OW17251   1.504   5.935   3.859
 5451SOL    HW117252   1.510   6.013   3.797
 5451SOL    HW217253   1.408   5.916   3.879
 5452SOL     OW17254   2.569   4.429   1.024
 5452SOL    HW117255   2.506   4.442   1.101
 5452SOL    HW217256   2.624   4.347   1.040
 5453SOL     OW17257   5.389   4.327   1.933
 5453SOL    HW117258   5.355   4.250   1.879
 5453SOL    HW217259   5.340   4.410   1.907
 5454SOL     OW17260   5.616   6.001   1.642
 5454SOL    HW117261   5.681   6.026   1.714
 5454SOL    HW217262   5.549   5.936   1.679
 5455SOL     OW17263   0.158   1.911   3.485
 5455SOL    HW117264   0.257   1.896   3.487
 5455SOL    HW217265   0.116   1.862   3.561
 5456SOL     OW17266   3.558   1.334   6.237
 5456SOL    HW117267   3.578   1.372   6.146
 5456SOL    HW217268   3.620   1.258   6.256
 5457SOL     OW17269   6.444   2.023   0.984
 5457SOL    HW117270   6.410   1.935   1.019
 5457SOL    HW217271   6.468   2.013   0.887
 5458SOL     OW17272   6.899   4.626   1.096
 5458SOL    HW117273   6.855   4.555   1.042
 5458SOL    HW217274   6.971   4.585   1.152
 5459SOL     OW17275   2.113   5.206   4.838
 5459SOL    HW117276   2.061   5.226   4.922
 5459SOL    HW217277   2.200   5.256   4.840
 5460SOL     OW17278   2.806   0.355   2.481
 5460SOL    HW117279   2.889   0.300   2.479
 5460SOL    HW217280   2.793   0.394   2.572
 5461SOL     OW17281   0.879   1.283   4.834
 5461SOL    HW117282   0.878   1.246   4.741
 5461SOL    HW217283   0.846   1.213   4.898
 5462SOL     OW17284   5.457   6.370   6.306
 5462SOL    HW117285   5.402   6.389   6.224
 5462SOL    HW217286   5.429   6.432   6.379
 5463SOL     OW17287   7.002   1.876   6.702
 5463SOL    HW117288   7.023   1.827   6.787
 5463SOL    HW217289   0.027   1.832   6.626
 5464SOL     OW17290   6.141   5.899   5.132
 5464SOL    HW117291   6.236   5.907   5.101
 5464SOL    HW217292   6.081   5.946   5.068
 5465SOL     OW17293   6.913   0.259   3.084
 5465SOL    HW117294   6.837   0.195   3.070
 5465SOL    HW217295   7.000   0.210   3.079
 5466SOL     OW17296   6.420   2.705   5.651
 5466SOL    HW117297   6.434   2.722   5.748
 5466SOL    HW217298   6.344   2.760   5.617
 5467SOL     OW17299   5.785   3.747   3.158
 5467SOL    HW117300   5.712   3.741   3.091
 5467SOL    HW217301   5.781   3.667   3.219
 5468SOL     OW17302   6.941   2.530   4.279
 5468SOL    HW117303   6.855   2.567   4.314
 5468SOL    HW217304   6.937   2.430   4.277
 5469SOL     OW17305   3.523   5.781   6.148
 5469SOL    HW117306   3.486   5.689   6.160
 5469SOL    HW217307   3.600   5.795   6.210
 5470SOL     OW17308   3.832   5.142   3.869
 5470SOL    HW117309   3.782   5.070   3.821
 5470SOL    HW217310   3.907   5.174   3.811
 5471SOL     OW17311   5.400   0.641   2.139
 5471SOL    HW117312   5.413   0.564   2.201
 5471SOL    HW217313   5.316   0.628   2.086
 5472SOL     OW17314   3.008   3.874   6.788
 5472SOL    HW117315   3.010   3.901   6.884
 5472SOL    HW217316   3.067   3.936   6.735
 5473SOL     OW17317   1.849   3.595   0.153
 5473SOL    HW117318   1.930   3.544   0.182
 5473SOL    HW217319   1.780   3.594   0.226
 5474SOL     OW17320   0.568   5.774   4.332
 5474SOL    HW117321   0.660   5.807   4.355
 5474SOL    HW217322   0.500   5.826   4.383
 5475SOL     OW17323   1.621   1.823   0.909
 5475SOL    HW117324   1.609   1.912   0.865
 5475SOL    HW217325   1.535   1.796   0.954
 5476SOL     OW17326   2.250   4.894   5.141
 5476SOL    HW117327   2.203   4.899   5.052
 5476SOL    HW217328   2.307   4.975   5.153
 5477SOL     OW17329   1.877   3.686   3.184
 5477SOL    HW117330   1.974   3.692   3.207
 5477SOL    HW217331   1.825   3.656   3.264
 5478SOL     OW17332   4.662   6.352   5.352
 5478SOL    HW117333   4.624   6.428   5.405
 5478SOL    HW217334   4.717   6.294   5.411
 5479SOL     OW17335   4.470   1.489   4.914
 5479SOL    HW117336   4.379   1.530   4.916
 5479SOL    HW217337   4.465   1.395   4.950
 5480SOL     OW17338   5.635   5.099   5.132
 5480SOL    HW117339   5.649   5.080   5.035
 5480SOL    HW217340   5.660   5.019   5.186
 5481SOL     OW17341   5.040   0.999   4.714
 5481SOL    HW117342   5.068   0.958   4.801
 5481SOL    HW217343   5.003   0.927   4.655
 5482SOL     OW17344   3.421   3.984   2.634
 5482SOL    HW117345   3.346   4.026   2.686
 5482SOL    HW217346   3.407   3.885   2.629
 5483SOL     OW17347   0.082   2.150   5.262
 5483SOL    HW117348   0.061   2.092   5.183
 5483SOL    HW217349   7.021   2.189   5.298
 5484SOL     OW17350   6.211   0.536   3.674
 5484SOL    HW117351   6.280   0.556   3.605
 5484SOL    HW217352   6.249   0.554   3.765
 5485SOL     OW17353   3.306   6.510   4.646
 5485SOL    HW117354   3.276   6.495   4.552
 5485SOL    HW217355   3.318   6.607   4.662
 5486SOL     OW17356   1.386   6.051   4.479
 5486SOL    HW117357   1.407   6.131   4.422
 5486SOL    HW217358   1.470   6.017   4.521
 5487SOL     OW17359   5.452   3.348   6.527
 5487SOL    HW117360   5.410   3.412   6.590
 5487SOL    HW217361   5.413   3.257   6.540
 5488SOL     OW17362   5.443   1.409   1.290
 5488SOL    HW117363   5.451   1.330   1.229
 5488SOL    HW217364   5.364   1.465   1.264
 5489SOL     OW17365   0.898   4.717   0.930
 5489SOL    HW117366   0.961   4.640   0.940
 5489SOL    HW217367   0.826   4.692   0.865
 5490SOL     OW17368   3.315   0.600   1.001
 5490SOL    HW117369   3.306   0.556   0.911
 5490SOL    HW217370   3.291   0.696   0.994
 5491SOL     OW17371   1.976   3.548   6.329
 5491SOL    HW117372   1.925   3.465   6.353
 5491SOL    HW217373   1.953   3.574   6.235
 5492SOL     OW17374   0.744   1.887   6.706
 5492SOL    HW117375   0.778   1.833   6.629
 5492SOL    HW217376   0.784   1.853   6.791
 5493SOL     OW17377   3.982   3.592   4.143
 5493SOL    HW117378   4.031   3.606   4.057
 5493SOL    HW217379   3.908   3.527   4.128
 5494SOL     OW17380   6.585   2.523   0.016
 5494SOL    HW117381   6.529   2.466   0.076
 5494SOL    HW217382   6.528   2.565   6.969
 5495SOL     OW17383   3.913   2.345   1.427
 5495SOL    HW117384   3.955   2.313   1.342
 5495SOL    HW217385   3.823   2.384   1.406
 5496SOL     OW17386   2.610   0.088   3.547
 5496SOL    HW117387   2.654   7.021   3.547
 5496SOL    HW217388   2.620   0.130   3.456
 5497SOL     OW17389   0.094   2.063   3.838
 5497SOL    HW117390   0.178   2.115   3.826
 5497SOL    HW217391   0.113   1.965   3.825
 5498SOL     OW17392   5.238   6.845   1.733
 5498SOL    HW117393   5.205   6.762   1.687
 5498SOL    HW217394   5.159   6.903   1.756
 5499SOL     OW17395   0.681   1.010   3.389
 5499SOL    HW117396   0.681   1.098   3.437
 5499SOL    HW217397   0.650   1.024   3.295
 5500SOL     OW17398   1.759   6.657   6.823
 5500SOL    HW117399   1.687   6.602   6.864
 5500SOL    HW217400   1.826   6.597   6.780
 5501SOL     OW17401   3.768   0.270   1.020
 5501SOL    HW117402   3.670   0.276   1.004
 5501SOL    HW217403   3.815   0.339   0.965
 5502SOL     OW17404   5.495   3.950   0.096
 5502SOL    HW117405   5.549   3.986   0.020
 5502SOL    HW217406   5.398   3.952   0.072
 5503SOL     OW17407   0.015   5.495   3.430
 5503SOL    HW117408   0.057   5.432   3.365
 5503SOL    HW217409   0.086   5.545   3.479
 5504SOL     OW17410   4.099   1.363   5.081
 5504SOL    HW117411   4.034   1.362   5.004
 5504SOL    HW217412   4.151   1.449   5.079
 5505SOL     OW17413   2.170   5.719   4.414
 5505SOL    HW117414   2.212   5.629   4.409
 5505SOL    HW217415   2.202   5.767   4.495
 5506SOL     OW17416   0.748   1.409   5.954
 5506SOL    HW117417   0.719   1.319   5.987
 5506SOL    HW217418   0.735   1.477   6.026
 5507SOL     OW17419   2.473   6.748   3.346
 5507SOL    HW117420   2.441   6.760   3.440
 5507SOL    HW217421   2.562   6.792   3.334
 5508SOL     OW17422   2.042   0.910   6.745
 5508SOL    HW117423   2.015   0.826   6.697
 5508SOL    HW217424   2.131   0.941   6.710
 5509SOL     OW17425   1.110   6.422   1.013
 5509SOL    HW117426   1.113   6.341   0.955
 5509SOL    HW217427   1.027   6.419   1.069
 5510SOL     OW17428   5.188   6.240   0.581
 5510SOL    HW117429   5.118   6.207   0.518
 5510SOL    HW217430   5.277   6.203   0.554
 5511SOL     OW17431   2.758   0.416   4.093
 5511SOL    HW117432   2.838   0.417   4.155
 5511SOL    HW217433   2.687   0.475   4.131
 5512SOL     OW17434   5.879   2.332   1.475
 5512SOL    HW117435   5.847   2.422   1.504
 5512SOL    HW217436   5.973   2.318   1.508
 5513SOL     OW17437   4.088   4.270   6.006
 5513SOL    HW117438   4.120   4.350   6.056
 5513SOL    HW217439   4.019   4.222   6.061
 5514SOL     OW17440   4.873   5.899   2.106
 5514SOL    HW117441   4.910   5.882   2.014
 5514SOL    HW217442   4.792   5.957   2.099
 5515SOL     OW17443   0.226   4.895   1.503
 5515SOL    HW117444   0.251   4.853   1.416
 5515SOL    HW217445   0.126   4.893   1.513
 5516SOL     OW17446   0.878   3.893   6.506
 5516SOL    HW117447   0.893   3.992   6.508
 5516SOL    HW217448   0.821   3.866   6.584
 5517SOL     OW17449   2.180   2.989   2.006
 5517SOL    HW117450   2.141   3.030   2.088
 5517SOL    HW217451   2.142   2.897   1.994
 5518SOL     OW17452   6.225   6.608   6.177
 5518SOL    HW117453   6.266   6.528   6.133
 5518SOL    HW217454   6.267   6.691   6.139
 5519SOL     OW17455   5.279   3.332   2.828
 5519SOL    HW117456   5.336   3.301   2.904
 5519SOL    HW217457   5.212   3.399   2.861
 5520SOL     OW17458   7.010   5.513   2.504
 5520SOL    HW117459   0.024   5.567   2.429
 5520SOL    HW217460   0.017   5.552   2.591
 5521SOL     OW17461   4.241   6.888   1.749
 5521SOL    HW117462   4.174   6.924   1.814
 5521SOL    HW217463   4.246   6.948   1.670
 5522SOL     OW17464   0.229   5.310   0.987
 5522SOL    HW117465   0.248   5.346   0.896
 5522SOL    HW217466   0.315   5.280   1.029
 5523SOL     OW17467   3.619   0.012   2.070
 5523SOL    HW117468   3.614   0.088   2.006
 5523SOL    HW217469   3.714   7.019   2.096
 5524SOL     OW17470   5.125   5.397   4.791
 5524SOL    HW117471   5.190   5.449   4.847
 5524SOL    HW217472   5.129   5.301   4.816
 5525SOL     OW17473   6.592   2.975   6.843
 5525SOL    HW117474   6.494   2.965   6.826
 5525SOL    HW217475   6.637   3.010   6.761
 5526SOL     OW17476   5.356   4.809   4.681
 5526SOL    HW117477   5.380   4.759   4.598
 5526SOL    HW217478   5.372   4.907   4.666
 5527SOL     OW17479   6.926   3.843   4.463
 5527SOL    HW117480   6.995   3.771   4.459
 5527SOL    HW217481   6.940   3.898   4.545
 5528SOL     OW17482   1.208   1.898   6.919
 5528SOL    HW117483   1.198   1.827   6.989
 5528SOL    HW217484   1.302   1.932   6.920
 5529SOL     OW17485   1.853   0.605   4.341
 5529SOL    HW117486   1.871   0.507   4.351
 5529SOL    HW217487   1.899   0.638   4.258
 5530SOL     OW17488   0.270   2.323   2.228
 5530SOL    HW117489   0.301   2.411   2.265
 5530SOL    HW217490   0.346   2.259   2.223
 5531SOL     OW17491   4.054   3.228   2.570
 5531SOL    HW117492   4.110   3.246   2.489
 5531SOL    HW217493   4.111   3.186   2.641
 5532SOL     OW17494   1.198   1.933   0.225
 5532SOL    HW117495   1.103   1.931   0.257
 5532SOL    HW217496   1.200   1.953   0.127
 5533SOL     OW17497   3.342   0.814   3.458
 5533SOL    HW117498   3.324   0.901   3.410
 5533SOL    HW217499   3.374   0.833   3.550
 5534SOL     OW17500   0.695   1.557   5.442
 5534SOL    HW117501   0.674   1.531   5.536
 5534SOL    HW217502   0.637   1.633   5.415
 5535SOL     OW17503   0.504   3.587   4.571
 5535SOL    HW117504   0.531   3.492   4.585
 5535SOL    HW217505   0.508   3.610   4.474
 5536SOL     OW17506   2.833   0.692   4.383
 5536SOL    HW117507   2.852   0.692   4.481
 5536SOL    HW217508   2.871   0.609   4.342
 5537SOL     OW17509   3.039   0.743   3.962
 5537SOL    HW117510   3.063   0.764   4.056
 5537SOL    HW217511   3.112   0.776   3.901
 5538SOL     OW17512   3.373   0.113   4.886
 5538SOL    HW117513   3.461   0.070   4.870
 5538SOL    HW217514   3.334   0.144   4.799
 5539SOL     OW17515   1.676   2.635   0.194
 5539SOL    HW117516   1.621   2.644   0.111
 5539SOL    HW217517   1.629   2.576   0.259
 5540SOL     OW17518   6.212   3.569   3.063
 5540SOL    HW117519   6.300   3.567   3.015
 5540SOL    HW217520   6.194   3.479   3.104
 5541SOL     OW17521   5.750   0.753   6.466
 5541SOL    HW117522   5.732   0.721   6.373
 5541SOL    HW217523   5.811   0.689   6.512
 5542SOL     OW17524   6.496   5.736   6.233
 5542SOL    HW117525   6.540   5.807   6.288
 5542SOL    HW217526   6.437   5.779   6.165
 5543SOL     OW17527   3.134   5.363   5.742
 5543SOL    HW117528   3.074   5.413   5.803
 5543SOL    HW217529   3.089   5.279   5.712
 5544SOL     OW17530   5.345   6.471   6.086
 5544SOL    HW117531   5.318   6.379   6.057
 5544SOL    HW217532   5.268   6.533   6.075
 5545SOL     OW17533   4.537   1.852   3.200
 5545SOL    HW117534   4.565   1.874   3.106
 5545SOL    HW217535   4.619   1.836   3.256
 5546SOL     OW17536   1.240   6.469   4.680
 5546SOL    HW117537   1.147   6.506   4.675
 5546SOL    HW217538   1.236   6.369   4.674
 5547SOL     OW17539   3.670   0.986   4.436
 5547SOL    HW117540   3.625   1.021   4.518
 5547SOL    HW217541   3.603   0.940   4.378
 5548SOL     OW17542   5.747   3.803   5.157
 5548SOL    HW117543   5.692   3.849   5.087
 5548SOL    HW217544   5.839   3.788   5.122
 5549SOL     OW17545   4.674   4.127   0.626
 5549SOL    HW117546   4.641   4.221   0.624
 5549SOL    HW217547   4.596   4.064   0.629
 5550SOL     OW17548   2.559   4.690   2.460
 5550SOL    HW117549   2.655   4.718   2.460
 5550SOL    HW217550   2.536   4.653   2.550
 5551SOL     OW17551   1.985   5.671   3.485
 5551SOL    HW117552   2.072   5.668   3.534
 5551SOL    HW217553   1.955   5.578   3.465
 5552SOL     OW17554   6.508   0.603   6.367
 5552SOL    HW117555   6.566   0.684   6.377
 5552SOL    HW217556   6.563   0.527   6.333
 5553SOL     OW17557   4.910   6.614   0.475
 5553SOL    HW117558   4.874   6.587   0.564
 5553SOL    HW217559   4.838   6.607   0.406
 5554SOL     OW17560   4.509   1.779   6.103
 5554SOL    HW117561   4.588   1.793   6.163
 5554SOL    HW217562   4.495   1.860   6.047
 5555SOL     OW17563   1.383   4.261   3.648
 5555SOL    HW117564   1.405   4.328   3.577
 5555SOL    HW217565   1.436   4.280   3.730
 5556SOL     OW17566   6.576   1.440   3.195
 5556SOL    HW117567   6.510   1.506   3.159
 5556SOL    HW217568   6.665   1.484   3.206
 5557SOL     OW17569   3.508   6.636   2.849
 5557SOL    HW117570   3.440   6.692   2.802
 5557SOL    HW217571   3.483   6.628   2.946
 5558SOL     OW17572   4.060   3.524   5.591
 5558SOL    HW117573   4.140   3.505   5.535
 5558SOL    HW217574   3.995   3.448   5.583
 5559SOL     OW17575   1.500   0.679   1.740
 5559SOL    HW117576   1.488   0.588   1.699
 5559SOL    HW217577   1.574   0.676   1.807
 5560SOL     OW17578   0.828   6.266   2.407
 5560SOL    HW117579   0.883   6.347   2.388
 5560SOL    HW217580   0.731   6.288   2.391
 5561SOL     OW17581   0.891   1.867   4.155
 5561SOL    HW117582   0.883   1.813   4.071
 5561SOL    HW217583   0.878   1.807   4.234
 5562SOL     OW17584   4.134   2.103   6.547
 5562SOL    HW117585   4.128   2.144   6.637
 5562SOL    HW217586   4.201   2.029   6.548
 5563SOL     OW17587   4.060   5.449   1.999
 5563SOL    HW117588   3.975   5.460   2.051
 5563SOL    HW217589   4.054   5.366   1.943
 5564SOL     OW17590   4.725   0.681   1.242
 5564SOL    HW117591   4.741   0.584   1.225
 5564SOL    HW217592   4.798   0.717   1.301
 5565SOL     OW17593   4.852   1.464   5.931
 5565SOL    HW117594   4.826   1.369   5.946
 5565SOL    HW217595   4.840   1.487   5.835
 5566SOL     OW17596   1.335   4.831   6.670
 5566SOL    HW117597   1.395   4.795   6.742
 5566SOL    HW217598   1.378   4.912   6.630
 5567SOL     OW17599   0.112   2.838   1.284
 5567SOL    HW117600   0.062   2.866   1.367
 5567SOL    HW217601   0.050   2.789   1.223
 5568SOL     OW17602   4.395   1.988   4.052
 5568SOL    HW117603   4.373   2.085   4.059
 5568SOL    HW217604   4.333   1.935   4.110
 5569SOL     OW17605   1.196   1.627   3.045
 5569SOL    HW117606   1.232   1.719   3.029
 5569SOL    HW217607   1.239   1.588   3.127
 5570SOL     OW17608   6.457   4.274   4.862
 5570SOL    HW117609   6.366   4.309   4.882
 5570SOL    HW217610   6.454   4.219   4.778
 5571SOL     OW17611   0.109   5.724   0.398
 5571SOL    HW117612   0.049   5.698   0.473
 5571SOL    HW217613   0.083   5.814   0.364
 5572SOL     OW17614   0.965   2.135   5.426
 5572SOL    HW117615   0.977   2.065   5.356
 5572SOL    HW217616   1.054   2.178   5.446
 5573SOL     OW17617   2.225   4.079   5.385
 5573SOL    HW117618   2.284   4.139   5.332
 5573SOL    HW217619   2.239   3.984   5.357
 5574SOL     OW17620   6.858   1.937   2.670
 5574SOL    HW117621   6.838   1.975   2.580
 5574SOL    HW217622   6.888   1.843   2.661
 5575SOL     OW17623   6.801   1.209   0.930
 5575SOL    HW117624   6.899   1.203   0.911
 5575SOL    HW217625   6.777   1.304   0.950
 5576SOL     OW17626   1.475   5.365   1.948
 5576SOL    HW117627   1.465   5.434   1.876
 5576SOL    HW217628   1.429   5.396   2.031
 5577SOL     OW17629   2.893   3.209   5.029
 5577SOL    HW117630   2.814   3.162   4.990
 5577SOL    HW217631   2.946   3.252   4.956
 5578SOL     OW17632   3.334   3.866   0.589
 5578SOL    HW117633   3.421   3.893   0.548
 5578SOL    HW217634   3.259   3.896   0.531
 5579SOL     OW17635   0.869   3.602   6.067
 5579SOL    HW117636   0.898   3.642   6.154
 5579SOL    HW217637   0.943   3.547   6.029
 5580SOL     OW17638   5.238   2.920   5.806
 5580SOL    HW117639   5.234   2.960   5.897
 5580SOL    HW217640   5.306   2.968   5.751
 5581SOL     OW17641   1.746   0.016   1.733
 5581SOL    HW117642   1.658   7.020   1.777
 5581SOL    HW217643   1.809   6.964   1.752
 5582SOL     OW17644   3.281   3.599   4.748
 5582SOL    HW117645   3.247   3.621   4.840
 5582SOL    HW217646   3.286   3.683   4.694
 5583SOL     OW17647   4.282   0.451   2.223
 5583SOL    HW117648   4.304   0.523   2.156
 5583SOL    HW217649   4.300   0.485   2.315
 5584SOL     OW17650   5.845   4.389   4.043
 5584SOL    HW117651   5.804   4.471   4.002
 5584SOL    HW217652   5.925   4.362   3.990
 5585SOL     OW17653   5.000   6.229   3.855
 5585SOL    HW117654   5.044   6.201   3.940
 5585SOL    HW217655   4.924   6.290   3.876
 5586SOL     OW17656   7.012   2.584   6.962
 5586SOL    HW117657   0.058   2.623   6.902
 5586SOL    HW217658   6.943   2.654   6.983
 5587SOL     OW17659   3.963   5.827   2.520
 5587SOL    HW117660   3.986   5.872   2.434
 5587SOL    HW217661   3.866   5.837   2.538
 5588SOL     OW17662   2.095   6.207   2.883
 5588SOL    HW117663   2.179   6.204   2.828
 5588SOL    HW217664   2.034   6.278   2.848
 5589SOL     OW17665   5.961   3.862   5.716
 5589SOL    HW117666   5.915   3.788   5.666
 5589SOL    HW217667   6.054   3.834   5.739
 5590SOL     OW17668   6.252   5.782   4.172
 5590SOL    HW117669   6.158   5.816   4.172
 5590SOL    HW217670   6.255   5.692   4.128
 5591SOL     OW17671   5.416   1.536   0.476
 5591SOL    HW117672   5.465   1.584   0.403
 5591SOL    HW217673   5.332   1.585   0.498
 5592SOL     OW17674   6.914   4.965   2.976
 5592SOL    HW117675   6.944   4.946   3.069
 5592SOL    HW217676   6.876   4.881   2.936
 5593SOL     OW17677   0.138   3.080   6.833
 5593SOL    HW117678   0.212   3.063   6.768
 5593SOL    HW217679   0.108   3.175   6.826
 5594SOL     OW17680   3.509   1.014   6.450
 5594SOL    HW117681   3.423   1.056   6.478
 5594SOL    HW217682   3.582   1.045   6.511
 5595SOL     OW17683   6.408   0.261   5.062
 5595SOL    HW117684   6.455   0.345   5.036
 5595SOL    HW217685   6.349   0.279   5.141
 5596SOL     OW17686   4.907   0.800   3.160
 5596SOL    HW117687   4.955   0.827   3.076
 5596SOL    HW217688   4.810   0.822   3.152
 5597SOL     OW17689   5.947   2.508   5.311
 5597SOL    HW117690   5.984   2.476   5.397
 5597SOL    HW217691   6.021   2.542   5.253
 5598SOL     OW17692   6.016   3.218   3.805
 5598SOL    HW117693   6.030   3.293   3.870
 5598SOL    HW217694   6.103   3.173   3.787
 5599SOL     OW17695   0.803   2.835   1.746
 5599SOL    HW117696   0.764   2.925   1.730
 5599SOL    HW217697   0.826   2.826   1.843
 5600SOL     OW17698   1.919   0.322   2.520
 5600SOL    HW117699   1.952   0.319   2.614
 5600SOL    HW217700   1.936   0.412   2.481
 5601SOL     OW17701   2.417   1.342   5.903
 5601SOL    HW117702   2.323   1.376   5.904
 5601SOL    HW217703   2.446   1.325   5.809
 5602SOL     OW17704   0.164   0.714   1.503
 5602SOL    HW117705   0.105   0.795   1.507
 5602SOL    HW217706   0.169   0.672   1.594
 5603SOL     OW17707   5.374   2.287   0.281
 5603SOL    HW117708   5.358   2.195   0.243
 5603SOL    HW217709   5.467   2.317   0.258
 5604SOL     OW17710   6.483   2.482   4.913
 5604SOL    HW117711   6.532   2.487   5.000
 5604SOL    HW217712   6.469   2.574   4.877
 5605SOL     OW17713   0.556   0.899   4.665
 5605SOL    HW117714   0.627   0.927   4.599
 5605SOL    HW217715   0.571   0.946   4.752
 5606SOL     OW17716   5.220   6.905   0.614
 5606SOL    HW117717   5.275   6.857   0.547
 5606SOL    HW217718   5.214   6.851   0.698
 5607SOL     OW17719   5.831   1.352   3.848
 5607SOL    HW117720   5.823   1.295   3.766
 5607SOL    HW217721   5.791   1.303   3.926
 5608SOL     OW17722   6.796   0.843   3.283
 5608SOL    HW117723   6.755   0.810   3.198
 5608SOL    HW217724   6.754   0.796   3.361
 5609SOL     OW17725   4.250   5.658   1.937
 5609SOL    HW117726   4.182   5.585   1.950
 5609SOL    HW217727   4.222   5.716   1.861
 5610SOL     OW17728   4.733   4.939   1.861
 5610SOL    HW117729   4.763   4.915   1.769
 5610SOL    HW217730   4.805   4.992   1.907
 5611SOL     OW17731   0.834   5.104   3.175
 5611SOL    HW117732   0.890   5.033   3.131
 5611SOL    HW217733   0.763   5.061   3.230
 5612SOL     OW17734   4.502   2.814   6.331
 5612SOL    HW117735   4.536   2.738   6.386
 5612SOL    HW217736   4.432   2.863   6.382
 5613SOL     OW17737   5.577   5.788   5.215
 5613SOL    HW117738   5.637   5.712   5.238
 5613SOL    HW217739   5.528   5.818   5.296
 5614SOL     OW17740   5.129   2.528   4.724
 5614SOL    HW117741   5.059   2.593   4.752
 5614SOL    HW217742   5.189   2.570   4.656
 5615SOL     OW17743   6.551   1.721   3.788
 5615SOL    HW117744   6.471   1.731   3.848
 5615SOL    HW217745   6.539   1.779   3.707
 5616SOL     OW17746   2.266   2.435   5.501
 5616SOL    HW117747   2.338   2.446   5.569
 5616SOL    HW217748   2.220   2.522   5.485
 5617SOL     OW17749   2.268   5.803   5.758
 5617SOL    HW117750   2.367   5.812   5.751
 5617SOL    HW217751   2.226   5.818   5.668
 5618SOL     OW17752   6.752   4.690   3.915
 5618SOL    HW117753   6.721   4.613   3.970
 5618SOL    HW217754   6.805   4.656   3.837
 5619SOL     OW17755   4.011   3.789   4.530
 5619SOL    HW117756   4.057   3.700   4.527
 5619SOL    HW217757   4.023   3.835   4.442
 5620SOL     OW17758   4.109   3.631   0.286
 5620SOL    HW117759   4.091   3.724   0.252
 5620SOL    HW217760   4.077   3.625   0.381
 5621SOL     OW17761   2.073   2.618   6.909
 5621SOL    HW117762   2.009   2.591   6.981
 5621SOL    HW217763   2.166   2.622   6.947
 5622SOL     OW17764   3.920   0.228   6.036
 5622SOL    HW117765   3.950   0.202   6.127
 5622SOL    HW217766   3.995   0.275   5.989
 5623SOL     OW17767   4.927   6.417   5.103
 5623SOL    HW117768   4.857   6.486   5.083
 5623SOL    HW217769   4.883   6.328   5.116
 5624SOL     OW17770   0.596   4.140   3.857
 5624SOL    HW117771   0.695   4.147   3.848
 5624SOL    HW217772   0.555   4.230   3.843
 5625SOL     OW17773   6.817   6.672   5.495
 5625SOL    HW117774   6.899   6.636   5.452
 5625SOL    HW217775   6.836   6.692   5.591
 5626SOL     OW17776   2.728   6.487   4.093
 5626SOL    HW117777   2.747   6.396   4.055
 5626SOL    HW217778   2.630   6.496   4.110
 5627SOL     OW17779   0.841   5.467   6.787
 5627SOL    HW117780   0.779   5.545   6.788
 5627SOL    HW217781   0.842   5.427   6.696
 5628SOL     OW17782   2.221   2.568   1.839
 5628SOL    HW117783   2.138   2.623   1.853
 5628SOL    HW217784   2.210   2.513   1.755
 5629SOL     OW17785   4.409   3.169   1.710
 5629SOL    HW117786   4.486   3.118   1.748
 5629SOL    HW217787   4.337   3.105   1.681
 5630SOL     OW17788   1.916   3.762   6.546
 5630SOL    HW117789   1.949   3.721   6.460
 5630SOL    HW217790   1.818   3.780   6.538
 5631SOL     OW17791   4.886   1.487   2.161
 5631SOL    HW117792   4.967   1.545   2.154
 5631SOL    HW217793   4.903   1.415   2.228
 5632SOL     OW17794   3.123   2.598   5.606
 5632SOL    HW117795   3.178   2.654   5.544
 5632SOL    HW217796   3.113   2.506   5.568
 5633SOL     OW17797   5.933   5.152   4.248
 5633SOL    HW117798   6.015   5.209   4.256
 5633SOL    HW217799   5.940   5.096   4.166
 5634SOL     OW17800   1.958   4.722   3.982
 5634SOL    HW117801   1.999   4.802   3.938
 5634SOL    HW217802   1.869   4.746   4.020
 5635SOL     OW17803   2.133   5.771   7.022
 5635SOL    HW117804   2.156   5.805   0.090
 5635SOL    HW217805   2.123   5.672   0.001
 5636SOL     OW17806   5.244   6.902   4.832
 5636SOL    HW117807   5.151   6.938   4.835
 5636SOL    HW217808   5.246   6.809   4.869
 5637SOL     OW17809   4.616   6.871   3.175
 5637SOL    HW117810   4.618   6.888   3.274
 5637SOL    HW217811   4.692   6.811   3.151
 5638SOL     OW17812   6.918   3.602   0.832
 5638SOL    HW117813   6.981   3.560   0.767
 5638SOL    HW217814   6.970   3.654   0.900
 5639SOL     OW17815   2.061   0.235   2.260
 5639SOL    HW117816   1.975   0.282   2.241
 5639SOL    HW217817   2.064   0.207   2.356
 5640SOL     OW17818   3.112   0.716   2.876
 5640SOL    HW117819   3.138   0.806   2.842
 5640SOL    HW217820   3.175   0.647   2.840
 5641SOL     OW17821   0.477   4.560   5.485
 5641SOL    HW117822   0.559   4.591   5.435
 5641SOL    HW217823   0.397   4.608   5.449
 5642SOL     OW17824   0.709   5.621   5.379
 5642SOL    HW117825   0.726   5.635   5.281
 5642SOL    HW217826   0.611   5.613   5.395
 5643SOL     OW17827   3.885   1.135   3.601
 5643SOL    HW117828   3.900   1.134   3.699
 5643SOL    HW217829   3.967   1.104   3.553
 5644SOL     OW17830   3.338   6.733   5.434
 5644SOL    HW117831   3.248   6.776   5.446
 5644SOL    HW217832   3.401   6.798   5.393
 5645SOL     OW17833   5.799   4.824   2.619
 5645SOL    HW117834   5.838   4.758   2.554
 5645SOL    HW217835   5.870   4.890   2.646
 5646SOL     OW17836   0.797   5.930   4.054
 5646SOL    HW117837   0.841   5.946   4.143
 5646SOL    HW217838   0.849   5.861   4.004
 5647SOL     OW17839   4.528   6.687   0.585
 5647SOL    HW117840   4.538   6.638   0.672
 5647SOL    HW217841   4.447   6.744   0.587
 5648SOL     OW17842   1.383   0.302   3.598
 5648SOL    HW117843   1.452   0.343   3.657
 5648SOL    HW217844   1.357   0.213   3.634
 5649SOL     OW17845   0.245   0.958   4.608
 5649SOL    HW117846   0.332   0.908   4.608
 5649SOL    HW217847   0.249   1.031   4.540
 5650SOL     OW17848   0.799   5.102   0.753
 5650SOL    HW117849   0.854   5.179   0.721
 5650SOL    HW217850   0.717   5.136   0.799
 5651SOL     OW17851   1.532   1.582   1.666
 5651SOL    HW117852   1.604   1.541   1.723
 5651SOL    HW217853   1.496   1.513   1.604
 5652SOL     OW17854   6.462   6.968   2.376
 5652SOL    HW117855   6.388   0.009   2.358
 5652SOL    HW217856   6.477   6.912   2.294
 5653SOL     OW17857   6.726   6.415   6.814
 5653SOL    HW117858   6.713   6.325   6.856
 5653SOL    HW217859   6.709   6.487   6.882
 5654SOL     OW17860   6.349   6.789   5.324
 5654SOL    HW117861   6.277   6.854   5.349
 5654SOL    HW217862   6.416   6.782   5.398
 5655SOL     OW17863   1.451   3.853   4.794
 5655SOL    HW117864   1.494   3.905   4.720
 5655SOL    HW217865   1.357   3.885   4.806
 5656SOL     OW17866   6.937   3.741   6.651
 5656SOL    HW117867   6.992   3.814   6.692
 5656SOL    HW217868   6.997   3.675   6.606
 5657SOL     OW17869   5.665   1.703   0.662
 5657SOL    HW117870   5.598   1.660   0.723
 5657SOL    HW217871   5.628   1.704   0.568
 5658SOL     OW17872   3.814   3.787   6.539
 5658SOL    HW117873   3.827   3.708   6.480
 5658SOL    HW217874   3.864   3.865   6.501
 5659SOL     OW17875   3.967   3.174   5.092
 5659SOL    HW117876   3.957   3.093   5.035
 5659SOL    HW217877   3.877   3.214   5.109
 5660SOL     OW17878   5.048   0.026   0.781
 5660SOL    HW117879   5.131   0.037   0.726
 5660SOL    HW217880   5.018   6.954   0.777
 5661SOL     OW17881   1.372   5.682   5.008
 5661SOL    HW117882   1.391   5.585   5.019
 5661SOL    HW217883   1.358   5.724   5.097
 5662SOL     OW17884   2.794   6.057   3.430
 5662SOL    HW117885   2.890   6.055   3.456
 5662SOL    HW217886   2.741   6.105   3.500
 5663SOL     OW17887   1.520   3.324   6.797
 5663SOL    HW117888   1.451   3.386   6.758
 5663SOL    HW217889   1.611   3.355   6.771
 5664SOL     OW17890   6.647   3.858   4.088
 5664SOL    HW117891   6.581   3.844   4.014
 5664SOL    HW217892   6.673   3.769   4.126
 5665SOL     OW17893   2.117   0.919   0.156
 5665SOL    HW117894   2.123   0.826   0.193
 5665SOL    HW217895   2.046   0.923   0.086
 5666SOL     OW17896   5.953   6.544   3.056
 5666SOL    HW117897   5.937   6.522   2.959
 5666SOL    HW217898   5.869   6.530   3.107
 5667SOL     OW17899   1.563   5.308   4.590
 5667SOL    HW117900   1.640   5.249   4.613
 5667SOL    HW217901   1.477   5.264   4.617
 5668SOL     OW17902   5.012   2.433   3.964
 5668SOL    HW117903   4.968   2.447   3.875
 5668SOL    HW217904   5.006   2.336   3.989
 5669SOL     OW17905   6.750   3.670   6.823
 5669SOL    HW117906   6.833   3.664   6.767
 5669SOL    HW217907   6.675   3.708   6.769
 5670SOL     OW17908   6.898   2.851   4.225
 5670SOL    HW117909   6.827   2.789   4.260
 5670SOL    HW217910   6.983   2.836   4.275
 5671SOL     OW17911   6.400   6.201   6.518
 5671SOL    HW117912   6.401   6.144   6.436
 5671SOL    HW217913   6.493   6.216   6.549
 5672SOL     OW17914   4.213   4.039   6.573
 5672SOL    HW117915   4.161   4.057   6.657
 5672SOL    HW217916   4.206   4.118   6.513
 5673SOL     OW17917   0.828   0.834   2.009
 5673SOL    HW117918   0.775   0.876   1.936
 5673SOL    HW217919   0.917   0.803   1.974
 5674SOL     OW17920   0.469   5.030   4.907
 5674SOL    HW117921   0.480   5.129   4.900
 5674SOL    HW217922   0.381   5.009   4.950
 5675SOL     OW17923   4.054   2.789   0.166
 5675SOL    HW117924   4.069   2.757   0.073
 5675SOL    HW217925   3.969   2.842   0.170
 5676SOL     OW17926   2.420   2.552   2.030
 5676SOL    HW117927   2.493   2.525   1.968
 5676SOL    HW217928   2.342   2.585   1.976
 5677SOL     OW17929   0.887   1.563   0.192
 5677SOL    HW117930   0.904   1.546   0.289
 5677SOL    HW217931   0.958   1.518   0.138
 5678SOL     OW17932   4.035   6.535   2.546
 5678SOL    HW117933   3.953   6.483   2.522
 5678SOL    HW217934   4.012   6.604   2.614
 5679SOL     OW17935   0.397   1.216   3.866
 5679SOL    HW117936   0.385   1.243   3.961
 5679SOL    HW217937   0.308   1.193   3.826
 5680SOL     OW17938   1.993   5.155   5.911
 5680SOL    HW117939   1.979   5.056   5.912
 5680SOL    HW217940   1.949   5.195   5.831
 5681SOL     OW17941   0.349   4.209   1.007
 5681SOL    HW117942   0.419   4.211   0.936
 5681SOL    HW217943   0.331   4.114   1.033
 5682SOL     OW17944   2.540   4.689   5.058
 5682SOL    HW117945   2.636   4.710   5.037
 5682SOL    HW217946   2.518   4.723   5.149
 5683SOL     OW17947   4.502   1.184   6.501
 5683SOL    HW117948   4.466   1.271   6.535
 5683SOL    HW217949   4.495   1.182   6.401
 5684SOL     OW17950   2.634   3.637   5.470
 5684SOL    HW117951   2.593   3.715   5.422
 5684SOL    HW217952   2.571   3.559   5.466
 5685SOL     OW17953   2.039   2.709   2.323
 5685SOL    HW117954   2.082   2.798   2.310
 5685SOL    HW217955   2.073   2.668   2.408
 5686SOL     OW17956   2.966   1.409   6.256
 5686SOL    HW117957   3.038   1.440   6.317
 5686SOL    HW217958   3.007   1.373   6.172
 5687SOL     OW17959   0.712   5.227   0.184
 5687SOL    HW117960   0.732   5.314   0.230
 5687SOL    HW217961   0.765   5.221   0.099
 5688SOL     OW17962   0.368   2.511   1.381
 5688SOL    HW117963   0.324   2.505   1.291
 5688SOL    HW217964   0.448   2.450   1.382
 5689SOL     OW17965   3.662   1.347   0.659
 5689SOL    HW117966   3.642   1.253   0.630
 5689SOL    HW217967   3.728   1.388   0.597
 5690SOL     OW17968   2.467   5.627   0.460
 5690SOL    HW117969   2.556   5.583   0.469
 5690SOL    HW217970   2.480   5.726   0.447
 5691SOL     OW17971   3.392   0.749   1.920
 5691SOL    HW117972   3.420   0.795   1.836
 5691SOL    HW217973   3.463   0.684   1.948
 5692SOL     OW17974   5.419   3.455   1.042
 5692SOL    HW117975   5.370   3.370   1.023
 5692SOL    HW217976   5.469   3.483   0.960
 5693SOL     OW17977   5.340   2.514   2.676
 5693SOL    HW117978   5.249   2.477   2.656
 5693SOL    HW217979   5.331   2.593   2.737
 5694SOL     OW17980   0.903   1.583   3.631
 5694SOL    HW117981   0.975   1.549   3.570
 5694SOL    HW217982   0.866   1.668   3.594
 5695SOL     OW17983   1.487   2.542   3.138
 5695SOL    HW117984   1.510   2.487   3.058
 5695SOL    HW217985   1.495   2.487   3.221
 5696SOL     OW17986   1.136   1.294   3.238
 5696SOL    HW117987   1.040   1.320   3.236
 5696SOL    HW217988   1.178   1.310   3.149
 5697SOL     OW17989   5.594   2.089   0.904
 5697SOL    HW117990   5.677   2.088   0.959
 5697SOL    HW217991   5.618   2.089   0.807
 5698SOL     OW17992   1.122   4.216   3.760
 5698SOL    HW117993   1.211   4.187   3.725
 5698SOL    HW217994   1.133   4.297   3.817
 5699SOL     OW17995   0.443   2.862   3.191
 5699SOL    HW117996   0.391   2.787   3.149
 5699SOL    HW217997   0.404   2.950   3.163
 5700SOL     OW17998   6.799   7.004   3.081
 5700SOL    HW117999   6.715   6.951   3.073
 5700SOL    HW218000   6.837   6.994   3.172
 5701SOL     OW18001   1.402   1.017   1.989
 5701SOL    HW118002   1.325   1.063   2.034
 5701SOL    HW218003   1.413   0.925   2.027
 5702SOL     OW18004   2.764   5.836   4.662
 5702SOL    HW118005   2.831   5.851   4.589
 5702SOL    HW218006   2.692   5.905   4.656
 5703SOL     OW18007   6.439   4.845   2.052
 5703SOL    HW118008   6.420   4.757   2.009
 5703SOL    HW218009   6.538   4.857   2.062
 5704SOL     OW18010   4.694   4.518   2.996
 5704SOL    HW118011   4.683   4.436   2.940
 5704SOL    HW218012   4.762   4.578   2.955
 5705SOL     OW18013   4.956   0.126   0.128
 5705SOL    HW118014   4.974   0.218   0.095
 5705SOL    HW218015   5.006   0.060   0.072
 5706SOL     OW18016   0.136   4.033   1.285
 5706SOL    HW118017   0.040   4.047   1.260
 5706SOL    HW218018   0.183   4.121   1.285
 5707SOL     OW18019   0.229   6.572   0.405
 5707SOL    HW118020   0.167   6.617   0.341
 5707SOL    HW218021   0.305   6.531   0.355
 5708SOL     OW18022   4.974   5.518   2.202
 5708SOL    HW118023   4.954   5.582   2.276
 5708SOL    HW218024   5.072   5.521   2.181
 5709SOL     OW18025   1.115   1.025   2.589
 5709SOL    HW118026   1.035   0.991   2.538
 5709SOL    HW218027   1.094   1.024   2.687
 5710SOL     OW18028   2.446   2.730   0.619
 5710SOL    HW118029   2.365   2.676   0.641
 5710SOL    HW218030   2.465   2.723   0.521
 5711SOL     OW18031   5.501   0.717   2.546
 5711SOL    HW118032   5.505   0.808   2.504
 5711SOL    HW218033   5.594   0.682   2.559
 5712SOL     OW18034   6.267   0.502   6.190
 5712SOL    HW118035   6.223   0.529   6.104
 5712SOL    HW218036   6.365   0.524   6.186
 5713SOL     OW18037   3.502   3.159   1.821
 5713SOL    HW118038   3.481   3.078   1.766
 5713SOL    HW218039   3.471   3.241   1.774
 5714SOL     OW18040   0.488   5.760   0.348
 5714SOL    HW118041   0.553   5.809   0.406
 5714SOL    HW218042   0.397   5.800   0.358
 5715SOL     OW18043   0.862   0.518   2.801
 5715SOL    HW118044   0.856   0.483   2.895
 5715SOL    HW218045   0.772   0.513   2.759
 5716SOL     OW18046   1.738   4.058   6.437
 5716SOL    HW118047   1.664   4.123   6.421
 5716SOL    HW218048   1.707   3.986   6.499
 5717SOL     OW18049   1.513   4.894   1.356
 5717SOL    HW118050   1.549   4.873   1.265
 5717SOL    HW218051   1.486   4.809   1.402
 5718SOL     OW18052   0.033   3.041   5.037
 5718SOL    HW118053   0.059   3.085   5.124
 5718SOL    HW218054   6.988   2.970   5.055
 5719SOL     OW18055   2.713   2.063   6.567
 5719SOL    HW118056   2.692   2.053   6.664
 5719SOL    HW218057   2.638   2.112   6.521
 5720SOL     OW18058   1.586   5.753   4.841
 5720SOL    HW118059   1.610   5.661   4.811
 5720SOL    HW218060   1.519   5.748   4.915
 5721SOL     OW18061   6.798   3.434   1.294
 5721SOL    HW118062   6.855   3.456   1.373
 5721SOL    HW218063   6.708   3.403   1.324
 5722SOL     OW18064   6.748   1.401   4.795
 5722SOL    HW118065   6.758   1.492   4.756
 5722SOL    HW218066   6.712   1.339   4.725
 5723SOL     OW18067   4.459   2.937   0.851
 5723SOL    HW118068   4.407   2.983   0.778
 5723SOL    HW218069   4.395   2.887   0.910
 5724SOL     OW18070   5.778   2.727   4.806
 5724SOL    HW118071   5.778   2.627   4.809
 5724SOL    HW218072   5.746   2.758   4.716
 5725SOL     OW18073   5.127   5.758   4.288
 5725SOL    HW118074   5.224   5.737   4.301
 5725SOL    HW218075   5.082   5.766   4.376
 5726SOL     OW18076   0.106   5.123   4.686
 5726SOL    HW118077   0.013   5.111   4.723
 5726SOL    HW218078   0.146   5.033   4.667
 5727SOL     OW18079   6.865   1.443   3.976
 5727SOL    HW118080   6.856   1.536   3.940
 5727SOL    HW218081   6.830   1.440   4.069
 5728SOL     OW18082   3.537   0.098   6.394
 5728SOL    HW118083   3.588   0.026   6.441
 5728SOL    HW218084   3.516   0.069   6.301
 5729SOL     OW18085   1.258   1.234   0.734
 5729SOL    HW118086   1.176   1.209   0.683
 5729SOL    HW218087   1.284   1.160   0.796
 5730SOL     OW18088   5.159   4.755   6.459
 5730SOL    HW118089   5.198   4.785   6.372
 5730SOL    HW218090   5.135   4.658   6.453
 5731SOL     OW18091   0.157   6.556   3.858
 5731SOL    HW118092   0.210   6.588   3.937
 5731SOL    HW218093   0.158   6.626   3.787
 5732SOL     OW18094   6.560   5.532   4.843
 5732SOL    HW118095   6.611   5.609   4.882
 5732SOL    HW218096   6.555   5.543   4.743
 5733SOL     OW18097   4.207   6.702   5.220
 5733SOL    HW118098   4.174   6.608   5.211
 5733SOL    HW218099   4.284   6.704   5.285
 5734SOL     OW18100   0.908   6.590   5.626
 5734SOL    HW118101   0.961   6.505   5.633
 5734SOL    HW218102   0.833   6.577   5.562
 5735SOL     OW18103   4.437   2.166   1.979
 5735SOL    HW118104   4.376   2.245   1.969
 5735SOL    HW218105   4.390   2.093   2.027
 5736SOL     OW18106   6.115   4.254   0.024
 5736SOL    HW118107   6.104   4.174   0.083
 5736SOL    HW218108   6.065   4.241   6.962
 5737SOL     OW18109   5.712   6.711   1.129
 5737SOL    HW118110   5.763   6.625   1.140
 5737SOL    HW218111   5.745   6.777   1.196
 5738SOL     OW18112   2.373   3.141   5.956
 5738SOL    HW118113   2.355   3.069   5.888
 5738SOL    HW218114   2.359   3.231   5.914
 5739SOL     OW18115   1.639   0.428   6.142
 5739SOL    HW118116   1.553   0.478   6.133
 5739SOL    HW218117   1.621   0.333   6.167
 5740SOL     OW18118   4.297   3.749   1.469
 5740SOL    HW118119   4.325   3.700   1.551
 5740SOL    HW218120   4.215   3.706   1.432
 5741SOL     OW18121   0.511   4.370   4.503
 5741SOL    HW118122   0.453   4.441   4.464
 5741SOL    HW218123   0.457   4.288   4.522
 5742SOL     OW18124   5.365   6.951   2.014
 5742SOL    HW118125   5.318   6.863   2.006
 5742SOL    HW218126   5.368   6.994   1.924
 5743SOL     OW18127   2.393   5.111   5.187
 5743SOL    HW118128   2.371   5.193   5.240
 5743SOL    HW218129   2.389   5.133   5.089
 5744SOL     OW18130   4.737   0.610   2.135
 5744SOL    HW118131   4.738   0.707   2.162
 5744SOL    HW218132   4.769   0.601   2.041
 5745SOL     OW18133   2.117   0.995   3.739
 5745SOL    HW118134   2.073   0.953   3.660
 5745SOL    HW218135   2.211   0.963   3.745
 5746SOL     OW18136   6.084   6.763   1.561
 5746SOL    HW118137   6.039   6.852   1.569
 5746SOL    HW218138   6.151   6.752   1.635
 5747SOL     OW18139   7.017   4.445   2.849
 5747SOL    HW118140   0.024   4.505   2.923
 5747SOL    HW218141   0.012   4.349   2.874
 5748SOL     OW18142   1.552   5.856   1.140
 5748SOL    HW118143   1.608   5.872   1.058
 5748SOL    HW218144   1.504   5.940   1.164
 5749SOL     OW18145   1.588   0.186   4.573
 5749SOL    HW118146   1.536   0.160   4.654
 5749SOL    HW218147   1.678   0.142   4.576
 5750SOL     OW18148   5.250   6.610   4.552
 5750SOL    HW118149   5.179   6.678   4.568
 5750SOL    HW218150   5.208   6.522   4.528
 5751SOL     OW18151   2.625   2.464   4.675
 5751SOL    HW118152   2.584   2.499   4.591
 5751SOL    HW218153   2.553   2.439   4.740
 5752SOL     OW18154   6.101   0.605   0.029
 5752SOL    HW118155   6.029   0.630   0.094
 5752SOL    HW218156   6.070   0.627   6.960
 5753SOL     OW18157   3.552   3.766   5.628
 5753SOL    HW118158   3.514   3.674   5.623
 5753SOL    HW218159   3.649   3.761   5.649
 5754SOL     OW18160   6.307   4.337   1.182
 5754SOL    HW118161   6.276   4.372   1.094
 5754SOL    HW218162   6.355   4.409   1.232
 5755SOL     OW18163   2.183   3.129   6.502
 5755SOL    HW118164   2.209   3.210   6.450
 5755SOL    HW218165   2.167   3.155   6.598
 5756SOL     OW18166   6.117   6.292   3.747
 5756SOL    HW118167   6.214   6.309   3.728
 5756SOL    HW218168   6.063   6.373   3.724
 5757SOL     OW18169   6.734   6.491   2.765
 5757SOL    HW118170   6.682   6.511   2.847
 5757SOL    HW218171   6.676   6.442   2.699
 5758SOL     OW18172   2.189   0.639   4.821
 5758SOL    HW118173   2.240   0.553   4.821
 5758SOL    HW218174   2.168   0.665   4.727
 5759SOL     OW18175   5.299   1.032   6.657
 5759SOL    HW118176   5.236   1.060   6.585
 5759SOL    HW218177   5.378   1.094   6.659
 5760SOL     OW18178   0.559   4.886   0.896
 5760SOL    HW118179   0.635   4.842   0.944
 5760SOL    HW218180   0.584   4.980   0.873
 5761SOL     OW18181   5.885   6.985   6.468
 5761SOL    HW118182   5.820   6.912   6.488
 5761SOL    HW218183   5.874   7.016   6.374
 5762SOL     OW18184   4.610   5.893   0.269
 5762SOL    HW118185   4.675   5.911   0.343
 5762SOL    HW218186   4.573   5.801   0.279
 5763SOL     OW18187   6.837   1.042   6.582
 5763SOL    HW118188   6.846   1.022   6.485
 5763SOL    HW218189   6.745   1.076   6.602
 5764SOL     OW18190   4.430   4.548   6.011
 5764SOL    HW118191   4.512   4.581   6.057
 5764SOL    HW218192   4.456   4.495   5.930
 5765SOL     OW18193   6.528   3.840   6.737
 5765SOL    HW118194   6.515   3.832   6.836
 5765SOL    HW218195   6.567   3.929   6.716
 5766SOL     OW18196   2.446   2.405   0.440
 5766SOL    HW118197   2.388   2.324   0.444
 5766SOL    HW218198   2.473   2.432   0.533
 5767SOL     OW18199   2.449   6.981   0.555
 5767SOL    HW118200   2.370   6.975   0.494
 5767SOL    HW218201   2.448   6.905   0.619
 5768SOL     OW18202   0.374   6.805   2.732
 5768SOL    HW118203   0.330   6.892   2.713
 5768SOL    HW218204   0.307   6.741   2.768
 5769SOL     OW18205   2.237   6.457   4.232
 5769SOL    HW118206   2.202   6.366   4.255
 5769SOL    HW218207   2.161   6.521   4.226
 5770SOL     OW18208   6.097   0.392   6.860
 5770SOL    HW118209   6.088   0.298   6.893
 5770SOL    HW218210   6.160   0.442   6.918
 5771SOL     OW18211   1.500   6.324   3.084
 5771SOL    HW118212   1.450   6.407   3.107
 5771SOL    HW218213   1.545   6.337   2.995
 5772SOL     OW18214   6.418   2.413   0.614
 5772SOL    HW118215   6.398   2.321   0.580
 5772SOL    HW218216   6.462   2.407   0.704
 5773SOL     OW18217   4.858   1.253   4.254
 5773SOL    HW118218   4.886   1.227   4.346
 5773SOL    HW218219   4.908   1.198   4.187
 5774SOL     OW18220   2.904   5.462   3.623
 5774SOL    HW118221   2.971   5.417   3.683
 5774SOL    HW218222   2.915   5.561   3.629
 5775SOL     OW18223   1.475   0.753   2.074
 5775SOL    HW118224   1.414   0.680   2.043
 5775SOL    HW218225   1.541   0.774   2.003
 5776SOL     OW18226   6.670   1.233   6.126
 5776SOL    HW118227   6.667   1.274   6.217
 5776SOL    HW218228   6.577   1.219   6.092
 5777SOL     OW18229   6.669   0.308   4.764
 5777SOL    HW118230   6.611   0.247   4.817
 5777SOL    HW218231   6.665   0.400   4.804
 5778SOL     OW18232   2.000   0.128   1.655
 5778SOL    HW118233   2.012   0.215   1.607
 5778SOL    HW218234   1.905   0.120   1.685
 5779SOL     OW18235   3.996   1.124   0.665
 5779SOL    HW118236   3.985   1.092   0.759
 5779SOL    HW218237   3.995   1.046   0.603
 5780SOL     OW18238   5.816   5.604   2.878
 5780SOL    HW118239   5.859   5.518   2.850
 5780SOL    HW218240   5.885   5.676   2.879
 5781SOL     OW18241   1.122   3.946   4.634
 5781SOL    HW118242   1.135   3.854   4.596
 5781SOL    HW218243   1.159   3.949   4.726
 5782SOL     OW18244   1.533   1.036   1.090
 5782SOL    HW118245   1.611   1.065   1.035
 5782SOL    HW218246   1.562   0.962   1.152
 5783SOL     OW18247   1.968   1.155   1.099
 5783SOL    HW118248   1.898   1.141   1.029
 5783SOL    HW218249   2.056   1.119   1.066
 5784SOL     OW18250   6.958   6.926   0.127
 5784SOL    HW118251   6.904   6.908   0.045
 5784SOL    HW218252   0.026   6.958   0.101
 5785SOL     OW18253   1.749   1.489   1.854
 5785SOL    HW118254   1.844   1.462   1.869
 5785SOL    HW218255   1.691   1.407   1.852
 5786SOL     OW18256   0.772   4.295   0.459
 5786SOL    HW118257   0.865   4.323   0.436
 5786SOL    HW218258   0.764   4.195   0.454
 5787SOL     OW18259   4.453   2.453   4.672
 5787SOL    HW118260   4.436   2.524   4.741
 5787SOL    HW218261   4.531   2.398   4.700
 5788SOL     OW18262   3.477   0.710   1.367
 5788SOL    HW118263   3.461   0.806   1.345
 5788SOL    HW218264   3.412   0.653   1.317
 5789SOL     OW18265   3.145   3.185   6.135
 5789SOL    HW118266   3.156   3.280   6.163
 5789SOL    HW218267   3.166   3.176   6.037
 5790SOL     OW18268   0.556   4.854   4.731
 5790SOL    HW118269   0.493   4.779   4.709
 5790SOL    HW218270   0.525   4.900   4.813
 5791SOL     OW18271   2.699   2.318   2.290
 5791SOL    HW118272   2.775   2.324   2.225
 5791SOL    HW218273   2.618   2.360   2.250
 5792SOL     OW18274   5.683   3.523   2.242
 5792SOL    HW118275   5.591   3.547   2.211
 5792SOL    HW218276   5.743   3.513   2.164
 5793SOL     OW18277   5.996   0.617   4.652
 5793SOL    HW118278   5.943   0.665   4.722
 5793SOL    HW218279   5.946   0.536   4.621
 5794SOL     OW18280   3.042   7.023   6.595
 5794SOL    HW118281   3.056   6.951   6.664
 5794SOL    HW218282   2.967   0.059   6.624
 5795SOL     OW18283   6.775   0.049   1.319
 5795SOL    HW118284   6.858   0.078   1.271
 5795SOL    HW218285   6.732   6.997   1.269
 5796SOL     OW18286   4.086   0.626   6.617
 5796SOL    HW118287   4.127   0.620   6.526
 5796SOL    HW218288   4.120   0.707   6.664
 5797SOL     OW18289   5.171   1.187   0.322
 5797SOL    HW118290   5.155   1.089   0.340
 5797SOL    HW218291   5.089   1.239   0.345
 5798SOL     OW18292   6.859   4.320   4.707
 5798SOL    HW118293   6.868   4.282   4.799
 5798SOL    HW218294   6.933   4.385   4.691
 5799SOL     OW18295   0.117   0.606   3.946
 5799SOL    HW118296   0.131   0.600   3.847
 5799SOL    HW218297   0.029   0.563   3.969
 5800SOL     OW18298   0.967   6.780   1.682
 5800SOL    HW118299   0.950   6.683   1.668
 5800SOL    HW218300   1.058   6.793   1.721
 5801SOL     OW18301   2.209   2.480   3.374
 5801SOL    HW118302   2.298   2.519   3.353
 5801SOL    HW218303   2.138   2.549   3.359
 5802SOL     OW18304   6.167   3.347   2.330
 5802SOL    HW118305   6.258   3.357   2.370
 5802SOL    HW218306   6.122   3.266   2.367
 5803SOL     OW18307   1.637   4.982   3.646
 5803SOL    HW118308   1.620   5.010   3.552
 5803SOL    HW218309   1.695   4.900   3.646
 5804SOL     OW18310   6.924   5.860   2.926
 5804SOL    HW118311   6.901   5.807   2.844
 5804SOL    HW218312   6.968   5.946   2.899
 5805SOL     OW18313   1.661   2.510   0.459
 5805SOL    HW118314   1.666   2.497   0.558
 5805SOL    HW218315   1.700   2.430   0.413
 5806SOL     OW18316   0.235   4.896   5.024
 5806SOL    HW118317   0.181   4.817   4.996
 5806SOL    HW218318   0.174   4.970   5.052
 5807SOL     OW18319   1.182   5.555   1.221
 5807SOL    HW118320   1.144   5.532   1.131
 5807SOL    HW218321   1.203   5.652   1.224
 5808SOL     OW18322   6.781   6.532   4.482
 5808SOL    HW118323   6.845   6.590   4.532
 5808SOL    HW218324   6.830   6.452   4.446
 5809SOL     OW18325   6.397   1.910   5.406
 5809SOL    HW118326   6.406   1.981   5.337
 5809SOL    HW218327   6.451   1.935   5.487
 5810SOL     OW18328   4.745   1.236   5.671
 5810SOL    HW118329   4.686   1.314   5.692
 5810SOL    HW218330   4.694   1.171   5.615
 5811SOL     OW18331   3.223   1.664   5.166
 5811SOL    HW118332   3.160   1.598   5.207
 5811SOL    HW218333   3.276   1.620   5.094
 5812SOL     OW18334   4.841   3.274   6.032
 5812SOL    HW118335   4.888   3.338   5.971
 5812SOL    HW218336   4.777   3.219   5.980
 5813SOL     OW18337   2.706   0.536   0.816
 5813SOL    HW118338   2.686   0.617   0.762
 5813SOL    HW218339   2.722   0.458   0.755
 5814SOL     OW18340   0.122   3.127   2.093
 5814SOL    HW118341   0.196   3.124   2.027
 5814SOL    HW218342   0.100   3.222   2.114
 5815SOL     OW18343   4.687   1.761   4.336
 5815SOL    HW118344   4.719   1.842   4.385
 5815SOL    HW218345   4.765   1.711   4.299
 5816SOL     OW18346   6.184   4.971   0.550
 5816SOL    HW118347   6.101   5.027   0.545
 5816SOL    HW218348   6.262   5.030   0.574
 5817SOL     OW18349   6.018   5.075   5.606
 5817SOL    HW118350   5.962   5.086   5.524
 5817SOL    HW218351   6.062   4.985   5.604
 5818SOL     OW18352   0.063   5.470   5.101
 5818SOL    HW118353   0.142   5.415   5.130
 5818SOL    HW218354   0.003   5.414   5.043
 5819SOL     OW18355   3.412   5.791   6.855
 5819SOL    HW118356   3.329   5.847   6.852
 5819SOL    HW218357   3.408   5.722   6.782
 5820SOL     OW18358   4.401   4.638   2.665
 5820SOL    HW118359   4.466   4.713   2.650
 5820SOL    HW218360   4.418   4.565   2.598
 5821SOL     OW18361   6.443   0.279   1.150
 5821SOL    HW118362   6.466   0.295   1.054
 5821SOL    HW218363   6.390   0.356   1.185
 5822SOL     OW18364   1.935   2.344   1.723
 5822SOL    HW118365   1.872   2.278   1.681
 5822SOL    HW218366   1.978   2.399   1.651
 5823SOL     OW18367   2.773   6.802   4.817
 5823SOL    HW118368   2.700   6.794   4.885
 5823SOL    HW218369   2.747   6.870   4.749
 5824SOL     OW18370   0.279   6.046   3.789
 5824SOL    HW118371   0.307   6.123   3.847
 5824SOL    HW218372   0.315   5.961   3.828
 5825SOL     OW18373   0.336   5.849   5.027
 5825SOL    HW118374   0.324   5.815   5.120
 5825SOL    HW218375   0.270   5.804   4.966
 5826SOL     OW18376   0.655   6.139   6.083
 5826SOL    HW118377   0.734   6.160   6.025
 5826SOL    HW218378   0.644   6.040   6.089
 5827SOL     OW18379   1.180   3.382   4.701
 5827SOL    HW118380   1.233   3.437   4.636
 5827SOL    HW218381   1.118   3.442   4.752
 5828SOL     OW18382   5.116   1.198   3.120
 5828SOL    HW118383   5.149   1.258   3.048
 5828SOL    HW218384   5.056   1.128   3.081
 5829SOL     OW18385   1.295   0.625   4.891
 5829SOL    HW118386   1.284   0.545   4.951
 5829SOL    HW218387   1.205   0.666   4.875
 5830SOL     OW18388   4.592   0.215   5.299
 5830SOL    HW118389   4.675   0.263   5.326
 5830SOL    HW218390   4.597   0.120   5.331
 5831SOL     OW18391   1.359   1.310   5.950
 5831SOL    HW118392   1.347   1.273   5.858
 5831SOL    HW218393   1.290   1.380   5.967
 5832SOL     OW18394   3.705   4.566   0.168
 5832SOL    HW118395   3.762   4.530   0.094
 5832SOL    HW218396   3.620   4.603   0.130
 5833SOL     OW18397   4.201   3.516   5.135
 5833SOL    HW118398   4.285   3.557   5.168
 5833SOL    HW218399   4.201   3.418   5.155
 5834SOL     OW18400   6.267   4.299   6.606
 5834SOL    HW118401   6.251   4.257   6.517
 5834SOL    HW218402   6.179   4.322   6.648
 5835SOL     OW18403   5.841   1.855   2.926
 5835SOL    HW118404   5.920   1.911   2.900
 5835SOL    HW218405   5.867   1.759   2.923
 5836SOL     OW18406   2.926   7.017   2.229
 5836SOL    HW118407   2.983   6.998   2.149
 5836SOL    HW218408   2.884   0.084   2.218
 5837SOL     OW18409   3.485   3.415   6.894
 5837SOL    HW118410   3.390   3.423   6.864
 5837SOL    HW218411   3.514   3.501   6.936
 5838SOL     OW18412   3.160   2.025   1.785
 5838SOL    HW118413   3.191   2.091   1.717
 5838SOL    HW218414   3.208   2.040   1.871
 5839SOL     OW18415   0.723   1.966   0.790
 5839SOL    HW118416   0.692   1.891   0.849
 5839SOL    HW218417   0.759   2.040   0.846
 5840SOL     OW18418   0.744   4.011   0.516
 5840SOL    HW118419   0.790   4.010   0.605
 5840SOL    HW218420   0.679   3.935   0.511
 5841SOL     OW18421   5.691   0.896   1.937
 5841SOL    HW118422   5.722   0.905   1.842
 5841SOL    HW218423   5.600   0.855   1.939
 5842SOL     OW18424   4.995   2.683   1.976
 5842SOL    HW118425   5.043   2.645   1.897
 5842SOL    HW218426   5.027   2.638   2.060
 5843SOL     OW18427   0.948   4.490   1.686
 5843SOL    HW118428   0.862   4.502   1.636
 5843SOL    HW218429   0.934   4.517   1.782
 5844SOL     OW18430   1.412   5.947   5.690
 5844SOL    HW118431   1.397   6.026   5.749
 5844SOL    HW218432   1.457   5.976   5.606
 5845SOL     OW18433   0.969   0.251   1.887
 5845SOL    HW118434   0.977   0.276   1.983
 5845SOL    HW218435   0.878   0.272   1.854
 5846SOL     OW18436   5.721   3.309   5.364
 5846SOL    HW118437   5.727   3.246   5.287
 5846SOL    HW218438   5.738   3.259   5.449
 5847SOL     OW18439   2.823   2.564   1.679
 5847SOL    HW118440   2.843   2.500   1.605
 5847SOL    HW218441   2.843   2.521   1.767
 5848SOL     OW18442   1.669   5.751   3.401
 5848SOL    HW118443   1.573   5.775   3.413
 5848SOL    HW218444   1.709   5.726   3.489
 5849SOL     OW18445   1.645   6.886   4.906
 5849SOL    HW118446   1.574   6.925   4.964
 5849SOL    HW218447   1.621   6.901   4.810
 5850SOL     OW18448   0.285   3.476   2.092
 5850SOL    HW118449   0.293   3.573   2.115
 5850SOL    HW218450   0.201   3.439   2.132
 5851SOL     OW18451   5.412   4.000   3.960
 5851SOL    HW118452   5.445   4.005   3.865
 5851SOL    HW218453   5.412   3.905   3.991
 5852SOL     OW18454   4.958   6.043   2.754
 5852SOL    HW118455   4.975   6.114   2.686
 5852SOL    HW218456   4.968   6.081   2.846
 5853SOL     OW18457   4.216   5.230   5.617
 5853SOL    HW118458   4.277   5.199   5.690
 5853SOL    HW218459   4.159   5.154   5.587
 5854SOL     OW18460   4.120   4.224   5.626
 5854SOL    HW118461   4.079   4.159   5.563
 5854SOL    HW218462   4.165   4.175   5.701
 5855SOL     OW18463   1.213   1.261   4.710
 5855SOL    HW118464   1.151   1.246   4.787
 5855SOL    HW218465   1.193   1.349   4.667
 5856SOL     OW18466   1.113   6.094   3.552
 5856SOL    HW118467   1.191   6.041   3.519
 5856SOL    HW218468   1.139   6.190   3.558
 5857SOL     OW18469   6.454   3.209   5.012
 5857SOL    HW118470   6.527   3.240   5.073
 5857SOL    HW218471   6.480   3.228   4.917
 5858SOL     OW18472   2.240   2.466   2.978
 5858SOL    HW118473   2.307   2.538   2.959
 5858SOL    HW218474   2.278   2.402   3.044
 5859SOL     OW18475   6.379   6.057   1.267
 5859SOL    HW118476   6.397   6.096   1.357
 5859SOL    HW218477   6.444   5.982   1.250
 5860SOL     OW18478   6.864   5.282   3.270
 5860SOL    HW118479   6.821   5.362   3.310
 5860SOL    HW218480   6.795   5.223   3.229
 5861SOL     OW18481   5.332   1.417   3.952
 5861SOL    HW118482   5.236   1.395   3.933
 5861SOL    HW218483   5.389   1.385   3.876
 5862SOL     OW18484   6.024   5.185   1.215
 5862SOL    HW118485   5.942   5.215   1.168
 5862SOL    HW218486   6.003   5.105   1.272
 5863SOL     OW18487   2.939   1.970   4.732
 5863SOL    HW118488   3.030   1.968   4.691
 5863SOL    HW218489   2.921   2.061   4.769
 5864SOL     OW18490   3.285   3.414   2.443
 5864SOL    HW118491   3.371   3.463   2.427
 5864SOL    HW218492   3.211   3.461   2.395
 5865SOL     OW18493   5.479   0.524   5.198
 5865SOL    HW118494   5.547   0.482   5.259
 5865SOL    HW218495   5.430   0.453   5.149
 5866SOL     OW18496   3.639   3.437   1.600
 5866SOL    HW118497   3.542   3.415   1.600
 5866SOL    HW218498   3.674   3.435   1.506
 5867SOL     OW18499   2.229   3.203   1.484
 5867SOL    HW118500   2.288   3.203   1.565
 5867SOL    HW218501   2.228   3.111   1.445
 5868SOL     OW18502   1.860   1.446   5.911
 5868SOL    HW118503   1.864   1.473   6.007
 5868SOL    HW218504   1.767   1.460   5.877
 5869SOL     OW18505   1.860   5.155   3.094
 5869SOL    HW118506   1.804   5.072   3.091
 5869SOL    HW218507   1.872   5.191   3.002
 5870SOL     OW18508   5.231   6.226   5.051
 5870SOL    HW118509   5.270   6.190   5.136
 5870SOL    HW218510   5.177   6.307   5.071
 5871SOL     OW18511   3.800   3.244   1.746
 5871SOL    HW118512   3.786   3.244   1.845
 5871SOL    HW218513   3.749   3.319   1.705
 5872SOL     OW18514   4.045   6.674   1.354
 5872SOL    HW118515   4.005   6.763   1.376
 5872SOL    HW218516   3.975   6.615   1.315
 5873SOL     OW18517   3.133   6.395   2.241
 5873SOL    HW118518   3.077   6.355   2.167
 5873SOL    HW218519   3.230   6.384   2.219
 5874SOL     OW18520   2.307   4.293   4.812
 5874SOL    HW118521   2.302   4.201   4.849
 5874SOL    HW218522   2.403   4.318   4.795
 5875SOL     OW18523   3.904   1.457   0.542
 5875SOL    HW118524   3.958   1.540   0.523
 5875SOL    HW218525   3.966   1.379   0.549
 5876SOL     OW18526   3.951   3.537   1.719
 5876SOL    HW118527   3.957   3.606   1.791
 5876SOL    HW218528   3.894   3.571   1.644
 5877SOL     OW18529   6.373   6.409   0.922
 5877SOL    HW118530   6.431   6.473   0.973
 5877SOL    HW218531   6.417   6.320   0.917
 5878SOL     OW18532   0.203   5.327   4.163
 5878SOL    HW118533   0.140   5.267   4.112
 5878SOL    HW218534   0.201   5.418   4.122
 5879SOL     OW18535   1.285   4.161   0.100
 5879SOL    HW118536   1.318   4.249   0.135
 5879SOL    HW218537   1.187   4.152   0.121
 5880SOL     OW18538   4.514   4.020   0.105
 5880SOL    HW118539   4.423   4.060   0.111
 5880SOL    HW218540   4.523   3.971   0.018
 5881SOL     OW18541   0.197   5.935   2.797
 5881SOL    HW118542   0.164   6.008   2.857
 5881SOL    HW218543   0.119   5.891   2.752
 5882SOL     OW18544   0.242   6.353   0.826
 5882SOL    HW118545   0.229   6.451   0.813
 5882SOL    HW218546   0.214   6.304   0.743
 5883SOL     OW18547   1.072   1.043   6.421
 5883SOL    HW118548   1.073   0.967   6.357
 5883SOL    HW218549   1.158   1.044   6.473
 5884SOL     OW18550   3.065   1.678   4.210
 5884SOL    HW118551   3.093   1.761   4.258
 5884SOL    HW218552   3.007   1.623   4.270
 5885SOL     OW18553   0.639   0.259   3.175
 5885SOL    HW118554   0.609   0.345   3.134
 5885SOL    HW218555   0.739   0.253   3.169
 5886SOL     OW18556   0.146   2.272   4.874
 5886SOL    HW118557   0.157   2.371   4.877
 5886SOL    HW218558   0.049   2.249   4.875
 5887SOL     OW18559   2.623   1.335   3.350
 5887SOL    HW118560   2.651   1.313   3.444
 5887SOL    HW218561   2.691   1.396   3.309
 5888SOL     OW18562   3.310   1.092   1.748
 5888SOL    HW118563   3.301   1.060   1.842
 5888SOL    HW218564   3.233   1.058   1.694
 5889SOL     OW18565   1.420   6.584   1.339
 5889SOL    HW118566   1.488   6.633   1.285
 5889SOL    HW218567   1.461   6.500   1.376
 5890SOL     OW18568   2.030   0.638   4.128
 5890SOL    HW118569   1.987   0.707   4.070
 5890SOL    HW218570   2.081   0.573   4.071
 5891SOL     OW18571   3.184   3.165   5.866
 5891SOL    HW118572   3.224   3.174   5.775
 5891SOL    HW218573   3.099   3.113   5.861
 5892SOL     OW18574   0.532   5.332   1.607
 5892SOL    HW118575   0.571   5.420   1.580
 5892SOL    HW218576   0.569   5.259   1.551
 5893SOL     OW18577   1.896   4.294   4.664
 5893SOL    HW118578   1.866   4.353   4.739
 5893SOL    HW218579   1.863   4.330   4.577
 5894SOL     OW18580   6.435   5.087   4.263
 5894SOL    HW118581   6.505   5.135   4.316
 5894SOL    HW218582   6.470   4.998   4.234
 5895SOL     OW18583   5.262   3.484   4.042
 5895SOL    HW118584   5.235   3.399   4.087
 5895SOL    HW218585   5.181   3.537   4.019
 5896SOL     OW18586   4.559   0.771   6.942
 5896SOL    HW118587   4.631   0.723   6.993
 5896SOL    HW218588   4.598   0.816   6.862
 5897SOL     OW18589   4.337   0.540   1.389
 5897SOL    HW118590   4.392   0.484   1.327
 5897SOL    HW218591   4.395   0.608   1.433
 5898SOL     OW18592   2.249   6.376   3.266
 5898SOL    HW118593   2.160   6.361   3.223
 5898SOL    HW218594   2.251   6.331   3.355
 5899SOL     OW18595   4.974   6.408   5.927
 5899SOL    HW118596   4.893   6.365   5.966
 5899SOL    HW218597   5.055   6.355   5.952
 5900SOL     OW18598   5.120   4.988   3.219
 5900SOL    HW118599   5.053   4.931   3.171
 5900SOL    HW218600   5.140   5.069   3.164
 5901SOL     OW18601   2.662   0.394   0.447
 5901SOL    HW118602   2.733   0.420   0.381
 5901SOL    HW218603   2.620   0.308   0.417
 5902SOL     OW18604   6.728   2.452   6.081
 5902SOL    HW118605   6.786   2.476   6.158
 5902SOL    HW218606   6.696   2.535   6.035
 5903SOL     OW18607   3.990   3.730   6.999
 5903SOL    HW118608   3.931   3.754   6.922
 5903SOL    HW218609   4.024   3.814   0.019
 5904SOL     OW18610   1.039   3.854   1.837
 5904SOL    HW118611   0.998   3.778   1.786
 5904SOL    HW218612   1.026   3.838   1.935
 5905SOL     OW18613   6.352   5.927   2.646
 5905SOL    HW118614   6.420   5.894   2.712
 5905SOL    HW218615   6.398   5.944   2.558
 5906SOL     OW18616   4.312   2.332   3.426
 5906SOL    HW118617   4.308   2.283   3.513
 5906SOL    HW218618   4.312   2.268   3.350
 5907SOL     OW18619   0.770   4.869   1.124
 5907SOL    HW118620   0.823   4.831   1.048
 5907SOL    HW218621   0.813   4.953   1.156
 5908SOL     OW18622   0.159   2.705   6.787
 5908SOL    HW118623   0.226   2.774   6.812
 5908SOL    HW218624   0.193   2.649   6.712
 5909SOL     OW18625   6.689   5.630   1.035
 5909SOL    HW118626   6.638   5.544   1.028
 5909SOL    HW218627   6.677   5.669   1.126
 5910SOL     OW18628   0.489   3.316   3.956
 5910SOL    HW118629   0.467   3.219   3.948
 5910SOL    HW218630   0.413   3.370   3.919
 5911SOL     OW18631   6.532   6.717   6.445
 5911SOL    HW118632   6.549   6.623   6.416
 5911SOL    HW218633   6.511   6.774   6.366
 5912SOL     OW18634   6.616   0.831   5.805
 5912SOL    HW118635   6.543   0.861   5.866
 5912SOL    HW218636   6.636   0.903   5.739
 5913SOL     OW18637   4.687   3.011   6.282
 5913SOL    HW118638   4.614   2.942   6.293
 5913SOL    HW218639   4.689   3.070   6.363
 5914SOL     OW18640   1.680   4.973   7.016
 5914SOL    HW118641   1.749   4.929   6.959
 5914SOL    HW218642   1.629   5.039   6.961
 5915SOL     OW18643   5.085   5.931   1.162
 5915SOL    HW118644   5.113   5.867   1.090
 5915SOL    HW218645   5.160   5.943   1.228
 5916SOL     OW18646   5.818   6.107   3.338
 5916SOL    HW118647   5.828   6.063   3.427
 5916SOL    HW218648   5.891   6.174   3.325
 5917SOL     OW18649   3.322   3.915   4.194
 5917SOL    HW118650   3.392   3.950   4.256
 5917SOL    HW218651   3.326   3.815   4.191
 5918SOL     OW18652   2.367   4.248   5.248
 5918SOL    HW118653   2.362   4.165   5.193
 5918SOL    HW218654   2.333   4.326   5.195
 5919SOL     OW18655   3.900   3.086   3.418
 5919SOL    HW118656   3.832   3.105   3.489
 5919SOL    HW218657   3.864   3.018   3.354
 5920SOL     OW18658   4.868   0.891   6.688
 5920SOL    HW118659   4.808   0.927   6.616
 5920SOL    HW218660   4.916   0.810   6.654
 5921SOL     OW18661   3.799   4.921   6.473
 5921SOL    HW118662   3.853   4.996   6.511
 5921SOL    HW218663   3.745   4.878   6.546
 5922SOL     OW18664   5.825   3.595   3.545
 5922SOL    HW118665   5.778   3.573   3.460
 5922SOL    HW218666   5.901   3.532   3.560
 5923SOL     OW18667   0.178   1.693   1.881
 5923SOL    HW118668   0.083   1.662   1.874
 5923SOL    HW218669   0.201   1.750   1.802
 5924SOL     OW18670   6.721   6.887   2.505
 5924SOL    HW118671   6.627   6.876   2.473
 5924SOL    HW218672   6.724   6.955   2.578
 5925SOL     OW18673   3.752   6.514   1.834
 5925SOL    HW118674   3.771   6.607   1.866
 5925SOL    HW218675   3.714   6.518   1.742
 5926SOL     OW18676   3.844   5.518   2.190
 5926SOL    HW118677   3.789   5.530   2.272
 5926SOL    HW218678   3.822   5.431   2.147
 5927SOL     OW18679   1.261   4.744   2.318
 5927SOL    HW118680   1.213   4.824   2.281
 5927SOL    HW218681   1.314   4.701   2.245
 5928SOL     OW18682   3.358   6.791   1.103
 5928SOL    HW118683   3.361   6.700   1.144
 5928SOL    HW218684   3.408   6.791   1.017
 5929SOL     OW18685   6.435   0.566   5.950
 5929SOL    HW118686   6.495   0.604   6.021
 5929SOL    HW218687   6.428   0.631   5.874
 5930SOL     OW18688   6.699   4.052   3.127
 5930SOL    HW118689   6.640   4.000   3.064
 5930SOL    HW218690   6.738   3.989   3.194
 5931SOL     OW18691   6.062   6.274   2.526
 5931SOL    HW118692   6.008   6.214   2.468
 5931SOL    HW218693   6.051   6.247   2.622
 5932SOL     OW18694   2.902   0.026   1.278
 5932SOL    HW118695   2.906   0.033   1.178
 5932SOL    HW218696   2.983   0.068   1.318
 5933SOL     OW18697   6.706   4.824   3.581
 5933SOL    HW118698   6.682   4.738   3.627
 5933SOL    HW218699   6.676   4.901   3.638
 5934SOL     OW18700   3.360   2.981   4.885
 5934SOL    HW118701   3.411   2.924   4.949
 5934SOL    HW218702   3.296   3.039   4.936
 5935SOL     OW18703   6.708   5.322   6.264
 5935SOL    HW118704   6.800   5.292   6.240
 5935SOL    HW218705   6.708   5.357   6.358
 5936SOL     OW18706   3.351   3.000   1.464
 5936SOL    HW118707   3.368   3.005   1.563
 5936SOL    HW218708   3.423   3.050   1.415
 5937SOL     OW18709   6.143   3.283   2.062
 5937SOL    HW118710   6.056   3.236   2.050
 5937SOL    HW218711   6.145   3.327   2.151
 5938SOL     OW18712   6.602   5.761   3.477
 5938SOL    HW118713   6.537   5.814   3.532
 5938SOL    HW218714   6.630   5.816   3.397
 5939SOL     OW18715   2.316   6.162   3.033
 5939SOL    HW118716   2.312   6.207   3.122
 5939SOL    HW218717   2.226   6.164   2.990
 5940SOL     OW18718   4.531   5.402   2.681
 5940SOL    HW118719   4.522   5.316   2.732
 5940SOL    HW218720   4.450   5.417   2.626
 5941SOL     OW18721   6.110   4.191   2.029
 5941SOL    HW118722   6.131   4.215   2.124
 5941SOL    HW218723   6.013   4.202   2.012
 5942SOL     OW18724   5.187   3.976   0.129
 5942SOL    HW118725   5.174   3.879   0.111
 5942SOL    HW218726   5.103   4.015   0.166
 5943SOL     OW18727   3.450   4.415   6.173
 5943SOL    HW118728   3.415   4.324   6.194
 5943SOL    HW218729   3.466   4.422   6.075
 5944SOL     OW18730   6.907   2.101   0.350
 5944SOL    HW118731   6.909   2.183   0.293
 5944SOL    HW218732   6.942   2.124   0.441
 5945SOL     OW18733   6.414   4.597   4.861
 5945SOL    HW118734   6.489   4.536   4.886
 5945SOL    HW218735   6.353   4.609   4.940
 5946SOL     OW18736   3.193   3.651   5.980
 5946SOL    HW118737   3.125   3.703   6.031
 5946SOL    HW218738   3.241   3.712   5.916
 5947SOL     OW18739   3.790   3.207   2.485
 5947SOL    HW118740   3.866   3.159   2.441
 5947SOL    HW218741   3.825   3.268   2.556
 5948SOL     OW18742   4.349   5.006   2.399
 5948SOL    HW118743   4.330   4.912   2.427
 5948SOL    HW218744   4.266   5.061   2.407
 5949SOL     OW18745   5.294   4.074   1.817
 5949SOL    HW118746   5.355   4.000   1.787
 5949SOL    HW218747   5.264   4.058   1.911
 5950SOL     OW18748   5.344   1.637   5.089
 5950SOL    HW118749   5.287   1.647   5.007
 5950SOL    HW218750   5.408   1.561   5.076
 5951SOL     OW18751   1.519   4.916   3.887
 5951SOL    HW118752   1.580   4.851   3.933
 5951SOL    HW218753   1.569   4.961   3.813
 5952SOL     OW18754   5.171   5.250   3.076
 5952SOL    HW118755   5.157   5.217   2.983
 5952SOL    HW218756   5.259   5.298   3.082
 5953SOL     OW18757   6.716   4.132   5.836
 5953SOL    HW118758   6.778   4.110   5.761
 5953SOL    HW218759   6.622   4.138   5.802
 5954SOL     OW18760   6.284   5.787   5.843
 5954SOL    HW118761   6.208   5.823   5.789
 5954SOL    HW218762   6.353   5.750   5.782
 5955SOL     OW18763   4.821   5.334   2.073
 5955SOL    HW118764   4.876   5.406   2.114
 5955SOL    HW218765   4.766   5.372   1.999
 5956SOL     OW18766   4.715   2.023   4.471
 5956SOL    HW118767   4.621   2.049   4.445
 5956SOL    HW218768   4.777   2.099   4.451
 5957SOL     OW18769   2.995   1.099   4.478
 5957SOL    HW118770   3.090   1.085   4.449
 5957SOL    HW218771   2.981   1.055   4.567
 5958SOL     OW18772   4.421   6.679   2.600
 5958SOL    HW118773   4.394   6.649   2.508
 5958SOL    HW218774   4.469   6.604   2.646
 5959SOL     OW18775   4.273   2.920   5.503
 5959SOL    HW118776   4.173   2.912   5.497
 5959SOL    HW218777   4.305   2.987   5.436
 5960SOL     OW18778   4.092   5.305   5.053
 5960SOL    HW118779   4.033   5.275   4.977
 5960SOL    HW218780   4.173   5.350   5.016
 5961SOL     OW18781   4.357   2.400   2.700
 5961SOL    HW118782   4.293   2.344   2.648
 5961SOL    HW218783   4.442   2.349   2.713
 5962SOL     OW18784   6.251   6.693   6.919
 5962SOL    HW118785   6.313   6.683   6.841
 5962SOL    HW218786   6.210   6.605   6.940
 5963SOL     OW18787   3.284   3.775   6.263
 5963SOL    HW118788   3.229   3.853   6.234
 5963SOL    HW218789   3.330   3.797   6.349
 5964SOL     OW18790   1.271   6.437   5.071
 5964SOL    HW118791   1.316   6.487   4.997
 5964SOL    HW218792   1.317   6.456   5.158
 5965SOL     OW18793   1.939   1.790   0.411
 5965SOL    HW118794   1.849   1.747   0.419
 5965SOL    HW218795   1.996   1.735   0.350
 5966SOL     OW18796   2.415   6.168   6.030
 5966SOL    HW118797   2.443   6.078   6.064
 5966SOL    HW218798   2.366   6.217   6.102
 5967SOL     OW18799   2.638   0.369   5.965
 5967SOL    HW118800   2.557   0.311   5.952
 5967SOL    HW218801   2.704   0.349   5.893
 5968SOL     OW18802   5.451   2.004   0.279
 5968SOL    HW118803   5.550   2.017   0.281
 5968SOL    HW218804   5.421   1.993   0.184
 5969SOL     OW18805   6.212   0.677   6.469
 5969SOL    HW118806   6.275   0.638   6.402
 5969SOL    HW218807   6.131   0.713   6.422
 5970SOL     OW18808   0.174   4.025   2.496
 5970SOL    HW118809   0.218   3.987   2.415
 5970SOL    HW218810   0.093   4.077   2.468
 5971SOL     OW18811   0.188   1.565   2.153
 5971SOL    HW118812   0.283   1.532   2.149
 5971SOL    HW218813   0.152   1.570   2.060
 5972SOL     OW18814   5.270   5.511   6.033
 5972SOL    HW118815   5.347   5.542   5.977
 5972SOL    HW218816   5.276   5.552   6.124
 5973SOL     OW18817   1.761   3.097   1.554
 5973SOL    HW118818   1.845   3.146   1.575
 5973SOL    HW218819   1.694   3.160   1.516
 5974SOL     OW18820   5.709   5.986   6.705
 5974SOL    HW118821   5.702   6.031   6.615
 5974SOL    HW218822   5.622   5.941   6.726
 5975SOL     OW18823   4.228   0.071   1.274
 5975SOL    HW118824   4.285   0.030   1.202
 5975SOL    HW218825   4.150   0.117   1.232
 5976SOL     OW18826   4.008   2.568   6.069
 5976SOL    HW118827   4.078   2.498   6.055
 5976SOL    HW218828   4.052   2.654   6.097
 5977SOL     OW18829   1.185   6.110   0.699
 5977SOL    HW118830   1.229   6.155   0.621
 5977SOL    HW218831   1.248   6.041   0.737
 5978SOL     OW18832   4.106   5.375   1.399
 5978SOL    HW118833   4.140   5.376   1.305
 5978SOL    HW218834   4.174   5.416   1.460
 5979SOL     OW18835   6.204   0.368   2.894
 5979SOL    HW118836   6.181   0.303   2.822
 5979SOL    HW218837   6.134   0.366   2.965
 5980SOL     OW18838   3.559   3.988   2.134
 5980SOL    HW118839   3.549   3.984   2.034
 5980SOL    HW218840   3.558   4.084   2.163
 5981SOL     OW18841   5.858   2.045   1.226
 5981SOL    HW118842   5.818   1.975   1.167
 5981SOL    HW218843   5.818   2.039   1.317
 5982SOL     OW18844   6.245   2.201   2.032
 5982SOL    HW118845   6.160   2.243   2.001
 5982SOL    HW218846   6.293   2.161   1.955
 5983SOL     OW18847   1.181   1.148   4.107
 5983SOL    HW118848   1.251   1.080   4.084
 5983SOL    HW218849   1.096   1.126   4.059
 5984SOL     OW18850   5.801   5.937   3.074
 5984SOL    HW118851   5.745   5.964   2.995
 5984SOL    HW218852   5.748   5.877   3.134
 5985SOL     OW18853   0.099   3.303   4.150
 5985SOL    HW118854   0.158   3.340   4.078
 5985SOL    HW218855   0.068   3.378   4.209
 5986SOL     OW18856   3.183   3.984   4.607
 5986SOL    HW118857   3.230   3.898   4.583
 5986SOL    HW218858   3.244   4.061   4.587
 5987SOL     OW18859   5.785   0.080   3.941
 5987SOL    HW118860   5.875   0.063   3.902
 5987SOL    HW218861   5.779   0.041   4.033
 5988SOL     OW18862   4.204   0.903   5.268
 5988SOL    HW118863   4.196   0.906   5.367
 5988SOL    HW218864   4.138   0.838   5.231
 5989SOL     OW18865   2.127   5.705   6.689
 5989SOL    HW118866   2.171   5.769   6.626
 5989SOL    HW218867   2.170   5.615   6.681
 5990SOL     OW18868   3.365   3.187   1.100
 5990SOL    HW118869   3.406   3.099   1.077
 5990SOL    HW218870   3.307   3.217   1.025
 5991SOL     OW18871   3.963   5.490   6.837
 5991SOL    HW118872   3.877   5.447   6.865
 5991SOL    HW218873   4.030   5.420   6.815
 5992SOL     OW18874   3.581   0.308   2.071
 5992SOL    HW118875   3.581   0.273   2.165
 5992SOL    HW218876   3.489   0.303   2.033
 5993SOL     OW18877   3.716   4.513   6.228
 5993SOL    HW118878   3.749   4.594   6.179
 5993SOL    HW218879   3.622   4.493   6.200
 5994SOL     OW18880   6.764   2.318   0.784
 5994SOL    HW118881   6.848   2.287   0.827
 5994SOL    HW218882   6.784   2.391   0.719
 5995SOL     OW18883   4.983   3.475   2.253
 5995SOL    HW118884   4.934   3.550   2.211
 5995SOL    HW218885   4.987   3.397   2.190
 5996SOL     OW18886   0.379   6.607   0.961
 5996SOL    HW118887   0.346   6.603   0.867
 5996SOL    HW218888   0.479   6.594   0.961
 5997SOL     OW18889   0.342   4.962   2.482
 5997SOL    HW118890   0.296   5.047   2.454
 5997SOL    HW218891   0.322   4.890   2.415
 5998SOL     OW18892   6.138   1.625   3.216
 5998SOL    HW118893   6.140   1.529   3.189
 5998SOL    HW218894   6.134   1.683   3.135
 5999SOL     OW18895   2.912   2.940   1.728
 5999SOL    HW118896   2.980   2.878   1.689
 5999SOL    HW218897   2.925   2.947   1.827
 6000SOL     OW18898   2.520   6.680   0.144
 6000SOL    HW118899   2.470   6.595   0.162
 6000SOL    HW218900   2.618   6.663   0.153
 6001SOL     OW18901   7.007   4.910   6.522
 6001SOL    HW118902   7.017   4.871   6.614
 6001SOL    HW218903   0.075   4.931   6.485
 6002SOL     OW18904   6.111   0.638   0.465
 6002SOL    HW118905   6.090   0.717   0.523
 6002SOL    HW218906   6.065   0.557   0.502
 6003SOL     OW18907   5.354   2.098   4.597
 6003SOL    HW118908   5.307   2.057   4.675
 6003SOL    HW218909   5.381   2.192   4.619
 6004SOL     OW18910   6.964   3.724   2.816
 6004SOL    HW118911   6.974   3.727   2.916
 6004SOL    HW218912   6.885   3.779   2.789
 6005SOL     OW18913   5.066   5.707   4.543
 6005SOL    HW118914   5.153   5.686   4.587
 6005SOL    HW218915   4.991   5.674   4.600
 6006SOL     OW18916   2.640   0.560   5.467
 6006SOL    HW118917   2.680   0.522   5.384
 6006SOL    HW218918   2.713   0.601   5.523
 6007SOL     OW18919   5.319   3.579   5.837
 6007SOL    HW118920   5.319   3.539   5.746
 6007SOL    HW218921   5.404   3.554   5.884
 6008SOL     OW18922   2.851   4.748   5.326
 6008SOL    HW118923   2.758   4.720   5.350
 6008SOL    HW218924   2.885   4.689   5.252
 6009SOL     OW18925   2.202   0.616   3.239
 6009SOL    HW118926   2.223   0.530   3.192
 6009SOL    HW218927   2.175   0.685   3.172
 6010SOL     OW18928   1.476   5.235   4.114
 6010SOL    HW118929   1.531   5.204   4.192
 6010SOL    HW218930   1.387   5.189   4.115
 6011SOL     OW18931   5.589   3.069   3.124
 6011SOL    HW118932   5.662   3.031   3.067
 6011SOL    HW218933   5.555   2.999   3.186
 6012SOL     OW18934   5.651   0.776   0.957
 6012SOL    HW118935   5.705   0.741   1.033
 6012SOL    HW218936   5.555   0.751   0.970
 6013SOL     OW18937   5.255   1.215   2.747
 6013SOL    HW118938   5.281   1.276   2.673
 6013SOL    HW218939   5.221   1.269   2.825
 6014SOL     OW18940   3.857   3.852   3.166
 6014SOL    HW118941   3.812   3.934   3.203
 6014SOL    HW218942   3.899   3.874   3.078
 6015SOL     OW18943   5.907   3.919   4.338
 6015SOL    HW118944   5.858   3.982   4.278
 6015SOL    HW218945   5.995   3.958   4.364
 6016SOL     OW18946   6.260   2.135   5.510
 6016SOL    HW118947   6.318   2.193   5.567
 6016SOL    HW218948   6.257   2.043   5.550
 6017SOL     OW18949   6.162   4.887   3.488
 6017SOL    HW118950   6.148   4.986   3.490
 6017SOL    HW218951   6.260   4.867   3.479
 6018SOL     OW18952   3.950   0.581   6.224
 6018SOL    HW118953   3.891   0.547   6.296
 6018SOL    HW218954   3.898   0.587   6.138
 6019SOL     OW18955   0.865   2.960   4.365
 6019SOL    HW118956   0.896   2.865   4.361
 6019SOL    HW218957   0.836   2.982   4.458
 6020SOL     OW18958   0.970   4.989   0.964
 6020SOL    HW118959   0.966   4.897   0.925
 6020SOL    HW218960   0.915   5.052   0.909
 6021SOL     OW18961   4.514   0.439   2.809
 6021SOL    HW118962   4.434   0.433   2.748
 6021SOL    HW218963   4.492   0.497   2.887
 6022SOL     OW18964   5.809   2.024   3.519
 6022SOL    HW118965   5.860   1.949   3.476
 6022SOL    HW218966   5.838   2.033   3.614
 6023SOL     OW18967   5.708   0.984   1.300
 6023SOL    HW118968   5.670   1.043   1.371
 6023SOL    HW218969   5.744   1.040   1.226
 6024SOL     OW18970   1.695   4.819   2.186
 6024SOL    HW118971   1.791   4.836   2.208
 6024SOL    HW218972   1.639   4.894   2.221
 6025SOL     OW18973   3.575   1.777   3.356
 6025SOL    HW118974   3.567   1.763   3.455
 6025SOL    HW218975   3.522   1.857   3.329
 6026SOL     OW18976   0.057   4.658   5.665
 6026SOL    HW118977   0.132   4.685   5.605
 6026SOL    HW218978   0.054   4.558   5.670
 6027SOL     OW18979   0.766   3.111   4.975
 6027SOL    HW118980   0.677   3.067   4.985
 6027SOL    HW218981   0.838   3.042   4.978
 6028SOL     OW18982   6.442   4.857   0.187
 6028SOL    HW118983   6.447   4.955   0.211
 6028SOL    HW218984   6.405   4.806   0.264
 6029SOL     OW18985   2.149   0.100   4.593
 6029SOL    HW118986   2.173   0.007   4.620
 6029SOL    HW218987   2.232   0.154   4.582
 6030SOL     OW18988   3.949   5.106   2.683
 6030SOL    HW118989   3.872   5.122   2.621
 6030SOL    HW218990   3.952   5.009   2.707
 6031SOL     OW18991   3.496   5.482   4.509
 6031SOL    HW118992   3.460   5.401   4.557
 6031SOL    HW218993   3.465   5.480   4.414
 6032SOL     OW18994   2.048   4.593   2.697
 6032SOL    HW118995   2.026   4.687   2.720
 6032SOL    HW218996   2.078   4.587   2.602
 6033SOL     OW18997   2.459   2.629   2.952
 6033SOL    HW118998   2.528   2.596   3.015
 6033SOL    HW218999   2.495   2.629   2.859
 6034SOL     OW19000   1.391   0.218   5.122
 6034SOL    HW119001   1.297   0.228   5.091
 6034SOL    HW219002   1.393   0.209   5.222
 6035SOL     OW19003   0.923   1.501   1.967
 6035SOL    HW119004   0.881   1.447   1.894
 6035SOL    HW219005   0.852   1.554   2.014
 6036SOL     OW19006   5.263   4.905   2.821
 6036SOL    HW119007   5.174   4.945   2.844
 6036SOL    HW219008   5.257   4.860   2.732
 6037SOL     OW19009   4.031   6.781   0.288
 6037SOL    HW119010   4.012   6.743   0.198
 6037SOL    HW219011   4.017   6.711   0.358
 6038SOL     OW19012   1.591   2.703   5.795
 6038SOL    HW119013   1.615   2.677   5.889
 6038SOL    HW219014   1.540   2.629   5.752
 6039SOL     OW19015   3.436   2.901   2.609
 6039SOL    HW119016   3.360   2.922   2.669
 6039SOL    HW219017   3.403   2.854   2.527
 6040SOL     OW19018   1.582   1.507   0.839
 6040SOL    HW119019   1.531   1.487   0.923
 6040SOL    HW219020   1.525   1.561   0.777
 6041SOL     OW19021   3.188   0.943   5.207
 6041SOL    HW119022   3.253   0.983   5.142
 6041SOL    HW219023   3.097   0.943   5.166
 6042SOL     OW19024   3.908   6.787   2.320
 6042SOL    HW119025   4.007   6.790   2.306
 6042SOL    HW219026   3.886   6.820   2.412
 6043SOL     OW19027   0.922   5.901   5.954
 6043SOL    HW119028   1.002   5.958   5.972
 6043SOL    HW219029   0.937   5.849   5.870
 6044SOL     OW19030   1.728   2.646   1.618
 6044SOL    HW119031   1.742   2.586   1.540
 6044SOL    HW219032   1.650   2.707   1.601
 6045SOL     OW19033   6.412   4.234   2.307
 6045SOL    HW119034   6.435   4.328   2.285
 6045SOL    HW219035   6.346   4.232   2.383
 6046SOL     OW19036   3.477   2.705   1.091
 6046SOL    HW119037   3.442   2.613   1.109
 6046SOL    HW219038   3.499   2.714   0.994
 6047SOL     OW19039   5.544   1.466   2.214
 6047SOL    HW119040   5.450   1.476   2.180
 6047SOL    HW219041   5.608   1.501   2.146
 6048SOL     OW19042   4.706   5.098   5.222
 6048SOL    HW119043   4.678   5.022   5.281
 6048SOL    HW219044   4.626   5.153   5.200
 6049SOL     OW19045   4.785   3.052   7.018
 6049SOL    HW119046   4.825   3.124   0.052
 6049SOL    HW219047   4.690   3.077   6.995
 6050SOL     OW19048   3.215   5.135   5.954
 6050SOL    HW119049   3.164   5.168   6.033
 6050SOL    HW219050   3.243   5.213   5.898
 6051SOL     OW19051   1.594   0.235   3.889
 6051SOL    HW119052   1.604   0.189   3.977
 6051SOL    HW219053   1.682   0.235   3.841
 6052SOL     OW19054   5.491   1.449   0.739
 6052SOL    HW119055   5.496   1.465   0.641
 6052SOL    HW219056   5.537   1.363   0.761
 6053SOL     OW19057   4.478   1.356   6.174
 6053SOL    HW119058   4.536   1.383   6.097
 6053SOL    HW219059   4.465   1.257   6.174
 6054SOL     OW19060   2.694   3.164   0.145
 6054SOL    HW119061   2.738   3.222   0.214
 6054SOL    HW219062   2.713   3.200   0.054
 6055SOL     OW19063   5.297   6.940   5.740
 6055SOL    HW119064   5.216   6.983   5.778
 6055SOL    HW219065   5.321   6.983   5.653
 6056SOL     OW19066   4.864   3.564   4.540
 6056SOL    HW119067   4.896   3.616   4.620
 6056SOL    HW219068   4.774   3.526   4.559
 6057SOL     OW19069   7.007   1.732   2.958
 6057SOL    HW119070   7.022   1.819   3.004
 6057SOL    HW219071   0.071   1.687   2.942
 6058SOL     OW19072   4.551   3.884   1.693
 6058SOL    HW119073   4.560   3.846   1.600
 6058SOL    HW219074   4.456   3.877   1.722
 6059SOL     OW19075   5.069   5.356   5.838
 6059SOL    HW119076   5.154   5.321   5.878
 6059SOL    HW219077   5.010   5.280   5.813
 6060SOL     OW19078   2.934   3.457   6.219
 6060SOL    HW119079   3.034   3.468   6.216
 6060SOL    HW219080   2.895   3.494   6.135
 6061SOL     OW19081   4.324   3.050   1.208
 6061SOL    HW119082   4.417   3.079   1.231
 6061SOL    HW219083   4.311   2.956   1.236
 6062SOL     OW19084   2.552   1.630   5.405
 6062SOL    HW119085   2.554   1.599   5.310
 6062SOL    HW219086   2.474   1.587   5.452
 6063SOL     OW19087   4.494   2.462   6.062
 6063SOL    HW119088   4.476   2.561   6.066
 6063SOL    HW219089   4.571   2.440   6.123
 6064SOL     OW19090   1.154   6.604   1.421
 6064SOL    HW119091   1.155   6.667   1.498
 6064SOL    HW219092   1.248   6.584   1.394
 6065SOL     OW19093   0.570   6.443   3.031
 6065SOL    HW119094   0.472   6.449   3.011
 6065SOL    HW219095   0.621   6.430   2.947
 6066SOL     OW19096   4.667   1.732   5.508
 6066SOL    HW119097   4.624   1.799   5.569
 6066SOL    HW219098   4.632   1.745   5.415
 6067SOL     OW19099   5.920   0.809   5.617
 6067SOL    HW119100   5.975   0.890   5.597
 6067SOL    HW219101   5.980   0.729   5.623
 6068SOL     OW19102   4.733   2.882   4.880
 6068SOL    HW119103   4.754   2.953   4.812
 6068SOL    HW219104   4.723   2.925   4.970
 6069SOL     OW19105   6.000   3.040   4.798
 6069SOL    HW119106   6.010   2.997   4.708
 6069SOL    HW219107   6.088   3.076   4.827
 6070SOL     OW19108   2.779   2.218   1.254
 6070SOL    HW119109   2.691   2.191   1.295
 6070SOL    HW219110   2.779   2.316   1.237
 6071SOL     OW19111   5.695   5.774   4.759
 6071SOL    HW119112   5.730   5.802   4.670
 6071SOL    HW219113   5.771   5.740   4.815
 6072SOL     OW19114   6.397   6.971   1.299
 6072SOL    HW119115   6.322   6.907   1.313
 6072SOL    HW219116   6.361   0.034   1.262
 6073SOL     OW19117   5.570   3.017   0.919
 6073SOL    HW119118   5.603   3.107   0.947
 6073SOL    HW219119   5.612   2.946   0.976
 6074SOL     OW19120   1.008   6.476   2.398
 6074SOL    HW119121   1.089   6.524   2.363
 6074SOL    HW219122   1.007   6.482   2.498
 6075SOL     OW19123   4.888   0.404   5.898
 6075SOL    HW119124   4.947   0.337   5.852
 6075SOL    HW219125   4.879   0.380   5.994
 6076SOL     OW19126   3.436   5.499   3.963
 6076SOL    HW119127   3.512   5.433   3.964
 6076SOL    HW219128   3.382   5.487   3.879
 6077SOL     OW19129   6.580   5.309   0.726
 6077SOL    HW119130   6.638   5.285   0.804
 6077SOL    HW219131   6.563   5.408   0.727
 6078SOL     OW19132   4.843   5.635   0.604
 6078SOL    HW119133   4.930   5.661   0.644
 6078SOL    HW219134   4.858   5.590   0.516
 6079SOL     OW19135   4.470   3.939   6.117
 6079SOL    HW119136   4.537   3.918   6.188
 6079SOL    HW219137   4.398   3.997   6.155
 6080SOL     OW19138   0.099   6.177   0.631
 6080SOL    HW119139   0.107   6.230   0.546
 6080SOL    HW219140   0.006   6.185   0.666
 6081SOL     OW19141   6.883   2.615   5.317
 6081SOL    HW119142   6.861   2.599   5.414
 6081SOL    HW219143   6.961   2.559   5.291
 6082SOL     OW19144   2.019   1.414   3.503
 6082SOL    HW119145   2.017   1.362   3.417
 6082SOL    HW219146   1.994   1.354   3.579
 6083SOL     OW19147   6.008   6.179   0.224
 6083SOL    HW119148   6.057   6.263   0.198
 6083SOL    HW219149   5.990   6.181   0.322
 6084SOL     OW19150   0.816   6.667   3.345
 6084SOL    HW119151   0.752   6.636   3.416
 6084SOL    HW219152   0.856   6.754   3.372
 6085SOL     OW19153   7.020   6.682   0.274
 6085SOL    HW119154   0.009   6.622   0.196
 6085SOL    HW219155   6.986   6.771   0.243
 6086SOL     OW19156   2.972   0.957   5.479
 6086SOL    HW119157   2.894   0.925   5.532
 6086SOL    HW219158   2.972   0.915   5.389
 6087SOL     OW19159   3.907   6.105   1.452
 6087SOL    HW119160   3.878   6.012   1.473
 6087SOL    HW219161   3.857   6.170   1.509
 6088SOL     OW19162   5.518   6.564   4.603
 6088SOL    HW119163   5.419   6.581   4.600
 6088SOL    HW219164   5.557   6.584   4.513
 6089SOL     OW19165   5.212   2.912   2.356
 6089SOL    HW119166   5.145   2.847   2.320
 6089SOL    HW219167   5.257   2.873   2.436
 6090SOL     OW19168   2.468   6.094   4.889
 6090SOL    HW119169   2.553   6.087   4.836
 6090SOL    HW219170   2.466   6.181   4.938
 6091SOL     OW19171   1.904   1.285   0.319
 6091SOL    HW119172   1.989   1.325   0.285
 6091SOL    HW219173   1.897   1.302   0.417
 6092SOL     OW19174   4.271   6.840   2.190
 6092SOL    HW119175   4.277   6.771   2.262
 6092SOL    HW219176   4.234   6.799   2.107
 6093SOL     OW19177   2.225   2.971   1.753
 6093SOL    HW119178   2.235   2.962   1.852
 6093SOL    HW219179   2.270   3.055   1.723
 6094SOL     OW19180   1.979   6.395   2.186
 6094SOL    HW119181   2.016   6.377   2.278
 6094SOL    HW219182   2.038   6.351   2.118
 6095SOL     OW19183   5.559   4.242   0.736
 6095SOL    HW119184   5.531   4.150   0.709
 6095SOL    HW219185   5.505   4.272   0.814
 6096SOL     OW19186   5.567   6.996   3.816
 6096SOL    HW119187   5.560   7.022   3.719
 6096SOL    HW219188   5.636   0.029   3.860
 6097SOL     OW19189   1.858   5.807   1.999
 6097SOL    HW119190   1.956   5.819   2.012
 6097SOL    HW219191   1.809   5.854   2.074
 6098SOL     OW19192   0.532   1.480   5.034
 6098SOL    HW119193   0.438   1.515   5.043
 6098SOL    HW219194   0.577   1.528   4.958
 6099SOL     OW19195   5.291   6.325   0.055
 6099SOL    HW119196   5.362   6.273   0.102
 6099SOL    HW219197   5.270   6.282   6.991
 6100SOL     OW19198   5.520   6.153   0.902
 6100SOL    HW119199   5.556   6.211   0.975
 6100SOL    HW219200   5.539   6.195   0.813
 6101SOL     OW19201   6.365   3.527   3.488
 6101SOL    HW119202   6.461   3.551   3.476
 6101SOL    HW219203   6.358   3.435   3.527
 6102SOL     OW19204   3.412   6.196   3.027
 6102SOL    HW119205   3.430   6.100   3.050
 6102SOL    HW219206   3.495   6.238   2.991
 6103SOL     OW19207   6.048   1.772   1.392
 6103SOL    HW119208   6.085   1.702   1.452
 6103SOL    HW219209   5.963   1.739   1.351
 6104SOL     OW19210   5.769   0.733   6.144
 6104SOL    HW119211   5.697   0.800   6.158
 6104SOL    HW219212   5.826   0.760   6.067
 6105SOL     OW19213   3.234   6.013   0.023
 6105SOL    HW119214   3.140   6.035   7.022
 6105SOL    HW219215   3.274   6.089   0.074
 6106SOL     OW19216   0.971   4.354   6.761
 6106SOL    HW119217   0.913   4.289   6.809
 6106SOL    HW219218   0.961   4.445   6.803
 6107SOL     OW19219   4.210   5.537   4.525
 6107SOL    HW119220   4.255   5.624   4.544
 6107SOL    HW219221   4.248   5.496   4.442
 6108SOL     OW19222   2.400   2.801   1.508
 6108SOL    HW119223   2.481   2.860   1.510
 6108SOL    HW219224   2.325   2.850   1.464
 6109SOL     OW19225   5.710   1.772   4.840
 6109SOL    HW119226   5.647   1.792   4.765
 6109SOL    HW219227   5.802   1.802   4.815
 6110SOL     OW19228   3.834   3.815   0.823
 6110SOL    HW119229   3.791   3.881   0.884
 6110SOL    HW219230   3.848   3.729   0.870
 6111SOL     OW19231   1.327   3.944   2.567
 6111SOL    HW119232   1.340   4.041   2.588
 6111SOL    HW219233   1.415   3.897   2.572
 6112SOL     OW19234   3.275   0.549   2.743
 6112SOL    HW119235   3.360   0.567   2.794
 6112SOL    HW219236   3.260   0.451   2.736
 6113SOL     OW19237   2.943   1.914   6.297
 6113SOL    HW119238   2.858   1.897   6.247
 6113SOL    HW219239   3.000   1.978   6.246
 6114SOL     OW19240   4.929   4.778   2.037
 6114SOL    HW119241   4.852   4.831   2.070
 6114SOL    HW219242   5.012   4.805   2.086
 6115SOL     OW19243   5.706   0.336   3.874
 6115SOL    HW119244   5.709   0.250   3.926
 6115SOL    HW219245   5.742   0.410   3.931
 6116SOL     OW19246   4.305   1.635   6.000
 6116SOL    HW119247   4.401   1.658   6.016
 6116SOL    HW219248   4.252   1.653   6.082
 6117SOL     OW19249   1.326   1.347   3.409
 6117SOL    HW119250   1.412   1.359   3.360
 6117SOL    HW219251   1.251   1.338   3.344
 6118SOL     OW19252   0.317   0.897   1.826
 6118SOL    HW119253   0.342   0.983   1.872
 6118SOL    HW219254   0.220   0.899   1.803
 6119SOL     OW19255   0.721   3.845   6.732
 6119SOL    HW119256   0.664   3.768   6.704
 6119SOL    HW219257   0.803   3.811   6.777
 6120SOL     OW19258   3.631   6.237   5.368
 6120SOL    HW119259   3.700   6.165   5.372
 6120SOL    HW219260   3.546   6.200   5.331
 6121SOL     OW19261   0.800   3.251   5.385
 6121SOL    HW119262   0.827   3.202   5.468
 6121SOL    HW219263   0.882   3.279   5.335
 6122SOL     OW19264   4.526   5.380   0.686
 6122SOL    HW119265   4.570   5.319   0.621
 6122SOL    HW219266   4.570   5.471   0.682
 6123SOL     OW19267   5.353   6.902   6.376
 6123SOL    HW119268   5.297   6.948   6.307
 6123SOL    HW219269   5.425   6.850   6.330
 6124SOL     OW19270   1.647   6.694   5.998
 6124SOL    HW119271   1.700   6.739   5.927
 6124SOL    HW219272   1.667   6.738   6.086
 6125SOL     OW19273   2.101   4.458   0.763
 6125SOL    HW119274   2.143   4.546   0.787
 6125SOL    HW219275   2.156   4.384   0.800
 6126SOL     OW19276   1.112   6.890   4.400
 6126SOL    HW119277   1.110   6.990   4.404
 6126SOL    HW219278   1.178   6.861   4.330
 6127SOL     OW19279   3.130   0.597   1.369
 6127SOL    HW119280   3.090   0.652   1.296
 6127SOL    HW219281   3.192   0.529   1.329
 6128SOL     OW19282   6.047   3.774   0.613
 6128SOL    HW119283   6.050   3.679   0.583
 6128SOL    HW219284   6.100   3.785   0.697
 6129SOL     OW19285   6.939   3.277   2.445
 6129SOL    HW119286   6.882   3.357   2.429
 6129SOL    HW219287   6.964   3.272   2.542
 6130SOL     OW19288   5.806   2.844   2.725
 6130SOL    HW119289   5.733   2.781   2.700
 6130SOL    HW219290   5.863   2.862   2.644
 6131SOL     OW19291   0.474   1.842   4.737
 6131SOL    HW119292   0.461   1.940   4.724
 6131SOL    HW219293   0.441   1.816   4.828
 6132SOL     OW19294   4.847   1.879   0.204
 6132SOL    HW119295   4.897   1.792   0.203
 6132SOL    HW219296   4.802   1.890   0.293
 6133SOL     OW19297   1.728   3.048   2.193
 6133SOL    HW119298   1.683   3.084   2.112
 6133SOL    HW219299   1.798   3.112   2.225
 6134SOL     OW19300   4.290   4.561   6.890
 6134SOL    HW119301   4.350   4.523   6.961
 6134SOL    HW219302   4.204   4.510   6.890
 6135SOL     OW19303   0.446   0.684   0.944
 6135SOL    HW119304   0.433   0.740   0.862
 6135SOL    HW219305   0.385   0.715   1.017
 6136SOL     OW19306   1.374   2.961   1.832
 6136SOL    HW119307   1.325   2.888   1.786
 6136SOL    HW219308   1.345   2.966   1.928
 6137SOL     OW19309   6.726   3.765   2.399
 6137SOL    HW119310   6.677   3.846   2.366
 6137SOL    HW219311   6.823   3.773   2.376
 6138SOL     OW19312   3.833   6.406   2.783
 6138SOL    HW119313   3.827   6.367   2.691
 6138SOL    HW219314   3.877   6.340   2.844
 6139SOL     OW19315   1.828   6.224   6.174
 6139SOL    HW119316   1.889   6.303   6.162
 6139SOL    HW219317   1.876   6.153   6.225
 6140SOL     OW19318   0.868   6.495   1.679
 6140SOL    HW119319   0.899   6.490   1.774
 6140SOL    HW219320   0.769   6.482   1.676
 6141SOL     OW19321   0.469   6.722   6.193
 6141SOL    HW119322   0.516   6.801   6.156
 6141SOL    HW219323   0.522   6.639   6.174
 6142SOL     OW19324   0.963   6.886   0.153
 6142SOL    HW119325   0.894   6.821   0.185
 6142SOL    HW219326   1.021   6.842   0.084
 6143SOL     OW19327   6.938   3.092   1.262
 6143SOL    HW119328   7.010   3.160   1.251
 6143SOL    HW219329   6.958   3.034   1.340
 6144SOL     OW19330   5.219   4.619   3.732
 6144SOL    HW119331   5.306   4.603   3.779
 6144SOL    HW219332   5.227   4.700   3.675
 6145SOL     OW19333   4.912   5.211   3.536
 6145SOL    HW119334   4.969   5.132   3.561
 6145SOL    HW219335   4.966   5.294   3.539
 6146SOL     OW19336   3.296   5.551   3.730
 6146SOL    HW119337   3.222   5.517   3.671
 6146SOL    HW219338   3.352   5.616   3.680
 6147SOL     OW19339   2.154   1.630   4.382
 6147SOL    HW119340   2.059   1.652   4.405
 6147SOL    HW219341   2.166   1.635   4.283
 6148SOL     OW19342   5.125   0.105   5.299
 6148SOL    HW119343   5.207   0.118   5.355
 6148SOL    HW219344   5.121   0.011   5.266
 6149SOL     OW19345   2.547   6.251   1.363
 6149SOL    HW119346   2.473   6.272   1.427
 6149SOL    HW219347   2.511   6.196   1.288
 6150SOL     OW19348   4.712   5.317   0.200
 6150SOL    HW119349   4.714   5.396   0.139
 6150SOL    HW219350   4.637   5.327   0.265
 6151SOL     OW19351   6.028   4.879   6.376
 6151SOL    HW119352   5.976   4.959   6.406
 6151SOL    HW219353   6.034   4.878   6.276
 6152SOL     OW19354   6.168   5.333   4.394
 6152SOL    HW119355   6.098   5.384   4.445
 6152SOL    HW219356   6.200   5.389   4.318
 6153SOL     OW19357   5.290   4.620   1.143
 6153SOL    HW119358   5.193   4.609   1.118
 6153SOL    HW219359   5.347   4.604   1.063
 6154SOL     OW19360   5.837   2.502   3.123
 6154SOL    HW119361   5.794   2.569   3.183
 6154SOL    HW219362   5.768   2.461   3.063
 6155SOL     OW19363   1.312   1.821   3.502
 6155SOL    HW119364   1.239   1.849   3.565
 6155SOL    HW219365   1.390   1.882   3.512
 6156SOL     OW19366   4.334   4.634   1.615
 6156SOL    HW119367   4.299   4.551   1.656
 6156SOL    HW219368   4.258   4.696   1.595
 6157SOL     OW19369   7.002   1.597   4.723
 6157SOL    HW119370   7.007   1.505   4.761
 6157SOL    HW219371   6.953   1.594   4.635
 6158SOL     OW19372   3.538   2.310   5.967
 6158SOL    HW119373   3.495   2.305   5.877
 6158SOL    HW219374   3.603   2.385   5.970
 6159SOL     OW19375   4.992   1.865   2.485
 6159SOL    HW119376   5.076   1.913   2.461
 6159SOL    HW219377   4.922   1.885   2.415
 6160SOL     OW19378   5.439   1.157   6.415
 6160SOL    HW119379   5.357   1.133   6.362
 6160SOL    HW219380   5.484   1.074   6.447
 6161SOL     OW19381   4.613   1.555   5.228
 6161SOL    HW119382   4.530   1.505   5.253
 6161SOL    HW219383   4.693   1.498   5.246
 6162SOL     OW19384   0.180   6.063   3.539
 6162SOL    HW119385   0.213   6.048   3.632
 6162SOL    HW219386   0.150   5.975   3.500
 6163SOL     OW19387   6.054   6.938   1.229
 6163SOL    HW119388   6.101   6.853   1.253
 6163SOL    HW219389   6.022   6.932   1.135
 6164SOL     OW19390   3.346   4.088   3.203
 6164SOL    HW119391   3.271   4.089   3.269
 6164SOL    HW219392   3.428   4.127   3.245
 6165SOL     OW19393   4.926   1.974   6.941
 6165SOL    HW119394   4.924   1.958   0.016
 6165SOL    HW219395   4.894   1.892   6.893
 6166SOL     OW19396   5.637   1.507   6.666
 6166SOL    HW119397   5.678   1.574   6.728
 6166SOL    HW219398   5.647   1.538   6.572
 6167SOL     OW19399   1.414   5.006   2.756
 6167SOL    HW119400   1.371   5.051   2.834
 6167SOL    HW219401   1.359   5.022   2.674
 6168SOL     OW19402   1.747   3.519   1.983
 6168SOL    HW119403   1.846   3.504   1.973
 6168SOL    HW219404   1.700   3.431   1.987
 6169SOL     OW19405   1.472   1.983   6.969
 6169SOL    HW119406   1.463   2.083   6.964
 6169SOL    HW219407   1.499   1.957   0.038
 6170SOL     OW19408   1.962   4.141   5.300
 6170SOL    HW119409   2.059   4.146   5.324
 6170SOL    HW219410   1.916   4.076   5.360
 6171SOL     OW19411   1.243   3.088   1.068
 6171SOL    HW119412   1.151   3.124   1.083
 6171SOL    HW219413   1.253   3.062   0.972
 6172SOL     OW19414   1.334   2.855   2.770
 6172SOL    HW119415   1.421   2.825   2.730
 6172SOL    HW219416   1.259   2.825   2.712
 6173SOL     OW19417   6.702   5.436   1.869
 6173SOL    HW119418   6.627   5.485   1.824
 6173SOL    HW219419   6.665   5.365   1.928
 6174SOL     OW19420   5.496   4.641   3.800
 6174SOL    HW119421   5.562   4.656   3.874
 6174SOL    HW219422   5.423   4.709   3.805
 6175SOL     OW19423   4.787   0.610   3.449
 6175SOL    HW119424   4.760   0.548   3.524
 6175SOL    HW219425   4.792   0.558   3.364
 6176SOL     OW19426   4.854   3.795   6.486
 6176SOL    HW119427   4.892   3.799   6.578
 6176SOL    HW219428   4.754   3.804   6.491
 6177SOL     OW19429   5.836   0.742   1.283
 6177SOL    HW119430   5.775   0.822   1.286
 6177SOL    HW219431   5.823   0.687   1.365
 6178SOL     OW19432   5.035   4.768   2.667
 6178SOL    HW119433   4.954   4.818   2.637
 6178SOL    HW219434   5.104   4.770   2.594
 6179SOL     OW19435   0.258   4.927   3.795
 6179SOL    HW119436   0.279   4.992   3.722
 6179SOL    HW219437   0.341   4.909   3.849
 6180SOL     OW19438   3.789   3.983   0.224
 6180SOL    HW119439   3.713   3.920   0.207
 6180SOL    HW219440   3.777   4.027   0.313
 6181SOL     OW19441   4.052   6.938   0.897
 6181SOL    HW119442   4.032   6.916   0.802
 6181SOL    HW219443   3.995   7.016   0.926
 6182SOL     OW19444   5.484   2.744   4.808
 6182SOL    HW119445   5.437   2.816   4.860
 6182SOL    HW219446   5.576   2.731   4.845
 6183SOL     OW19447   1.742   2.024   3.351
 6183SOL    HW119448   1.697   1.937   3.328
 6183SOL    HW219449   1.723   2.091   3.279
 6184SOL     OW19450   2.081   6.370   6.152
 6184SOL    HW119451   2.148   6.384   6.079
 6184SOL    HW219452   2.013   6.444   6.147
 6185SOL     OW19453   0.427   4.001   6.194
 6185SOL    HW119454   0.490   3.978   6.268
 6185SOL    HW219455   0.462   4.079   6.143
 6186SOL     OW19456   0.386   0.065   6.359
 6186SOL    HW119457   0.362   0.057   6.262
 6186SOL    HW219458   0.303   0.069   6.414
 6187SOL     OW19459   4.573   5.054   3.368
 6187SOL    HW119460   4.606   4.961   3.350
 6187SOL    HW219461   4.526   5.056   3.457
 6188SOL     OW19462   2.168   0.387   0.992
 6188SOL    HW119463   2.253   0.405   0.942
 6188SOL    HW219464   2.121   0.473   1.010
 6189SOL     OW19465   4.934   4.422   3.364
 6189SOL    HW119466   4.957   4.325   3.359
 6189SOL    HW219467   5.009   4.476   3.327
 6190SOL     OW19468   0.664   4.002   5.571
 6190SOL    HW119469   0.722   3.967   5.498
 6190SOL    HW219470   0.688   3.959   5.658
 6191SOL     OW19471   3.171   2.086   0.261
 6191SOL    HW119472   3.103   2.149   0.298
 6191SOL    HW219473   3.128   2.027   0.193
 6192SOL     OW19474   3.328   2.657   6.247
 6192SOL    HW119475   3.283   2.567   6.249
 6192SOL    HW219476   3.390   2.662   6.169
 6193SOL     OW19477   5.349   1.056   2.179
 6193SOL    HW119478   5.275   1.083   2.240
 6193SOL    HW219479   5.319   0.978   2.123
 6194SOL     OW19480   1.528   0.175   1.600
 6194SOL    HW119481   1.586   0.233   1.544
 6194SOL    HW219482   1.584   0.107   1.648
 6195SOL     OW19483   4.193   6.122   6.358
 6195SOL    HW119484   4.162   6.096   6.267
 6195SOL    HW219485   4.183   6.044   6.420
 6196SOL     OW19486   5.779   2.586   1.570
 6196SOL    HW119487   5.856   2.649   1.564
 6196SOL    HW219488   5.694   2.638   1.558
 6197SOL     OW19489   4.067   4.296   0.349
 6197SOL    HW119490   4.071   4.383   0.398
 6197SOL    HW219491   4.057   4.221   0.414
 6198SOL     OW19492   3.734   6.568   2.291
 6198SOL    HW119493   3.793   6.647   2.278
 6198SOL    HW219494   3.648   6.596   2.334
 6199SOL     OW19495   1.235   0.846   0.169
 6199SOL    HW119496   1.255   0.793   0.087
 6199SOL    HW219497   1.267   0.940   0.156
 6200SOL     OW19498   1.268   1.237   5.695
 6200SOL    HW119499   1.347   1.230   5.635
 6200SOL    HW219500   1.190   1.189   5.655
 6201SOL     OW19501   1.134   3.524   5.056
 6201SOL    HW119502   1.154   3.528   5.154
 6201SOL    HW219503   1.204   3.469   5.010
 6202SOL     OW19504   4.174   1.595   2.639
 6202SOL    HW119505   4.236   1.592   2.718
 6202SOL    HW219506   4.092   1.542   2.659
 6203SOL     OW19507   6.982   6.617   2.749
 6203SOL    HW119508   6.904   6.557   2.763
 6203SOL    HW219509   6.971   6.665   2.662
 6204SOL     OW19510   0.446   5.130   4.608
 6204SOL    HW119511   0.540   5.117   4.577
 6204SOL    HW219512   0.418   5.051   4.664
 6205SOL     OW19513   6.460   6.156   0.865
 6205SOL    HW119514   6.538   6.128   0.922
 6205SOL    HW219515   6.398   6.079   0.852
 6206SOL     OW19516   6.453   1.470   3.664
 6206SOL    HW119517   6.513   1.542   3.699
 6206SOL    HW219518   6.395   1.508   3.592
 6207SOL     OW19519   1.140   5.262   5.172
 6207SOL    HW119520   1.188   5.179   5.200
 6207SOL    HW219521   1.139   5.268   5.072
 6208SOL     OW19522   5.669   2.008   5.649
 6208SOL    HW119523   5.765   2.030   5.664
 6208SOL    HW219524   5.614   2.091   5.656
 6209SOL     OW19525   4.249   5.471   6.723
 6209SOL    HW119526   4.321   5.497   6.788
 6209SOL    HW219527   4.253   5.372   6.707
 6210SOL     OW19528   5.214   3.048   3.408
 6210SOL    HW119529   5.295   2.994   3.433
 6210SOL    HW219530   5.240   3.118   3.342
 6211SOL     OW19531   3.089   6.832   5.511
 6211SOL    HW119532   3.076   6.741   5.551
 6211SOL    HW219533   3.052   6.901   5.573
 6212SOL     OW19534   2.022   5.741   4.194
 6212SOL    HW119535   2.072   5.737   4.281
 6212SOL    HW219536   1.924   5.749   4.212
 6213SOL     OW19537   6.067   6.924   0.436
 6213SOL    HW119538   6.154   6.956   0.397
 6213SOL    HW219539   6.079   6.830   0.467
 6214SOL     OW19540   5.289   4.986   4.300
 6214SOL    HW119541   5.347   4.996   4.219
 6214SOL    HW219542   5.205   5.039   4.288
 6215SOL     OW19543   4.201   1.368   0.569
 6215SOL    HW119544   4.235   1.461   0.578
 6215SOL    HW219545   4.164   1.336   0.656
 6216SOL     OW19546   6.600   1.460   2.114
 6216SOL    HW119547   6.678   1.489   2.170
 6216SOL    HW219548   6.552   1.385   2.160
 6217SOL     OW19549   0.439   3.842   2.933
 6217SOL    HW119550   0.432   3.772   2.862
 6217SOL    HW219551   0.534   3.873   2.940
 6218SOL     OW19552   4.070   6.023   6.995
 6218SOL    HW119553   3.997   6.019   0.039
 6218SOL    HW219554   4.088   5.931   6.959
 6219SOL     OW19555   1.651   2.171   4.796
 6219SOL    HW119556   1.709   2.247   4.766
 6219SOL    HW219557   1.563   2.206   4.826
 6220SOL     OW19558   1.944   1.475   4.899
 6220SOL    HW119559   2.029   1.511   4.936
 6220SOL    HW219560   1.866   1.524   4.938
 6221SOL     OW19561   5.628   6.134   6.488
 6221SOL    HW119562   5.634   6.231   6.510
 6221SOL    HW219563   5.552   6.119   6.425
 6222SOL     OW19564   1.029   6.356   1.522
 6222SOL    HW119565   1.080   6.421   1.465
 6222SOL    HW219566   0.960   6.405   1.574
 6223SOL     OW19567   1.215   5.166   4.062
 6223SOL    HW119568   1.127   5.193   4.026
 6223SOL    HW219569   1.227   5.068   4.051
 6224SOL     OW19570   2.901   1.656   6.122
 6224SOL    HW119571   2.846   1.731   6.159
 6224SOL    HW219572   2.862   1.569   6.153
 6225SOL     OW19573   4.196   3.573   6.986
 6225SOL    HW119574   4.187   3.546   0.059
 6225SOL    HW219575   4.122   3.638   6.963
 6226SOL     OW19576   6.871   1.810   5.314
 6226SOL    HW119577   6.906   1.890   5.266
 6226SOL    HW219578   6.913   1.803   5.404
 6227SOL     OW19579   3.357   5.958   5.015
 6227SOL    HW119580   3.375   6.012   5.097
 6227SOL    HW219581   3.269   5.912   5.024
 6228SOL     OW19582   1.105   2.822   2.623
 6228SOL    HW119583   1.060   2.898   2.577
 6228SOL    HW219584   1.050   2.793   2.701
 6229SOL     OW19585   0.654   2.237   3.296
 6229SOL    HW119586   0.708   2.237   3.380
 6229SOL    HW219587   0.617   2.329   3.279
 6230SOL     OW19588   0.647   1.542   3.748
 6230SOL    HW119589   0.572   1.498   3.699
 6230SOL    HW219590   0.735   1.506   3.714
 6231SOL     OW19591   6.144   6.096   1.118
 6231SOL    HW119592   6.095   6.020   1.077
 6231SOL    HW219593   6.239   6.069   1.137
 6232SOL     OW19594   6.926   0.644   0.860
 6232SOL    HW119595   6.996   0.584   0.898
 6232SOL    HW219596   6.951   0.669   0.766
 6233SOL     OW19597   0.074   1.551   1.121
 6233SOL    HW119598   0.021   1.583   1.043
 6233SOL    HW219599   0.012   1.521   1.194
 6234SOL     OW19600   6.637   1.480   5.532
 6234SOL    HW119601   6.705   1.450   5.599
 6234SOL    HW219602   6.546   1.456   5.563
 6235SOL     OW19603   0.964   6.884   1.138
 6235SOL    HW119604   0.975   6.910   1.234
 6235SOL    HW219605   1.020   6.944   1.081
 6236SOL     OW19606   0.791   3.675   1.023
 6236SOL    HW119607   0.743   3.629   1.097
 6236SOL    HW219608   0.884   3.698   1.053
 6237SOL     OW19609   3.555   0.589   6.301
 6237SOL    HW119610   3.490   0.627   6.367
 6237SOL    HW219611   3.571   0.655   6.228
 6238SOL     OW19612   4.016   4.865   2.498
 6238SOL    HW119613   3.963   4.851   2.582
 6238SOL    HW219614   4.098   4.809   2.500
 6239SOL     OW19615   3.098   0.505   1.763
 6239SOL    HW119616   3.133   0.580   1.708
 6239SOL    HW219617   3.003   0.486   1.737
 6240SOL     OW19618   1.882   3.008   5.258
 6240SOL    HW119619   1.795   3.044   5.225
 6240SOL    HW219620   1.948   3.082   5.266
 6241SOL     OW19621   3.188   0.017   1.429
 6241SOL    HW119622   3.264   0.005   1.492
 6241SOL    HW219623   3.149   0.109   1.440
 6242SOL     OW19624   4.409   0.490   4.127
 6242SOL    HW119625   4.368   0.473   4.037
 6242SOL    HW219626   4.434   0.402   4.169
 6243SOL     OW19627   5.907   6.552   4.322
 6243SOL    HW119628   5.936   6.521   4.413
 6243SOL    HW219629   5.924   6.651   4.314
 6244SOL     OW19630   6.740   2.578   2.043
 6244SOL    HW119631   6.722   2.670   2.077
 6244SOL    HW219632   6.837   2.555   2.058
 6245SOL     OW19633   1.661   3.931   0.568
 6245SOL    HW119634   1.686   3.925   0.471
 6245SOL    HW219635   1.732   3.888   0.624
 6246SOL     OW19636   1.899   1.736   5.514
 6246SOL    HW119637   1.967   1.697   5.576
 6246SOL    HW219638   1.879   1.830   5.542
 6247SOL     OW19639   6.817   5.246   4.374
 6247SOL    HW119640   6.824   5.225   4.277
 6247SOL    HW219641   6.909   5.248   4.414
 6248SOL     OW19642   3.398   3.287   0.698
 6248SOL    HW119643   3.467   3.223   0.664
 6248SOL    HW219644   3.411   3.376   0.654
 6249SOL     OW19645   0.538   3.830   0.502
 6249SOL    HW119646   0.471   3.886   0.452
 6249SOL    HW219647   0.508   3.735   0.501
 6250SOL     OW19648   6.869   0.780   6.650
 6250SOL    HW119649   6.792   0.769   6.587
 6250SOL    HW219650   6.883   0.878   6.669
 6251SOL     OW19651   4.039   5.966   6.599
 6251SOL    HW119652   4.061   6.047   6.654
 6251SOL    HW219653   4.048   5.884   6.655
 6252SOL     OW19654   2.397   5.915   5.477
 6252SOL    HW119655   2.322   5.851   5.460
 6252SOL    HW219656   2.443   5.936   5.391
 6253SOL     OW19657   2.431   4.337   3.819
 6253SOL    HW119658   2.502   4.334   3.888
 6253SOL    HW219659   2.449   4.413   3.756
 6254SOL     OW19660   5.657   1.193   1.087
 6254SOL    HW119661   5.734   1.241   1.130
 6254SOL    HW219662   5.648   1.223   0.992
 6255SOL     OW19663   3.186   0.841   0.954
 6255SOL    HW119664   3.128   0.781   0.900
 6255SOL    HW219665   3.180   0.934   0.918
 6256SOL     OW19666   3.561   5.501   1.717
 6256SOL    HW119667   3.653   5.529   1.743
 6256SOL    HW219668   3.495   5.567   1.752
 6257SOL     OW19669   5.186   1.992   0.837
 6257SOL    HW119670   5.198   2.091   0.845
 6257SOL    HW219671   5.233   1.959   0.755
 6258SOL     OW19672   3.464   0.843   3.712
 6258SOL    HW119673   3.380   0.824   3.763
 6258SOL    HW219674   3.469   0.941   3.692
 6259SOL     OW19675   2.117   2.243   6.897
 6259SOL    HW119676   2.157   2.191   6.972
 6259SOL    HW219677   2.174   2.322   6.877
 6260SOL     OW19678   3.510   5.697   0.061
 6260SOL    HW119679   3.428   5.663   0.107
 6260SOL    HW219680   3.485   5.733   6.994
 6261SOL     OW19681   3.933   1.381   6.852
 6261SOL    HW119682   3.986   1.459   6.885
 6261SOL    HW219683   3.842   1.412   6.825
 6262SOL     OW19684   2.477   6.440   1.731
 6262SOL    HW119685   2.439   6.444   1.638
 6262SOL    HW219686   2.491   6.533   1.765
 6263SOL     OW19687   6.802   1.249   5.204
 6263SOL    HW119688   6.764   1.160   5.178
 6263SOL    HW219689   6.900   1.240   5.221
 6264SOL     OW19690   1.384   0.430   1.716
 6264SOL    HW119691   1.300   0.415   1.767
 6264SOL    HW219692   1.407   0.347   1.664
 6265SOL     OW19693   4.088   3.100   0.237
 6265SOL    HW119694   4.006   3.060   0.196
 6265SOL    HW219695   4.167   3.041   0.217
 6266SOL     OW19696   4.313   0.752   4.022
 6266SOL    HW119697   4.375   0.676   4.040
 6266SOL    HW219698   4.354   0.837   4.056
 6267SOL     OW19699   2.222   6.682   6.080
 6267SOL    HW119700   2.136   6.670   6.030
 6267SOL    HW219701   2.208   6.744   6.157
 6268SOL     OW19702   2.528   0.014   3.000
 6268SOL    HW119703   2.441   6.990   2.986
 6268SOL    HW219704   2.548   0.072   2.921
 6269SOL     OW19705   0.256   6.425   1.624
 6269SOL    HW119706   0.305   6.412   1.538
 6269SOL    HW219707   0.290   6.507   1.670
 6270SOL     OW19708   1.369   6.778   6.042
 6270SOL    HW119709   1.454   6.732   6.015
 6270SOL    HW219710   1.331   6.825   5.963
 6271SOL     OW19711   6.590   2.466   6.640
 6271SOL    HW119712   6.646   2.543   6.612
 6271SOL    HW219713   6.537   2.491   6.722
 6272SOL     OW19714   0.300   2.652   0.166
 6272SOL    HW119715   0.397   2.662   0.189
 6272SOL    HW219716   0.255   2.741   0.174
 6273SOL     OW19717   0.892   6.181   2.666
 6273SOL    HW119718   0.863   6.244   2.739
 6273SOL    HW219719   0.873   6.223   2.577
 6274SOL     OW19720   3.420   6.020   5.649
 6274SOL    HW119721   3.513   6.056   5.662
 6274SOL    HW219722   3.408   5.939   5.705
 6275SOL     OW19723   2.594   6.382   6.396
 6275SOL    HW119724   2.540   6.432   6.328
 6275SOL    HW219725   2.580   6.421   6.486
 6276SOL     OW19726   1.746   4.098   3.718
 6276SOL    HW119727   1.704   4.008   3.723
 6276SOL    HW219728   1.775   4.117   3.624
 6277SOL     OW19729   5.152   3.251   1.763
 6277SOL    HW119730   5.104   3.338   1.765
 6277SOL    HW219731   5.193   3.232   1.852
 6278SOL     OW19732   5.184   6.498   5.109
 6278SOL    HW119733   5.089   6.470   5.122
 6278SOL    HW219734   5.188   6.584   5.058
 6279SOL     OW19735   3.655   6.500   0.004
 6279SOL    HW119736   3.574   6.553   0.029
 6279SOL    HW219737   3.629   6.405   7.011
 6280SOL     OW19738   1.002   2.459   4.669
 6280SOL    HW119739   0.948   2.382   4.635
 6280SOL    HW219740   1.079   2.475   4.608
 6281SOL     OW19741   0.596   4.856   4.147
 6281SOL    HW119742   0.655   4.800   4.204
 6281SOL    HW219743   0.549   4.923   4.203
 6282SOL     OW19744   0.758   5.712   5.756
 6282SOL    HW119745   0.764   5.812   5.751
 6282SOL    HW219746   0.680   5.686   5.813
 6283SOL     OW19747   6.654   3.303   5.153
 6283SOL    HW119748   6.686   3.368   5.223
 6283SOL    HW219749   6.672   3.210   5.184
 6284SOL     OW19750   0.861   5.450   4.962
 6284SOL    HW119751   0.838   5.410   5.051
 6284SOL    HW219752   0.953   5.489   4.965
 6285SOL     OW19753   0.158   3.882   5.122
 6285SOL    HW119754   0.203   3.842   5.202
 6285SOL    HW219755   0.153   3.981   5.133
 6286SOL     OW19756   5.925   1.717   4.232
 6286SOL    HW119757   5.982   1.775   4.175
 6286SOL    HW219758   5.855   1.773   4.277
 6287SOL     OW19759   3.483   5.121   4.776
 6287SOL    HW119760   3.502   5.214   4.807
 6287SOL    HW219761   3.412   5.080   4.832
 6288SOL     OW19762   4.793   4.469   2.712
 6288SOL    HW119763   4.719   4.403   2.697
 6288SOL    HW219764   4.869   4.448   2.650
 6289SOL     OW19765   1.650   4.871   1.109
 6289SOL    HW119766   1.636   4.963   1.072
 6289SOL    HW219767   1.656   4.806   1.034
 6290SOL     OW19768   6.468   5.416   5.770
 6290SOL    HW119769   6.486   5.406   5.672
 6290SOL    HW219770   6.371   5.402   5.788
 6291SOL     OW19771   4.035   3.266   4.416
 6291SOL    HW119772   4.029   3.298   4.511
 6291SOL    HW219773   4.054   3.168   4.414
 6292SOL     OW19774   1.319   2.032   4.683
 6292SOL    HW119775   1.341   2.124   4.715
 6292SOL    HW219776   1.228   2.032   4.641
 6293SOL     OW19777   3.372   0.948   0.691
 6293SOL    HW119778   3.358   0.849   0.697
 6293SOL    HW219779   3.295   0.995   0.732
 6294SOL     OW19780   3.504   6.891   4.160
 6294SOL    HW119781   3.504   6.854   4.068
 6294SOL    HW219782   3.420   6.862   4.207
 6295SOL     OW19783   5.523   4.462   5.985
 6295SOL    HW119784   5.498   4.439   5.891
 6295SOL    HW219785   5.522   4.379   6.040
 6296SOL     OW19786   0.840   6.336   5.930
 6296SOL    HW119787   0.804   6.430   5.934
 6296SOL    HW219788   0.802   6.289   5.851
 6297SOL     OW19789   5.466   0.906   4.037
 6297SOL    HW119790   5.397   0.930   3.969
 6297SOL    HW219791   5.521   0.986   4.059
 6298SOL     OW19792   1.910   2.520   0.078
 6298SOL    HW119793   1.955   2.432   0.096
 6298SOL    HW219794   1.833   2.531   0.141
 6299SOL     OW19795   5.883   1.888   0.833
 6299SOL    HW119796   5.814   1.922   0.769
 6299SOL    HW219797   5.842   1.876   0.923
 6300SOL     OW19798   6.564   0.513   0.264
 6300SOL    HW119799   6.487   0.573   0.243
 6300SOL    HW219800   6.627   0.561   0.326
 6301SOL     OW19801   3.851   6.487   0.169
 6301SOL    HW119802   3.879   6.395   0.143
 6301SOL    HW219803   3.788   6.523   0.101
 6302SOL     OW19804   1.428   0.390   3.304
 6302SOL    HW119805   1.389   0.298   3.310
 6302SOL    HW219806   1.413   0.438   3.391
 6303SOL     OW19807   1.958   1.247   3.714
 6303SOL    HW119808   1.994   1.155   3.734
 6303SOL    HW219809   1.901   1.277   3.790
 6304SOL     OW19810   2.497   0.795   1.343
 6304SOL    HW119811   2.429   0.723   1.358
 6304SOL    HW219812   2.503   0.852   1.425
 6305SOL     OW19813   6.168   6.775   0.776
 6305SOL    HW119814   6.141   6.809   0.686
 6305SOL    HW219815   6.092   6.790   0.840
 6306SOL     OW19816   0.474   3.966   3.600
 6306SOL    HW119817   0.474   3.883   3.545
 6306SOL    HW219818   0.430   3.947   3.688
 6307SOL     OW19819   3.298   3.896   5.211
 6307SOL    HW119820   3.311   3.852   5.300
 6307SOL    HW219821   3.219   3.958   5.217
 6308SOL     OW19822   2.370   1.930   4.679
 6308SOL    HW119823   2.468   1.939   4.665
 6308SOL    HW219824   2.325   2.017   4.658
 6309SOL     OW19825   5.819   4.730   4.914
 6309SOL    HW119826   5.758   4.680   4.853
 6309SOL    HW219827   5.907   4.684   4.919
 6310SOL     OW19828   2.091   6.003   2.615
 6310SOL    HW119829   2.046   6.021   2.702
 6310SOL    HW219830   2.189   5.994   2.630
 6311SOL     OW19831   5.087   1.247   6.061
 6311SOL    HW119832   5.079   1.263   6.159
 6311SOL    HW219833   5.083   1.334   6.012
 6312SOL     OW19834   6.628   5.920   5.303
 6312SOL    HW119835   6.719   5.905   5.265
 6312SOL    HW219836   6.634   5.937   5.401
 6313SOL     OW19837   7.020   5.915   4.916
 6313SOL    HW119838   0.055   5.988   4.881
 6313SOL    HW219839   0.030   5.827   4.882
 6314SOL     OW19840   3.584   6.782   1.611
 6314SOL    HW119841   3.512   6.774   1.680
 6314SOL    HW219842   3.568   6.863   1.555
 6315SOL     OW19843   2.146   2.662   5.376
 6315SOL    HW119844   2.198   2.717   5.310
 6315SOL    HW219845   2.048   2.673   5.358
 6316SOL     OW19846   5.297   2.011   0.051
 6316SOL    HW119847   5.219   2.046   0.103
 6316SOL    HW219848   5.273   2.010   6.977
 6317SOL     OW19849   4.628   5.306   1.530
 6317SOL    HW119850   4.555   5.238   1.540
 6317SOL    HW219851   4.704   5.282   1.591
 6318SOL     OW19852   3.412   1.098   5.773
 6318SOL    HW119853   3.335   1.038   5.789
 6318SOL    HW219854   3.485   1.079   5.839
 6319SOL     OW19855   6.215   1.717   4.664
 6319SOL    HW119856   6.238   1.684   4.572
 6319SOL    HW219857   6.136   1.667   4.699
 6320SOL     OW19858   6.077   6.392   5.552
 6320SOL    HW119859   6.030   6.478   5.573
 6320SOL    HW219860   6.086   6.382   5.453
 6321SOL     OW19861   4.153   3.850   0.753
 6321SOL    HW119862   4.082   3.837   0.821
 6321SOL    HW219863   4.111   3.867   0.663
 6322SOL     OW19864   2.489   1.980   1.118
 6322SOL    HW119865   2.499   1.880   1.122
 6322SOL    HW219866   2.512   2.019   1.207
 6323SOL     OW19867   3.048   2.696   1.714
 6323SOL    HW119868   2.957   2.654   1.708
 6323SOL    HW219869   3.098   2.680   1.629
 6324SOL     OW19870   5.817   0.254   0.243
 6324SOL    HW119871   5.850   0.280   0.334
 6324SOL    HW219872   5.741   0.314   0.217
 6325SOL     OW19873   1.665   2.760   2.439
 6325SOL    HW119874   1.570   2.747   2.468
 6325SOL    HW219875   1.669   2.762   2.339
 6326SOL     OW19876   4.834   5.217   1.695
 6326SOL    HW119877   4.787   5.133   1.669
 6326SOL    HW219878   4.886   5.203   1.779
 6327SOL     OW19879   0.090   0.690   4.933
 6327SOL    HW119880   0.088   0.786   4.903
 6327SOL    HW219881   0.010   0.643   4.897
 6328SOL     OW19882   3.123   3.481   0.504
 6328SOL    HW119883   3.027   3.498   0.480
 6328SOL    HW219884   3.148   3.388   0.476
 6329SOL     OW19885   2.353   2.156   3.066
 6329SOL    HW119886   2.420   2.164   2.992
 6329SOL    HW219887   2.372   2.073   3.118
 6330SOL     OW19888   5.061   0.377   1.352
 6330SOL    HW119889   5.111   0.299   1.390
 6330SOL    HW219890   5.103   0.462   1.383
 6331SOL     OW19891   6.358   2.447   5.545
 6331SOL    HW119892   6.440   2.405   5.507
 6331SOL    HW219893   6.382   2.535   5.586
 6332SOL     OW19894   0.471   3.304   0.603
 6332SOL    HW119895   0.388   3.274   0.558
 6332SOL    HW219896   0.455   3.392   0.648
 6333SOL     OW19897   4.264   5.377   4.751
 6333SOL    HW119898   4.359   5.391   4.778
 6333SOL    HW219899   4.242   5.438   4.674
 6334SOL     OW19900   2.574   0.933   2.397
 6334SOL    HW119901   2.672   0.913   2.399
 6334SOL    HW219902   2.556   1.003   2.327
 6335SOL     OW19903   3.659   0.646   0.235
 6335SOL    HW119904   3.588   0.717   0.237
 6335SOL    HW219905   3.619   0.558   0.259
 6336SOL     OW19906   1.116   2.262   6.080
 6336SOL    HW119907   1.188   2.203   6.043
 6336SOL    HW219908   1.134   2.357   6.055
 6337SOL     OW19909   5.003   4.882   5.573
 6337SOL    HW119910   5.094   4.860   5.608
 6337SOL    HW219911   4.939   4.810   5.598
 6338SOL     OW19912   3.375   1.904   4.093
 6338SOL    HW119913   3.411   1.942   4.008
 6338SOL    HW219914   3.440   1.836   4.129
 6339SOL     OW19915   0.962   3.978   3.540
 6339SOL    HW119916   0.972   4.045   3.466
 6339SOL    HW219917   1.051   3.935   3.558
 6340SOL     OW19918   2.145   5.264   2.317
 6340SOL    HW119919   2.048   5.266   2.344
 6340SOL    HW219920   2.180   5.357   2.311
 6341SOL     OW19921   0.091   4.202   4.565
 6341SOL    HW119922   0.096   4.253   4.650
 6341SOL    HW219923   0.073   4.265   4.489
 6342SOL     OW19924   1.822   1.029   2.207
 6342SOL    HW119925   1.796   0.969   2.283
 6342SOL    HW219926   1.919   1.052   2.215
 6343SOL     OW19927   4.841   2.207   6.708
 6343SOL    HW119928   4.937   2.228   6.727
 6343SOL    HW219929   4.832   2.108   6.691
 6344SOL     OW19930   5.014   2.534   4.214
 6344SOL    HW119931   4.923   2.563   4.187
 6344SOL    HW219932   5.060   2.492   4.135
 6345SOL     OW19933   5.997   2.878   2.503
 6345SOL    HW119934   6.073   2.820   2.472
 6345SOL    HW219935   6.018   2.973   2.481
 6346SOL     OW19936   6.884   5.389   3.859
 6346SOL    HW119937   6.833   5.472   3.881
 6346SOL    HW219938   6.852   5.353   3.772
 6347SOL     OW19939   2.075   0.600   0.810
 6347SOL    HW119940   2.061   0.592   0.712
 6347SOL    HW219941   2.007   0.545   0.858
 6348SOL     OW19942   1.329   3.316   5.474
 6348SOL    HW119943   1.250   3.299   5.415
 6348SOL    HW219944   1.297   3.339   5.566
 6349SOL     OW19945   2.324   0.605   1.363
 6349SOL    HW119946   2.277   0.625   1.277
 6349SOL    HW219947   2.310   0.508   1.386
 6350SOL     OW19948   0.483   5.044   4.323
 6350SOL    HW119949   0.527   5.068   4.409
 6350SOL    HW219950   0.422   5.117   4.294
 6351SOL     OW19951   6.584   3.671   3.675
 6351SOL    HW119952   6.677   3.636   3.678
 6351SOL    HW219953   6.523   3.610   3.725
 6352SOL     OW19954   3.901   6.007   4.920
 6352SOL    HW119955   3.805   6.000   4.945
 6352SOL    HW219956   3.909   6.046   4.828
 6353SOL     OW19957   0.821   6.678   6.189
 6353SOL    HW119958   0.907   6.710   6.148
 6353SOL    HW219959   0.798   6.735   6.268
 6354SOL     OW19960   2.431   5.573   2.668
 6354SOL    HW119961   2.356   5.630   2.702
 6354SOL    HW219962   2.484   5.537   2.745
 6355SOL     OW19963   0.800   5.466   0.318
 6355SOL    HW119964   0.839   5.478   0.410
 6355SOL    HW219965   0.756   5.552   0.290
 6356SOL     OW19966   5.331   6.041   1.719
 6356SOL    HW119967   5.313   5.994   1.805
 6356SOL    HW219968   5.368   6.132   1.738
 6357SOL     OW19969   6.022   3.570   2.457
 6357SOL    HW119970   6.090   3.519   2.404
 6357SOL    HW219971   5.960   3.506   2.502
 6358SOL     OW19972   0.581   2.375   6.435
 6358SOL    HW119973   0.568   2.368   6.336
 6358SOL    HW219974   0.677   2.392   6.455
 6359SOL     OW19975   6.193   0.409   6.624
 6359SOL    HW119976   6.147   0.411   6.713
 6359SOL    HW219977   6.139   0.355   6.559
 6360SOL     OW19978   1.448   4.634   4.189
 6360SOL    HW119979   1.478   4.576   4.113
 6360SOL    HW219980   1.348   4.634   4.194
 6361SOL     OW19981   1.231   6.728   1.768
 6361SOL    HW119982   1.289   6.649   1.747
 6361SOL    HW219983   1.261   6.770   1.853
 6362SOL     OW19984   6.788   6.386   0.123
 6362SOL    HW119985   6.706   6.431   0.088
 6362SOL    HW219986   6.783   6.381   0.223
 6363SOL     OW19987   1.858   5.172   3.689
 6363SOL    HW119988   1.790   5.098   3.687
 6363SOL    HW219989   1.888   5.188   3.783
 6364SOL     OW19990   2.804   1.415   5.895
 6364SOL    HW119991   2.759   1.402   5.807
 6364SOL    HW219992   2.759   1.490   5.944
 6365SOL     OW19993   5.738   0.289   3.535
 6365SOL    HW119994   5.749   0.336   3.622
 6365SOL    HW219995   5.828   0.278   3.492
 6366SOL     OW19996   1.120   5.997   6.234
 6366SOL    HW119997   1.071   6.051   6.165
 6366SOL    HW219998   1.150   5.911   6.193
 6367SOL     OW19999   3.762   1.352   4.835
 6367SOL    HW120000   3.802   1.262   4.818
 6367SOL    HW220001   3.705   1.348   4.917
 6368SOL     OW20002   3.906   4.815   3.612
 6368SOL    HW120003   3.978   4.811   3.543
 6368SOL    HW220004   3.944   4.791   3.701
 6369SOL     OW20005   2.001   6.007   4.075
 6369SOL    HW120006   1.972   5.918   4.110
 6369SOL    HW220007   2.089   6.032   4.117
 6370SOL     OW20008   0.255   3.471   3.969
 6370SOL    HW120009   0.257   3.490   3.871
 6370SOL    HW220010   0.204   3.543   4.016
 6371SOL     OW20011   4.960   4.627   3.130
 6371SOL    HW120012   4.967   4.612   3.032
 6371SOL    HW220013   5.043   4.594   3.175
 6372SOL     OW20014   2.108   0.672   2.129
 6372SOL    HW120015   2.119   0.575   2.108
 6372SOL    HW220016   2.198   0.716   2.134
 6373SOL     OW20017   4.999   3.826   2.377
 6373SOL    HW120018   4.953   3.786   2.298
 6373SOL    HW220019   5.017   3.755   2.445
 6374SOL     OW20020   3.607   3.922   2.932
 6374SOL    HW120021   3.622   3.988   2.858
 6374SOL    HW220022   3.601   3.830   2.892
 6375SOL     OW20023   6.978   1.784   3.667
 6375SOL    HW120024   6.921   1.720   3.717
 6375SOL    HW220025   6.921   1.858   3.630
 6376SOL     OW20026   5.523   2.335   5.024
 6376SOL    HW120027   5.448   2.392   4.991
 6376SOL    HW220028   5.583   2.309   4.948
 6377SOL     OW20029   6.805   1.994   5.592
 6377SOL    HW120030   6.796   2.073   5.532
 6377SOL    HW220031   6.885   1.941   5.566
 6378SOL     OW20032   4.539   4.855   4.169
 6378SOL    HW120033   4.627   4.823   4.204
 6378SOL    HW220034   4.480   4.777   4.149
 6379SOL     OW20035   1.534   3.951   4.549
 6379SOL    HW120036   1.611   4.005   4.584
 6379SOL    HW220037   1.450   4.005   4.556
 6380SOL     OW20038   0.188   1.558   5.645
 6380SOL    HW120039   0.208   1.627   5.576
 6380SOL    HW220040   0.172   1.470   5.600
 6381SOL     OW20041   4.080   3.085   1.785
 6381SOL    HW120042   4.076   2.987   1.766
 6381SOL    HW220043   4.096   3.099   1.883
 6382SOL     OW20044   2.591   2.174   0.774
 6382SOL    HW120045   2.644   2.186   0.858
 6382SOL    HW220046   2.652   2.141   0.701
 6383SOL     OW20047   1.541   2.634   2.728
 6383SOL    HW120048   1.601   2.572   2.780
 6383SOL    HW220049   1.475   2.580   2.675
 6384SOL     OW20050   6.630   4.176   2.487
 6384SOL    HW120051   6.716   4.157   2.440
 6384SOL    HW220052   6.568   4.223   2.425
 6385SOL     OW20053   0.267   4.284   3.733
 6385SOL    HW120054   0.187   4.320   3.686
 6385SOL    HW220055   0.239   4.209   3.794
 6386SOL     OW20056   2.605   5.050   6.015
 6386SOL    HW120057   2.548   4.973   5.987
 6386SOL    HW220058   2.583   5.075   6.110
 6387SOL     OW20059   7.013   1.628   6.184
 6387SOL    HW120060   6.923   1.594   6.157
 6387SOL    HW220061   0.061   1.582   6.131
 6388SOL     OW20062   4.059   6.150   2.070
 6388SOL    HW120063   3.977   6.168   2.123
 6388SOL    HW220064   4.117   6.232   2.069
 6389SOL     OW20065   0.134   5.533   2.248
 6389SOL    HW120066   0.124   5.625   2.212
 6389SOL    HW220067   0.217   5.528   2.305
 6390SOL     OW20068   0.731   0.941   5.914
 6390SOL    HW120069   0.668   0.866   5.893
 6390SOL    HW220070   0.809   0.905   5.965
 6391SOL     OW20071   2.859   6.932   5.944
 6391SOL    HW120072   2.904   6.863   6.001
 6391SOL    HW220073   2.897   7.022   5.966
 6392SOL     OW20074   2.785   5.586   2.951
 6392SOL    HW120075   2.716   5.639   3.001
 6392SOL    HW220076   2.857   5.648   2.920
 6393SOL     OW20077   6.983   7.001   2.261
 6393SOL    HW120078   0.058   7.017   2.255
 6393SOL    HW220079   6.936   0.062   2.287
 6394SOL     OW20080   1.667   5.023   0.729
 6394SOL    HW120081   1.613   5.006   0.647
 6394SOL    HW220082   1.722   5.105   0.716
 6395SOL     OW20083   0.766   2.523   1.030
 6395SOL    HW120084   0.709   2.591   1.076
 6395SOL    HW220085   0.750   2.433   1.070
 6396SOL     OW20086   4.894   3.389   6.851
 6396SOL    HW120087   4.886   3.474   6.903
 6396SOL    HW220088   4.804   3.363   6.816
 6397SOL     OW20089   5.749   1.844   1.082
 6397SOL    HW120090   5.654   1.854   1.111
 6397SOL    HW220091   5.771   1.747   1.074
 6398SOL     OW20092   2.565   6.953   2.021
 6398SOL    HW120093   2.504   6.903   1.959
 6398SOL    HW220094   2.626   7.011   1.967
 6399SOL     OW20095   1.855   6.219   6.490
 6399SOL    HW120096   1.764   6.242   6.454
 6399SOL    HW220097   1.907   6.302   6.506
 6400SOL     OW20098   2.413   5.886   2.168
 6400SOL    HW120099   2.411   5.832   2.252
 6400SOL    HW220100   2.438   5.980   2.190
 6401SOL     OW20101   5.453   5.303   3.010
 6401SOL    HW120102   5.528   5.241   2.989
 6401SOL    HW220103   5.483   5.397   2.995
 6402SOL     OW20104   3.470   2.017   3.227
 6402SOL    HW120105   3.400   2.057   3.168
 6402SOL    HW220106   3.560   2.034   3.187
 6403SOL     OW20107   0.324   6.225   6.764
 6403SOL    HW120108   0.396   6.281   6.725
 6403SOL    HW220109   0.246   6.282   6.790
 6404SOL     OW20110   4.554   0.849   2.592
 6404SOL    HW120111   4.529   0.924   2.654
 6404SOL    HW220112   4.498   0.854   2.509
 6405SOL     OW20113   2.973   0.459   3.768
 6405SOL    HW120114   3.067   0.475   3.738
 6405SOL    HW220115   2.947   0.527   3.836
 6406SOL     OW20116   0.791   2.889   2.845
 6406SOL    HW120117   0.741   2.896   2.931
 6406SOL    HW220118   0.848   2.807   2.846
 6407SOL     OW20119   2.720   6.206   4.018
 6407SOL    HW120120   2.749   6.171   3.929
 6407SOL    HW220121   2.765   6.153   4.091
 6408SOL     OW20122   5.722   1.608   7.003
 6408SOL    HW120123   5.632   1.647   7.019
 6408SOL    HW220124   5.714   1.510   6.984
 6409SOL     OW20125   6.937   4.170   3.541
 6409SOL    HW120126   6.961   4.132   3.630
 6409SOL    HW220127   6.900   4.098   3.482
 6410SOL     OW20128   1.995   1.504   6.777
 6410SOL    HW120129   2.060   1.435   6.808
 6410SOL    HW220130   2.024   1.538   6.688
 6411SOL     OW20131   0.787   3.316   3.133
 6411SOL    HW120132   0.743   3.243   3.183
 6411SOL    HW220133   0.822   3.281   3.046
 6412SOL     OW20134   0.824   2.244   4.628
 6412SOL    HW120135   0.777   2.300   4.560
 6412SOL    HW220136   0.835   2.151   4.593
 6413SOL     OW20137   3.990   4.822   3.890
 6413SOL    HW120138   4.038   4.805   3.976
 6413SOL    HW220139   3.895   4.847   3.910
 6414SOL     OW20140   5.436   0.922   0.555
 6414SOL    HW120141   5.373   0.846   0.540
 6414SOL    HW220142   5.525   0.886   0.585
 6415SOL     OW20143   1.709   3.397   2.851
 6415SOL    HW120144   1.771   3.351   2.915
 6415SOL    HW220145   1.743   3.384   2.757
 6416SOL     OW20146   0.703   1.566   6.980
 6416SOL    HW120147   0.731   1.472   6.962
 6416SOL    HW220148   0.751   1.601   0.037
 6417SOL     OW20149   6.273   5.130   0.873
 6417SOL    HW120150   6.224   5.214   0.897
 6417SOL    HW220151   6.333   5.147   0.795
 6418SOL     OW20152   4.886   3.743   2.137
 6418SOL    HW120153   4.880   3.832   2.092
 6418SOL    HW220154   4.821   3.680   2.095
 6419SOL     OW20155   2.350   4.608   3.408
 6419SOL    HW120156   2.274   4.581   3.348
 6419SOL    HW220157   2.383   4.699   3.381
 6420SOL     OW20158   3.081   5.633   4.718
 6420SOL    HW120159   3.139   5.551   4.723
 6420SOL    HW220160   3.136   5.714   4.738
 6421SOL     OW20161   5.017   0.375   2.766
 6421SOL    HW120162   5.047   0.359   2.860
 6421SOL    HW220163   4.918   0.365   2.760
 6422SOL     OW20164   0.021   1.151   4.120
 6422SOL    HW120165   0.100   1.092   4.136
 6422SOL    HW220166   0.022   1.227   4.184
 6423SOL     OW20167   4.612   5.284   3.138
 6423SOL    HW120168   4.534   5.346   3.128
 6423SOL    HW220169   4.600   5.228   3.219
 6424SOL     OW20170   6.991   5.620   6.230
 6424SOL    HW120171   6.909   5.639   6.284
 6424SOL    HW220172   6.967   5.558   6.155
 6425SOL     OW20173   6.587   6.543   2.987
 6425SOL    HW120174   6.608   6.584   3.076
 6425SOL    HW220175   6.542   6.455   3.001
 6426SOL     OW20176   1.692   4.997   2.778
 6426SOL    HW120177   1.594   5.005   2.761
 6426SOL    HW220178   1.737   4.955   2.699
 6427SOL     OW20179   3.802   3.610   4.811
 6427SOL    HW120180   3.711   3.573   4.789
 6427SOL    HW220181   3.870   3.538   4.801
 6428SOL     OW20182   5.673   3.360   6.144
 6428SOL    HW120183   5.680   3.341   6.242
 6428SOL    HW220184   5.755   3.328   6.098
 6429SOL     OW20185   1.568   1.801   5.791
 6429SOL    HW120186   1.605   1.730   5.851
 6429SOL    HW220187   1.613   1.797   5.702
 6430SOL     OW20188   6.456   1.040   2.608
 6430SOL    HW120189   6.519   1.067   2.680
 6430SOL    HW220190   6.506   0.999   2.532
 6431SOL     OW20191   5.538   6.410   4.170
 6431SOL    HW120192   5.588   6.457   4.243
 6431SOL    HW220193   5.441   6.405   4.194
 6432SOL     OW20194   4.191   4.524   6.170
 6432SOL    HW120195   4.276   4.536   6.118
 6432SOL    HW220196   4.117   4.571   6.123
 6433SOL     OW20197   1.989   5.195   6.515
 6433SOL    HW120198   1.983   5.113   6.571
 6433SOL    HW220199   1.929   5.186   6.435
 6434SOL     OW20200   2.284   4.436   6.727
 6434SOL    HW120201   2.339   4.504   6.776
 6434SOL    HW220202   2.337   4.352   6.714
 6435SOL     OW20203   4.762   0.008   0.287
 6435SOL    HW120204   4.855   0.025   0.256
 6435SOL    HW220205   4.739   0.073   0.359
 6436SOL     OW20206   1.688   3.003   2.996
 6436SOL    HW120207   1.676   2.965   2.904
 6436SOL    HW220208   1.654   2.938   3.063
 6437SOL     OW20209   2.141   1.445   0.486
 6437SOL    HW120210   2.062   1.458   0.547
 6437SOL    HW220211   2.224   1.438   0.541
 6438SOL     OW20212   6.286   4.532   5.920
 6438SOL    HW120213   6.345   4.613   5.924
 6438SOL    HW220214   6.234   4.525   6.005
 6439SOL     OW20215   5.845   1.178   2.025
 6439SOL    HW120216   5.823   1.100   1.966
 6439SOL    HW220217   5.802   1.260   1.988
 6440SOL     OW20218   1.995   1.343   5.644
 6440SOL    HW120219   1.967   1.277   5.574
 6440SOL    HW220220   1.914   1.392   5.678
 6441SOL     OW20221   6.873   6.783   2.168
 6441SOL    HW120222   6.776   6.774   2.190
 6441SOL    HW220223   6.912   6.860   2.219
 6442SOL     OW20224   2.265   1.044   4.358
 6442SOL    HW120225   2.242   1.130   4.312
 6442SOL    HW220226   2.216   0.968   4.315
 6443SOL     OW20227   4.107   2.174   5.709
 6443SOL    HW120228   4.085   2.120   5.627
 6443SOL    HW220229   4.067   2.130   5.789
 6444SOL     OW20230   5.825   2.619   4.127
 6444SOL    HW120231   5.776   2.702   4.101
 6444SOL    HW220232   5.832   2.614   4.227
 6445SOL     OW20233   4.048   3.532   4.911
 6445SOL    HW120234   4.018   3.625   4.890
 6445SOL    HW220235   4.112   3.534   4.988
 6446SOL     OW20236   1.394   1.524   6.457
 6446SOL    HW120237   1.420   1.602   6.513
 6446SOL    HW220238   1.476   1.480   6.420
 6447SOL     OW20239   5.465   5.073   2.723
 6447SOL    HW120240   5.536   5.097   2.788
 6447SOL    HW220241   5.400   5.011   2.766
 6448SOL     OW20242   4.160   5.941   1.919
 6448SOL    HW120243   4.094   5.881   1.873
 6448SOL    HW220244   4.111   6.004   1.978
 6449SOL     OW20245   3.310   5.691   0.784
 6449SOL    HW120246   3.338   5.776   0.740
 6449SOL    HW220247   3.236   5.650   0.732
 6450SOL     OW20248   0.507   3.843   0.851
 6450SOL    HW120249   0.554   3.824   0.765
 6450SOL    HW220250   0.565   3.902   0.908
 6451SOL     OW20251   2.165   0.630   4.556
 6451SOL    HW120252   2.176   0.668   4.464
 6451SOL    HW220253   2.108   0.548   4.552
 6452SOL     OW20254   4.121   5.926   3.935
 6452SOL    HW120255   4.064   6.007   3.923
 6452SOL    HW220256   4.080   5.849   3.887
 6453SOL     OW20257   2.055   6.425   1.269
 6453SOL    HW120258   2.127   6.483   1.230
 6453SOL    HW220259   2.003   6.381   1.195
 6454SOL     OW20260   1.731   2.183   3.119
 6454SOL    HW120261   1.792   2.260   3.097
 6454SOL    HW220262   1.692   2.147   3.034
 6455SOL     OW20263   7.012   3.120   3.807
 6455SOL    HW120264   7.018   3.036   3.753
 6455SOL    HW220265   6.997   3.096   3.903
 6456SOL     OW20266   0.938   0.875   3.790
 6456SOL    HW120267   0.987   0.851   3.873
 6456SOL    HW220268   0.901   0.792   3.748
 6457SOL     OW20269   4.726   1.853   0.774
 6457SOL    HW120270   4.700   1.879   0.681
 6457SOL    HW220271   4.650   1.872   0.836
 6458SOL     OW20272   0.891   6.656   4.035
 6458SOL    HW120273   0.884   6.653   4.134
 6458SOL    HW220274   0.854   6.572   3.996
 6459SOL     OW20275   6.249   3.358   1.040
 6459SOL    HW120276   6.181   3.288   1.020
 6459SOL    HW220277   6.284   3.398   0.955
 6460SOL     OW20278   5.933   6.174   5.570
 6460SOL    HW120279   6.008   6.239   5.585
 6460SOL    HW220280   5.909   6.172   5.473
 6461SOL     OW20281   2.558   4.711   5.723
 6461SOL    HW120282   2.623   4.635   5.721
 6461SOL    HW220283   2.542   4.739   5.818
 6462SOL     OW20284   2.495   2.543   4.439
 6462SOL    HW120285   2.547   2.546   4.354
 6462SOL    HW220286   2.469   2.635   4.466
 6463SOL     OW20287   5.987   3.136   6.508
 6463SOL    HW120288   5.999   3.182   6.420
 6463SOL    HW220289   5.952   3.201   6.576
 6464SOL     OW20290   0.808   5.644   4.778
 6464SOL    HW120291   0.716   5.679   4.764
 6464SOL    HW220292   0.816   5.606   4.871
 6465SOL     OW20293   0.037   3.141   2.810
 6465SOL    HW120294   0.064   3.121   2.904
 6465SOL    HW220295   0.094   3.088   2.747
 6466SOL     OW20296   1.319   1.107   6.129
 6466SOL    HW120297   1.281   1.161   6.204
 6466SOL    HW220298   1.358   1.169   6.060
 6467SOL     OW20299   3.299   1.314   0.373
 6467SOL    HW120300   3.271   1.271   0.459
 6467SOL    HW220301   3.294   1.414   0.383
 6468SOL     OW20302   3.323   6.233   0.155
 6468SOL    HW120303   3.338   6.239   0.254
 6468SOL    HW220304   3.262   6.306   0.125
 6469SOL     OW20305   4.911   1.161   4.505
 6469SOL    HW120306   4.851   1.239   4.522
 6469SOL    HW220307   4.948   1.128   4.592
 6470SOL     OW20308   6.295   3.473   0.582
 6470SOL    HW120309   6.349   3.546   0.539
 6470SOL    HW220310   6.305   3.389   0.530
 6471SOL     OW20311   6.819   6.615   5.960
 6471SOL    HW120312   6.896   6.677   5.943
 6471SOL    HW220313   6.733   6.662   5.937
 6472SOL     OW20314   0.412   5.774   1.468
 6472SOL    HW120315   0.431   5.866   1.433
 6472SOL    HW220316   0.430   5.772   1.567
 6473SOL     OW20317   3.315   1.009   4.529
 6473SOL    HW120318   3.344   0.980   4.621
 6473SOL    HW220319   3.311   1.109   4.526
 6474SOL     OW20320   2.664   4.443   6.193
 6474SOL    HW120321   2.675   4.445   6.094
 6474SOL    HW220322   2.567   4.448   6.216
 6475SOL     OW20323   5.864   5.218   3.617
 6475SOL    HW120324   5.855   5.301   3.672
 6475SOL    HW220325   5.850   5.138   3.675
 6476SOL     OW20326   4.289   3.278   1.361
 6476SOL    HW120327   4.377   3.318   1.336
 6476SOL    HW220328   4.280   3.189   1.317
 6477SOL     OW20329   6.164   4.685   1.349
 6477SOL    HW120330   6.112   4.650   1.271
 6477SOL    HW220331   6.173   4.784   1.341
 6478SOL     OW20332   3.758   0.566   1.719
 6478SOL    HW120333   3.769   0.482   1.667
 6478SOL    HW220334   3.761   0.644   1.656
 6479SOL     OW20335   4.329   5.131   3.767
 6479SOL    HW120336   4.310   5.107   3.672
 6479SOL    HW220337   4.385   5.059   3.809
 6480SOL     OW20338   3.094   1.711   6.428
 6480SOL    HW120339   3.189   1.737   6.412
 6480SOL    HW220340   3.035   1.756   6.362
 6481SOL     OW20341   3.568   2.000   2.148
 6481SOL    HW120342   3.625   1.918   2.151
 6481SOL    HW220343   3.620   2.075   2.108
 6482SOL     OW20344   6.864   0.961   6.332
 6482SOL    HW120345   6.941   1.007   6.288
 6482SOL    HW220346   6.795   0.937   6.264
 6483SOL     OW20347   1.295   6.307   1.902
 6483SOL    HW120348   1.256   6.280   1.991
 6483SOL    HW220349   1.312   6.225   1.847
 6484SOL     OW20350   3.351   0.022   1.207
 6484SOL    HW120351   3.346   6.967   1.145
 6484SOL    HW220352   3.280   0.015   1.276
 6485SOL     OW20353   1.770   4.740   3.657
 6485SOL    HW120354   1.839   4.770   3.591
 6485SOL    HW220355   1.815   4.717   3.744
 6486SOL     OW20356   2.304   4.297   3.444
 6486SOL    HW120357   2.321   4.382   3.394
 6486SOL    HW220358   2.391   4.261   3.478
 6487SOL     OW20359   0.355   6.186   5.029
 6487SOL    HW120360   0.401   6.105   5.067
 6487SOL    HW220361   0.424   6.253   5.001
 6488SOL     OW20362   3.717   5.858   4.517
 6488SOL    HW120363   3.675   5.896   4.435
 6488SOL    HW220364   3.647   5.811   4.571
 6489SOL     OW20365   3.252   2.466   6.547
 6489SOL    HW120366   3.234   2.435   6.454
 6489SOL    HW220367   3.350   2.476   6.560
 6490SOL     OW20368   3.881   0.500   6.746
 6490SOL    HW120369   3.946   0.557   6.695
 6490SOL    HW220370   3.791   0.544   6.747
 6491SOL     OW20371   3.920   0.763   0.720
 6491SOL    HW120372   3.840   0.717   0.757
 6491SOL    HW220373   3.952   0.833   0.784
 6492SOL     OW20374   4.055   5.239   0.041
 6492SOL    HW120375   3.980   5.172   0.043
 6492SOL    HW220376   4.043   5.304   0.116
 6493SOL     OW20377   1.227   5.038   5.257
 6493SOL    HW120378   1.305   5.013   5.315
 6493SOL    HW220379   1.145   4.991   5.289
 6494SOL     OW20380   0.198   0.536   3.621
 6494SOL    HW120381   0.214   0.464   3.554
 6494SOL    HW220382   0.117   0.588   3.595
 6495SOL     OW20383   5.371   0.154   4.429
 6495SOL    HW120384   5.397   0.251   4.428
 6495SOL    HW220385   5.384   0.117   4.521
 6496SOL     OW20386   6.846   0.520   3.186
 6496SOL    HW120387   6.850   0.426   3.152
 6496SOL    HW220388   6.938   0.560   3.184
 6497SOL     OW20389   1.537   2.237   0.981
 6497SOL    HW120390   1.527   2.319   1.038
 6497SOL    HW220391   1.450   2.217   0.936
 6498SOL     OW20392   2.035   3.584   3.746
 6498SOL    HW120393   2.104   3.610   3.814
 6498SOL    HW220394   2.076   3.586   3.654
 6499SOL     OW20395   5.183   3.091   4.914
 6499SOL    HW120396   5.116   3.028   4.874
 6499SOL    HW220397   5.184   3.176   4.860
 6500SOL     OW20398   6.614   4.151   3.583
 6500SOL    HW120399   6.581   4.148   3.678
 6500SOL    HW220400   6.617   4.058   3.546
 6501SOL     OW20401   6.520   2.018   6.760
 6501SOL    HW120402   6.422   2.022   6.779
 6501SOL    HW220403   6.559   1.936   6.803
 6502SOL     OW20404   6.666   2.302   1.260
 6502SOL    HW120405   6.581   2.249   1.254
 6502SOL    HW220406   6.722   2.266   1.334
 6503SOL     OW20407   5.026   1.367   3.349
 6503SOL    HW120408   5.108   1.388   3.403
 6503SOL    HW220409   5.050   1.305   3.274
 6504SOL     OW20410   4.535   5.601   5.948
 6504SOL    HW120411   4.492   5.579   5.861
 6504SOL    HW220412   4.464   5.618   6.017
 6505SOL     OW20413   5.643   5.939   0.479
 6505SOL    HW120414   5.670   5.909   0.570
 6505SOL    HW220415   5.600   5.863   0.430
 6506SOL     OW20416   6.596   2.229   2.594
 6506SOL    HW120417   6.564   2.147   2.546
 6506SOL    HW220418   6.538   2.246   2.673
 6507SOL     OW20419   2.272   5.398   5.732
 6507SOL    HW120420   2.342   5.454   5.689
 6507SOL    HW220421   2.193   5.455   5.755
 6508SOL     OW20422   1.350   0.578   2.846
 6508SOL    HW120423   1.372   0.596   2.942
 6508SOL    HW220424   1.377   0.656   2.790
 6509SOL     OW20425   3.672   1.991   4.432
 6509SOL    HW120426   3.593   2.039   4.471
 6509SOL    HW220427   3.708   1.926   4.499
 6510SOL     OW20428   6.577   5.479   0.034
 6510SOL    HW120429   6.544   5.571   0.009
 6510SOL    HW220430   6.677   5.478   0.031
 6511SOL     OW20431   4.490   1.452   4.340
 6511SOL    HW120432   4.578   1.479   4.302
 6511SOL    HW220433   4.462   1.517   4.410
 6512SOL     OW20434   4.785   6.460   1.878
 6512SOL    HW120435   4.831   6.420   1.957
 6512SOL    HW220436   4.817   6.417   1.795
 6513SOL     OW20437   2.934   5.112   2.850
 6513SOL    HW120438   2.992   5.173   2.796
 6513SOL    HW220439   2.989   5.038   2.887
 6514SOL     OW20440   6.043   1.265   4.383
 6514SOL    HW120441   6.053   1.194   4.452
 6514SOL    HW220442   5.953   1.258   4.340
 6515SOL     OW20443   0.124   4.490   4.355
 6515SOL    HW120444   0.067   4.497   4.273
 6515SOL    HW220445   0.198   4.557   4.350
 6516SOL     OW20446   0.096   3.687   1.000
 6516SOL    HW120447   0.182   3.661   0.955
 6516SOL    HW220448   0.099   3.658   1.095
 6517SOL     OW20449   6.237   0.348   0.738
 6517SOL    HW120450   6.161   0.375   0.680
 6517SOL    HW220451   6.316   0.325   0.682
 6518SOL     OW20452   6.944   0.272   6.675
 6518SOL    HW120453   6.862   0.323   6.700
 6518SOL    HW220454   7.008   0.273   6.751
 6519SOL     OW20455   1.373   2.150   3.319
 6519SOL    HW120456   1.406   2.106   3.235
 6519SOL    HW220457   1.409   2.243   3.325
 6520SOL     OW20458   5.479   5.419   2.287
 6520SOL    HW120459   5.533   5.341   2.254
 6520SOL    HW220460   5.533   5.471   2.352
 6521SOL     OW20461   2.216   2.329   4.330
 6521SOL    HW120462   2.221   2.406   4.393
 6521SOL    HW220463   2.306   2.312   4.291
 6522SOL     OW20464   3.696   4.891   6.723
 6522SOL    HW120465   3.613   4.943   6.741
 6522SOL    HW220466   3.703   4.814   6.787
 6523SOL     OW20467   4.239   1.408   6.269
 6523SOL    HW120468   4.337   1.400   6.249
 6523SOL    HW220469   4.204   1.493   6.230
 6524SOL     OW20470   2.977   4.005   1.676
 6524SOL    HW120471   2.924   3.925   1.705
 6524SOL    HW220472   2.934   4.045   1.595
 6525SOL     OW20473   2.201   4.833   2.772
 6525SOL    HW120474   2.182   4.911   2.711
 6525SOL    HW220475   2.155   4.848   2.859
 6526SOL     OW20476   2.219   6.859   6.754
 6526SOL    HW120477   2.284   6.934   6.770
 6526SOL    HW220478   2.266   6.772   6.764
 6527SOL     OW20479   0.832   2.723   4.642
 6527SOL    HW120480   0.873   2.809   4.673
 6527SOL    HW220481   0.891   2.647   4.668
 6528SOL     OW20482   6.977   0.965   5.303
 6528SOL    HW120483   6.969   0.902   5.380
 6528SOL    HW220484   6.896   0.958   5.245
 6529SOL     OW20485   1.510   1.309   2.590
 6529SOL    HW120486   1.466   1.349   2.510
 6529SOL    HW220487   1.500   1.370   2.669
 6530SOL     OW20488   6.494   3.748   6.996
 6530SOL    HW120489   6.578   3.718   0.018
 6530SOL    HW220490   6.415   3.732   0.033
 6531SOL     OW20491   5.630   2.945   5.341
 6531SOL    HW120492   5.623   2.862   5.285
 6531SOL    HW220493   5.666   3.020   5.285
 6532SOL     OW20494   6.757   1.020   0.621
 6532SOL    HW120495   6.729   1.003   0.716
 6532SOL    HW220496   6.785   1.115   0.611
 6533SOL     OW20497   4.644   6.901   1.502
 6533SOL    HW120498   4.562   6.959   1.506
 6533SOL    HW220499   4.707   6.938   1.434
 6534SOL     OW20500   3.637   4.641   1.342
 6534SOL    HW120501   3.642   4.684   1.432
 6534SOL    HW220502   3.677   4.550   1.346
 6535SOL     OW20503   6.058   4.163   4.115
 6535SOL    HW120504   5.959   4.155   4.130
 6535SOL    HW220505   6.105   4.154   4.203
 6536SOL     OW20506   1.076   1.430   5.650
 6536SOL    HW120507   1.059   1.390   5.560
 6536SOL    HW220508   1.170   1.411   5.678
 6537SOL     OW20509   6.470   5.436   0.306
 6537SOL    HW120510   6.502   5.435   0.212
 6537SOL    HW220511   6.539   5.478   0.365
 6538SOL     OW20512   2.540   4.016   6.840
 6538SOL    HW120513   2.613   3.976   6.784
 6538SOL    HW220514   2.468   3.948   6.855
 6539SOL     OW20515   3.921   0.572   5.934
 6539SOL    HW120516   4.009   0.547   5.893
 6539SOL    HW220517   3.848   0.557   5.867
 6540SOL     OW20518   4.600   1.921   5.693
 6540SOL    HW120519   4.525   1.922   5.759
 6540SOL    HW220520   4.587   1.993   5.625
 6541SOL     OW20521   4.883   1.956   5.330
 6541SOL    HW120522   4.969   1.906   5.320
 6541SOL    HW220523   4.885   2.037   5.271
 6542SOL     OW20524   5.767   4.100   4.150
 6542SOL    HW120525   5.672   4.074   4.163
 6542SOL    HW220526   5.772   4.191   4.110
 6543SOL     OW20527   5.901   3.306   6.001
 6543SOL    HW120528   5.845   3.251   5.938
 6543SOL    HW220529   5.997   3.297   5.975
 6544SOL     OW20530   0.263   6.263   2.811
 6544SOL    HW120531   0.354   6.258   2.771
 6544SOL    HW220532   0.199   6.304   2.745
 6545SOL     OW20533   4.338   2.109   0.643
 6545SOL    HW120534   4.269   2.041   0.669
 6545SOL    HW220535   4.310   2.154   0.558
 6546SOL     OW20536   3.149   4.644   0.192
 6546SOL    HW120537   3.108   4.561   0.232
 6546SOL    HW220538   3.077   4.712   0.178
 6547SOL     OW20539   5.017   1.268   5.662
 6547SOL    HW120540   4.918   1.257   5.659
 6547SOL    HW220541   5.040   1.364   5.679
 6548SOL     OW20542   1.344   3.763   0.321
 6548SOL    HW120543   1.329   3.684   0.381
 6548SOL    HW220544   1.257   3.810   0.306
 6549SOL     OW20545   4.805   1.008   1.455
 6549SOL    HW120546   4.840   0.916   1.470
 6549SOL    HW220547   4.830   1.066   1.533
 6550SOL     OW20548   0.215   6.748   4.305
 6550SOL    HW120549   0.244   6.674   4.366
 6550SOL    HW220550   0.221   6.835   4.353
 6551SOL     OW20551   1.885   5.211   2.801
 6551SOL    HW120552   1.802   5.156   2.808
 6551SOL    HW220553   1.875   5.276   2.725
 6552SOL     OW20554   1.828   6.534   6.164
 6552SOL    HW120555   1.857   6.583   6.246
 6552SOL    HW220556   1.732   6.508   6.172
 6553SOL     OW20557   0.510   2.459   3.621
 6553SOL    HW120558   0.580   2.471   3.692
 6553SOL    HW220559   0.499   2.362   3.601
 6554SOL     OW20560   0.214   1.164   4.992
 6554SOL    HW120561   0.201   1.066   4.977
 6554SOL    HW220562   0.287   1.179   5.059
 6555SOL     OW20563   0.016   2.113   2.813
 6555SOL    HW120564   6.977   2.038   2.793
 6555SOL    HW220565   7.001   2.170   2.886
 6556SOL     OW20566   5.637   4.574   4.720
 6556SOL    HW120567   5.713   4.606   4.664
 6556SOL    HW220568   5.581   4.652   4.747
 6557SOL     OW20569   3.002   6.668   2.018
 6557SOL    HW120570   2.919   6.723   2.013
 6557SOL    HW220571   3.002   6.600   1.945
 6558SOL     OW20572   6.450   4.820   6.881
 6558SOL    HW120573   6.469   4.746   6.945
 6558SOL    HW220574   6.519   4.819   6.808
 6559SOL     OW20575   0.936   3.972   6.133
 6559SOL    HW120576   0.939   4.040   6.060
 6559SOL    HW220577   1.010   3.906   6.120
 6560SOL     OW20578   4.581   5.198   1.259
 6560SOL    HW120579   4.592   5.265   1.186
 6560SOL    HW220580   4.602   5.240   1.347
 6561SOL     OW20581   3.965   3.878   1.527
 6561SOL    HW120582   4.032   3.874   1.602
 6561SOL    HW220583   3.875   3.852   1.562
 6562SOL     OW20584   5.951   3.512   1.266
 6562SOL    HW120585   5.945   3.498   1.167
 6562SOL    HW220586   6.044   3.540   1.290
 6563SOL     OW20587   5.735   6.658   0.557
 6563SOL    HW120588   5.742   6.558   0.550
 6563SOL    HW220589   5.683   6.693   0.479
 6564SOL     OW20590   0.074   4.404   3.146
 6564SOL    HW120591   7.000   4.418   3.168
 6564SOL    HW220592   0.091   4.307   3.131
 6565SOL     OW20593   6.868   2.716   3.767
 6565SOL    HW120594   6.825   2.733   3.856
 6565SOL    HW220595   6.917   2.629   3.770
 6566SOL     OW20596   3.220   6.119   2.500
 6566SOL    HW120597   3.131   6.074   2.500
 6566SOL    HW220598   3.208   6.218   2.512
 6567SOL     OW20599   4.395   1.274   1.974
 6567SOL    HW120600   4.364   1.240   1.886
 6567SOL    HW220601   4.485   1.235   1.995
 6568SOL     OW20602   3.927   1.457   3.638
 6568SOL    HW120603   3.895   1.552   3.633
 6568SOL    HW220604   3.940   1.422   3.545
 6569SOL     OW20605   2.813   3.670   6.403
 6569SOL    HW120606   2.825   3.596   6.337
 6569SOL    HW220607   2.812   3.757   6.354
 6570SOL     OW20608   3.474   0.241   2.309
 6570SOL    HW120609   3.511   0.324   2.350
 6570SOL    HW220610   3.434   0.184   2.381
 6571SOL     OW20611   2.542   5.910   1.918
 6571SOL    HW120612   2.511   6.003   1.896
 6571SOL    HW220613   2.520   5.889   2.013
 6572SOL     OW20614   6.495   5.013   6.410
 6572SOL    HW120615   6.416   4.959   6.438
 6572SOL    HW220616   6.576   4.955   6.405
 6573SOL     OW20617   2.303   1.591   2.220
 6573SOL    HW120618   2.317   1.632   2.310
 6573SOL    HW220619   2.388   1.547   2.190
 6574SOL     OW20620   3.278   5.521   3.026
 6574SOL    HW120621   3.315   5.432   3.055
 6574SOL    HW220622   3.296   5.534   2.928
 6575SOL     OW20623   1.144   0.268   2.358
 6575SOL    HW120624   1.089   0.272   2.441
 6575SOL    HW220625   1.189   0.179   2.351
 6576SOL     OW20626   2.902   5.608   6.365
 6576SOL    HW120627   2.945   5.697   6.346
 6576SOL    HW220628   2.847   5.615   6.448
 6577SOL     OW20629   0.603   0.973   4.186
 6577SOL    HW120630   0.642   1.005   4.100
 6577SOL    HW220631   0.584   0.875   4.179
 6578SOL     OW20632   1.463   4.854   3.111
 6578SOL    HW120633   1.432   4.763   3.087
 6578SOL    HW220634   1.409   4.889   3.188
 6579SOL     OW20635   6.594   3.600   5.388
 6579SOL    HW120636   6.603   3.600   5.488
 6579SOL    HW220637   6.683   3.585   5.346
 6580SOL     OW20638   0.123   2.088   0.527
 6580SOL    HW120639   0.136   2.175   0.481
 6580SOL    HW220640   0.146   2.013   0.465
 6581SOL     OW20641   2.750   0.948   7.012
 6581SOL    HW120642   2.692   1.029   7.001
 6581SOL    HW220643   2.834   0.959   6.959
 6582SOL     OW20644   1.326   1.439   2.118
 6582SOL    HW120645   1.332   1.438   2.018
 6582SOL    HW220646   1.390   1.507   2.155
 6583SOL     OW20647   3.409   0.844   5.043
 6583SOL    HW120648   3.351   0.763   5.036
 6583SOL    HW220649   3.458   0.843   5.130
 6584SOL     OW20650   4.687   1.886   0.443
 6584SOL    HW120651   4.668   1.969   0.495
 6584SOL    HW220652   4.607   1.826   0.446
 6585SOL     OW20653   6.373   6.904   0.338
 6585SOL    HW120654   6.409   6.997   0.346
 6585SOL    HW220655   6.376   6.875   0.242
 6586SOL     OW20656   0.116   1.879   5.991
 6586SOL    HW120657   0.105   1.796   5.935
 6586SOL    HW220658   0.026   1.918   6.008
 6587SOL     OW20659   2.291   6.493   4.649
 6587SOL    HW120660   2.198   6.525   4.634
 6587SOL    HW220661   2.310   6.489   4.747
 6588SOL     OW20662   0.675   3.682   1.619
 6588SOL    HW120663   0.590   3.710   1.662
 6588SOL    HW220664   0.659   3.600   1.564
 6589SOL     OW20665   4.857   0.550   0.288
 6589SOL    HW120666   4.815   0.606   0.359
 6589SOL    HW220667   4.861   0.454   0.318
 6590SOL     OW20668   0.927   0.900   5.150
 6590SOL    HW120669   1.000   0.937   5.094
 6590SOL    HW220670   0.848   0.960   5.146
 6591SOL     OW20671   5.749   5.593   2.045
 6591SOL    HW120672   5.776   5.687   2.024
 6591SOL    HW220673   5.819   5.551   2.103
 6592SOL     OW20674   6.423   0.326   4.013
 6592SOL    HW120675   6.356   0.258   3.984
 6592SOL    HW220676   6.514   0.299   3.983
 6593SOL     OW20677   2.707   2.053   2.356
 6593SOL    HW120678   2.701   2.147   2.390
 6593SOL    HW220679   2.623   2.004   2.380
 6594SOL     OW20680   3.494   2.322   6.927
 6594SOL    HW120681   3.566   2.316   6.996
 6594SOL    HW220682   3.535   2.332   6.836
 6595SOL     OW20683   0.674   3.833   0.184
 6595SOL    HW120684   0.692   3.799   0.276
 6595SOL    HW220685   0.633   3.924   0.189
 6596SOL     OW20686   3.033   6.147   4.539
 6596SOL    HW120687   2.983   6.232   4.556
 6596SOL    HW220688   3.100   6.134   4.611
 6597SOL     OW20689   2.341   5.353   1.793
 6597SOL    HW120690   2.283   5.347   1.712
 6597SOL    HW220691   2.284   5.371   1.873
 6598SOL     OW20692   1.370   6.328   4.291
 6598SOL    HW120693   1.329   6.287   4.209
 6598SOL    HW220694   1.467   6.304   4.295
 6599SOL     OW20695   4.781   6.596   5.742
 6599SOL    HW120696   4.734   6.664   5.799
 6599SOL    HW220697   4.797   6.513   5.795
 6600SOL     OW20698   5.188   5.106   5.680
 6600SOL    HW120699   5.160   5.122   5.774
 6600SOL    HW220700   5.112   5.069   5.627
 6601SOL     OW20701   0.870   1.700   5.027
 6601SOL    HW120702   0.953   1.682   5.080
 6601SOL    HW220703   0.809   1.758   5.080
 6602SOL     OW20704   0.446   1.453   2.147
 6602SOL    HW120705   0.474   1.358   2.133
 6602SOL    HW220706   0.517   1.514   2.112
 6603SOL     OW20707   0.221   2.917   4.000
 6603SOL    HW120708   0.203   2.824   3.968
 6603SOL    HW220709   0.138   2.954   4.043
 6604SOL     OW20710   2.369   6.857   1.824
 6604SOL    HW120711   2.349   6.880   1.729
 6604SOL    HW220712   2.303   6.790   1.857
 6605SOL     OW20713   5.935   3.546   1.672
 6605SOL    HW120714   5.876   3.467   1.657
 6605SOL    HW220715   5.890   3.629   1.640
 6606SOL     OW20716   6.725   6.081   1.970
 6606SOL    HW120717   6.731   6.166   2.022
 6606SOL    HW220718   6.640   6.080   1.917
 6607SOL     OW20719   1.607   3.302   2.035
 6607SOL    HW120720   1.634   3.223   1.980
 6607SOL    HW220721   1.544   3.273   2.107
 6608SOL     OW20722   6.226   6.492   1.246
 6608SOL    HW120723   6.212   6.434   1.166
 6608SOL    HW220724   6.324   6.509   1.258
 6609SOL     OW20725   4.478   0.981   5.846
 6609SOL    HW120726   4.485   1.079   5.864
 6609SOL    HW220727   4.385   0.960   5.813
 6610SOL     OW20728   2.816   0.431   6.820
 6610SOL    HW120729   2.760   0.349   6.812
 6610SOL    HW220730   2.770   0.508   6.776
 6611SOL     OW20731   6.231   3.041   3.745
 6611SOL    HW120732   6.245   2.946   3.773
 6611SOL    HW220733   6.302   3.068   3.680
 6612SOL     OW20734   6.326   2.115   6.416
 6612SOL    HW120735   6.353   2.176   6.490
 6612SOL    HW220736   6.324   2.166   6.330
 6613SOL     OW20737   6.765   6.237   5.067
 6613SOL    HW120738   6.828   6.296   5.016
 6613SOL    HW220739   6.818   6.177   5.128
 6614SOL     OW20740   5.237   6.475   0.811
 6614SOL    HW120741   5.205   6.443   0.722
 6614SOL    HW220742   5.252   6.397   0.871
 6615SOL     OW20743   1.649   5.054   2.432
 6615SOL    HW120744   1.648   4.989   2.508
 6615SOL    HW220745   1.557   5.059   2.391
 6616SOL     OW20746   3.862   1.271   5.812
 6616SOL    HW120747   3.854   1.184   5.763
 6616SOL    HW220748   3.938   1.266   5.877
 6617SOL     OW20749   3.898   5.315   3.020
 6617SOL    HW120750   3.884   5.414   3.028
 6617SOL    HW220751   3.952   5.282   3.097
 6618SOL     OW20752   1.151   3.056   2.354
 6618SOL    HW120753   1.126   3.116   2.279
 6618SOL    HW220754   1.068   3.014   2.393
 6619SOL     OW20755   6.086   0.188   3.998
 6619SOL    HW120756   6.042   0.263   4.048
 6619SOL    HW220757   6.118   0.119   4.063
 6620SOL     OW20758   1.570   3.008   5.349
 6620SOL    HW120759   1.597   3.048   5.437
 6620SOL    HW220760   1.607   2.915   5.343
 6621SOL     OW20761   2.367   3.053   6.216
 6621SOL    HW120762   2.399   2.959   6.213
 6621SOL    HW220763   2.371   3.093   6.124
 6622SOL     OW20764   6.006   0.065   1.546
 6622SOL    HW120765   5.998   0.081   1.645
 6622SOL    HW220766   5.961   0.140   1.497
 6623SOL     OW20767   2.681   2.539   6.080
 6623SOL    HW120768   2.683   2.638   6.075
 6623SOL    HW220769   2.723   2.509   6.167
 6624SOL     OW20770   1.161   5.644   5.533
 6624SOL    HW120771   1.221   5.564   5.525
 6624SOL    HW220772   1.066   5.613   5.544
 6625SOL     OW20773   5.067   2.436   5.530
 6625SOL    HW120774   5.132   2.360   5.520
 6625SOL    HW220775   5.115   2.516   5.568
 6626SOL     OW20776   5.122   5.797   5.546
 6626SOL    HW120777   5.187   5.800   5.470
 6626SOL    HW220778   5.122   5.706   5.587
 6627SOL     OW20779   2.207   6.865   4.648
 6627SOL    HW120780   2.127   6.809   4.669
 6627SOL    HW220781   2.289   6.807   4.649
 6628SOL     OW20782   4.450   4.664   4.747
 6628SOL    HW120783   4.402   4.749   4.728
 6628SOL    HW220784   4.406   4.617   4.823
 6629SOL     OW20785   4.501   6.145   0.243
 6629SOL    HW120786   4.529   6.050   0.260
 6629SOL    HW220787   4.406   6.147   0.214
 6630SOL     OW20788   4.266   0.954   1.810
 6630SOL    HW120789   4.230   0.861   1.803
 6630SOL    HW220790   4.365   0.951   1.823
 6631SOL     OW20791   2.614   5.649   3.360
 6631SOL    HW120792   2.520   5.684   3.357
 6631SOL    HW220793   2.676   5.715   3.318
 6632SOL     OW20794   0.385   6.506   1.217
 6632SOL    HW120795   0.352   6.538   1.128
 6632SOL    HW220796   0.323   6.537   1.289
 6633SOL     OW20797   0.633   4.380   6.631
 6633SOL    HW120798   0.643   4.314   6.557
 6633SOL    HW220799   0.685   4.463   6.609
 6634SOL     OW20800   5.891   2.313   4.082
 6634SOL    HW120801   5.990   2.306   4.098
 6634SOL    HW220802   5.864   2.409   4.084
 6635SOL     OW20803   4.453   4.457   3.126
 6635SOL    HW120804   4.387   4.482   3.055
 6635SOL    HW220805   4.546   4.471   3.092
 6636SOL     OW20806   4.569   2.890   5.616
 6636SOL    HW120807   4.537   2.861   5.706
 6636SOL    HW220808   4.589   2.809   5.560
 6637SOL     OW20809   1.702   7.011   6.455
 6637SOL    HW120810   1.703   6.917   6.420
 6637SOL    HW220811   1.642   7.015   6.535
 6638SOL     OW20812   3.298   3.644   4.159
 6638SOL    HW120813   3.332   3.561   4.203
 6638SOL    HW220814   3.201   3.632   4.136
 6639SOL     OW20815   5.771   4.539   6.540
 6639SOL    HW120816   5.775   4.637   6.562
 6639SOL    HW220817   5.676   4.511   6.529
 6640SOL     OW20818   1.088   1.700   5.175
 6640SOL    HW120819   1.184   1.672   5.167
 6640SOL    HW220820   1.083   1.799   5.188
 6641SOL     OW20821   2.000   1.671   7.019
 6641SOL    HW120822   1.994   1.603   6.945
 6641SOL    HW220823   1.909   1.688   0.034
 6642SOL     OW20824   3.024   5.269   6.726
 6642SOL    HW120825   3.016   5.175   6.694
 6642SOL    HW220826   3.060   5.327   6.653
 6643SOL     OW20827   6.172   5.611   0.279
 6643SOL    HW120828   6.154   5.534   0.217
 6643SOL    HW220829   6.248   5.665   0.242
 6644SOL     OW20830   2.430   5.054   2.140
 6644SOL    HW120831   2.353   5.086   2.085
 6644SOL    HW220832   2.414   4.960   2.168
 6645SOL     OW20833   6.759   5.513   0.412
 6645SOL    HW120834   6.817   5.573   0.468
 6645SOL    HW220835   6.813   5.475   0.337
 6646SOL     OW20836   3.750   0.112   5.069
 6646SOL    HW120837   3.693   0.088   4.991
 6646SOL    HW220838   3.806   0.192   5.045
 6647SOL     OW20839   4.506   0.839   1.942
 6647SOL    HW120840   4.573   0.879   2.004
 6647SOL    HW220841   4.533   0.856   1.848
 6648SOL     OW20842   4.219   6.797   2.723
 6648SOL    HW120843   4.147   6.735   2.755
 6648SOL    HW220844   4.288   6.744   2.673
 6649SOL     OW20845   5.367   0.682   6.739
 6649SOL    HW120846   5.306   0.750   6.780
 6649SOL    HW220847   5.388   0.611   6.807
 6650SOL     OW20848   2.899   1.734   5.242
 6650SOL    HW120849   2.855   1.738   5.331
 6650SOL    HW220850   2.943   1.645   5.230
 6651SOL     OW20851   2.305   1.704   5.561
 6651SOL    HW120852   2.280   1.767   5.487
 6651SOL    HW220853   2.266   1.614   5.543
 6652SOL     OW20854   6.993   4.667   0.854
 6652SOL    HW120855   6.973   4.675   0.952
 6652SOL    HW220856   0.051   4.720   0.833
 6653SOL     OW20857   3.121   3.135   2.897
 6653SOL    HW120858   3.099   3.192   2.819
 6653SOL    HW220859   3.045   3.136   2.962
 6654SOL     OW20860   1.608   3.579   1.413
 6654SOL    HW120861   1.684   3.582   1.477
 6654SOL    HW220862   1.592   3.671   1.376
 6655SOL     OW20863   1.287   6.968   3.116
 6655SOL    HW120864   1.385   6.952   3.117
 6655SOL    HW220865   1.252   6.956   3.023
 6656SOL     OW20866   5.932   1.837   3.364
 6656SOL    HW120867   6.025   1.825   3.400
 6656SOL    HW220868   5.890   1.747   3.350
 6657SOL     OW20869   5.988   6.110   6.239
 6657SOL    HW120870   5.986   6.147   6.146
 6657SOL    HW220871   6.041   6.171   6.298
 6658SOL     OW20872   6.728   0.980   5.156
 6658SOL    HW120873   6.742   0.983   5.057
 6658SOL    HW220874   6.674   0.899   5.180
 6659SOL     OW20875   2.274   2.187   0.502
 6659SOL    HW120876   2.176   2.199   0.515
 6659SOL    HW220877   2.293   2.095   0.468
 6660SOL     OW20878   1.103   5.244   1.077
 6660SOL    HW120879   1.161   5.250   1.158
 6660SOL    HW220880   1.097   5.149   1.047
 6661SOL     OW20881   0.654   6.674   5.109
 6661SOL    HW120882   0.708   6.615   5.050
 6661SOL    HW220883   0.662   6.768   5.079
 6662SOL     OW20884   1.130   1.465   0.085
 6662SOL    HW120885   1.120   1.489   7.012
 6662SOL    HW220886   1.161   1.371   0.094
 6663SOL     OW20887   6.865   5.035   4.179
 6663SOL    HW120888   6.940   5.084   4.133
 6663SOL    HW220889   6.777   5.067   4.144
 6664SOL     OW20890   2.519   6.325   0.026
 6664SOL    HW120891   2.513   6.357   6.955
 6664SOL    HW220892   2.453   6.251   0.040
 6665SOL     OW20893   1.638   6.296   4.050
 6665SOL    HW120894   1.732   6.319   4.025
 6665SOL    HW220895   1.636   6.209   4.098
 6666SOL     OW20896   5.960   6.667   5.612
 6666SOL    HW120897   5.861   6.666   5.600
 6666SOL    HW220898   5.983   6.713   5.698
 6667SOL     OW20899   6.703   6.151   6.891
 6667SOL    HW120900   6.748   6.117   6.974
 6667SOL    HW220901   6.612   6.110   6.884
 6668SOL     OW20902   6.936   5.658   1.578
 6668SOL    HW120903   0.011   5.674   1.573
 6668SOL    HW220904   6.895   5.666   1.487
 6669SOL     OW20905   1.652   2.904   3.505
 6669SOL    HW120906   1.627   2.994   3.470
 6669SOL    HW220907   1.647   2.905   3.605
 6670SOL     OW20908   3.711   2.151   5.221
 6670SOL    HW120909   3.693   2.249   5.225
 6670SOL    HW220910   3.782   2.128   5.287
 6671SOL     OW20911   6.322   5.615   0.762
 6671SOL    HW120912   6.258   5.596   0.688
 6671SOL    HW220913   6.416   5.607   0.728
 6672SOL     OW20914   6.381   1.821   6.274
 6672SOL    HW120915   6.326   1.903   6.265
 6672SOL    HW220916   6.384   1.773   6.186
 6673SOL     OW20917   5.530   5.783   3.915
 6673SOL    HW120918   5.474   5.722   3.860
 6673SOL    HW220919   5.571   5.853   3.856
 6674SOL     OW20920   0.897   5.202   6.016
 6674SOL    HW120921   0.852   5.263   5.950
 6674SOL    HW220922   0.829   5.138   6.053
 6675SOL     OW20923   4.567   3.540   1.672
 6675SOL    HW120924   4.477   3.567   1.706
 6675SOL    HW220925   4.595   3.603   1.599
 6676SOL     OW20926   6.879   3.895   5.801
 6676SOL    HW120927   6.968   3.939   5.789
 6676SOL    HW220928   6.846   3.913   5.894
 6677SOL     OW20929   1.242   1.802   6.656
 6677SOL    HW120930   1.231   1.827   6.752
 6677SOL    HW220931   1.331   1.758   6.642
 6678SOL     OW20932   3.219   3.390   6.834
 6678SOL    HW120933   3.226   3.314   6.770
 6678SOL    HW220934   3.177   3.469   6.788
 6679SOL     OW20935   2.201   1.611   4.123
 6679SOL    HW120936   2.129   1.657   4.071
 6679SOL    HW220937   2.288   1.619   4.075
 6680SOL     OW20938   4.517   6.806   6.698
 6680SOL    HW120939   4.565   6.875   6.643
 6680SOL    HW220940   4.544   6.815   6.794
 6681SOL     OW20941   4.196   5.717   1.139
 6681SOL    HW120942   4.281   5.671   1.162
 6681SOL    HW220943   4.215   5.794   1.079
 6682SOL     OW20944   0.945   4.376   3.072
 6682SOL    HW120945   0.855   4.408   3.104
 6682SOL    HW220946   1.013   4.394   3.143
 6683SOL     OW20947   5.968   2.818   5.640
 6683SOL    HW120948   5.970   2.720   5.657
 6683SOL    HW220949   6.051   2.845   5.591
 6684SOL     OW20950   2.734   0.053   1.808
 6684SOL    HW120951   2.727   0.118   1.733
 6684SOL    HW220952   2.795   7.002   1.782
 6685SOL     OW20953   6.376   3.481   5.801
 6685SOL    HW120954   6.345   3.523   5.716
 6685SOL    HW220955   6.449   3.415   5.781
 6686SOL     OW20956   5.153   6.177   4.082
 6686SOL    HW120957   5.168   6.276   4.077
 6686SOL    HW220958   5.176   6.145   4.174
 6687SOL     OW20959   0.945   3.289   6.875
 6687SOL    HW120960   0.984   3.203   6.842
 6687SOL    HW220961   1.012   3.336   6.933
 6688SOL     OW20962   0.455   4.396   2.071
 6688SOL    HW120963   0.530   4.339   2.039
 6688SOL    HW220964   0.395   4.342   2.130
 6689SOL     OW20965   4.871   2.639   0.058
 6689SOL    HW120966   4.946   2.601   0.004
 6689SOL    HW220967   4.821   2.565   0.103
 6690SOL     OW20968   2.290   0.761   0.923
 6690SOL    HW120969   2.372   0.725   0.968
 6690SOL    HW220970   2.249   0.689   0.866
 6691SOL     OW20971   2.893   6.240   1.668
 6691SOL    HW120972   2.990   6.232   1.642
 6691SOL    HW220973   2.851   6.150   1.668
 6692SOL     OW20974   3.763   4.203   5.117
 6692SOL    HW120975   3.793   4.198   5.022
 6692SOL    HW220976   3.700   4.128   5.136
 6693SOL     OW20977   4.110   3.991   5.449
 6693SOL    HW120978   4.050   3.915   5.476
 6693SOL    HW220979   4.075   4.033   5.366
 6694SOL     OW20980   4.600   5.623   0.710
 6694SOL    HW120981   4.578   5.715   0.742
 6694SOL    HW220982   4.682   5.626   0.653
 6695SOL     OW20983   3.277   1.782   6.944
 6695SOL    HW120984   3.276   1.821   0.013
 6695SOL    HW220985   3.196   1.723   6.932
 6696SOL     OW20986   1.506   2.959   5.819
 6696SOL    HW120987   1.545   2.875   5.783
 6696SOL    HW220988   1.435   2.992   5.757
 6697SOL     OW20989   4.449   1.752   2.346
 6697SOL    HW120990   4.479   1.777   2.254
 6697SOL    HW220991   4.351   1.731   2.344
 6698SOL     OW20992   3.219   2.768   1.382
 6698SOL    HW120993   3.239   2.858   1.421
 6698SOL    HW220994   3.186   2.778   1.289
 6699SOL     OW20995   2.681   5.203   6.422
 6699SOL    HW120996   2.753   5.168   6.482
 6699SOL    HW220997   2.620   5.262   6.474
 6700SOL     OW20998   6.969   6.836   0.740
 6700SOL    HW120999   0.044   6.845   0.725
 6700SOL    HW221000   6.936   6.914   0.794
 6701SOL     OW21001   5.820   2.678   1.259
 6701SOL    HW121002   5.733   2.677   1.308
 6701SOL    HW221003   5.895   2.662   1.324
 6702SOL     OW21004   2.914   1.818   1.499
 6702SOL    HW121005   2.906   1.800   1.401
 6702SOL    HW221006   2.864   1.901   1.523
 6703SOL     OW21007   6.444   2.247   6.612
 6703SOL    HW121008   6.504   2.326   6.628
 6703SOL    HW221009   6.490   2.164   6.642
 6704SOL     OW21010   3.807   1.977   3.117
 6704SOL    HW121011   3.830   2.059   3.064
 6704SOL    HW221012   3.776   2.004   3.208
 6705SOL     OW21013   6.528   2.517   1.311
 6705SOL    HW121014   6.557   2.421   1.309
 6705SOL    HW221015   6.501   2.546   1.219
 6706SOL     OW21016   0.998   4.106   1.785
 6706SOL    HW121017   1.000   4.166   1.865
 6706SOL    HW221018   1.019   4.012   1.814
 6707SOL     OW21019   6.580   6.119   3.468
 6707SOL    HW121020   6.661   6.086   3.419
 6707SOL    HW221021   6.599   6.211   3.503
 6708SOL     OW21022   0.061   5.261   1.911
 6708SOL    HW121023   0.099   5.170   1.891
 6708SOL    HW221024   0.089   5.325   1.840
 6709SOL     OW21025   2.903   6.968   2.667
 6709SOL    HW121026   2.899   6.892   2.732
 6709SOL    HW221027   2.821   6.965   2.608
 6710SOL     OW21028   3.599   1.085   5.965
 6710SOL    HW121029   3.553   1.060   6.050
 6710SOL    HW221030   3.678   1.143   5.985
 6711SOL     OW21031   5.164   5.360   6.376
 6711SOL    HW121032   5.168   5.261   6.389
 6711SOL    HW221033   5.116   5.381   6.291
 6712SOL     OW21034   4.941   4.662   0.287
 6712SOL    HW121035   4.863   4.647   0.225
 6712SOL    HW221036   4.974   4.756   0.278
 6713SOL     OW21037   2.014   0.778   2.567
 6713SOL    HW121038   2.112   0.767   2.550
 6713SOL    HW221039   1.993   0.875   2.578
 6714SOL     OW21040   6.069   1.019   6.258
 6714SOL    HW121041   5.985   1.038   6.308
 6714SOL    HW221042   6.139   1.085   6.285
 6715SOL     OW21043   6.668   0.006   6.145
 6715SOL    HW121044   6.734   0.025   6.218
 6715SOL    HW221045   6.619   0.090   6.123
 6716SOL     OW21046   0.501   6.007   1.907
 6716SOL    HW121047   0.586   6.049   1.937
 6716SOL    HW221048   0.435   6.078   1.883
 6717SOL     OW21049   4.197   2.444   6.492
 6717SOL    HW121050   4.097   2.446   6.485
 6717SOL    HW221051   4.237   2.459   6.402
 6718SOL     OW21052   5.130   0.133   6.778
 6718SOL    HW121053   5.207   0.091   6.825
 6718SOL    HW221054   5.136   0.114   6.680
 6719SOL     OW21055   1.656   0.299   6.786
 6719SOL    HW121056   1.639   0.293   6.688
 6719SOL    HW221057   1.655   0.207   6.826
 6720SOL     OW21058   0.759   6.463   3.921
 6720SOL    HW121059   0.664   6.476   3.893
 6720SOL    HW221060   0.813   6.435   3.842
 6721SOL     OW21061   6.893   0.065   6.308
 6721SOL    HW121062   6.943   7.003   6.319
 6721SOL    HW221063   6.918   0.129   6.380
 6722SOL     OW21064   6.922   3.121   0.972
 6722SOL    HW121065   6.973   3.207   0.980
 6722SOL    HW221066   6.904   3.085   1.063
 6723SOL     OW21067   2.231   6.646   3.249
 6723SOL    HW121068   2.249   6.549   3.237
 6723SOL    HW221069   2.317   6.694   3.266
 6724SOL     OW21070   1.584   3.489   5.793
 6724SOL    HW121071   1.588   3.579   5.750
 6724SOL    HW221072   1.577   3.501   5.892
 6725SOL     OW21073   0.964   3.772   1.364
 6725SOL    HW121074   0.948   3.851   1.423
 6725SOL    HW221075   0.996   3.695   1.420
 6726SOL     OW21076   0.729   1.866   5.179
 6726SOL    HW121077   0.687   1.954   5.154
 6726SOL    HW221078   0.683   1.830   5.261
 6727SOL     OW21079   6.281   3.922   5.764
 6727SOL    HW121080   6.303   4.015   5.792
 6727SOL    HW221081   6.347   3.858   5.805
 6728SOL     OW21082   4.458   1.449   3.433
 6728SOL    HW121083   4.451   1.353   3.406
 6728SOL    HW221084   4.493   1.503   3.357
 6729SOL     OW21085   0.337   1.385   2.401
 6729SOL    HW121086   0.340   1.379   2.301
 6729SOL    HW221087   0.403   1.452   2.432
 6730SOL     OW21088   2.923   6.208   6.660
 6730SOL    HW121089   2.967   6.119   6.670
 6730SOL    HW221090   2.950   6.267   6.737
 6731SOL     OW21091   0.834   6.070   1.354
 6731SOL    HW121092   0.750   6.063   1.300
 6731SOL    HW221093   0.881   5.982   1.354
 6732SOL     OW21094   5.179   4.775   5.907
 6732SOL    HW121095   5.258   4.812   5.858
 6732SOL    HW221096   5.198   4.680   5.933
 6733SOL     OW21097   4.103   4.355   6.838
 6733SOL    HW121098   4.057   4.390   6.919
 6733SOL    HW221099   4.077   4.260   6.823
 6734SOL     OW21100   6.492   2.217   5.074
 6734SOL    HW121101   6.480   2.265   4.988
 6734SOL    HW221102   6.410   2.228   5.130
 6735SOL     OW21103   6.972   4.532   4.144
 6735SOL    HW121104   7.007   4.582   4.065
 6735SOL    HW221105   6.877   4.558   4.160
 6736SOL     OW21106   3.394   3.828   6.680
 6736SOL    HW121107   3.314   3.768   6.688
 6736SOL    HW221108   3.373   3.918   6.717
 6737SOL     OW21109   2.234   2.531   0.642
 6737SOL    HW121110   2.289   2.450   0.662
 6737SOL    HW221111   2.137   2.506   0.642
 6738SOL     OW21112   1.761   4.845   2.568
 6738SOL    HW121113   1.842   4.851   2.510
 6738SOL    HW221114   1.728   4.751   2.570
 6739SOL     OW21115   3.988   5.364   5.724
 6739SOL    HW121116   4.069   5.333   5.674
 6739SOL    HW221117   3.906   5.341   5.672
 6740SOL     OW21118   1.729   1.158   4.020
 6740SOL    HW121119   1.640   1.176   4.062
 6740SOL    HW221120   1.762   1.241   3.976
 6741SOL     OW21121   4.305   1.170   5.540
 6741SOL    HW121122   4.238   1.206   5.476
 6741SOL    HW221123   4.315   1.233   5.617
 6742SOL     OW21124   6.531   5.976   2.952
 6742SOL    HW121125   6.622   6.007   2.925
 6742SOL    HW221126   6.532   5.876   2.962
 6743SOL     OW21127   4.387   4.449   0.340
 6743SOL    HW121128   4.427   4.513   0.405
 6743SOL    HW221129   4.397   4.356   0.375
 6744SOL     OW21130   5.014   5.439   6.117
 6744SOL    HW121131   4.965   5.352   6.121
 6744SOL    HW221132   5.095   5.428   6.060
 6745SOL     OW21133   0.371   0.392   2.629
 6745SOL    HW121134   0.386   0.363   2.535
 6745SOL    HW221135   0.302   0.334   2.672
 6746SOL     OW21136   1.219   1.339   2.986
 6746SOL    HW121137   1.136   1.309   2.939
 6746SOL    HW221138   1.227   1.438   2.979
 6747SOL     OW21139   5.234   0.547   5.467
 6747SOL    HW121140   5.243   0.494   5.382
 6747SOL    HW221141   5.226   0.644   5.445
 6748SOL     OW21142   1.106   0.756   3.528
 6748SOL    HW121143   1.059   0.834   3.485
 6748SOL    HW221144   1.038   0.686   3.550
 6749SOL     OW21145   2.748   5.799   0.405
 6749SOL    HW121146   2.684   5.835   0.337
 6749SOL    HW221147   2.763   5.701   0.388
 6750SOL     OW21148   4.376   1.810   5.278
 6750SOL    HW121149   4.474   1.815   5.259
 6750SOL    HW221150   4.325   1.848   5.202
 6751SOL     OW21151   4.218   0.712   3.696
 6751SOL    HW121152   4.121   0.690   3.695
 6751SOL    HW221153   4.232   0.799   3.745
 6752SOL     OW21154   0.478   2.736   2.754
 6752SOL    HW121155   0.512   2.762   2.664
 6752SOL    HW221156   0.460   2.818   2.808
 6753SOL     OW21157   4.311   0.858   6.305
 6753SOL    HW121158   4.240   0.917   6.265
 6753SOL    HW221159   4.273   0.767   6.321
 6754SOL     OW21160   6.712   1.463   0.149
 6754SOL    HW121161   6.678   1.411   0.227
 6754SOL    HW221162   6.801   1.504   0.172
 6755SOL     OW21163   4.568   0.825   3.507
 6755SOL    HW121164   4.632   0.756   3.473
 6755SOL    HW221165   4.617   0.911   3.521
 6756SOL     OW21166   3.894   4.889   5.081
 6756SOL    HW121167   3.795   4.901   5.086
 6756SOL    HW221168   3.934   4.905   5.172
 6757SOL     OW21169   4.434   0.332   1.229
 6757SOL    HW121170   4.366   0.261   1.210
 6757SOL    HW221171   4.516   0.290   1.269
 6758SOL     OW21172   0.066   2.940   0.677
 6758SOL    HW121173   0.020   2.911   0.760
 6758SOL    HW221174   0.165   2.946   0.693
 6759SOL     OW21175   0.977   4.371   4.439
 6759SOL    HW121176   0.979   4.271   4.449
 6759SOL    HW221177   0.886   4.405   4.462
 6760SOL     OW21178   6.968   4.837   3.552
 6760SOL    HW121179   7.016   4.871   3.633
 6760SOL    HW221180   6.870   4.833   3.571
 6761SOL     OW21181   5.822   2.130   6.303
 6761SOL    HW121182   5.795   2.224   6.287
 6761SOL    HW221183   5.921   2.120   6.288
 6762SOL     OW21184   6.965   5.748   3.185
 6762SOL    HW121185   0.022   5.687   3.179
 6762SOL    HW221186   6.951   5.792   3.097
 6763SOL     OW21187   0.011   5.131   3.709
 6763SOL    HW121188   6.939   5.163   3.706
 6763SOL    HW221189   0.014   5.042   3.756
 6764SOL     OW21190   2.414   4.980   6.674
 6764SOL    HW121191   2.448   5.011   6.763
 6764SOL    HW221192   2.490   4.947   6.618
 6765SOL     OW21193   4.908   4.767   4.274
 6765SOL    HW121194   4.944   4.807   4.189
 6765SOL    HW221195   4.923   4.831   4.349
 6766SOL     OW21196   4.719   6.434   6.510
 6766SOL    HW121197   4.786   6.365   6.483
 6766SOL    HW221198   4.631   6.414   6.466
 6767SOL     OW21199   0.712   2.535   0.468
 6767SOL    HW121200   0.764   2.449   0.467
 6767SOL    HW221201   0.776   2.612   0.473
 6768SOL     OW21202   6.986   6.652   3.361
 6768SOL    HW121203   6.938   6.714   3.423
 6768SOL    HW221204   6.936   6.566   3.353
 6769SOL     OW21205   2.880   0.274   5.396
 6769SOL    HW121206   2.880   0.174   5.393
 6769SOL    HW221207   2.916   0.305   5.484
 6770SOL     OW21208   6.361   2.126   3.350
 6770SOL    HW121209   6.314   2.143   3.437
 6770SOL    HW221210   6.354   2.206   3.292
 6771SOL     OW21211   3.254   0.945   2.445
 6771SOL    HW121212   3.256   0.867   2.506
 6771SOL    HW221213   3.322   0.933   2.372
 6772SOL     OW21214   4.645   2.283   2.353
 6772SOL    HW121215   4.614   2.223   2.280
 6772SOL    HW221216   4.581   2.359   2.364
 6773SOL     OW21217   0.062   6.280   1.775
 6773SOL    HW121218   0.117   6.337   1.713
 6773SOL    HW221219   0.016   6.338   1.842
 6774SOL     OW21220   2.103   2.557   4.520
 6774SOL    HW121221   2.183   2.616   4.512
 6774SOL    HW221222   2.086   2.536   4.616
 6775SOL     OW21223   0.854   1.955   3.763
 6775SOL    HW121224   0.930   1.980   3.703
 6775SOL    HW221225   0.837   2.030   3.828
 6776SOL     OW21226   4.169   3.579   1.077
 6776SOL    HW121227   4.125   3.622   0.998
 6776SOL    HW221228   4.229   3.505   1.045
 6777SOL     OW21229   4.509   6.008   0.609
 6777SOL    HW121230   4.430   5.977   0.557
 6777SOL    HW221231   4.591   5.961   0.577
 6778SOL     OW21232   6.336   3.794   2.331
 6778SOL    HW121233   6.245   3.835   2.336
 6778SOL    HW221234   6.360   3.755   2.420
 6779SOL     OW21235   5.355   4.681   6.648
 6779SOL    HW121236   5.277   4.693   6.587
 6779SOL    HW221237   5.427   4.746   6.624
 6780SOL     OW21238   1.108   3.778   2.626
 6780SOL    HW121239   1.177   3.843   2.593
 6780SOL    HW221240   1.149   3.719   2.696
 6781SOL     OW21241   6.800   1.712   3.882
 6781SOL    HW121242   6.707   1.713   3.846
 6781SOL    HW221243   6.810   1.785   3.950
 6782SOL     OW21244   0.754   1.240   3.063
 6782SOL    HW121245   0.668   1.219   3.017
 6782SOL    HW221246   0.746   1.329   3.108
 6783SOL     OW21247   0.624   3.593   5.726
 6783SOL    HW121248   0.554   3.570   5.794
 6783SOL    HW221249   0.582   3.596   5.635
 6784SOL     OW21250   2.163   4.313   1.351
 6784SOL    HW121251   2.242   4.277   1.401
 6784SOL    HW221252   2.079   4.275   1.390
 6785SOL     OW21253   5.833   5.345   5.580
 6785SOL    HW121254   5.772   5.312   5.652
 6785SOL    HW221255   5.925   5.310   5.596
 6786SOL     OW21256   0.151   3.269   6.470
 6786SOL    HW121257   0.139   3.245   6.374
 6786SOL    HW221258   0.086   3.216   6.526
 6787SOL     OW21259   3.426   1.888   1.422
 6787SOL    HW121260   3.453   1.982   1.439
 6787SOL    HW221261   3.504   1.827   1.434
 6788SOL     OW21262   0.533   3.828   2.276
 6788SOL    HW121263   0.567   3.913   2.317
 6788SOL    HW221264   0.457   3.793   2.331
 6789SOL     OW21265   0.130   4.705   3.971
 6789SOL    HW121266   0.169   4.670   4.056
 6789SOL    HW221267   0.196   4.766   3.926
 6790SOL     OW21268   6.989   4.565   6.793
 6790SOL    HW121269   6.923   4.522   6.856
 6790SOL    HW221270   0.007   4.494   6.736
 6791SOL     OW21271   4.484   1.823   2.621
 6791SOL    HW121272   4.479   1.800   2.524
 6791SOL    HW221273   4.410   1.885   2.645
 6792SOL     OW21274   4.705   0.165   5.005
 6792SOL    HW121275   4.690   0.189   5.101
 6792SOL    HW221276   4.725   0.067   4.998
 6793SOL     OW21277   3.115   1.204   6.709
 6793SOL    HW121278   3.194   1.174   6.656
 6793SOL    HW221279   3.088   1.296   6.679
 6794SOL     OW21280   5.023   0.959   5.294
 6794SOL    HW121281   4.983   0.970   5.385
 6794SOL    HW221282   5.035   1.049   5.252
 6795SOL     OW21283   0.863   0.027   0.496
 6795SOL    HW121284   0.910   7.011   0.417
 6795SOL    HW221285   0.836   6.977   0.558
 6796SOL     OW21286   5.919   0.343   2.735
 6796SOL    HW121287   5.873   0.305   2.815
 6796SOL    HW221288   5.912   0.442   2.735
 6797SOL     OW21289   6.303   1.234   0.824
 6797SOL    HW121290   6.374   1.293   0.862
 6797SOL    HW221291   6.226   1.290   0.794
 6798SOL     OW21292   6.124   0.320   1.003
 6798SOL    HW121293   6.134   0.257   1.080
 6798SOL    HW221294   6.186   0.294   0.930
 6799SOL     OW21295   5.532   0.244   2.355
 6799SOL    HW121296   5.546   0.340   2.334
 6799SOL    HW221297   5.541   0.228   2.453
 6800SOL     OW21298   2.339   2.317   1.772
 6800SOL    HW121299   2.270   2.336   1.842
 6800SOL    HW221300   2.428   2.353   1.803
 6801SOL     OW21301   0.544   6.286   3.677
 6801SOL    HW121302   0.625   6.228   3.666
 6801SOL    HW221303   0.492   6.256   3.758
 6802SOL     OW21304   3.380   6.058   1.131
 6802SOL    HW121305   3.401   6.034   1.225
 6802SOL    HW221306   3.447   6.124   1.097
 6803SOL     OW21307   4.470   3.881   6.904
 6803SOL    HW121308   4.383   3.873   6.857
 6803SOL    HW221309   4.536   3.816   6.864
 6804SOL     OW21310   3.475   5.105   2.867
 6804SOL    HW121311   3.459   5.197   2.904
 6804SOL    HW221312   3.571   5.080   2.881
 6805SOL     OW21313   0.593   5.068   6.692
 6805SOL    HW121314   0.679   5.079   6.741
 6805SOL    HW221315   0.540   5.152   6.699
 6806SOL     OW21316   6.944   0.836   4.107
 6806SOL    HW121317   6.997   0.901   4.052
 6806SOL    HW221318   6.849   0.836   4.077
 6807SOL     OW21319   3.670   4.082   3.136
 6807SOL    HW121320   3.612   4.162   3.124
 6807SOL    HW221321   3.645   4.012   3.069
 6808SOL     OW21322   5.642   1.175   5.042
 6808SOL    HW121323   5.632   1.091   5.095
 6808SOL    HW221324   5.656   1.252   5.103
 6809SOL     OW21325   6.146   3.612   0.843
 6809SOL    HW121326   6.228   3.559   0.865
 6809SOL    HW221327   6.139   3.690   0.904
 6810SOL     OW21328   3.221   0.967   2.741
 6810SOL    HW121329   3.219   0.972   2.641
 6810SOL    HW221330   3.188   1.053   2.779
 6811SOL     OW21331   6.477   3.074   2.281
 6811SOL    HW121332   6.491   3.000   2.346
 6811SOL    HW221333   6.385   3.068   2.243
 6812SOL     OW21334   3.352   3.890   4.945
 6812SOL    HW121335   3.324   3.983   4.924
 6812SOL    HW221336   3.332   3.870   5.042
 6813SOL     OW21337   5.536   3.139   2.202
 6813SOL    HW121338   5.536   3.239   2.191
 6813SOL    HW221339   5.598   3.114   2.276
 6814SOL     OW21340   4.786   1.714   6.595
 6814SOL    HW121341   4.794   1.693   6.692
 6814SOL    HW221342   4.692   1.699   6.565
 6815SOL     OW21343   2.346   6.034   6.720
 6815SOL    HW121344   2.332   6.030   6.819
 6815SOL    HW221345   2.444   6.025   6.700
 6816SOL     OW21346   6.908   1.736   4.968
 6816SOL    HW121347   6.915   1.711   4.871
 6816SOL    HW221348   6.897   1.652   5.022
 6817SOL     OW21349   2.404   2.609   3.883
 6817SOL    HW121350   2.448   2.583   3.797
 6817SOL    HW221351   2.376   2.705   3.878
 6818SOL     OW21352   2.007   6.486   0.119
 6818SOL    HW121353   2.026   6.496   0.217
 6818SOL    HW221354   2.044   6.565   0.070
 6819SOL     OW21355   4.522   0.781   2.854
 6819SOL    HW121356   4.462   0.860   2.867
 6819SOL    HW221357   4.526   0.758   2.756
 6820SOL     OW21358   1.147   5.588   1.582
 6820SOL    HW121359   1.162   5.675   1.536
 6820SOL    HW221360   1.154   5.513   1.516
 6821SOL     OW21361   4.449   3.135   5.710
 6821SOL    HW121362   4.523   3.151   5.776
 6821SOL    HW221363   4.478   3.065   5.645
 6822SOL     OW21364   6.522   2.772   6.404
 6822SOL    HW121365   6.481   2.714   6.333
 6822SOL    HW221366   6.614   2.738   6.425
 6823SOL     OW21367   5.430   4.325   6.936
 6823SOL    HW121368   5.367   4.286   7.003
 6823SOL    HW221369   5.485   4.396   6.980
 6824SOL     OW21370   1.700   1.670   0.487
 6824SOL    HW121371   1.602   1.661   0.509
 6824SOL    HW221372   1.753   1.610   0.548
 6825SOL     OW21373   6.428   0.268   0.054
 6825SOL    HW121374   6.369   0.274   0.135
 6825SOL    HW221375   6.410   0.346   7.017
 6826SOL     OW21376   1.141   3.907   3.872
 6826SOL    HW121377   1.229   3.886   3.830
 6826SOL    HW221378   1.107   3.994   3.836
 6827SOL     OW21379   5.231   5.572   5.704
 6827SOL    HW121380   5.181   5.522   5.775
 6827SOL    HW221381   5.260   5.508   5.633
 6828SOL     OW21382   3.961   1.418   2.604
 6828SOL    HW121383   3.907   1.416   2.688
 6828SOL    HW221384   3.900   1.406   2.525
 6829SOL     OW21385   5.216   6.671   5.560
 6829SOL    HW121386   5.151   6.653   5.634
 6829SOL    HW221387   5.284   6.738   5.591
 6830SOL     OW21388   5.666   0.916   3.547
 6830SOL    HW121389   5.700   0.946   3.636
 6830SOL    HW221390   5.609   0.835   3.559
 6831SOL     OW21391   1.499   0.697   5.623
 6831SOL    HW121392   1.498   0.681   5.722
 6831SOL    HW221393   1.428   0.762   5.599
 6832SOL     OW21394   2.248   3.761   0.593
 6832SOL    HW121395   2.174   3.792   0.533
 6832SOL    HW221396   2.321   3.722   0.537
 6833SOL     OW21397   2.474   4.795   6.344
 6833SOL    HW121398   2.560   4.793   6.293
 6833SOL    HW221399   2.398   4.801   6.279
 6834SOL     OW21400   5.474   0.483   1.334
 6834SOL    HW121401   5.499   0.392   1.367
 6834SOL    HW221402   5.552   0.522   1.285
 6835SOL     OW21403   3.542   1.380   4.668
 6835SOL    HW121404   3.558   1.445   4.594
 6835SOL    HW221405   3.623   1.376   4.726
 6836SOL     OW21406   1.991   4.123   6.421
 6836SOL    HW121407   1.893   4.106   6.416
 6836SOL    HW221408   2.008   4.198   6.485
 6837SOL     OW21409   0.767   1.546   2.971
 6837SOL    HW121410   0.738   1.483   2.899
 6837SOL    HW221411   0.834   1.610   2.934
 6838SOL     OW21412   2.666   4.225   5.980
 6838SOL    HW121413   2.713   4.310   5.957
 6838SOL    HW221414   2.624   4.188   5.897
 6839SOL     OW21415   5.473   1.760   4.306
 6839SOL    HW121416   5.524   1.748   4.221
 6839SOL    HW221417   5.490   1.683   4.367
 6840SOL     OW21418   2.923   6.391   5.258
 6840SOL    HW121419   2.878   6.461   5.313
 6840SOL    HW221420   2.854   6.336   5.210
 6841SOL     OW21421   4.085   4.826   0.964
 6841SOL    HW121422   4.022   4.904   0.955
 6841SOL    HW221423   4.061   4.774   1.046
 6842SOL     OW21424   2.046   2.726   6.660
 6842SOL    HW121425   2.008   2.659   6.596
 6842SOL    HW221426   2.030   2.696   6.754
 6843SOL     OW21427   4.828   0.620   2.419
 6843SOL    HW121428   4.833   0.670   2.505
 6843SOL    HW221429   4.736   0.583   2.407
 6844SOL     OW21430   5.618   6.053   3.806
 6844SOL    HW121431   5.550   6.125   3.816
 6844SOL    HW221432   5.704   6.082   3.848
 6845SOL     OW21433   4.970   4.490   2.472
 6845SOL    HW121434   5.045   4.556   2.472
 6845SOL    HW221435   5.004   4.401   2.444
 6846SOL     OW21436   4.263   3.364   1.627
 6846SOL    HW121437   4.328   3.301   1.668
 6846SOL    HW221438   4.265   3.353   1.527
 6847SOL     OW21439   6.640   3.702   1.805
 6847SOL    HW121440   6.693   3.692   1.720
 6847SOL    HW221441   6.675   3.781   1.856
 6848SOL     OW21442   2.705   6.447   3.218
 6848SOL    HW121443   2.619   6.472   3.173
 6848SOL    HW221444   2.707   6.349   3.235
 6849SOL     OW21445   2.612   5.605   4.538
 6849SOL    HW121446   2.674   5.674   4.576
 6849SOL    HW221447   2.595   5.534   4.607
 6850SOL     OW21448   5.271   3.173   2.426
 6850SOL    HW121449   5.331   3.238   2.379
 6850SOL    HW221450   5.268   3.087   2.374
 6851SOL     OW21451   1.392   2.678   4.387
 6851SOL    HW121452   1.484   2.711   4.408
 6851SOL    HW221453   1.353   2.733   4.313
 6852SOL     OW21454   1.336   4.429   1.240
 6852SOL    HW121455   1.361   4.374   1.160
 6852SOL    HW221456   1.358   4.525   1.221
 6853SOL     OW21457   6.392   3.413   6.370
 6853SOL    HW121458   6.317   3.443   6.430
 6853SOL    HW221459   6.479   3.432   6.414
 6854SOL     OW21460   5.885   1.615   5.856
 6854SOL    HW121461   5.919   1.705   5.827
 6854SOL    HW221462   5.787   1.623   5.878
 6855SOL     OW21463   3.395   5.876   2.763
 6855SOL    HW121464   3.350   5.963   2.742
 6855SOL    HW221465   3.325   5.805   2.777
 6856SOL     OW21466   4.967   4.290   5.371
 6856SOL    HW121467   4.948   4.260   5.465
 6856SOL    HW221468   4.975   4.210   5.312
 6857SOL     OW21469   3.751   1.659   0.000
 6857SOL    HW121470   3.784   1.684   6.933
 6857SOL    HW221471   3.659   1.619   7.016
 6858SOL     OW21472   4.105   3.526   4.481
 6858SOL    HW121473   4.108   3.454   4.551
 6858SOL    HW221474   4.102   3.484   4.390
 6859SOL     OW21475   1.631   6.427   1.511
 6859SOL    HW121476   1.630   6.339   1.558
 6859SOL    HW221477   1.723   6.443   1.473
 6860SOL     OW21478   5.653   5.528   1.545
 6860SOL    HW121479   5.676   5.574   1.631
 6860SOL    HW221480   5.554   5.523   1.535
 6861SOL     OW21481   5.931   4.386   1.011
 6861SOL    HW121482   5.923   4.320   1.086
 6861SOL    HW221483   5.894   4.346   0.927
 6862SOL     OW21484   2.173   4.591   4.385
 6862SOL    HW121485   2.220   4.521   4.439
 6862SOL    HW221486   2.237   4.664   4.361
 6863SOL     OW21487   5.530   1.505   4.405
 6863SOL    HW121488   5.560   1.531   4.497
 6863SOL    HW221489   5.522   1.405   4.400
 6864SOL     OW21490   3.514   6.434   3.984
 6864SOL    HW121491   3.588   6.371   3.961
 6864SOL    HW221492   3.427   6.384   3.987
 6865SOL     OW21493   6.332   5.545   2.491
 6865SOL    HW121494   6.244   5.497   2.489
 6865SOL    HW221495   6.407   5.478   2.484
 6866SOL     OW21496   6.254   4.533   2.124
 6866SOL    HW121497   6.266   4.562   2.219
 6866SOL    HW221498   6.292   4.441   2.112
 6867SOL     OW21499   1.381   4.400   1.538
 6867SOL    HW121500   1.305   4.345   1.571
 6867SOL    HW221501   1.366   4.422   1.441
 6868SOL     OW21502   1.955   5.446   5.569
 6868SOL    HW121503   2.010   5.508   5.626
 6868SOL    HW221504   1.859   5.470   5.577
 6869SOL     OW21505   5.661   2.480   5.226
 6869SOL    HW121506   5.761   2.477   5.224
 6869SOL    HW221507   5.625   2.432   5.147
 6870SOL     OW21508   0.060   4.594   2.513
 6870SOL    HW121509   0.140   4.604   2.573
 6870SOL    HW221510   0.001   4.674   2.524
 6871SOL     OW21511   5.904   5.206   2.010
 6871SOL    HW121512   5.879   5.109   2.008
 6871SOL    HW221513   5.823   5.261   2.029
 6872SOL     OW21514   1.249   3.462   0.458
 6872SOL    HW121515   1.159   3.418   0.460
 6872SOL    HW221516   1.268   3.502   0.547
 6873SOL     OW21517   6.004   3.793   4.992
 6873SOL    HW121518   6.036   3.788   5.087
 6873SOL    HW221519   6.042   3.716   4.940
 6874SOL     OW21520   1.032   4.931   2.982
 6874SOL    HW121521   1.131   4.944   2.976
 6874SOL    HW221522   0.986   4.991   2.916
 6875SOL     OW21523   1.161   2.878   3.799
 6875SOL    HW121524   1.108   2.905   3.719
 6875SOL    HW221525   1.106   2.890   3.881
 6876SOL     OW21526   3.917   5.751   5.242
 6876SOL    HW121527   3.986   5.774   5.173
 6876SOL    HW221528   3.889   5.834   5.290
 6877SOL     OW21529   2.812   4.229   6.291
 6877SOL    HW121530   2.786   4.317   6.249
 6877SOL    HW221531   2.731   4.170   6.296
 6878SOL     OW21532   2.697   2.591   5.267
 6878SOL    HW121533   2.666   2.522   5.333
 6878SOL    HW221534   2.628   2.603   5.196
 6879SOL     OW21535   0.865   2.150   0.180
 6879SOL    HW121536   0.907   2.071   0.225
 6879SOL    HW221537   0.781   2.122   0.135
 6880SOL     OW21538   2.105   3.454   5.123
 6880SOL    HW121539   2.113   3.367   5.172
 6880SOL    HW221540   2.033   3.509   5.164
 6881SOL     OW21541   0.217   3.775   2.116
 6881SOL    HW121542   0.190   3.760   2.211
 6881SOL    HW221543   0.235   3.872   2.101
 6882SOL     OW21544   2.951   0.356   5.655
 6882SOL    HW121545   2.962   0.455   5.655
 6882SOL    HW221546   3.040   0.313   5.671
 6883SOL     OW21547   3.885   1.420   0.888
 6883SOL    HW121548   3.984   1.421   0.903
 6883SOL    HW221549   3.866   1.380   0.799
 6884SOL     OW21550   1.506   3.487   4.709
 6884SOL    HW121551   1.468   3.399   4.680
 6884SOL    HW221552   1.476   3.559   4.646
 6885SOL     OW21553   4.204   5.623   4.879
 6885SOL    HW121554   4.281   5.655   4.933
 6885SOL    HW221555   4.227   5.536   4.836
 6886SOL     OW21556   7.022   0.768   3.508
 6886SOL    HW121557   6.949   0.815   3.458
 6886SOL    HW221558   6.991   0.747   3.601
 6887SOL     OW21559   5.018   6.931   5.861
 6887SOL    HW121560   5.042   6.841   5.826
 6887SOL    HW221561   4.947   6.922   5.931
 6888SOL     OW21562   5.539   6.624   6.639
 6888SOL    HW121563   5.534   6.577   6.727
 6888SOL    HW221564   5.447   6.628   6.599
 6889SOL     OW21565   1.769   2.347   5.590
 6889SOL    HW121566   1.715   2.341   5.674
 6889SOL    HW221567   1.714   2.316   5.513
 6890SOL     OW21568   3.358   6.366   1.744
 6890SOL    HW121569   3.399   6.422   1.673
 6890SOL    HW221570   3.313   6.287   1.702
 6891SOL     OW21571   2.155   4.082   4.348
 6891SOL    HW121572   2.195   3.991   4.341
 6891SOL    HW221573   2.146   4.107   4.445
 6892SOL     OW21574   3.359   1.016   3.264
 6892SOL    HW121575   3.447   1.060   3.281
 6892SOL    HW221576   3.355   0.985   3.169
 6893SOL     OW21577   5.214   5.459   0.180
 6893SOL    HW121578   5.131   5.512   0.163
 6893SOL    HW221579   5.194   5.386   0.246
 6894SOL     OW21580   6.109   5.624   6.654
 6894SOL    HW121581   6.048   5.635   6.575
 6894SOL    HW221582   6.070   5.558   6.717
 6895SOL     OW21583   3.087   5.448   6.515
 6895SOL    HW121584   3.028   5.494   6.449
 6895SOL    HW221585   3.182   5.451   6.484
 6896SOL     OW21586   1.834   6.947   4.026
 6896SOL    HW121587   1.845   0.007   4.081
 6896SOL    HW221588   1.760   6.960   3.961
 6897SOL     OW21589   2.497   3.422   6.820
 6897SOL    HW121590   2.515   3.468   6.907
 6897SOL    HW221591   2.534   3.477   6.745
 6898SOL     OW21592   4.231   1.421   2.299
 6898SOL    HW121593   4.205   1.511   2.334
 6898SOL    HW221594   4.229   1.354   2.373
 6899SOL     OW21595   4.965   6.772   0.843
 6899SOL    HW121596   4.910   6.691   0.820
 6899SOL    HW221597   5.058   6.743   0.868
 6900SOL     OW21598   6.355   0.790   5.685
 6900SOL    HW121599   6.441   0.790   5.633
 6900SOL    HW221600   6.371   0.828   5.776
 6901SOL     OW21601   0.786   6.871   5.819
 6901SOL    HW121602   0.754   6.947   5.761
 6901SOL    HW221603   0.742   6.786   5.790
 6902SOL     OW21604   6.803   6.487   0.707
 6902SOL    HW121605   6.706   6.493   0.681
 6902SOL    HW221606   6.859   6.531   0.636
 6903SOL     OW21607   4.474   5.045   4.931
 6903SOL    HW121608   4.536   5.018   4.857
 6903SOL    HW221609   4.419   5.123   4.903
 6904SOL     OW21610   6.005   1.882   4.044
 6904SOL    HW121611   5.911   1.915   4.049
 6904SOL    HW221612   6.013   1.815   3.970
 6905SOL     OW21613   5.649   6.776   0.298
 6905SOL    HW121614   5.573   6.800   0.238
 6905SOL    HW221615   5.723   6.843   0.287
 6906SOL     OW21616   4.290   0.458   3.858
 6906SOL    HW121617   4.205   0.409   3.878
 6906SOL    HW221618   4.268   0.549   3.822
 6907SOL     OW21619   4.875   1.352   1.377
 6907SOL    HW121620   4.894   1.333   1.473
 6907SOL    HW221621   4.957   1.332   1.322
 6908SOL     OW21622   1.068   6.816   5.617
 6908SOL    HW121623   1.018   6.733   5.643
 6908SOL    HW221624   1.086   6.814   5.519
 6909SOL     OW21625   5.448   4.317   1.347
 6909SOL    HW121626   5.454   4.243   1.414
 6909SOL    HW221627   5.365   4.306   1.293
 6910SOL     OW21628   6.775   2.485   3.448
 6910SOL    HW121629   6.776   2.442   3.358
 6910SOL    HW221630   6.850   2.448   3.503
 6911SOL     OW21631   3.990   6.799   3.430
 6911SOL    HW121632   4.053   6.847   3.369
 6911SOL    HW221633   3.993   6.840   3.521
 6912SOL     OW21634   4.132   4.827   0.233
 6912SOL    HW121635   4.137   4.903   0.297
 6912SOL    HW221636   4.042   4.783   0.239
 6913SOL     OW21637   5.518   4.720   6.077
 6913SOL    HW121638   5.602   4.774   6.073
 6913SOL    HW221639   5.534   4.631   6.035
 6914SOL     OW21640   6.135   5.392   0.122
 6914SOL    HW121641   6.169   5.373   0.029
 6914SOL    HW221642   6.039   5.367   0.128
 6915SOL     OW21643   6.047   4.704   1.730
 6915SOL    HW121644   6.123   4.727   1.670
 6915SOL    HW221645   5.998   4.625   1.693
 6916SOL     OW21646   5.989   3.534   0.300
 6916SOL    HW121647   6.007   3.496   0.390
 6916SOL    HW221648   5.993   3.462   0.231
 6917SOL     OW21649   3.345   5.924   0.664
 6917SOL    HW121650   3.283   5.938   0.587
 6917SOL    HW221651   3.428   5.877   0.634
 6918SOL     OW21652   1.249   2.990   4.552
 6918SOL    HW121653   1.323   2.957   4.494
 6918SOL    HW221654   1.275   2.980   4.648
 6919SOL     OW21655   0.556   6.111   3.354
 6919SOL    HW121656   0.515   6.067   3.273
 6919SOL    HW221657   0.521   6.204   3.362
 6920SOL     OW21658   4.677   5.573   6.202
 6920SOL    HW121659   4.698   5.476   6.213
 6920SOL    HW221660   4.717   5.607   6.118
 6921SOL     OW21661   5.012   5.735   3.067
 6921SOL    HW121662   4.958   5.817   3.084
 6921SOL    HW221663   4.955   5.654   3.078
 6922SOL     OW21664   2.311   5.429   6.790
 6922SOL    HW121665   2.348   5.521   6.779
 6922SOL    HW221666   2.281   5.394   6.702
 6923SOL     OW21667   4.982   5.591   3.867
 6923SOL    HW121668   4.902   5.626   3.818
 6923SOL    HW221669   5.027   5.666   3.915
 6924SOL     OW21670   0.980   4.556   0.117
 6924SOL    HW121671   1.048   4.578   0.187
 6924SOL    HW221672   0.952   4.461   0.127
 6925SOL     OW21673   3.951   5.738   4.638
 6925SOL    HW121674   3.950   5.654   4.693
 6925SOL    HW221675   3.860   5.753   4.599
 6926SOL     OW21676   3.110   3.056   2.488
 6926SOL    HW121677   3.156   2.969   2.474
 6926SOL    HW221678   3.121   3.113   2.406
 6927SOL     OW21679   4.860   3.454   5.647
 6927SOL    HW121680   4.882   3.499   5.733
 6927SOL    HW221681   4.891   3.359   5.650
 6928SOL     OW21682   6.524   6.541   1.240
 6928SOL    HW121683   6.556   6.631   1.269
 6928SOL    HW221684   6.596   6.495   1.188
 6929SOL     OW21685   4.860   5.291   1.201
 6929SOL    HW121686   4.831   5.333   1.288
 6929SOL    HW221687   4.871   5.363   1.133
 6930SOL     OW21688   0.238   0.185   1.643
 6930SOL    HW121689   0.257   0.243   1.722
 6930SOL    HW221690   0.316   0.188   1.581
 6931SOL     OW21691   1.270   0.984   2.347
 6931SOL    HW121692   1.231   0.996   2.439
 6931SOL    HW221693   1.339   0.913   2.350
 6932SOL     OW21694   4.177   0.452   1.085
 6932SOL    HW121695   4.151   0.399   1.004
 6932SOL    HW221696   4.270   0.486   1.074
 6933SOL     OW21697   3.125   5.805   5.343
 6933SOL    HW121698   3.132   5.819   5.244
 6933SOL    HW221699   3.206   5.842   5.388
 6934SOL     OW21700   5.208   4.255   6.288
 6934SOL    HW121701   5.125   4.275   6.236
 6934SOL    HW221702   5.287   4.254   6.227
 6935SOL     OW21703   4.565   6.173   3.707
 6935SOL    HW121704   4.512   6.093   3.734
 6935SOL    HW221705   4.595   6.223   3.789
 6936SOL     OW21706   6.557   2.805   2.913
 6936SOL    HW121707   6.655   2.794   2.898
 6936SOL    HW221708   6.519   2.720   2.951
 6937SOL     OW21709   6.511   6.195   0.190
 6937SOL    HW121710   6.580   6.125   0.173
 6937SOL    HW221711   6.519   6.268   0.121
 6938SOL     OW21712   4.795   3.805   5.334
 6938SOL    HW121713   4.731   3.754   5.276
 6938SOL    HW221714   4.850   3.741   5.388
 6939SOL     OW21715   0.338   4.443   1.171
 6939SOL    HW121716   0.419   4.501   1.177
 6939SOL    HW221717   0.343   4.388   1.088
 6940SOL     OW21718   5.072   0.934   0.396
 6940SOL    HW121719   5.042   0.894   0.309
 6940SOL    HW221720   5.140   0.874   0.438
 6941SOL     OW21721   3.286   3.001   3.295
 6941SOL    HW121722   3.294   2.954   3.383
 6941SOL    HW221723   3.358   2.968   3.234
 6942SOL     OW21724   6.435   2.753   0.605
 6942SOL    HW121725   6.339   2.725   0.610
 6942SOL    HW221726   6.463   2.794   0.691
 6943SOL     OW21727   5.080   6.485   0.108
 6943SOL    HW121728   5.168   6.452   0.074
 6943SOL    HW221729   5.096   6.555   0.178
 6944SOL     OW21730   1.609   4.152   6.077
 6944SOL    HW121731   1.669   4.193   6.009
 6944SOL    HW221732   1.640   4.178   6.169
 6945SOL     OW21733   5.701   3.056   6.358
 6945SOL    HW121734   5.756   3.140   6.364
 6945SOL    HW221735   5.605   3.078   6.370
 6946SOL     OW21736   6.292   6.488   1.775
 6946SOL    HW121737   6.344   6.551   1.718
 6946SOL    HW221738   6.323   6.494   1.869
 6947SOL     OW21739   3.263   6.856   5.880
 6947SOL    HW121740   3.218   6.913   5.948
 6947SOL    HW221741   3.350   6.822   5.916
 6948SOL     OW21742   5.957   0.665   6.672
 6948SOL    HW121743   5.970   0.657   6.573
 6948SOL    HW221744   6.044   0.652   6.718
 6949SOL     OW21745   5.387   6.970   4.234
 6949SOL    HW121746   5.320   7.009   4.171
 6949SOL    HW221747   5.406   0.012   4.307
 6950SOL     OW21748   1.760   0.521   4.004
 6950SOL    HW121749   1.858   0.525   3.983
 6950SOL    HW221750   1.714   0.602   3.969
 6951SOL     OW21751   6.367   6.349   6.072
 6951SOL    HW121752   6.318   6.287   6.012
 6951SOL    HW221753   6.459   6.366   6.036
 6952SOL     OW21754   7.011   5.988   4.107
 6952SOL    HW121755   0.006   6.024   4.015
 6952SOL    HW221756   6.920   6.019   4.137
 6953SOL     OW21757   4.538   0.218   6.602
 6953SOL    HW121758   4.592   0.152   6.655
 6953SOL    HW221759   4.482   0.273   6.663
 6954SOL     OW21760   0.460   4.093   4.272
 6954SOL    HW121761   0.426   4.077   4.364
 6954SOL    HW221762   0.401   4.160   4.226
 6955SOL     OW21763   6.903   0.993   2.567
 6955SOL    HW121764   6.872   0.938   2.645
 6955SOL    HW221765   6.832   1.057   2.540
 6956SOL     OW21766   4.726   5.974   2.956
 6956SOL    HW121767   4.631   5.956   2.930
 6956SOL    HW221768   4.751   5.915   3.033
 6957SOL     OW21769   5.608   4.889   1.099
 6957SOL    HW121770   5.638   4.833   1.177
 6957SOL    HW221771   5.575   4.829   1.026
 6958SOL     OW21772   3.007   3.866   5.055
 6958SOL    HW121773   2.992   3.879   4.957
 6958SOL    HW221774   3.034   3.953   5.096
 6959SOL     OW21775   2.611   1.295   4.632
 6959SOL    HW121776   2.581   1.390   4.631
 6959SOL    HW221777   2.620   1.262   4.538
 6960SOL     OW21778   1.326   5.231   1.244
 6960SOL    HW121779   1.395   5.301   1.226
 6960SOL    HW221780   1.354   5.177   1.324
 6961SOL     OW21781   6.530   2.921   4.528
 6961SOL    HW121782   6.624   2.899   4.554
 6961SOL    HW221783   6.498   2.855   4.461
 6962SOL     OW21784   5.177   5.998   2.385
 6962SOL    HW121785   5.253   5.941   2.415
 6962SOL    HW221786   5.210   6.068   2.321
 6963SOL     OW21787   6.777   5.282   0.952
 6963SOL    HW121788   6.792   5.184   0.938
 6963SOL    HW221789   6.865   5.328   0.963
 6964SOL     OW21790   3.891   5.254   4.868
 6964SOL    HW121791   3.918   5.332   4.812
 6964SOL    HW221792   3.791   5.245   4.867
 6965SOL     OW21793   0.661   3.484   6.512
 6965SOL    HW121794   0.576   3.433   6.502
 6965SOL    HW221795   0.696   3.473   6.605
 6966SOL     OW21796   0.001   2.125   3.460
 6966SOL    HW121797   0.054   2.210   3.450
 6966SOL    HW221798   0.063   2.048   3.467
 6967SOL     OW21799   1.562   0.456   5.485
 6967SOL    HW121800   1.568   0.540   5.539
 6967SOL    HW221801   1.599   0.380   5.538
 6968SOL     OW21802   3.967   6.679   2.810
 6968SOL    HW121803   3.927   6.589   2.830
 6968SOL    HW221804   3.976   6.730   2.896
 6969SOL     OW21805   3.257   2.117   1.130
 6969SOL    HW121806   3.176   2.093   1.185
 6969SOL    HW221807   3.338   2.114   1.188
 6970SOL     OW21808   4.277   3.807   6.676
 6970SOL    HW121809   4.236   3.894   6.647
 6970SOL    HW221810   4.258   3.737   6.607
 6971SOL     OW21811   6.831   4.526   1.343
 6971SOL    HW121812   6.770   4.578   1.403
 6971SOL    HW221813   6.846   4.576   1.258
 6972SOL     OW21814   5.340   4.819   3.926
 6972SOL    HW121815   5.368   4.891   3.990
 6972SOL    HW221816   5.295   4.745   3.976
 6973SOL     OW21817   1.079   3.697   5.789
 6973SOL    HW121818   1.161   3.662   5.834
 6973SOL    HW221819   1.023   3.621   5.756
 6974SOL     OW21820   3.809   2.967   3.189
 6974SOL    HW121821   3.779   3.044   3.132
 6974SOL    HW221822   3.824   2.887   3.132
 6975SOL     OW21823   2.335   6.155   5.755
 6975SOL    HW121824   2.345   6.182   5.850
 6975SOL    HW221825   2.342   6.055   5.748
 6976SOL     OW21826   4.453   5.222   5.155
 6976SOL    HW121827   4.423   5.315   5.130
 6976SOL    HW221828   4.432   5.159   5.080
 6977SOL     OW21829   4.425   2.558   1.825
 6977SOL    HW121830   4.352   2.615   1.785
 6977SOL    HW221831   4.513   2.584   1.784
 6978SOL     OW21832   5.113   1.624   1.999
 6978SOL    HW121833   5.059   1.704   2.024
 6978SOL    HW221834   5.091   1.595   1.906
 6979SOL     OW21835   1.139   4.558   0.971
 6979SOL    HW121836   1.208   4.607   1.023
 6979SOL    HW221837   1.169   4.464   0.957
 6980SOL     OW21838   1.306   1.433   3.922
 6980SOL    HW121839   1.364   1.398   3.996
 6980SOL    HW221840   1.310   1.369   3.844
 6981SOL     OW21841   2.856   3.136   6.146
 6981SOL    HW121842   2.944   3.182   6.154
 6981SOL    HW221843   2.790   3.178   6.207
 6982SOL     OW21844   1.536   1.047   4.440
 6982SOL    HW121845   1.624   1.000   4.443
 6982SOL    HW221846   1.544   1.128   4.381
 6983SOL     OW21847   5.204   2.161   3.887
 6983SOL    HW121848   5.158   2.181   3.974
 6983SOL    HW221849   5.161   2.214   3.814
 6984SOL     OW21850   2.400   2.074   4.229
 6984SOL    HW121851   2.415   1.979   4.255
 6984SOL    HW221852   2.477   2.130   4.260
 6985SOL     OW21853   4.176   5.369   1.151
 6985SOL    HW121854   4.230   5.453   1.149
 6985SOL    HW221855   4.091   5.383   1.099
 6986SOL     OW21856   2.164   6.111   6.536
 6986SOL    HW121857   2.090   6.046   6.548
 6986SOL    HW221858   2.234   6.096   6.606
 6987SOL     OW21859   0.321   1.784   6.215
 6987SOL    HW121860   0.329   1.724   6.295
 6987SOL    HW221861   0.226   1.787   6.185
 6988SOL     OW21862   6.462   0.956   5.421
 6988SOL    HW121863   6.432   1.042   5.381
 6988SOL    HW221864   6.531   0.913   5.362
 6989SOL     OW21865   0.478   3.669   4.296
 6989SOL    HW121866   0.556   3.683   4.236
 6989SOL    HW221867   0.438   3.578   4.279
 6990SOL     OW21868   4.895   2.133   1.611
 6990SOL    HW121869   4.985   2.167   1.581
 6990SOL    HW221870   4.867   2.182   1.693
 6991SOL     OW21871   3.093   4.976   3.807
 6991SOL    HW121872   3.182   4.939   3.781
 6991SOL    HW221873   3.085   5.070   3.775
 6992SOL     OW21874   5.378   0.074   5.461
 6992SOL    HW121875   5.389   0.013   5.383
 6992SOL    HW221876   5.468   0.104   5.493
 6993SOL     OW21877   0.039   1.345   3.389
 6993SOL    HW121878   0.020   1.287   3.310
 6993SOL    HW221879   7.020   1.305   3.471
 6994SOL     OW21880   0.800   3.344   4.832
 6994SOL    HW121881   0.802   3.272   4.901
 6994SOL    HW221882   0.775   3.306   4.743
 6995SOL     OW21883   6.382   4.689   6.276
 6995SOL    HW121884   6.372   4.769   6.336
 6995SOL    HW221885   6.351   4.713   6.183
 6996SOL     OW21886   2.621   0.223   6.811
 6996SOL    HW121887   2.583   0.207   6.719
 6996SOL    HW221888   2.548   0.214   6.879
 6997SOL     OW21889   5.706   6.540   5.609
 6997SOL    HW121890   5.748   6.479   5.677
 6997SOL    HW221891   5.632   6.591   5.652
 6998SOL     OW21892   2.025   2.265   0.975
 6998SOL    HW121893   2.124   2.256   0.976
 6998SOL    HW221894   1.985   2.195   0.916
 6999SOL     OW21895   2.624   2.583   5.808
 6999SOL    HW121896   2.661   2.545   5.893
 6999SOL    HW221897   2.699   2.615   5.750
 7000SOL     OW21898   6.393   6.284   1.652
 7000SOL    HW121899   6.468   6.315   1.593
 7000SOL    HW221900   6.359   6.362   1.705
 7001SOL     OW21901   2.277   3.141   5.363
 7001SOL    HW121902   2.359   3.134   5.305
 7001SOL    HW221903   2.256   3.051   5.402
 7002SOL     OW21904   2.292   5.304   2.713
 7002SOL    HW121905   2.382   5.347   2.702
 7002SOL    HW221906   2.239   5.354   2.782
 7003SOL     OW21907   4.446   5.718   0.018
 7003SOL    HW121908   4.493   5.787   6.985
 7003SOL    HW221909   4.456   5.629   6.998
 7004SOL     OW21910   2.069   4.854   2.008
 7004SOL    HW121911   1.999   4.799   1.962
 7004SOL    HW221912   2.051   4.951   1.992
 7005SOL     OW21913   1.591   6.434   0.179
 7005SOL    HW121914   1.510   6.409   0.126
 7005SOL    HW221915   1.651   6.491   0.123
 7006SOL     OW21916   5.180   4.748   4.451
 7006SOL    HW121917   5.219   4.828   4.404
 7006SOL    HW221918   5.104   4.778   4.509
 7007SOL     OW21919   4.520   6.456   3.885
 7007SOL    HW121920   4.567   6.490   3.803
 7007SOL    HW221921   4.513   6.530   3.952
 7008SOL     OW21922   1.613   4.547   5.257
 7008SOL    HW121923   1.694   4.504   5.217
 7008SOL    HW221924   1.552   4.577   5.184
 7009SOL     OW21925   6.489   5.746   2.356
 7009SOL    HW121926   6.503   5.837   2.395
 7009SOL    HW221927   6.445   5.687   2.423
 7010SOL     OW21928   4.786   4.577   5.845
 7010SOL    HW121929   4.779   4.674   5.821
 7010SOL    HW221930   4.777   4.566   5.944
 7011SOL     OW21931   3.115   0.001   6.045
 7011SOL    HW121932   3.061   6.976   6.114
 7011SOL    HW221933   3.126   0.096   6.071
 7012SOL     OW21934   1.701   1.108   2.661
 7012SOL    HW121935   1.627   1.164   2.623
 7012SOL    HW221936   1.766   1.168   2.709
 7013SOL     OW21937   0.596   0.627   0.691
 7013SOL    HW121938   0.528   0.613   0.763
 7013SOL    HW221939   0.649   0.543   0.679
 7014SOL     OW21940   4.575   3.065   1.282
 7014SOL    HW121941   4.616   3.150   1.247
 7014SOL    HW221942   4.608   3.049   1.375
 7015SOL     OW21943   5.926   4.604   2.394
 7015SOL    HW121944   5.885   4.590   2.305
 7015SOL    HW221945   5.909   4.525   2.452
 7016SOL     OW21946   3.679   4.789   1.573
 7016SOL    HW121947   3.611   4.860   1.556
 7016SOL    HW221948   3.646   4.729   1.647
 7017SOL     OW21949   2.462   6.840   2.704
 7017SOL    HW121950   2.535   6.797   2.757
 7017SOL    HW221951   2.391   6.874   2.766
 7018SOL     OW21952   6.190   4.678   4.314
 7018SOL    HW121953   6.220   4.747   4.380
 7018SOL    HW221954   6.228   4.589   4.339
 7019SOL     OW21955   2.288   3.831   6.396
 7019SOL    HW121956   2.366   3.878   6.356
 7019SOL    HW221957   2.282   3.854   6.494
 7020SOL     OW21958   6.425   6.999   6.647
 7020SOL    HW121959   6.345   6.952   6.610
 7020SOL    HW221960   6.432   0.067   6.607
 7021SOL     OW21961   1.613   1.442   5.804
 7021SOL    HW121962   1.630   1.440   5.706
 7021SOL    HW221963   1.572   1.355   5.833
 7022SOL     OW21964   4.749   5.881   0.552
 7022SOL    HW121965   4.777   5.789   0.578
 7022SOL    HW221966   4.830   5.937   0.535
 7023SOL     OW21967   0.628   1.811   3.727
 7023SOL    HW121968   0.712   1.864   3.739
 7023SOL    HW221969   0.646   1.715   3.747
 7024SOL     OW21970   1.506   3.992   5.671
 7024SOL    HW121971   1.536   4.085   5.689
 7024SOL    HW221972   1.407   3.990   5.657
 7025SOL     OW21973   2.551   1.143   6.977
 7025SOL    HW121974   2.529   1.126   6.881
 7025SOL    HW221975   2.474   1.116   0.011
 7026SOL     OW21976   3.204   1.695   2.391
 7026SOL    HW121977   3.264   1.734   2.321
 7026SOL    HW221978   3.119   1.747   2.395
 7027SOL     OW21979   2.703   5.129   3.870
 7027SOL    HW121980   2.683   5.181   3.787
 7027SOL    HW221981   2.787   5.165   3.911
 7028SOL     OW21982   4.593   0.041   4.489
 7028SOL    HW121983   4.517   0.005   4.434
 7028SOL    HW221984   4.646   6.988   4.526
 7029SOL     OW21985   4.921   5.602   5.784
 7029SOL    HW121986   4.892   5.660   5.859
 7029SOL    HW221987   4.972   5.523   5.820
 7030SOL     OW21988   0.204   1.957   4.866
 7030SOL    HW121989   0.272   2.030   4.865
 7030SOL    HW221990   0.240   1.879   4.916
 7031SOL     OW21991   1.600   6.376   5.068
 7031SOL    HW121992   1.617   6.461   5.017
 7031SOL    HW221993   1.539   6.395   5.145
 7032SOL     OW21994   3.747   0.243   3.608
 7032SOL    HW121995   3.739   0.144   3.594
 7032SOL    HW221996   3.677   0.289   3.554
 7033SOL     OW21997   1.477   2.402   3.413
 7033SOL    HW121998   1.433   2.466   3.476
 7033SOL    HW221999   1.562   2.368   3.455
 7034SOL     OW22000   6.559   0.139   3.365
 7034SOL    HW122001   6.509   0.068   3.413
 7034SOL    HW222002   6.530   0.141   3.269
 7035SOL     OW22003   1.568   6.176   1.582
 7035SOL    HW122004   1.605   6.091   1.545
 7035SOL    HW222005   1.485   6.201   1.532
 7036SOL     OW22006   0.101   0.826   2.985
 7036SOL    HW122007   0.153   0.849   2.902
 7036SOL    HW222008   0.091   0.908   3.042
 7037SOL     OW22009   1.694   0.373   6.458
 7037SOL    HW122010   1.775   0.335   6.412
 7037SOL    HW222011   1.692   0.472   6.447
 7038SOL     OW22012   1.514   2.962   4.400
 7038SOL    HW122013   1.586   2.896   4.423
 7038SOL    HW222014   1.525   2.991   4.304
 7039SOL     OW22015   2.842   4.860   1.522
 7039SOL    HW122016   2.757   4.813   1.497
 7039SOL    HW222017   2.824   4.958   1.534
 7040SOL     OW22018   5.971   1.855   4.841
 7040SOL    HW122019   6.004   1.890   4.929
 7040SOL    HW222020   6.001   1.761   4.830
 7041SOL     OW22021   1.043   2.411   1.424
 7041SOL    HW122022   0.984   2.483   1.459
 7041SOL    HW222023   1.104   2.379   1.497
 7042SOL     OW22024   5.490   5.925   5.984
 7042SOL    HW122025   5.414   5.887   5.931
 7042SOL    HW222026   5.514   5.862   6.058
 7043SOL     OW22027   2.114   3.449   2.469
 7043SOL    HW122028   2.079   3.363   2.506
 7043SOL    HW222029   2.096   3.453   2.370
 7044SOL     OW22030   4.791   5.533   3.048
 7044SOL    HW122031   4.808   5.511   2.952
 7044SOL    HW222032   4.734   5.462   3.089
 7045SOL     OW22033   5.135   5.812   2.816
 7045SOL    HW122034   5.093   5.783   2.902
 7045SOL    HW222035   5.070   5.868   2.764
 7046SOL     OW22036   3.465   1.753   2.845
 7046SOL    HW122037   3.502   1.661   2.834
 7046SOL    HW222038   3.520   1.804   2.912
 7047SOL     OW22039   1.008   2.357   1.901
 7047SOL    HW122040   0.913   2.354   1.867
 7047SOL    HW222041   1.018   2.295   1.978
 7048SOL     OW22042   6.740   6.064   2.669
 7048SOL    HW122043   6.836   6.076   2.643
 7048SOL    HW222044   6.717   6.129   2.741
 7049SOL     OW22045   3.564   1.893   0.943
 7049SOL    HW122046   3.505   1.861   1.017
 7049SOL    HW222047   3.549   1.837   0.862
 7050SOL     OW22048   4.122   3.666   2.352
 7050SOL    HW122049   4.102   3.763   2.337
 7050SOL    HW222050   4.145   3.651   2.448
 7051SOL     OW22051   0.333   0.417   0.966
 7051SOL    HW122052   0.352   0.509   0.999
 7051SOL    HW222053   0.416   0.361   0.975
 7052SOL     OW22054   5.876   2.794   3.652
 7052SOL    HW122055   5.865   2.736   3.571
 7052SOL    HW222056   5.892   2.737   3.732
 7053SOL     OW22057   0.958   3.947   5.067
 7053SOL    HW122058   0.881   3.987   5.017
 7053SOL    HW222059   0.958   3.982   5.161
 7054SOL     OW22060   0.715   6.450   0.621
 7054SOL    HW122061   0.747   6.472   0.713
 7054SOL    HW222062   0.747   6.519   0.557
 7055SOL     OW22063   3.365   5.899   5.395
 7055SOL    HW122064   3.455   5.878   5.357
 7055SOL    HW222065   3.375   5.938   5.487
 7056SOL     OW22066   5.907   5.473   2.227
 7056SOL    HW122067   5.862   5.412   2.292
 7056SOL    HW222068   5.988   5.428   2.190
 7057SOL     OW22069   0.809   5.958   3.516
 7057SOL    HW122070   0.828   6.018   3.438
 7057SOL    HW222071   0.741   5.890   3.489
 7058SOL     OW22072   7.002   5.955   6.233
 7058SOL    HW122073   6.994   5.891   6.310
 7058SOL    HW222074   7.019   5.904   6.149
 7059SOL     OW22075   6.626   0.674   4.179
 7059SOL    HW122076   6.538   0.628   4.161
 7059SOL    HW222077   6.630   0.701   4.275
 7060SOL     OW22078   3.840   6.987   1.620
 7060SOL    HW122079   3.749   0.003   1.633
 7060SOL    HW222080   3.857   6.976   1.522
 7061SOL     OW22081   0.724   3.321   3.735
 7061SOL    HW122082   0.663   3.379   3.790
 7061SOL    HW222083   0.760   3.374   3.659
 7062SOL     OW22084   5.301   1.282   5.643
 7062SOL    HW122085   5.205   1.273   5.667
 7062SOL    HW222086   5.309   1.322   5.551
 7063SOL     OW22087   0.832   0.533   1.414
 7063SOL    HW122088   0.823   0.544   1.315
 7063SOL    HW222089   0.927   0.511   1.437
 7064SOL     OW22090   4.244   1.973   2.078
 7064SOL    HW122091   4.154   1.940   2.105
 7064SOL    HW222092   4.284   1.910   2.011
 7065SOL     OW22093   4.206   3.768   6.347
 7065SOL    HW122094   4.252   3.853   6.372
 7065SOL    HW222095   4.221   3.750   6.249
 7066SOL     OW22096   4.294   6.849   0.553
 7066SOL    HW122097   4.320   6.923   0.491
 7066SOL    HW222098   4.195   6.844   0.559
 7067SOL     OW22099   1.856   2.037   5.511
 7067SOL    HW122100   1.868   2.054   5.608
 7067SOL    HW222101   1.911   2.102   5.458
 7068SOL     OW22102   0.248   4.216   4.109
 7068SOL    HW122103   0.286   4.308   4.116
 7068SOL    HW222104   0.149   4.220   4.123
 7069SOL     OW22105   5.751   1.517   4.132
 7069SOL    HW122106   5.802   1.601   4.153
 7069SOL    HW222107   5.693   1.532   4.053
 7070SOL     OW22108   6.202   6.253   4.824
 7070SOL    HW122109   6.290   6.219   4.857
 7070SOL    HW222110   6.181   6.341   4.866
 7071SOL     OW22111   1.928   5.967   6.535
 7071SOL    HW122112   1.904   6.061   6.508
 7071SOL    HW222113   1.845   5.918   6.561
 7072SOL     OW22114   1.074   6.684   7.006
 7072SOL    HW122115   0.986   6.636   7.014
 7072SOL    HW222116   1.135   6.654   0.057
 7073SOL     OW22117   4.998   0.041   4.612
 7073SOL    HW122118   5.025   0.059   4.517
 7073SOL    HW222119   5.008   0.125   4.665
 7074SOL     OW22120   4.745   2.001   2.122
 7074SOL    HW122121   4.692   1.966   2.045
 7074SOL    HW222122   4.771   2.096   2.105
 7075SOL     OW22123   1.724   5.225   4.985
 7075SOL    HW122124   1.822   5.230   5.003
 7075SOL    HW222125   1.684   5.151   5.039
 7076SOL     OW22126   5.804   2.049   6.924
 7076SOL    HW122127   5.880   2.018   6.867
 7076SOL    HW222128   5.719   2.008   6.892
 7077SOL     OW22129   2.448   4.469   4.147
 7077SOL    HW122130   2.372   4.527   4.116
 7077SOL    HW222131   2.533   4.500   4.105
 7078SOL     OW22132   0.393   6.920   1.336
 7078SOL    HW122133   0.318   6.955   1.280
 7078SOL    HW222134   0.355   6.861   1.408
 7079SOL     OW22135   6.617   6.136   4.863
 7079SOL    HW122136   6.624   6.201   4.787
 7079SOL    HW222137   6.663   6.173   4.943
 7080SOL     OW22138   2.620   2.445   3.926
 7080SOL    HW122139   2.567   2.530   3.927
 7080SOL    HW222140   2.665   2.433   4.015
 7081SOL     OW22141   2.945   1.013   6.840
 7081SOL    HW122142   3.004   1.079   6.794
 7081SOL    HW222143   2.915   0.943   6.774
 7082SOL     OW22144   5.988   4.693   6.984
 7082SOL    HW122145   6.067   4.745   7.017
 7082SOL    HW222146   5.922   4.683   0.036
 7083SOL     OW22147   2.559   0.735   0.454
 7083SOL    HW122148   2.477   0.706   0.503
 7083SOL    HW222149   2.566   0.684   0.368
 7084SOL     OW22150   0.291   6.710   5.489
 7084SOL    HW122151   0.299   6.791   5.431
 7084SOL    HW222152   0.375   6.656   5.483
 7085SOL     OW22153   1.147   2.373   1.659
 7085SOL    HW122154   1.244   2.394   1.667
 7085SOL    HW222155   1.103   2.384   1.748
 7086SOL     OW22156   5.318   0.962   5.274
 7086SOL    HW122157   5.324   1.058   5.246
 7086SOL    HW222158   5.225   0.942   5.304
 7087SOL     OW22159   6.456   3.467   3.774
 7087SOL    HW122160   6.370   3.518   3.768
 7087SOL    HW222161   6.445   3.390   3.837
 7088SOL     OW22162   5.442   2.874   3.263
 7088SOL    HW122163   5.412   2.848   3.355
 7088SOL    HW222164   5.365   2.865   3.200
 7089SOL     OW22165   3.184   2.120   4.750
 7089SOL    HW122166   3.163   2.167   4.836
 7089SOL    HW222167   3.162   2.181   4.673
 7090SOL     OW22168   2.509   0.762   6.577
 7090SOL    HW122169   2.421   0.803   6.600
 7090SOL    HW222170   2.523   0.766   6.478
 7091SOL     OW22171   0.156   1.508   6.871
 7091SOL    HW122172   0.240   1.517   6.818
 7091SOL    HW222173   0.129   1.598   6.905
 7092SOL     OW22174   4.441   2.749   6.089
 7092SOL    HW122175   4.472   2.775   6.180
 7092SOL    HW222176   4.341   2.747   6.087
 7093SOL     OW22177   2.988   3.926   3.665
 7093SOL    HW122178   2.969   3.885   3.754
 7093SOL    HW222179   3.013   4.022   3.677
 7094SOL     OW22180   0.687   5.949   6.356
 7094SOL    HW122181   0.653   5.908   6.271
 7094SOL    HW222182   0.769   6.003   6.336
 7095SOL     OW22183   2.818   3.564   5.984
 7095SOL    HW122184   2.848   3.656   6.010
 7095SOL    HW222185   2.785   3.565   5.890
 7096SOL     OW22186   5.982   0.927   3.782
 7096SOL    HW122187   5.967   0.914   3.880
 7096SOL    HW222188   6.066   0.980   3.768
 7097SOL     OW22189   5.856   1.269   1.245
 7097SOL    HW122190   5.876   1.346   1.305
 7097SOL    HW222191   5.909   1.189   1.274
 7098SOL     OW22192   1.058   0.219   4.773
 7098SOL    HW122193   0.990   0.165   4.724
 7098SOL    HW222194   1.057   0.313   4.740
 7099SOL     OW22195   2.576   0.636   5.022
 7099SOL    HW122196   2.618   0.655   4.933
 7099SOL    HW222197   2.500   0.573   5.010
 7100SOL     OW22198   5.447   2.437   1.294
 7100SOL    HW122199   5.372   2.374   1.313
 7100SOL    HW222200   5.410   2.527   1.269
 7101SOL     OW22201   2.249   1.249   5.106
 7101SOL    HW122202   2.220   1.316   5.038
 7101SOL    HW222203   2.168   1.209   5.150
 7102SOL     OW22204   4.374   0.318   0.793
 7102SOL    HW122205   4.382   0.409   0.834
 7102SOL    HW222206   4.448   0.260   0.826
 7103SOL     OW22207   4.579   4.925   2.096
 7103SOL    HW122208   4.624   4.916   2.006
 7103SOL    HW222209   4.602   5.014   2.135
 7104SOL     OW22210   0.399   2.762   4.540
 7104SOL    HW122211   0.338   2.773   4.618
 7104SOL    HW222212   0.364   2.816   4.463
 7105SOL     OW22213   2.797   2.801   5.378
 7105SOL    HW122214   2.829   2.769   5.467
 7105SOL    HW222215   2.737   2.731   5.337
 7106SOL     OW22216   2.937   3.759   2.835
 7106SOL    HW122217   2.865   3.764   2.904
 7106SOL    HW222218   3.016   3.813   2.865
 7107SOL     OW22219   3.262   1.699   0.226
 7107SOL    HW122220   3.219   1.789   0.235
 7107SOL    HW222221   3.207   1.631   0.275
 7108SOL     OW22222   4.154   6.311   2.693
 7108SOL    HW122223   4.126   6.382   2.628
 7108SOL    HW222224   4.079   6.248   2.709
 7109SOL     OW22225   2.619   0.846   5.744
 7109SOL    HW122226   2.618   0.769   5.807
 7109SOL    HW222227   2.668   0.922   5.785
 7110SOL     OW22228   3.761   5.503   4.451
 7110SOL    HW122229   3.663   5.504   4.472
 7110SOL    HW222230   3.774   5.470   4.357
 7111SOL     OW22231   1.354   1.923   4.167
 7111SOL    HW122232   1.415   1.987   4.119
 7111SOL    HW222233   1.408   1.865   4.227
 7112SOL     OW22234   1.217   5.435   4.497
 7112SOL    HW122235   1.270   5.511   4.534
 7112SOL    HW222236   1.120   5.450   4.514
 7113SOL     OW22237   3.593   3.982   5.179
 7113SOL    HW122238   3.640   3.924   5.113
 7113SOL    HW222239   3.502   3.944   5.197
 7114SOL     OW22240   3.622   0.124   1.648
 7114SOL    HW122241   3.625   0.220   1.622
 7114SOL    HW222242   3.526   0.093   1.652
 7115SOL     OW22243   5.743   3.074   1.801
 7115SOL    HW122244   5.651   3.043   1.824
 7115SOL    HW222245   5.792   3.001   1.753
 7116SOL     OW22246   6.114   4.377   3.124
 7116SOL    HW122247   6.178   4.438   3.077
 7116SOL    HW222248   6.090   4.300   3.065
 7117SOL     OW22249   6.865   5.908   5.135
 7117SOL    HW122250   6.922   5.887   5.056
 7117SOL    HW222251   6.890   5.997   5.172
 7118SOL     OW22252   2.740   3.633   1.008
 7118SOL    HW122253   2.795   3.716   1.017
 7118SOL    HW222254   2.697   3.612   1.096
 7119SOL     OW22255   5.444   2.077   2.882
 7119SOL    HW122256   5.485   2.141   2.817
 7119SOL    HW222257   5.393   2.127   2.951
 7120SOL     OW22258   3.909   1.805   2.746
 7120SOL    HW122259   3.878   1.763   2.660
 7120SOL    HW222260   3.896   1.740   2.821
 7121SOL     OW22261   2.058   6.799   3.107
 7121SOL    HW122262   2.035   6.754   3.021
 7121SOL    HW222263   2.125   6.743   3.157
 7122SOL     OW22264   0.987   6.861   6.014
 7122SOL    HW122265   0.920   6.860   5.940
 7122SOL    HW222266   1.052   6.936   5.999
 7123SOL     OW22267   2.120   4.505   3.233
 7123SOL    HW122268   2.105   4.437   3.162
 7123SOL    HW222269   2.151   4.591   3.192
 7124SOL     OW22270   6.985   2.218   0.908
 7124SOL    HW122271   0.040   2.263   0.865
 7124SOL    HW222272   7.005   2.197   1.003
 7125SOL     OW22273   6.621   6.988   0.631
 7125SOL    HW122274   6.563   6.934   0.691
 7125SOL    HW222275   6.572   0.047   0.602
 7126SOL     OW22276   3.174   5.446   0.207
 7126SOL    HW122277   3.182   5.389   0.125
 7126SOL    HW222278   3.224   5.531   0.193
 7127SOL     OW22279   1.533   5.432   5.345
 7127SOL    HW122280   1.583   5.365   5.399
 7127SOL    HW222281   1.587   5.457   5.264
 7128SOL     OW22282   3.221   4.655   0.464
 7128SOL    HW122283   3.201   4.668   0.367
 7128SOL    HW222284   3.137   4.634   0.514
 7129SOL     OW22285   2.046   1.293   6.993
 7129SOL    HW122286   2.074   1.324   0.061
 7129SOL    HW222287   2.125   1.298   6.931
 7130SOL     OW22288   4.162   5.627   5.498
 7130SOL    HW122289   4.180   5.578   5.413
 7130SOL    HW222290   4.245   5.675   5.527
 7131SOL     OW22291   2.532   0.656   1.052
 7131SOL    HW122292   2.618   0.626   1.010
 7131SOL    HW222293   2.522   0.612   1.141
 7132SOL     OW22294   3.804   3.854   6.813
 7132SOL    HW122295   3.827   3.832   6.718
 7132SOL    HW222296   3.762   3.945   6.817
 7133SOL     OW22297   5.480   5.430   5.536
 7133SOL    HW122298   5.475   5.453   5.439
 7133SOL    HW222299   5.513   5.509   5.587
 7134SOL     OW22300   5.901   6.719   2.009
 7134SOL    HW122301   5.811   6.749   2.041
 7134SOL    HW222302   5.893   6.628   1.968
 7135SOL     OW22303   1.085   3.463   3.397
 7135SOL    HW122304   1.072   3.476   3.299
 7135SOL    HW222305   1.128   3.374   3.413
 7136SOL     OW22306   2.250   2.693   0.881
 7136SOL    HW122307   2.226   2.634   0.804
 7136SOL    HW222308   2.318   2.648   0.938
 7137SOL     OW22309   3.725   0.062   6.882
 7137SOL    HW122310   3.820   0.092   6.875
 7137SOL    HW222311   3.688   0.091   6.970
 7138SOL     OW22312   1.452   2.249   0.007
 7138SOL    HW122313   1.478   2.344   0.022
 7138SOL    HW222314   1.361   2.245   6.990
 7139SOL     OW22315   5.587   3.536   1.824
 7139SOL    HW122316   5.652   3.529   1.748
 7139SOL    HW222317   5.580   3.447   1.870
 7140SOL     OW22318   5.675   4.658   4.010
 7140SOL    HW122319   5.612   4.600   4.062
 7140SOL    HW222320   5.701   4.737   4.065
 7141SOL     OW22321   3.597   6.190   1.885
 7141SOL    HW122322   3.649   6.209   1.968
 7141SOL    HW222323   3.520   6.254   1.879
 7142SOL     OW22324   4.406   0.610   3.350
 7142SOL    HW122325   4.338   0.551   3.393
 7142SOL    HW222326   4.409   0.698   3.398
 7143SOL     OW22327   1.151   2.259   6.484
 7143SOL    HW122328   1.108   2.261   6.394
 7143SOL    HW222329   1.125   2.175   6.532
 7144SOL     OW22330   1.839   2.315   2.112
 7144SOL    HW122331   1.771   2.247   2.085
 7144SOL    HW222332   1.915   2.312   2.048
 7145SOL     OW22333   4.123   6.871   6.978
 7145SOL    HW122334   4.184   6.911   0.023
 7145SOL    HW222335   4.028   6.888   7.004
 7146SOL     OW22336   1.931   0.437   1.278
 7146SOL    HW122337   1.933   0.537   1.270
 7146SOL    HW222338   1.947   0.396   1.188
 7147SOL     OW22339   0.334   6.862   3.427
 7147SOL    HW122340   0.278   6.826   3.352
 7147SOL    HW222341   0.401   6.926   3.390
 7148SOL     OW22342   0.818   6.186   0.614
 7148SOL    HW122343   0.745   6.250   0.589
 7148SOL    HW222344   0.805   6.156   0.709
 7149SOL     OW22345   5.933   6.810   3.170
 7149SOL    HW122346   6.027   6.846   3.171
 7149SOL    HW222347   5.928   6.730   3.110
 7150SOL     OW22348   3.447   2.083   2.439
 7150SOL    HW122349   3.469   2.071   2.342
 7150SOL    HW222350   3.494   2.013   2.493
 7151SOL     OW22351   1.911   6.139   0.810
 7151SOL    HW122352   1.862   6.156   0.896
 7151SOL    HW222353   2.001   6.101   0.831
 7152SOL     OW22354   1.119   1.016   4.991
 7152SOL    HW122355   1.080   1.017   4.899
 7152SOL    HW222356   1.214   0.983   4.987
 7153SOL     OW22357   3.345   5.185   1.985
 7153SOL    HW122358   3.372   5.183   2.082
 7153SOL    HW222359   3.423   5.212   1.929
 7154SOL     OW22360   3.716   0.442   3.797
 7154SOL    HW122361   3.637   0.501   3.814
 7154SOL    HW222362   3.701   0.390   3.712
 7155SOL     OW22363   1.997   3.241   1.626
 7155SOL    HW122364   2.084   3.258   1.578
 7155SOL    HW222365   2.016   3.204   1.717
 7156SOL     OW22366   6.975   3.993   4.681
 7156SOL    HW122367   0.008   4.070   4.649
 7156SOL    HW222368   0.004   3.940   4.748
 7157SOL     OW22369   6.023   3.958   1.898
 7157SOL    HW122370   6.076   4.031   1.941
 7157SOL    HW222371   6.073   3.872   1.905
 7158SOL     OW22372   1.191   6.877   2.858
 7158SOL    HW122373   1.127   6.823   2.912
 7158SOL    HW222374   1.140   6.934   2.794
 7159SOL     OW22375   0.603   4.767   2.360
 7159SOL    HW122376   0.594   4.801   2.266
 7159SOL    HW222377   0.558   4.679   2.368
 7160SOL     OW22378   5.176   6.911   3.006
 7160SOL    HW122379   5.132   6.990   3.048
 7160SOL    HW222380   5.110   6.863   2.948
 7161SOL     OW22381   3.110   3.544   4.417
 7161SOL    HW122382   3.035   3.608   4.402
 7161SOL    HW222383   3.197   3.593   4.416
 7162SOL     OW22384   1.561   5.445   6.486
 7162SOL    HW122385   1.499   5.405   6.553
 7162SOL    HW222386   1.527   5.535   6.459
 7163SOL     OW22387   2.470   6.465   3.082
 7163SOL    HW122388   2.401   6.432   3.147
 7163SOL    HW222389   2.495   6.391   3.019
 7164SOL     OW22390   1.846   0.784   3.391
 7164SOL    HW122391   1.765   0.787   3.449
 7164SOL    HW222392   1.907   0.711   3.423
 7165SOL     OW22393   6.856   1.292   2.133
 7165SOL    HW122394   6.855   1.305   2.034
 7165SOL    HW222395   6.841   1.195   2.153
 7166SOL     OW22396   6.168   2.704   0.692
 7166SOL    HW122397   6.136   2.611   0.676
 7166SOL    HW222398   6.173   2.721   0.791
 7167SOL     OW22399   5.338   3.343   3.778
 7167SOL    HW122400   5.366   3.372   3.870
 7167SOL    HW222401   5.242   3.315   3.780
 7168SOL     OW22402   1.754   2.637   3.357
 7168SOL    HW122403   1.839   2.655   3.307
 7168SOL    HW222404   1.767   2.559   3.418
 7169SOL     OW22405   6.665   2.507   5.132
 7169SOL    HW122406   6.711   2.567   5.197
 7169SOL    HW222407   6.719   2.424   5.120
 7170SOL     OW22408   5.083   6.400   3.598
 7170SOL    HW122409   5.041   6.355   3.677
 7170SOL    HW222410   5.057   6.352   3.514
 7171SOL     OW22411   5.117   3.387   0.012
 7171SOL    HW122412   5.210   3.351   0.005
 7171SOL    HW222413   5.068   3.371   6.949
 7172SOL     OW22414   1.493   0.156   4.835
 7172SOL    HW122415   1.413   0.116   4.879
 7172SOL    HW222416   1.538   0.220   4.897
 7173SOL     OW22417   6.814   4.561   6.029
 7173SOL    HW122418   6.817   4.482   6.090
 7173SOL    HW222419   6.905   4.603   6.025
 7174SOL     OW22420   0.453   4.552   0.410
 7174SOL    HW122421   0.421   4.595   0.325
 7174SOL    HW222422   0.492   4.621   0.470
 7175SOL     OW22423   5.391   2.376   6.605
 7175SOL    HW122424   5.291   2.370   6.602
 7175SOL    HW222425   5.421   2.388   6.699
 7176SOL     OW22426   0.437   6.788   3.056
 7176SOL    HW122427   0.359   6.724   3.059
 7176SOL    HW222428   0.417   6.861   2.991
 7177SOL     OW22429   1.832   5.718   4.589
 7177SOL    HW122430   1.901   5.783   4.623
 7177SOL    HW222431   1.843   5.707   4.490
 7178SOL     OW22432   2.336   2.270   5.740
 7178SOL    HW122433   2.288   2.210   5.675
 7178SOL    HW222434   2.420   2.226   5.770
 7179SOL     OW22435   2.187   3.819   4.298
 7179SOL    HW122436   2.204   3.743   4.362
 7179SOL    HW222437   2.099   3.805   4.253
 7180SOL     OW22438   2.543   5.116   0.411
 7180SOL    HW122439   2.457   5.105   0.460
 7180SOL    HW222440   2.619   5.102   0.474
 7181SOL     OW22441   2.206   6.145   0.333
 7181SOL    HW122442   2.142   6.214   0.367
 7181SOL    HW222443   2.299   6.174   0.352
 7182SOL     OW22444   1.363   2.573   4.977
 7182SOL    HW122445   1.419   2.655   4.995
 7182SOL    HW222446   1.287   2.597   4.917
 7183SOL     OW22447   2.386   5.888   0.427
 7183SOL    HW122448   2.438   5.942   0.361
 7183SOL    HW222449   2.293   5.876   0.394
 7184SOL     OW22450   6.624   1.287   3.429
 7184SOL    HW122451   6.626   1.359   3.500
 7184SOL    HW222452   6.607   1.329   3.340
 7185SOL     OW22453   5.174   0.575   4.943
 7185SOL    HW122454   5.216   0.656   4.983
 7185SOL    HW222455   5.200   0.494   4.996
 7186SOL     OW22456   6.580   1.156   6.640
 7186SOL    HW122457   6.498   1.211   6.631
 7186SOL    HW222458   6.569   1.092   6.716
 7187SOL     OW22459   3.462   4.569   6.554
 7187SOL    HW122460   3.558   4.593   6.535
 7187SOL    HW222461   3.408   4.577   6.471
 7188SOL     OW22462   6.798   0.448   0.547
 7188SOL    HW122463   6.882   0.465   0.495
 7188SOL    HW222464   6.731   0.519   0.525
 7189SOL     OW22465   0.361   1.260   6.017
 7189SOL    HW122466   0.400   1.175   6.053
 7189SOL    HW222467   0.397   1.338   6.068
 7190SOL     OW22468   0.147   3.786   2.639
 7190SOL    HW122469   0.156   3.883   2.616
 7190SOL    HW222470   0.074   3.775   2.706
 7191SOL     OW22471   0.633   3.972   2.646
 7191SOL    HW122472   0.717   3.919   2.646
 7191SOL    HW222473   0.610   4.001   2.739
 7192SOL     OW22474   3.346   4.792   5.595
 7192SOL    HW122475   3.294   4.877   5.607
 7192SOL    HW222476   3.318   4.748   5.509
 7193SOL     OW22477   1.942   2.588   2.099
 7193SOL    HW122478   1.845   2.564   2.110
 7193SOL    HW222479   1.978   2.619   2.187
 7194SOL     OW22480   2.778   2.015   0.592
 7194SOL    HW122481   2.796   1.978   0.501
 7194SOL    HW222482   2.864   2.040   0.635
 7195SOL     OW22483   6.842   4.483   0.262
 7195SOL    HW122484   6.828   4.414   0.192
 7195SOL    HW222485   6.830   4.575   0.223
 7196SOL     OW22486   3.547   4.243   1.182
 7196SOL    HW122487   3.615   4.304   1.221
 7196SOL    HW222488   3.498   4.196   1.255
 7197SOL     OW22489   0.458   2.518   5.470
 7197SOL    HW122490   0.428   2.450   5.403
 7197SOL    HW222491   0.396   2.597   5.468
 7198SOL     OW22492   0.510   0.691   6.920
 7198SOL    HW122493   0.478   0.754   6.849
 7198SOL    HW222494   0.435   0.670   6.982
 7199SOL     OW22495   2.019   0.949   2.900
 7199SOL    HW122496   2.020   0.950   2.800
 7199SOL    HW222497   1.926   0.937   2.933
 7200SOL     OW22498   2.868   1.928   0.312
 7200SOL    HW122499   2.858   2.006   0.251
 7200SOL    HW222500   2.891   1.847   0.259
 7201SOL     OW22501   1.061   5.768   4.132
 7201SOL    HW122502   1.004   5.705   4.185
 7201SOL    HW222503   1.100   5.836   4.193
 7202SOL     OW22504   4.308   0.493   6.094
 7202SOL    HW122505   4.399   0.456   6.115
 7202SOL    HW222506   4.319   0.577   6.041
 7203SOL     OW22507   0.206   1.902   1.018
 7203SOL    HW122508   0.169   1.909   0.925
 7203SOL    HW222509   0.131   1.902   1.084
 7204SOL     OW22510   0.365   6.940   5.823
 7204SOL    HW122511   0.289   6.996   5.790
 7204SOL    HW222512   0.372   6.949   5.922
 7205SOL     OW22513   0.790   5.552   3.681
 7205SOL    HW122514   0.803   5.453   3.686
 7205SOL    HW222515   0.843   5.597   3.752
 7206SOL     OW22516   1.663   0.385   1.421
 7206SOL    HW122517   1.583   0.441   1.401
 7206SOL    HW222518   1.740   0.417   1.366
 7207SOL     OW22519   3.565   0.488   2.832
 7207SOL    HW122520   3.638   0.517   2.894
 7207SOL    HW222521   3.599   0.484   2.738
 7208SOL     OW22522   3.740   6.667   3.423
 7208SOL    HW122523   3.725   6.610   3.343
 7208SOL    HW222524   3.830   6.711   3.417
 7209SOL     OW22525   2.965   3.392   2.151
 7209SOL    HW122526   3.056   3.407   2.113
 7209SOL    HW222527   2.896   3.421   2.085
 7210SOL     OW22528   4.359   0.229   3.740
 7210SOL    HW122529   4.340   0.311   3.793
 7210SOL    HW222530   4.334   0.244   3.644
 7211SOL     OW22531   2.557   5.943   3.973
 7211SOL    HW122532   2.505   5.961   3.889
 7211SOL    HW222533   2.602   6.027   4.002
 7212SOL     OW22534   0.165   6.096   5.244
 7212SOL    HW122535   0.187   6.142   5.158
 7212SOL    HW222536   0.208   6.006   5.246
 7213SOL     OW22537   5.309   0.065   0.247
 7213SOL    HW122538   5.383   0.109   0.299
 7213SOL    HW222539   5.225   0.068   0.301
 7214SOL     OW22540   6.916   5.024   5.567
 7214SOL    HW122541   6.823   5.012   5.600
 7214SOL    HW222542   6.949   5.116   5.589
 7215SOL     OW22543   0.064   3.569   5.585
 7215SOL    HW122544   0.103   3.659   5.569
 7215SOL    HW222545   0.014   3.569   5.672
 7216SOL     OW22546   3.617   6.445   6.437
 7216SOL    HW122547   3.532   6.416   6.392
 7216SOL    HW222548   3.609   6.429   6.535
 7217SOL     OW22549   2.692   4.642   2.856
 7217SOL    HW122550   2.643   4.623   2.771
 7217SOL    HW222551   2.635   4.618   2.934
 7218SOL     OW22552   4.747   2.621   5.449
 7218SOL    HW122553   4.712   2.673   5.371
 7218SOL    HW222554   4.847   2.630   5.453
 7219SOL     OW22555   4.404   6.842   4.747
 7219SOL    HW122556   4.373   6.923   4.796
 7219SOL    HW222557   4.479   6.866   4.685
 7220SOL     OW22558   0.878   5.369   5.236
 7220SOL    HW122559   0.921   5.448   5.280
 7220SOL    HW222560   0.949   5.313   5.191
 7221SOL     OW22561   4.046   5.768   4.341
 7221SOL    HW122562   3.975   5.760   4.411
 7221SOL    HW222563   4.129   5.806   4.382
 7222SOL     OW22564   6.129   0.230   2.664
 7222SOL    HW122565   6.146   0.152   2.725
 7222SOL    HW222566   6.049   0.280   2.695
 7223SOL     OW22567   3.175   2.177   1.472
 7223SOL    HW122568   3.127   2.142   1.391
 7223SOL    HW222569   3.116   2.241   1.521
 7224SOL     OW22570   5.962   2.074   3.742
 7224SOL    HW122571   5.979   1.986   3.786
 7224SOL    HW222572   5.991   2.148   3.802
 7225SOL     OW22573   1.164   5.835   0.288
 7225SOL    HW122574   1.248   5.797   0.326
 7225SOL    HW222575   1.105   5.868   0.362
 7226SOL     OW22576   6.698   1.058   1.281
 7226SOL    HW122577   6.650   0.981   1.240
 7226SOL    HW222578   6.674   1.142   1.232
 7227SOL     OW22579   1.526   2.458   1.160
 7227SOL    HW122580   1.556   2.551   1.185
 7227SOL    HW222581   1.465   2.423   1.231
 7228SOL     OW22582   0.729   1.599   2.502
 7228SOL    HW122583   0.795   1.543   2.451
 7228SOL    HW222584   0.746   1.696   2.484
 7229SOL     OW22585   1.516   6.314   5.582
 7229SOL    HW122586   1.507   6.286   5.677
 7229SOL    HW222587   1.471   6.402   5.568
 7230SOL     OW22588   4.680   5.165   4.292
 7230SOL    HW122589   4.651   5.069   4.295
 7230SOL    HW222590   4.665   5.201   4.200
 7231SOL     OW22591   4.906   0.279   0.403
 7231SOL    HW122592   4.813   0.256   0.431
 7231SOL    HW222593   4.941   0.210   0.340
 7232SOL     OW22594   5.383   5.458   2.718
 7232SOL    HW122595   5.433   5.493   2.797
 7232SOL    HW222596   5.328   5.532   2.678
 7233SOL     OW22597   0.344   2.574   4.280
 7233SOL    HW122598   0.337   2.546   4.376
 7233SOL    HW222599   0.438   2.600   4.260
 7234SOL     OW22600   5.472   3.455   3.381
 7234SOL    HW122601   5.407   3.446   3.306
 7234SOL    HW222602   5.453   3.385   3.450
 7235SOL     OW22603   6.813   4.087   1.802
 7235SOL    HW122604   6.839   4.031   1.723
 7235SOL    HW222605   6.714   4.099   1.803
 7236SOL     OW22606   2.108   2.064   2.300
 7236SOL    HW122607   2.149   2.141   2.349
 7236SOL    HW222608   2.111   2.082   2.201
 7237SOL     OW22609   4.986   0.649   4.778
 7237SOL    HW122610   5.048   0.623   4.852
 7237SOL    HW222611   5.033   0.712   4.716
 7238SOL     OW22612   3.015   2.077   1.260
 7238SOL    HW122613   2.931   2.132   1.266
 7238SOL    HW222614   2.991   1.981   1.252
 7239SOL     OW22615   1.893   2.393   2.368
 7239SOL    HW122616   1.972   2.454   2.370
 7239SOL    HW222617   1.888   2.347   2.279
 7240SOL     OW22618   2.707   4.743   6.227
 7240SOL    HW122619   2.685   4.648   6.203
 7240SOL    HW222620   2.801   4.748   6.260
 7241SOL     OW22621   2.339   0.850   0.602
 7241SOL    HW122622   2.333   0.949   0.611
 7241SOL    HW222623   2.365   0.810   0.690
 7242SOL     OW22624   6.244   6.020   0.464
 7242SOL    HW122625   6.186   6.081   0.410
 7242SOL    HW222626   6.264   5.937   0.412
 7243SOL     OW22627   6.489   4.715   5.879
 7243SOL    HW122628   6.537   4.753   5.958
 7243SOL    HW222629   6.455   4.790   5.822
 7244SOL     OW22630   5.896   0.447   0.914
 7244SOL    HW122631   5.983   0.409   0.942
 7244SOL    HW222632   5.911   0.536   0.870
 7245SOL     OW22633   0.586   2.067   5.075
 7245SOL    HW122634   0.492   2.092   5.055
 7245SOL    HW222635   0.647   2.105   5.005
 7246SOL     OW22636   6.413   0.471   4.225
 7246SOL    HW122637   6.335   0.472   4.288
 7246SOL    HW222638   6.393   0.410   4.149
 7247SOL     OW22639   3.019   6.878   4.188
 7247SOL    HW122640   2.986   6.790   4.156
 7247SOL    HW222641   3.023   6.942   4.111
 7248SOL     OW22642   3.431   1.158   3.656
 7248SOL    HW122643   3.511   1.185   3.602
 7248SOL    HW222644   3.351   1.151   3.595
 7249SOL     OW22645   5.461   4.536   2.214
 7249SOL    HW122646   5.387   4.501   2.157
 7249SOL    HW222647   5.457   4.491   2.304
 7250SOL     OW22648   3.922   6.507   6.592
 7250SOL    HW122649   3.832   6.487   6.553
 7250SOL    HW222650   3.988   6.438   6.562
 7251SOL     OW22651   0.469   0.051   5.445
 7251SOL    HW122652   0.484   6.979   5.416
 7251SOL    HW222653   0.410   0.097   5.378
 7252SOL     OW22654   3.275   3.203   3.109
 7252SOL    HW122655   3.222   3.183   3.026
 7252SOL    HW222656   3.269   3.126   3.171
 7253SOL     OW22657   2.597   6.008   6.631
 7253SOL    HW122658   2.644   5.920   6.622
 7253SOL    HW222659   2.662   6.078   6.658
 7254SOL     OW22660   4.517   5.564   4.508
 7254SOL    HW122661   4.614   5.584   4.495
 7254SOL    HW222662   4.504   5.466   4.525
 7255SOL     OW22663   4.004   3.931   1.054
 7255SOL    HW122664   3.964   4.009   1.102
 7255SOL    HW222665   3.977   3.847   1.101
 7256SOL     OW22666   4.230   4.713   4.413
 7256SOL    HW122667   4.174   4.759   4.482
 7256SOL    HW222668   4.174   4.642   4.368
 7257SOL     OW22669   4.922   3.480   3.901
 7257SOL    HW122670   4.841   3.470   3.844
 7257SOL    HW222671   4.904   3.546   3.974
 7258SOL     OW22672   4.199   0.848   2.709
 7258SOL    HW122673   4.197   0.763   2.762
 7258SOL    HW222674   4.142   0.916   2.755
 7259SOL     OW22675   3.368   3.300   1.369
 7259SOL    HW122676   3.400   3.257   1.285
 7259SOL    HW222677   3.393   3.397   1.369
 7260SOL     OW22678   2.715   2.312   2.561
 7260SOL    HW122679   2.726   2.323   2.463
 7260SOL    HW222680   2.802   2.281   2.601
 7261SOL     OW22681   2.198   2.946   1.359
 7261SOL    HW122682   2.177   2.890   1.279
 7261SOL    HW222683   2.136   2.920   1.434
 7262SOL     OW22684   5.391   1.658   4.769
 7262SOL    HW122685   5.432   1.729   4.712
 7262SOL    HW222686   5.463   1.602   4.810
 7263SOL     OW22687   0.670   6.463   2.058
 7263SOL    HW122688   0.622   6.551   2.066
 7263SOL    HW222689   0.766   6.479   2.033
 7264SOL     OW22690   5.830   1.213   6.622
 7264SOL    HW122691   5.896   1.287   6.635
 7264SOL    HW222692   5.737   1.248   6.633
 7265SOL     OW22693   5.272   5.825   5.806
 7265SOL    HW122694   5.266   5.737   5.759
 7265SOL    HW222695   5.181   5.865   5.815
 7266SOL     OW22696   4.648   0.218   1.355
 7266SOL    HW122697   4.670   0.128   1.316
 7266SOL    HW222698   4.651   0.213   1.454
 7267SOL     OW22699   6.912   5.677   5.548
 7267SOL    HW122700   6.929   5.684   5.450
 7267SOL    HW222701   6.834   5.736   5.572
 7268SOL     OW22702   4.304   4.609   2.929
 7268SOL    HW122703   4.215   4.652   2.914
 7268SOL    HW222704   4.346   4.588   2.841
 7269SOL     OW22705   6.973   6.276   1.153
 7269SOL    HW122706   0.006   6.214   1.097
 7269SOL    HW222707   0.005   6.311   1.229
 7270SOL     OW22708   0.952   2.897   5.008
 7270SOL    HW122709   0.965   2.889   5.107
 7270SOL    HW222710   1.040   2.911   4.964
 7271SOL     OW22711   0.857   5.019   3.924
 7271SOL    HW122712   0.832   5.089   3.991
 7271SOL    HW222713   0.875   4.932   3.971
 7272SOL     OW22714   5.547   4.649   1.965
 7272SOL    HW122715   5.453   4.675   1.947
 7272SOL    HW222716   5.567   4.655   2.063
 7273SOL     OW22717   4.880   4.911   2.317
 7273SOL    HW122718   4.922   5.002   2.317
 7273SOL    HW222719   4.780   4.920   2.320
 7274SOL     OW22720   1.145   6.355   6.926
 7274SOL    HW122721   1.070   6.350   6.860
 7274SOL    HW222722   1.108   6.342   7.018
 7275SOL     OW22723   0.264   0.966   2.534
 7275SOL    HW122724   0.271   1.051   2.586
 7275SOL    HW222725   0.168   0.940   2.524
 7276SOL     OW22726   3.834   1.239   3.136
 7276SOL    HW122727   3.741   1.207   3.154
 7276SOL    HW222728   3.863   1.300   3.210
 7277SOL     OW22729   5.115   1.004   4.331
 7277SOL    HW122730   5.018   1.003   4.354
 7277SOL    HW222731   5.168   0.964   4.406
 7278SOL     OW22732   3.364   2.078   1.970
 7278SOL    HW122733   3.454   2.053   2.006
 7278SOL    HW222734   3.296   2.066   2.042
 7279SOL     OW22735   4.080   2.714   6.672
 7279SOL    HW122736   4.004   2.754   6.621
 7279SOL    HW222737   4.165   2.724   6.619
 7280SOL     OW22738   6.899   1.946   4.015
 7280SOL    HW122739   6.965   1.953   3.941
 7280SOL    HW222740   6.837   2.024   4.012
 7281SOL     OW22741   2.168   0.708   0.474
 7281SOL    HW122742   2.186   0.614   0.502
 7281SOL    HW222743   2.243   0.767   0.503
 7282SOL     OW22744   6.511   6.706   0.483
 7282SOL    HW122745   6.610   6.718   0.476
 7282SOL    HW222746   6.465   6.786   0.446
 7283SOL     OW22747   3.151   0.111   2.059
 7283SOL    HW122748   3.126   0.111   1.962
 7283SOL    HW222749   3.199   0.197   2.080
 7284SOL     OW22750   7.015   3.230   4.796
 7284SOL    HW122751   0.016   3.156   4.858
 7284SOL    HW222752   6.940   3.284   4.835
 7285SOL     OW22753   5.722   3.748   2.009
 7285SOL    HW122754   5.688   3.663   1.970
 7285SOL    HW222755   5.779   3.796   1.942
 7286SOL     OW22756   1.224   0.493   1.191
 7286SOL    HW122757   1.269   0.518   1.105
 7286SOL    HW222758   1.144   0.437   1.171
 7287SOL     OW22759   6.740   3.490   4.638
 7287SOL    HW122760   6.708   3.579   4.604
 7287SOL    HW222761   6.801   3.449   4.570
 7288SOL     OW22762   1.146   2.087   1.569
 7288SOL    HW122763   1.172   2.176   1.607
 7288SOL    HW222764   1.111   2.099   1.476
 7289SOL     OW22765   6.558   1.844   3.037
 7289SOL    HW122766   6.553   1.880   3.130
 7289SOL    HW222767   6.500   1.763   3.029
 7290SOL     OW22768   3.163   0.969   5.696
 7290SOL    HW122769   3.231   0.896   5.703
 7290SOL    HW222770   3.110   0.958   5.612
 7291SOL     OW22771   2.585   6.790   1.171
 7291SOL    HW122772   2.537   6.707   1.198
 7291SOL    HW222773   2.519   6.864   1.161
 7292SOL     OW22774   2.916   0.301   3.073
 7292SOL    HW122775   2.849   0.355   3.123
 7292SOL    HW222776   2.898   0.204   3.087
 7293SOL     OW22777   1.776   0.930   6.371
 7293SOL    HW122778   1.818   0.933   6.281
 7293SOL    HW222779   1.712   1.007   6.381
 7294SOL     OW22780   2.967   3.876   0.732
 7294SOL    HW122781   2.958   3.921   0.643
 7294SOL    HW222782   3.009   3.786   0.720
 7295SOL     OW22783   6.617   4.641   1.745
 7295SOL    HW122784   6.558   4.572   1.703
 7295SOL    HW222785   6.575   4.674   1.830
 7296SOL     OW22786   4.527   5.196   2.843
 7296SOL    HW122787   4.574   5.222   2.927
 7296SOL    HW222788   4.569   5.113   2.804
 7297SOL     OW22789   2.646   6.959   2.309
 7297SOL    HW122790   2.741   6.962   2.279
 7297SOL    HW222791   2.591   7.018   2.250
 7298SOL     OW22792   5.072   5.717   6.747
 7298SOL    HW122793   5.105   5.625   6.767
 7298SOL    HW222794   5.121   5.784   6.803
 7299SOL     OW22795   0.308   1.849   0.641
 7299SOL    HW122796   0.395   1.893   0.617
 7299SOL    HW222797   0.255   1.833   0.558
 7300SOL     OW22798   0.321   5.850   2.406
 7300SOL    HW122799   0.403   5.891   2.367
 7300SOL    HW222800   0.339   5.755   2.431
 7301SOL     OW22801   6.318   2.069   5.803
 7301SOL    HW122802   6.411   2.072   5.767
 7301SOL    HW222803   6.290   1.974   5.814
 7302SOL     OW22804   0.437   2.061   5.780
 7302SOL    HW122805   0.398   1.969   5.783
 7302SOL    HW222806   0.364   2.129   5.786
 7303SOL     OW22807   3.683   0.690   6.816
 7303SOL    HW122808   3.706   0.635   6.897
 7303SOL    HW222809   3.614   0.642   6.762
 7304SOL     OW22810   2.135   5.818   2.050
 7304SOL    HW122811   2.162   5.800   2.145
 7304SOL    HW222812   2.200   5.772   1.988
 7305SOL     OW22813   5.631   2.195   1.555
 7305SOL    HW122814   5.572   2.275   1.541
 7305SOL    HW222815   5.722   2.215   1.520
 7306SOL     OW22816   3.722   1.554   1.772
 7306SOL    HW122817   3.635   1.600   1.791
 7306SOL    HW222818   3.774   1.606   1.704
 7307SOL     OW22819   4.067   0.100   1.907
 7307SOL    HW122820   4.103   0.103   1.814
 7307SOL    HW222821   4.141   0.121   1.972
 7308SOL     OW22822   6.238   1.053   3.766
 7308SOL    HW122823   6.307   1.112   3.724
 7308SOL    HW222824   6.213   1.090   3.856
 7309SOL     OW22825   2.760   0.336   1.415
 7309SOL    HW122826   2.718   0.290   1.493
 7309SOL    HW222827   2.816   0.412   1.448
 7310SOL     OW22828   1.771   3.403   6.441
 7310SOL    HW122829   1.772   3.309   6.407
 7310SOL    HW222830   1.773   3.402   6.541
 7311SOL     OW22831   0.919   0.252   0.646
 7311SOL    HW122832   0.928   0.198   0.730
 7311SOL    HW222833   0.874   0.197   0.576
 7312SOL     OW22834   0.960   1.977   4.736
 7312SOL    HW122835   0.890   1.907   4.727
 7312SOL    HW222836   1.003   1.971   4.826
 7313SOL     OW22837   2.355   1.413   0.674
 7313SOL    HW122838   2.359   1.512   0.689
 7313SOL    HW222839   2.339   1.367   0.762
 7314SOL     OW22840   0.298   4.304   6.004
 7314SOL    HW122841   0.378   4.247   5.986
 7314SOL    HW222842   0.218   4.245   6.019
 7315SOL     OW22843   5.264   5.496   2.148
 7315SOL    HW122844   5.273   5.466   2.053
 7315SOL    HW222845   5.348   5.474   2.198
 7316SOL     OW22846   3.651   2.365   6.275
 7316SOL    HW122847   3.624   2.307   6.199
 7316SOL    HW222848   3.747   2.392   6.264
 7317SOL     OW22849   3.427   1.564   2.103
 7317SOL    HW122850   3.466   1.586   2.193
 7317SOL    HW222851   3.438   1.643   2.043
 7318SOL     OW22852   3.328   6.625   3.304
 7318SOL    HW122853   3.379   6.565   3.243
 7318SOL    HW222854   3.236   6.639   3.267
 7319SOL     OW22855   6.236   3.582   6.514
 7319SOL    HW122856   6.222   3.675   6.480
 7319SOL    HW222857   6.210   3.577   6.610
 7320SOL     OW22858   0.499   3.685   6.730
 7320SOL    HW122859   0.420   3.679   6.669
 7320SOL    HW222860   0.478   3.639   6.816
 7321SOL     OW22861   1.983   6.908   5.930
 7321SOL    HW122862   1.961   6.950   6.017
 7321SOL    HW222863   2.025   6.977   5.870
 7322SOL     OW22864   0.225   3.013   2.668
 7322SOL    HW122865   0.203   2.924   2.628
 7322SOL    HW222866   0.230   3.082   2.595
 7323SOL     OW22867   2.912   2.982   1.468
 7323SOL    HW122868   2.992   3.035   1.441
 7323SOL    HW222869   2.901   2.985   1.567
 7324SOL     OW22870   6.152   4.954   2.583
 7324SOL    HW122871   6.186   5.047   2.595
 7324SOL    HW222872   6.211   4.904   2.519
 7325SOL     OW22873   2.602   6.832   5.044
 7325SOL    HW122874   2.518   6.791   5.081
 7325SOL    HW222875   2.622   6.917   5.093
 7326SOL     OW22876   3.288   0.333   6.357
 7326SOL    HW122877   3.230   0.297   6.430
 7326SOL    HW222878   3.379   0.293   6.365
 7327SOL     OW22879   5.737   3.265   3.728
 7327SOL    HW122880   5.713   3.329   3.801
 7327SOL    HW222881   5.837   3.261   3.720
 7328SOL     OW22882   4.421   6.288   5.243
 7328SOL    HW122883   4.376   6.254   5.325
 7328SOL    HW222884   4.513   6.319   5.266
 7329SOL     OW22885   1.506   2.873   0.244
 7329SOL    HW122886   1.579   2.818   0.284
 7329SOL    HW222887   1.494   2.957   0.296
 7330SOL     OW22888   2.273   2.955   0.898
 7330SOL    HW122889   2.240   3.010   0.821
 7330SOL    HW222890   2.260   2.858   0.878
 7331SOL     OW22891   5.266   6.219   2.223
 7331SOL    HW122892   5.225   6.294   2.273
 7331SOL    HW222893   5.332   6.256   2.156
 7332SOL     OW22894   3.709   4.104   6.815
 7332SOL    HW122895   3.664   4.149   6.892
 7332SOL    HW222896   3.675   4.143   6.729
 7333SOL     OW22897   5.916   3.366   2.600
 7333SOL    HW122898   5.822   3.379   2.633
 7333SOL    HW222899   5.973   3.336   2.676
 7334SOL     OW22900   2.833   5.680   5.505
 7334SOL    HW122901   2.828   5.594   5.454
 7334SOL    HW222902   2.796   5.754   5.449
 7335SOL     OW22903   0.165   2.318   3.429
 7335SOL    HW122904   0.222   2.288   3.352
 7335SOL    HW222905   0.220   2.371   3.493
 7336SOL     OW22906   2.326   6.417   1.485
 7336SOL    HW122907   2.311   6.322   1.457
 7336SOL    HW222908   2.238   6.460   1.506
 7337SOL     OW22909   2.080   3.017   1.068
 7337SOL    HW122910   2.154   2.972   1.018
 7337SOL    HW222911   2.098   3.115   1.073
 7338SOL     OW22912   5.816   1.703   1.778
 7338SOL    HW122913   5.857   1.626   1.729
 7338SOL    HW222914   5.733   1.732   1.730
 7339SOL     OW22915   7.013   0.545   5.296
 7339SOL    HW122916   7.017   0.562   5.394
 7339SOL    HW222917   0.053   0.607   5.249
 7340SOL     OW22918   3.818   2.054   6.873
 7340SOL    HW122919   3.903   2.003   6.881
 7340SOL    HW222920   3.742   1.997   6.902
 7341SOL     OW22921   1.662   5.196   5.438
 7341SOL    HW122922   1.743   5.143   5.463
 7341SOL    HW222923   1.598   5.137   5.389
 7342SOL     OW22924   5.872   6.732   6.939
 7342SOL    HW122925   5.932   6.810   6.922
 7342SOL    HW222926   5.921   6.647   6.920
 7343SOL     OW22927   5.904   3.180   1.990
 7343SOL    HW122928   5.852   3.149   1.911
 7343SOL    HW222929   5.929   3.100   2.046
 7344SOL     OW22930   2.055   6.979   6.190
 7344SOL    HW122931   2.133   0.013   6.164
 7344SOL    HW222932   2.082   6.919   6.265
 7345SOL     OW22933   5.494   5.701   5.632
 7345SOL    HW122934   5.446   5.725   5.716
 7345SOL    HW222935   5.538   5.783   5.594
 7346SOL     OW22936   3.652   4.195   0.953
 7346SOL    HW122937   3.587   4.172   0.881
 7346SOL    HW222938   3.602   4.226   1.034
 7347SOL     OW22939   6.431   2.700   1.478
 7347SOL    HW122940   6.373   2.766   1.431
 7347SOL    HW222941   6.483   2.647   1.412
 7348SOL     OW22942   1.576   3.454   3.636
 7348SOL    HW122943   1.651   3.459   3.703
 7348SOL    HW222944   1.494   3.420   3.681
 7349SOL     OW22945   3.927   1.702   1.292
 7349SOL    HW122946   3.970   1.613   1.276
 7349SOL    HW222947   3.840   1.706   1.242
 7350SOL     OW22948   1.402   3.716   3.890
 7350SOL    HW122949   1.487   3.766   3.875
 7350SOL    HW222950   1.380   3.716   3.988
 7351SOL     OW22951   3.988   5.179   6.070
 7351SOL    HW122952   3.891   5.198   6.084
 7351SOL    HW222953   4.042   5.243   6.124
 7352SOL     OW22954   1.813   3.240   3.056
 7352SOL    HW122955   1.768   3.152   3.035
 7352SOL    HW222956   1.798   3.264   3.151
 7353SOL     OW22957   0.691   0.545   5.722
 7353SOL    HW122958   0.761   0.478   5.697
 7353SOL    HW222959   0.613   0.536   5.661
 7354SOL     OW22960   0.746   1.599   6.171
 7354SOL    HW122961   0.778   1.561   6.258
 7354SOL    HW222962   0.737   1.698   6.179
 7355SOL     OW22963   1.548   0.140   0.130
 7355SOL    HW122964   1.572   0.212   0.196
 7355SOL    HW222965   1.450   0.123   0.133
 7356SOL     OW22966   5.141   2.722   6.346
 7356SOL    HW122967   5.185   2.637   6.317
 7356SOL    HW222968   5.064   2.701   6.406
 7357SOL     OW22969   4.542   1.044   1.415
 7357SOL    HW122970   4.641   1.027   1.411
 7357SOL    HW222971   4.523   1.115   1.483
 7358SOL     OW22972   1.863   2.023   2.187
 7358SOL    HW122973   1.938   2.010   2.252
 7358SOL    HW222974   1.897   2.010   2.094
 7359SOL     OW22975   2.822   3.053   0.548
 7359SOL    HW122976   2.790   2.962   0.523
 7359SOL    HW222977   2.756   3.096   0.609
 7360SOL     OW22978   3.541   2.511   5.700
 7360SOL    HW122979   3.519   2.437   5.636
 7360SOL    HW222980   3.604   2.575   5.656
 7361SOL     OW22981   4.095   0.072   1.637
 7361SOL    HW122982   4.001   0.045   1.614
 7361SOL    HW222983   4.126   0.145   1.576
 7362SOL     OW22984   0.403   6.691   4.733
 7362SOL    HW122985   0.413   6.600   4.775
 7362SOL    HW222986   0.470   6.753   4.774
 7363SOL     OW22987   3.770   2.035   1.150
 7363SOL    HW122988   3.835   2.043   1.074
 7363SOL    HW222989   3.722   1.947   1.144
 7364SOL     OW22990   4.393   7.019   1.492
 7364SOL    HW122991   4.327   0.008   1.418
 7364SOL    HW222992   4.381   0.069   1.560
 7365SOL     OW22993   1.482   6.220   2.144
 7365SOL    HW122994   1.539   6.150   2.187
 7365SOL    HW222995   1.436   6.181   2.064
 7366SOL     OW22996   1.635   5.582   0.568
 7366SOL    HW122997   1.594   5.598   0.478
 7366SOL    HW222998   1.589   5.640   0.636
 7367SOL     OW22999   4.931   4.288   1.292
 7367SOL    HW123000   5.019   4.324   1.260
 7367SOL    HW223001   4.897   4.343   1.368
 7368SOL     OW23002   3.667   2.871   4.153
 7368SOL    HW123003   3.571   2.897   4.166
 7368SOL    HW223004   3.697   2.815   4.230
 7369SOL     OW23005   4.788   3.274   0.652
 7369SOL    HW123006   4.770   3.253   0.748
 7369SOL    HW223007   4.787   3.189   0.599
 7370SOL     OW23008   2.166   0.261   5.264
 7370SOL    HW123009   2.209   0.220   5.344
 7370SOL    HW223010   2.236   0.300   5.205
 7371SOL     OW23011   1.880   6.052   3.828
 7371SOL    HW123012   1.929   6.041   3.915
 7371SOL    HW223013   1.842   5.964   3.800
 7372SOL     OW23014   2.691   0.902   5.481
 7372SOL    HW123015   2.682   0.894   5.580
 7372SOL    HW223016   2.603   0.881   5.437
 7373SOL     OW23017   5.568   1.785   4.016
 7373SOL    HW123018   5.515   1.728   3.953
 7373SOL    HW223019   5.535   1.879   4.012
 7374SOL     OW23020   2.908   2.396   5.263
 7374SOL    HW123021   3.001   2.382   5.230
 7374SOL    HW223022   2.885   2.493   5.260
 7375SOL     OW23023   1.531   2.690   3.592
 7375SOL    HW123024   1.600   2.622   3.616
 7375SOL    HW223025   1.575   2.770   3.552
 7376SOL     OW23026   4.046   1.704   0.534
 7376SOL    HW123027   4.138   1.666   0.542
 7376SOL    HW223028   4.049   1.788   0.480
 7377SOL     OW23029   5.585   5.787   1.807
 7377SOL    HW123030   5.587   5.824   1.899
 7377SOL    HW223031   5.511   5.721   1.799
 7378SOL     OW23032   0.011   1.972   5.045
 7378SOL    HW123033   0.079   1.988   4.972
 7378SOL    HW223034   6.963   1.910   5.011
 7379SOL     OW23035   4.104   2.108   2.953
 7379SOL    HW123036   4.017   2.098   2.904
 7379SOL    HW223037   4.087   2.101   3.051
 7380SOL     OW23038   6.651   2.958   5.129
 7380SOL    HW123039   6.723   2.897   5.094
 7380SOL    HW223040   6.579   2.967   5.061
 7381SOL     OW23041   5.163   4.251   2.222
 7381SOL    HW123042   5.212   4.178   2.176
 7381SOL    HW223043   5.073   4.264   2.180
 7382SOL     OW23044   0.218   5.687   6.192
 7382SOL    HW123045   0.140   5.662   6.251
 7382SOL    HW223046   0.292   5.722   6.248
 7383SOL     OW23047   0.600   6.550   1.631
 7383SOL    HW123048   0.587   6.483   1.705
 7383SOL    HW223049   0.636   6.503   1.551
 7384SOL     OW23050   5.939   0.546   2.261
 7384SOL    HW123051   5.910   0.451   2.260
 7384SOL    HW223052   5.893   0.595   2.335
 7385SOL     OW23053   4.336   6.141   1.861
 7385SOL    HW123054   4.298   6.216   1.915
 7385SOL    HW223055   4.287   6.057   1.882
 7386SOL     OW23056   6.848   2.100   5.834
 7386SOL    HW123057   6.828   2.043   5.754
 7386SOL    HW223058   6.789   2.181   5.833
 7387SOL     OW23059   4.531   6.325   4.642
 7387SOL    HW123060   4.498   6.419   4.636
 7387SOL    HW223061   4.455   6.262   4.626
 7388SOL     OW23062   0.531   5.149   3.620
 7388SOL    HW123063   0.614   5.190   3.582
 7388SOL    HW223064   0.474   5.114   3.545
 7389SOL     OW23065   0.922   4.596   6.867
 7389SOL    HW123066   0.967   4.580   6.955
 7389SOL    HW223067   0.836   4.645   6.881
 7390SOL     OW23068   1.927   1.161   6.783
 7390SOL    HW123069   1.967   1.071   6.768
 7390SOL    HW223070   1.971   1.204   6.862
 7391SOL     OW23071   5.252   4.111   4.580
 7391SOL    HW123072   5.231   4.137   4.674
 7391SOL    HW223073   5.341   4.065   4.578
 7392SOL     OW23074   2.712   6.078   0.024
 7392SOL    HW123075   2.661   6.161   7.023
 7392SOL    HW223076   2.766   6.094   0.106
 7393SOL     OW23077   5.425   5.126   1.451
 7393SOL    HW123078   5.391   5.220   1.445
 7393SOL    HW223079   5.398   5.087   1.538
 7394SOL     OW23080   3.199   2.415   6.269
 7394SOL    HW123081   3.244   2.337   6.227
 7394SOL    HW223082   3.127   2.448   6.209
 7395SOL     OW23083   2.383   1.496   0.161
 7395SOL    HW123084   2.378   1.596   0.162
 7395SOL    HW223085   2.462   1.466   0.215
 7396SOL     OW23086   1.310   6.732   0.583
 7396SOL    HW123087   1.246   6.656   0.583
 7396SOL    HW223088   1.376   6.721   0.509
 7397SOL     OW23089   5.419   5.428   5.266
 7397SOL    HW123090   5.509   5.384   5.268
 7397SOL    HW223091   5.349   5.361   5.292
 7398SOL     OW23092   3.062   5.090   4.227
 7398SOL    HW123093   2.999   5.015   4.247
 7398SOL    HW223094   3.073   5.147   4.309
 7399SOL     OW23095   0.962   3.238   5.671
 7399SOL    HW123096   0.931   3.320   5.623
 7399SOL    HW223097   0.893   3.208   5.736
 7400SOL     OW23098   2.703   3.300   6.288
 7400SOL    HW123099   2.783   3.357   6.301
 7400SOL    HW223100   2.654   3.328   6.206
 7401SOL     OW23101   0.968   0.925   4.211
 7401SOL    HW123102   0.983   0.866   4.131
 7401SOL    HW223103   0.934   0.870   4.287
 7402SOL     OW23104   2.580   5.325   5.409
 7402SOL    HW123105   2.671   5.320   5.367
 7402SOL    HW223106   2.573   5.255   5.480
 7403SOL     OW23107   1.539   3.816   3.385
 7403SOL    HW123108   1.607   3.854   3.323
 7403SOL    HW223109   1.567   3.833   3.479
 7404SOL     OW23110   2.845   5.627   1.345
 7404SOL    HW123111   2.920   5.638   1.280
 7404SOL    HW223112   2.877   5.577   1.425
 7405SOL     OW23113   2.683   4.956   4.294
 7405SOL    HW123114   2.678   4.866   4.336
 7405SOL    HW223115   2.610   5.014   4.329
 7406SOL     OW23116   1.125   3.192   3.367
 7406SOL    HW123117   1.048   3.150   3.416
 7406SOL    HW223118   1.209   3.179   3.419
 7407SOL     OW23119   0.139   5.689   4.874
 7407SOL    HW123120   0.119   5.628   4.951
 7407SOL    HW223121   0.138   5.636   4.789
 7408SOL     OW23122   1.150   3.387   6.083
 7408SOL    HW123123   1.218   3.367   6.153
 7408SOL    HW223124   1.080   3.315   6.083
 7409SOL     OW23125   0.748   1.100   5.130
 7409SOL    HW123126   0.740   1.199   5.130
 7409SOL    HW223127   0.693   1.062   5.205
 7410SOL     OW23128   0.394   5.073   1.339
 7410SOL    HW123129   0.316   5.023   1.378
 7410SOL    HW223130   0.469   5.075   1.405
 7411SOL     OW23131   2.927   6.523   4.269
 7411SOL    HW123132   2.853   6.524   4.201
 7411SOL    HW223133   2.980   6.439   4.260
 7412SOL     OW23134   4.273   0.368   2.705
 7412SOL    HW123135   4.263   0.308   2.784
 7412SOL    HW223136   4.183   0.384   2.664
 7413SOL     OW23137   5.134   5.092   4.876
 7413SOL    HW123138   5.213   5.041   4.908
 7413SOL    HW223139   5.087   5.134   4.954
 7414SOL     OW23140   0.007   6.602   4.188
 7414SOL    HW123141   0.045   6.618   4.097
 7414SOL    HW223142   0.056   6.658   4.255
 7415SOL     OW23143   1.461   3.702   3.095
 7415SOL    HW123144   1.462   3.645   3.178
 7415SOL    HW223145   1.535   3.673   3.034
 7416SOL     OW23146   2.995   0.962   3.534
 7416SOL    HW123147   3.000   0.873   3.490
 7416SOL    HW223148   2.959   0.952   3.627
 7417SOL     OW23149   2.130   0.099   5.567
 7417SOL    HW123150   2.056   0.033   5.552
 7417SOL    HW223151   2.195   0.095   5.491
 7418SOL     OW23152   3.644   5.379   0.258
 7418SOL    HW123153   3.667   5.400   0.163
 7418SOL    HW223154   3.571   5.440   0.289
 7419SOL     OW23155   6.242   2.366   4.854
 7419SOL    HW123156   6.322   2.425   4.863
 7419SOL    HW223157   6.178   2.405   4.788
 7420SOL     OW23158   6.979   6.508   1.912
 7420SOL    HW123159   6.943   6.495   2.004
 7420SOL    HW223160   6.959   6.601   1.881
 7421SOL     OW23161   3.465   3.551   1.397
 7421SOL    HW123162   3.459   3.576   1.301
 7421SOL    HW223163   3.406   3.612   1.451
 7422SOL     OW23164   0.179   3.199   2.481
 7422SOL    HW123165   0.094   3.189   2.428
 7422SOL    HW223166   0.253   3.227   2.419
 7423SOL     OW23167   6.722   4.490   5.786
 7423SOL    HW123168   6.753   4.531   5.872
 7423SOL    HW223169   6.633   4.448   5.799
 7424SOL     OW23170   6.878   0.415   4.550
 7424SOL    HW123171   6.820   0.336   4.572
 7424SOL    HW223172   6.876   0.431   4.451
 7425SOL     OW23173   4.747   5.927   6.156
 7425SOL    HW123174   4.677   5.946   6.225
 7425SOL    HW223175   4.806   6.007   6.144
 7426SOL     OW23176   1.269   1.780   6.353
 7426SOL    HW123177   1.253   1.699   6.409
 7426SOL    HW223178   1.316   1.850   6.408
 7427SOL     OW23179   3.307   6.270   3.991
 7427SOL    HW123180   3.222   6.279   4.043
 7427SOL    HW223181   3.354   6.186   4.017
 7428SOL     OW23182   4.041   1.701   5.893
 7428SOL    HW123183   4.047   1.616   5.840
 7428SOL    HW223184   4.118   1.708   5.955
 7429SOL     OW23185   5.458   0.081   3.308
 7429SOL    HW123186   5.413   0.170   3.309
 7429SOL    HW223187   5.553   0.092   3.280
 7430SOL     OW23188   0.151   4.067   6.165
 7430SOL    HW123189   0.247   4.040   6.174
 7430SOL    HW223190   0.093   3.997   6.207
 7431SOL     OW23191   0.387   3.059   2.875
 7431SOL    HW123192   0.336   3.054   2.790
 7431SOL    HW223193   0.458   3.130   2.869
 7432SOL     OW23194   0.419   0.230   3.585
 7432SOL    HW123195   0.333   0.242   3.535
 7432SOL    HW223196   0.494   0.272   3.534
 7433SOL     OW23197   5.890   5.360   0.224
 7433SOL    HW123198   5.894   5.336   0.321
 7433SOL    HW223199   5.804   5.328   0.184
 7434SOL     OW23200   4.559   0.719   6.185
 7434SOL    HW123201   4.544   0.707   6.087
 7434SOL    HW223202   4.493   0.785   6.221
 7435SOL     OW23203   4.092   5.532   0.490
 7435SOL    HW123204   4.017   5.520   0.555
 7435SOL    HW223205   4.067   5.492   0.402
 7436SOL     OW23206   5.703   3.341   6.418
 7436SOL    HW123207   5.734   3.424   6.465
 7436SOL    HW223208   5.608   3.322   6.442
 7437SOL     OW23209   0.326   5.984   0.438
 7437SOL    HW123210   0.343   6.007   0.534
 7437SOL    HW223211   0.228   5.984   0.420
 7438SOL     OW23212   0.750   5.444   0.906
 7438SOL    HW123213   0.691   5.522   0.930
 7438SOL    HW223214   0.769   5.391   0.989
 7439SOL     OW23215   1.204   6.125   4.918
 7439SOL    HW123216   1.178   6.146   4.824
 7439SOL    HW223217   1.303   6.124   4.927
 7440SOL     OW23218   0.908   3.381   4.434
 7440SOL    HW123219   0.972   3.305   4.430
 7440SOL    HW223220   0.841   3.373   4.360
 7441SOL     OW23221   4.435   5.929   4.760
 7441SOL    HW123222   4.363   5.934   4.690
 7441SOL    HW223223   4.525   5.937   4.716
 7442SOL     OW23224   0.778   0.827   6.326
 7442SOL    HW123225   0.712   0.856   6.257
 7442SOL    HW223226   0.871   0.846   6.293
 7443SOL     OW23227   0.448   0.790   1.339
 7443SOL    HW123228   0.532   0.767   1.389
 7443SOL    HW223229   0.369   0.776   1.399
 7444SOL     OW23230   6.846   3.418   4.886
 7444SOL    HW123231   6.798   3.431   4.800
 7444SOL    HW223232   6.791   3.456   4.961
 7445SOL     OW23233   3.412   1.356   1.393
 7445SOL    HW123234   3.489   1.358   1.458
 7445SOL    HW223235   3.327   1.376   1.442
 7446SOL     OW23236   5.699   4.015   1.265
 7446SOL    HW123237   5.740   4.018   1.174
 7446SOL    HW223238   5.611   3.967   1.261
 7447SOL     OW23239   1.001   3.358   5.209
 7447SOL    HW123240   1.018   3.434   5.146
 7447SOL    HW223241   1.076   3.293   5.204
 7448SOL     OW23242   6.040   6.546   5.199
 7448SOL    HW123243   5.989   6.632   5.201
 7448SOL    HW223244   5.984   6.476   5.155
 7449SOL     OW23245   6.482   2.434   2.100
 7449SOL    HW123246   6.472   2.341   2.136
 7449SOL    HW223247   6.578   2.452   2.080
 7450SOL     OW23248   5.175   2.417   4.402
 7450SOL    HW123249   5.120   2.376   4.474
 7450SOL    HW223250   5.115   2.446   4.327
 7451SOL     OW23251   1.194   6.506   2.922
 7451SOL    HW123252   1.201   6.464   2.832
 7451SOL    HW223253   1.192   6.606   2.913
 7452SOL     OW23254   0.469   6.471   5.133
 7452SOL    HW123255   0.455   6.423   5.219
 7452SOL    HW223256   0.513   6.559   5.150
 7453SOL     OW23257   4.740   6.093   5.840
 7453SOL    HW123258   4.735   5.995   5.861
 7453SOL    HW223259   4.650   6.125   5.810
 7454SOL     OW23260   1.333   2.387   1.344
 7454SOL    HW123261   1.342   2.469   1.400
 7454SOL    HW223262   1.251   2.394   1.287
 7455SOL     OW23263   0.224   2.254   1.965
 7455SOL    HW123264   0.244   2.303   1.880
 7455SOL    HW223265   0.258   2.307   2.043
 7456SOL     OW23266   0.721   2.353   4.404
 7456SOL    HW123267   0.689   2.444   4.430
 7456SOL    HW223268   0.809   2.362   4.356
 7457SOL     OW23269   3.762   0.963   5.035
 7457SOL    HW123270   3.732   0.908   5.112
 7457SOL    HW223271   3.705   1.045   5.028
 7458SOL     OW23272   2.341   0.056   6.580
 7458SOL    HW123273   2.397   7.017   6.635
 7458SOL    HW223274   2.263   0.087   6.635
 7459SOL     OW23275   4.587   0.875   0.680
 7459SOL    HW123276   4.567   0.864   0.582
 7459SOL    HW223277   4.685   0.873   0.695
 7460SOL     OW23278   1.732   4.391   1.109
 7460SOL    HW123279   1.689   4.411   1.197
 7460SOL    HW223280   1.809   4.454   1.094
 7461SOL     OW23281   5.879   1.627   6.238
 7461SOL    HW123282   5.875   1.529   6.223
 7461SOL    HW223283   5.921   1.671   6.158
 7462SOL     OW23284   1.634   3.623   2.473
 7462SOL    HW123285   1.661   3.529   2.495
 7462SOL    HW223286   1.547   3.622   2.424
 7463SOL     OW23287   3.120   4.633   1.026
 7463SOL    HW123288   3.093   4.729   1.038
 7463SOL    HW223289   3.039   4.576   1.015
 7464SOL     OW23290   3.634   0.301   6.542
 7464SOL    HW123291   3.604   0.217   6.499
 7464SOL    HW223292   3.722   0.286   6.587
 7465SOL     OW23293   1.543   6.853   6.854
 7465SOL    HW123294   1.610   6.787   6.820
 7465SOL    HW223295   1.506   6.822   6.941
 7466SOL     OW23296   0.365   6.777   6.493
 7466SOL    HW123297   0.459   6.807   6.476
 7466SOL    HW223298   0.333   6.724   6.415
 7467SOL     OW23299   6.839   1.311   0.593
 7467SOL    HW123300   6.930   1.306   0.552
 7467SOL    HW223301   6.847   1.327   0.691
 7468SOL     OW23302   6.522   2.891   2.469
 7468SOL    HW123303   6.620   2.890   2.489
 7468SOL    HW223304   6.473   2.842   2.541
 7469SOL     OW23305   6.901   0.232   0.055
 7469SOL    HW123306   6.895   0.169   0.133
 7469SOL    HW223307   6.812   0.277   0.042
 7470SOL     OW23308   0.366   3.172   4.407
 7470SOL    HW123309   0.287   3.199   4.462
 7470SOL    HW223310   0.351   3.080   4.371
 7471SOL     OW23311   6.258   6.176   5.619
 7471SOL    HW123312   6.315   6.158   5.539
 7471SOL    HW223313   6.210   6.263   5.608
 7472SOL     OW23314   5.970   6.895   4.247
 7472SOL    HW123315   5.874   6.921   4.246
 7472SOL    HW223316   6.019   6.951   4.314
 7473SOL     OW23317   6.778   4.735   2.830
 7473SOL    HW123318   6.787   4.647   2.784
 7473SOL    HW223319   6.715   4.726   2.907
 7474SOL     OW23320   2.519   1.372   5.213
 7474SOL    HW123321   2.434   1.319   5.213
 7474SOL    HW223322   2.516   1.440   5.139
 7475SOL     OW23323   3.747   1.100   2.463
 7475SOL    HW123324   3.679   1.055   2.406
 7475SOL    HW223325   3.758   1.195   2.432
 7476SOL     OW23326   3.996   5.118   4.119
 7476SOL    HW123327   3.966   5.181   4.190
 7476SOL    HW223328   3.934   5.123   4.041
 7477SOL     OW23329   6.633   1.281   4.561
 7477SOL    HW123330   6.599   1.325   4.478
 7477SOL    HW223331   6.584   1.195   4.577
 7478SOL     OW23332   4.443   4.794   6.907
 7478SOL    HW123333   4.541   4.778   6.912
 7478SOL    HW223334   4.394   4.708   6.925
 7479SOL     OW23335   4.051   2.270   1.799
 7479SOL    HW123336   4.000   2.354   1.783
 7479SOL    HW223337   4.070   2.225   1.712
 7480SOL     OW23338   6.766   3.743   1.555
 7480SOL    HW123339   6.789   3.837   1.578
 7480SOL    HW223340   6.686   3.742   1.495
 7481SOL     OW23341   6.235   5.534   1.891
 7481SOL    HW123342   6.182   5.597   1.833
 7481SOL    HW223343   6.213   5.552   1.987
 7482SOL     OW23344   4.964   2.024   2.967
 7482SOL    HW123345   4.918   2.083   3.033
 7482SOL    HW223346   5.042   1.980   3.010
 7483SOL     OW23347   4.432   2.441   5.333
 7483SOL    HW123348   4.501   2.440   5.405
 7483SOL    HW223349   4.436   2.528   5.284
 7484SOL     OW23350   0.258   0.870   3.430
 7484SOL    HW123351   0.165   0.853   3.463
 7484SOL    HW223352   0.283   0.800   3.362
 7485SOL     OW23353   3.510   0.132   4.256
 7485SOL    HW123354   3.419   0.169   4.274
 7485SOL    HW223355   3.502   0.035   4.232
 7486SOL     OW23356   2.847   0.662   5.622
 7486SOL    HW123357   2.943   0.638   5.633
 7486SOL    HW223358   2.813   0.706   5.705
 7487SOL     OW23359   2.719   6.350   2.605
 7487SOL    HW123360   2.700   6.397   2.691
 7487SOL    HW223361   2.720   6.251   2.620
 7488SOL     OW23362   1.956   6.886   4.246
 7488SOL    HW123363   2.029   6.952   4.263
 7488SOL    HW223364   1.918   6.901   4.155
 7489SOL     OW23365   5.076   2.270   4.655
 7489SOL    HW123366   5.139   2.200   4.689
 7489SOL    HW223367   5.098   2.357   4.698
 7490SOL     OW23368   0.778   1.499   1.106
 7490SOL    HW123369   0.733   1.440   1.172
 7490SOL    HW223370   0.856   1.451   1.065
 7491SOL     OW23371   6.071   3.249   6.261
 7491SOL    HW123372   6.155   3.208   6.224
 7491SOL    HW223373   6.005   3.262   6.186
 7492SOL     OW23374   2.457   0.774   4.241
 7492SOL    HW123375   2.505   0.817   4.317
 7492SOL    HW223376   2.446   0.841   4.167
 7493SOL     OW23377   6.663   4.166   6.376
 7493SOL    HW123378   6.567   4.192   6.370
 7493SOL    HW223379   6.671   4.067   6.375
 7494SOL     OW23380   5.547   0.517   2.963
 7494SOL    HW123381   5.601   0.570   3.028
 7494SOL    HW223382   5.609   0.458   2.910
 7495SOL     OW23383   2.154   0.522   0.179
 7495SOL    HW123384   2.235   0.464   0.179
 7495SOL    HW223385   2.140   0.561   0.271
 7496SOL     OW23386   0.157   3.259   6.186
 7496SOL    HW123387   0.131   3.306   6.102
 7496SOL    HW223388   0.165   3.161   6.167
 7497SOL     OW23389   2.465   4.688   0.454
 7497SOL    HW123390   2.548   4.639   0.480
 7497SOL    HW223391   2.487   4.757   0.385
 7498SOL     OW23392   2.197   1.128   5.513
 7498SOL    HW123393   2.099   1.132   5.494
 7498SOL    HW223394   2.247   1.100   5.431
 7499SOL     OW23395   4.197   1.471   3.158
 7499SOL    HW123396   4.178   1.537   3.085
 7499SOL    HW223397   4.295   1.472   3.179
 7500SOL     OW23398   4.014   5.547   4.211
 7500SOL    HW123399   4.084   5.478   4.228
 7500SOL    HW223400   4.035   5.630   4.262
 7501SOL     OW23401   6.306   4.386   3.744
 7501SOL    HW123402   6.334   4.427   3.657
 7501SOL    HW223403   6.371   4.315   3.769
 7502SOL     OW23404   1.616   0.151   4.132
 7502SOL    HW123405   1.608   0.244   4.167
 7502SOL    HW223406   1.581   0.087   4.200
 7503SOL     OW23407   2.944   1.910   0.925
 7503SOL    HW123408   2.991   1.872   1.005
 7503SOL    HW223409   2.868   1.968   0.954
 7504SOL     OW23410   2.002   0.020   3.209
 7504SOL    HW123411   2.036   6.951   3.190
 7504SOL    HW223412   1.987   0.068   3.122
 7505SOL     OW23413   2.522   1.790   5.693
 7505SOL    HW123414   2.591   1.810   5.623
 7505SOL    HW223415   2.442   1.748   5.650
 7506SOL     OW23416   5.080   6.630   2.662
 7506SOL    HW123417   5.041   6.681   2.585
 7506SOL    HW223418   5.079   6.532   2.641
 7507SOL     OW23419   1.021   0.359   2.147
 7507SOL    HW123420   0.977   0.445   2.170
 7507SOL    HW223421   1.075   0.327   2.225
 7508SOL     OW23422   6.910   6.783   1.817
 7508SOL    HW123423   6.927   6.814   1.910
 7508SOL    HW223424   6.984   6.813   1.757
 7509SOL     OW23425   5.519   4.499   0.641
 7509SOL    HW123426   5.537   4.401   0.645
 7509SOL    HW223427   5.595   4.548   0.684
 7510SOL     OW23428   3.210   4.305   5.435
 7510SOL    HW123429   3.141   4.347   5.376
 7510SOL    HW223430   3.166   4.262   5.514
 7511SOL     OW23431   1.861   6.771   3.459
 7511SOL    HW123432   1.951   6.734   3.483
 7511SOL    HW223433   1.843   6.852   3.515
 7512SOL     OW23434   2.779   5.018   0.005
 7512SOL    HW123435   2.804   5.089   6.963
 7512SOL    HW223436   2.680   5.004   0.003
 7513SOL     OW23437   2.362   1.289   1.663
 7513SOL    HW123438   2.432   1.328   1.724
 7513SOL    HW223439   2.398   1.282   1.570
 7514SOL     OW23440   2.319   5.707   1.854
 7514SOL    HW123441   2.307   5.669   1.762
 7514SOL    HW223442   2.413   5.740   1.864
 7515SOL     OW23443   0.150   5.175   2.427
 7515SOL    HW123444   0.132   5.218   2.338
 7515SOL    HW223445   0.064   5.140   2.465
 7516SOL     OW23446   6.584   5.856   4.613
 7516SOL    HW123447   6.674   5.813   4.610
 7516SOL    HW223448   6.545   5.858   4.520
 7517SOL     OW23449   0.134   2.918   0.249
 7517SOL    HW123450   0.037   2.920   0.275
 7517SOL    HW223451   0.146   2.965   0.162
 7518SOL     OW23452   4.275   5.141   3.216
 7518SOL    HW123453   4.281   5.078   3.139
 7518SOL    HW223454   4.299   5.234   3.186
 7519SOL     OW23455   6.358   6.766   4.275
 7519SOL    HW123456   6.357   6.852   4.326
 7519SOL    HW223457   6.436   6.711   4.305
 7520SOL     OW23458   3.361   6.942   2.012
 7520SOL    HW123459   3.456   6.963   2.035
 7520SOL    HW223460   3.302   7.016   2.045
 7521SOL     OW23461   4.645   4.684   6.123
 7521SOL    HW123462   4.722   4.713   6.066
 7521SOL    HW223463   4.679   4.627   6.198
 7522SOL     OW23464   2.578   6.816   6.298
 7522SOL    HW123465   2.607   6.767   6.380
 7522SOL    HW223466   2.613   6.910   6.302
 7523SOL     OW23467   5.503   0.418   5.958
 7523SOL    HW123468   5.454   0.383   5.878
 7523SOL    HW223469   5.438   0.430   6.033
 7524SOL     OW23470   1.581   2.219   6.238
 7524SOL    HW123471   1.625   2.284   6.175
 7524SOL    HW223472   1.510   2.169   6.189
 7525SOL     OW23473   2.960   0.615   6.198
 7525SOL    HW123474   3.007   0.701   6.176
 7525SOL    HW223475   3.014   0.538   6.164
 7526SOL     OW23476   3.329   3.673   1.604
 7526SOL    HW123477   3.251   3.610   1.601
 7526SOL    HW223478   3.377   3.661   1.691
 7527SOL     OW23479   4.198   5.909   3.163
 7527SOL    HW123480   4.147   5.927   3.247
 7527SOL    HW223481   4.161   5.827   3.118
 7528SOL     OW23482   5.158   1.769   6.555
 7528SOL    HW123483   5.245   1.722   6.542
 7528SOL    HW223484   5.111   1.777   6.467
 7529SOL     OW23485   6.000   0.414   4.132
 7529SOL    HW123486   5.933   0.483   4.105
 7529SOL    HW223487   6.071   0.457   4.188
 7530SOL     OW23488   0.038   3.805   1.652
 7530SOL    HW123489   0.032   3.768   1.745
 7530SOL    HW223490   0.095   3.745   1.596
 7531SOL     OW23491   4.417   2.344   3.872
 7531SOL    HW123492   4.484   2.275   3.845
 7531SOL    HW223493   4.325   2.313   3.848
 7532SOL     OW23494   5.319   4.552   1.414
 7532SOL    HW123495   5.387   4.480   1.414
 7532SOL    HW223496   5.299   4.579   1.320
 7533SOL     OW23497   2.549   1.774   2.613
 7533SOL    HW123498   2.564   1.786   2.711
 7533SOL    HW223499   2.519   1.681   2.595
 7534SOL     OW23500   4.518   5.932   5.690
 7534SOL    HW123501   4.599   5.943   5.632
 7534SOL    HW223502   4.541   5.875   5.768
 7535SOL     OW23503   2.674   0.079   5.722
 7535SOL    HW123504   2.620   0.122   5.649
 7535SOL    HW223505   2.613   0.038   5.790
 7536SOL     OW23506   4.871   4.803   4.785
 7536SOL    HW123507   4.872   4.859   4.868
 7536SOL    HW223508   4.882   4.707   4.809
 7537SOL     OW23509   2.798   5.460   3.361
 7537SOL    HW123510   2.718   5.519   3.370
 7537SOL    HW223511   2.865   5.483   3.432
 7538SOL     OW23512   3.293   3.257   2.012
 7538SOL    HW123513   3.359   3.219   1.947
 7538SOL    HW223514   3.339   3.322   2.072
 7539SOL     OW23515   1.059   3.160   4.439
 7539SOL    HW123516   1.117   3.114   4.507
 7539SOL    HW223517   0.990   3.095   4.405
 7540SOL     OW23518   3.709   6.469   5.573
 7540SOL    HW123519   3.631   6.409   5.590
 7540SOL    HW223520   3.772   6.464   5.651
 7541SOL     OW23521   6.992   4.262   4.095
 7541SOL    HW123522   6.927   4.237   4.023
 7541SOL    HW223523   6.976   4.358   4.122
 7542SOL     OW23524   0.954   5.867   0.090
 7542SOL    HW123525   0.888   5.810   0.140
 7542SOL    HW223526   1.046   5.831   0.103
 7543SOL     OW23527   3.506   2.168   0.903
 7543SOL    HW123528   3.457   2.205   0.981
 7543SOL    HW223529   3.524   2.071   0.918
 7544SOL     OW23530   0.278   2.595   3.161
 7544SOL    HW123531   0.260   2.557   3.070
 7544SOL    HW223532   0.192   2.611   3.209
 7545SOL     OW23533   5.972   6.090   2.100
 7545SOL    HW123534   6.043   6.023   2.079
 7545SOL    HW223535   6.000   6.145   2.179
 7546SOL     OW23536   3.109   1.419   2.074
 7546SOL    HW123537   3.158   1.393   2.157
 7546SOL    HW223538   3.171   1.466   2.011
 7547SOL     OW23539   4.442   0.660   0.393
 7547SOL    HW123540   4.509   0.733   0.397
 7547SOL    HW223541   4.429   0.621   0.484
 7548SOL     OW23542   3.753   2.499   0.465
 7548SOL    HW123543   3.720   2.418   0.418
 7548SOL    HW223544   3.826   2.541   0.412
 7549SOL     OW23545   6.018   2.130   0.975
 7549SOL    HW123546   5.973   2.132   1.065
 7549SOL    HW223547   6.073   2.047   0.968
 7550SOL     OW23548   2.429   4.444   2.391
 7550SOL    HW123549   2.444   4.405   2.300
 7550SOL    HW223550   2.499   4.513   2.409
 7551SOL     OW23551   5.151   3.703   6.824
 7551SOL    HW123552   5.245   3.736   6.829
 7551SOL    HW223553   5.150   3.609   6.788
 7552SOL     OW23554   1.109   5.746   3.369
 7552SOL    HW123555   1.028   5.723   3.424
 7552SOL    HW223556   1.124   5.845   3.373
 7553SOL     OW23557   4.721   5.305   5.479
 7553SOL    HW123558   4.786   5.229   5.480
 7553SOL    HW223559   4.629   5.271   5.497
 7554SOL     OW23560   4.489   1.608   1.471
 7554SOL    HW123561   4.487   1.678   1.542
 7554SOL    HW223562   4.409   1.549   1.479
 7555SOL     OW23563   1.904   4.670   5.516
 7555SOL    HW123564   1.954   4.755   5.532
 7555SOL    HW223565   1.963   4.603   5.473
 7556SOL     OW23566   0.803   2.989   5.529
 7556SOL    HW123567   0.714   2.965   5.566
 7556SOL    HW223568   0.875   2.943   5.582
 7557SOL     OW23569   4.961   2.379   6.156
 7557SOL    HW123570   4.987   2.389   6.252
 7557SOL    HW223571   4.869   2.417   6.142
 7558SOL     OW23572   1.828   2.562   4.268
 7558SOL    HW123573   1.923   2.530   4.275
 7558SOL    HW223574   1.774   2.495   4.217
 7559SOL     OW23575   6.213   4.841   0.017
 7559SOL    HW123576   6.239   4.854   6.945
 7559SOL    HW223577   6.295   4.847   0.075
 7560SOL     OW23578   4.825   6.543   0.724
 7560SOL    HW123579   4.728   6.518   0.729
 7560SOL    HW223580   4.873   6.503   0.802
 7561SOL     OW23581   1.032   3.068   6.764
 7561SOL    HW123582   1.113   3.123   6.743
 7561SOL    HW223583   1.051   2.972   6.745
 7562SOL     OW23584   6.077   5.833   4.686
 7562SOL    HW123585   6.015   5.758   4.709
 7562SOL    HW223586   6.171   5.801   4.688
 7563SOL     OW23587   2.496   6.386   0.769
 7563SOL    HW123588   2.495   6.454   0.696
 7563SOL    HW223589   2.403   6.353   0.785
 7564SOL     OW23590   4.958   1.705   3.144
 7564SOL    HW123591   4.897   1.709   3.223
 7564SOL    HW223592   4.908   1.667   3.066
 7565SOL     OW23593   5.677   3.281   0.932
 7565SOL    HW123594   5.651   3.367   0.888
 7565SOL    HW223595   5.766   3.252   0.898
 7566SOL     OW23596   0.321   4.816   3.179
 7566SOL    HW123597   0.289   4.906   3.211
 7566SOL    HW223598   0.290   4.746   3.243
 7567SOL     OW23599   1.362   1.660   5.075
 7567SOL    HW123600   1.427   1.588   5.097
 7567SOL    HW223601   1.402   1.749   5.097
 7568SOL     OW23602   5.239   6.844   3.445
 7568SOL    HW123603   5.164   6.908   3.432
 7568SOL    HW223604   5.302   6.849   3.368
 7569SOL     OW23605   3.956   5.632   6.331
 7569SOL    HW123606   4.031   5.698   6.334
 7569SOL    HW223607   3.972   5.561   6.399
 7570SOL     OW23608   5.703   4.407   5.025
 7570SOL    HW123609   5.611   4.447   5.024
 7570SOL    HW223610   5.707   4.330   4.962
 7571SOL     OW23611   5.240   5.792   3.223
 7571SOL    HW123612   5.159   5.748   3.184
 7571SOL    HW223613   5.213   5.855   3.296
 7572SOL     OW23614   4.192   0.822   2.249
 7572SOL    HW123615   4.203   0.919   2.225
 7572SOL    HW223616   4.200   0.766   2.166
 7573SOL     OW23617   0.160   6.133   4.848
 7573SOL    HW123618   0.232   6.153   4.913
 7573SOL    HW223619   0.183   6.173   4.759
 7574SOL     OW23620   6.360   0.823   4.578
 7574SOL    HW123621   6.441   0.797   4.525
 7574SOL    HW223622   6.312   0.740   4.608
 7575SOL     OW23623   3.761   0.633   5.687
 7575SOL    HW123624   3.677   0.687   5.689
 7575SOL    HW223625   3.741   0.542   5.650
 7576SOL     OW23626   5.543   5.073   6.861
 7576SOL    HW123627   5.502   5.112   6.943
 7576SOL    HW223628   5.620   5.014   6.886
 7577SOL     OW23629   6.918   6.804   5.737
 7577SOL    HW123630   7.016   6.801   5.713
 7577SOL    HW223631   6.900   6.884   5.793
 7578SOL     OW23632   2.352   5.753   2.409
 7578SOL    HW123633   2.252   5.757   2.408
 7578SOL    HW223634   2.382   5.685   2.476
 7579SOL     OW23635   6.204   1.718   2.012
 7579SOL    HW123636   6.147   1.638   1.994
 7579SOL    HW223637   6.176   1.793   1.953
 7580SOL     OW23638   1.280   3.925   4.282
 7580SOL    HW123639   1.288   3.967   4.372
 7580SOL    HW223640   1.191   3.946   4.243
 7581SOL     OW23641   6.778   0.436   0.991
 7581SOL    HW123642   6.728   0.365   0.941
 7581SOL    HW223643   6.819   0.500   0.927
 7582SOL     OW23644   2.419   1.194   0.444
 7582SOL    HW123645   2.332   1.169   0.400
 7582SOL    HW223646   2.481   1.116   0.442
 7583SOL     OW23647   6.227   3.113   0.726
 7583SOL    HW123648   6.298   3.136   0.659
 7583SOL    HW223649   6.258   3.037   0.782
 7584SOL     OW23650   2.396   6.929   1.572
 7584SOL    HW123651   2.473   6.870   1.549
 7584SOL    HW223652   2.342   6.947   1.490
 7585SOL     OW23653   1.714   2.387   6.060
 7585SOL    HW123654   1.672   2.476   6.043
 7585SOL    HW223655   1.804   2.400   6.103
 7586SOL     OW23656   3.650   1.248   3.497
 7586SOL    HW123657   3.653   1.343   3.465
 7586SOL    HW223658   3.741   1.221   3.529
 7587SOL     OW23659   2.627   1.885   6.877
 7587SOL    HW123660   2.715   1.918   6.844
 7587SOL    HW223661   2.562   1.882   6.801
 7588SOL     OW23662   1.211   3.285   2.536
 7588SOL    HW123663   1.235   3.353   2.467
 7588SOL    HW223664   1.213   3.194   2.494
 7589SOL     OW23665   0.305   6.897   1.971
 7589SOL    HW123666   0.394   6.941   1.963
 7589SOL    HW223667   0.233   6.966   1.982
 7590SOL     OW23668   4.363   1.854   6.410
 7590SOL    HW123669   4.427   1.789   6.369
 7590SOL    HW223670   4.384   1.946   6.377
 7591SOL     OW23671   7.001   4.257   0.518
 7591SOL    HW123672   0.021   4.193   0.454
 7591SOL    HW223673   6.996   4.215   0.609
 7592SOL     OW23674   6.754   3.971   6.045
 7592SOL    HW123675   6.726   4.041   5.980
 7592SOL    HW223676   6.680   3.952   6.109
 7593SOL     OW23677   5.890   2.371   1.117
 7593SOL    HW123678   5.983   2.372   1.155
 7593SOL    HW223679   5.830   2.319   1.178
 7594SOL     OW23680   0.794   5.523   1.899
 7594SOL    HW123681   0.742   5.572   1.968
 7594SOL    HW223682   0.810   5.429   1.929
 7595SOL     OW23683   0.030   2.621   5.849
 7595SOL    HW123684   0.045   2.714   5.884
 7595SOL    HW223685   0.094   2.558   5.893
 7596SOL     OW23686   4.784   5.616   4.083
 7596SOL    HW123687   4.866   5.652   4.040
 7596SOL    HW223688   4.735   5.691   4.129
 7597SOL     OW23689   3.668   6.353   3.021
 7597SOL    HW123690   3.738   6.298   3.067
 7597SOL    HW223691   3.704   6.387   2.934
 7598SOL     OW23692   6.789   1.943   3.497
 7598SOL    HW123693   6.878   1.989   3.490
 7598SOL    HW223694   6.770   1.893   3.412
 7599SOL     OW23695   6.079   1.718   2.450
 7599SOL    HW123696   6.148   1.702   2.379
 7599SOL    HW223697   6.107   1.672   2.535
 7600SOL     OW23698   1.900   1.453   2.622
 7600SOL    HW123699   1.823   1.482   2.564
 7600SOL    HW223700   1.984   1.452   2.568
 7601SOL     OW23701   2.318   5.379   3.246
 7601SOL    HW123702   2.380   5.382   3.325
 7601SOL    HW223703   2.320   5.288   3.206
 7602SOL     OW23704   0.254   4.466   6.846
 7602SOL    HW123705   0.308   4.511   6.918
 7602SOL    HW223706   0.174   4.422   6.887
 7603SOL     OW23707   2.272   4.771   6.149
 7603SOL    HW123708   2.225   4.802   6.232
 7603SOL    HW223709   2.225   4.690   6.113
 7604SOL     OW23710   1.330   4.929   4.066
 7604SOL    HW123711   1.381   4.898   4.147
 7604SOL    HW223712   1.393   4.938   3.989
 7605SOL     OW23713   0.177   6.975   1.182
 7605SOL    HW123714   0.117   6.903   1.148
 7605SOL    HW223715   0.123   0.034   1.201
 7606SOL     OW23716   6.448   3.557   4.079
 7606SOL    HW123717   6.426   3.633   4.017
 7606SOL    HW223718   6.540   3.571   4.117
 7607SOL     OW23719   4.179   4.563   0.176
 7607SOL    HW123720   4.251   4.510   0.221
 7607SOL    HW223721   4.169   4.651   0.222
 7608SOL     OW23722   3.623   4.128   2.748
 7608SOL    HW123723   3.566   4.071   2.688
 7608SOL    HW223724   3.688   4.179   2.692
 7609SOL     OW23725   0.824   3.602   4.290
 7609SOL    HW123726   0.778   3.545   4.222
 7609SOL    HW223727   0.865   3.544   4.360
 7610SOL     OW23728   5.710   6.223   0.582
 7610SOL    HW123729   5.676   6.140   0.537
 7610SOL    HW223730   5.635   6.269   0.629
 7611SOL     OW23731   0.409   2.340   0.644
 7611SOL    HW123732   0.458   2.253   0.654
 7611SOL    HW223733   0.443   2.405   0.712
 7612SOL     OW23734   5.134   3.316   4.800
 7612SOL    HW123735   5.180   3.397   4.764
 7612SOL    HW223736   5.051   3.343   4.848
 7613SOL     OW23737   6.583   3.657   1.261
 7613SOL    HW123738   6.611   3.568   1.299
 7613SOL    HW223739   6.523   3.703   1.326
 7614SOL     OW23740   4.870   3.880   1.048
 7614SOL    HW123741   4.785   3.843   1.011
 7614SOL    HW223742   4.852   3.966   1.096
 7615SOL     OW23743   3.786   4.308   6.414
 7615SOL    HW123744   3.725   4.333   6.490
 7615SOL    HW223745   3.749   4.345   6.329
 7616SOL     OW23746   6.215   5.272   5.659
 7616SOL    HW123747   6.168   5.192   5.621
 7616SOL    HW223748   6.218   5.345   5.591
 7617SOL     OW23749   3.724   5.507   2.858
 7617SOL    HW123750   3.632   5.507   2.818
 7617SOL    HW223751   3.791   5.492   2.785
 7618SOL     OW23752   0.336   1.502   5.867
 7618SOL    HW123753   0.322   1.415   5.913
 7618SOL    HW223754   0.269   1.513   5.794
 7619SOL     OW23755   5.798   3.029   5.563
 7619SOL    HW123756   5.705   2.999   5.541
 7619SOL    HW223757   5.856   2.948   5.578
 7620SOL     OW23758   4.291   5.777   0.769
 7620SOL    HW123759   4.330   5.707   0.829
 7620SOL    HW223760   4.318   5.757   0.674
 7621SOL     OW23761   0.149   1.638   0.762
 7621SOL    HW123762   0.209   1.574   0.811
 7621SOL    HW223763   0.178   1.731   0.781
 7622SOL     OW23764   5.129   5.475   1.400
 7622SOL    HW123765   5.163   5.426   1.320
 7622SOL    HW223766   5.044   5.522   1.377
 7623SOL     OW23767   4.740   4.245   6.560
 7623SOL    HW123768   4.704   4.338   6.562
 7623SOL    HW223769   4.703   4.193   6.637
 7624SOL     OW23770   0.345   3.151   4.749
 7624SOL    HW123771   0.409   3.082   4.712
 7624SOL    HW223772   0.253   3.112   4.752
 7625SOL     OW23773   4.918   1.018   1.204
 7625SOL    HW123774   4.875   1.037   1.292
 7625SOL    HW223775   5.011   0.984   1.219
 7626SOL     OW23776   6.102   6.864   3.986
 7626SOL    HW123777   6.088   6.868   4.085
 7626SOL    HW223778   6.104   6.769   3.956
 7627SOL     OW23779   5.218   2.420   0.084
 7627SOL    HW123780   5.125   2.397   0.113
 7627SOL    HW223781   5.281   2.403   0.160
 7628SOL     OW23782   3.560   1.132   2.962
 7628SOL    HW123783   3.528   1.177   3.046
 7628SOL    HW223784   3.643   1.079   2.982
 7629SOL     OW23785   6.475   6.673   3.255
 7629SOL    HW123786   6.535   6.600   3.287
 7629SOL    HW223787   6.386   6.636   3.231
 7630SOL     OW23788   6.500   6.932   1.688
 7630SOL    HW123789   6.584   6.961   1.643
 7630SOL    HW223790   6.432   7.006   1.680
 7631SOL     OW23791   1.020   0.872   6.188
 7631SOL    HW123792   1.022   0.792   6.128
 7631SOL    HW223793   0.997   0.953   6.134
 7632SOL     OW23794   3.381   2.841   2.087
 7632SOL    HW123795   3.473   2.809   2.063
 7632SOL    HW223796   3.315   2.806   2.020
 7633SOL     OW23797   5.121   1.293   1.283
 7633SOL    HW123798   5.151   1.243   1.364
 7633SOL    HW223799   5.159   1.250   1.201
 7634SOL     OW23800   1.028   1.892   2.706
 7634SOL    HW123801   1.023   1.824   2.779
 7634SOL    HW223802   0.954   1.958   2.716
 7635SOL     OW23803   3.822   5.224   5.247
 7635SOL    HW123804   3.889   5.274   5.193
 7635SOL    HW223805   3.839   5.239   5.344
 7636SOL     OW23806   1.371   2.222   4.401
 7636SOL    HW123807   1.301   2.253   4.337
 7636SOL    HW223808   1.340   2.138   4.446
 7637SOL     OW23809   2.489   5.247   2.349
 7637SOL    HW123810   2.512   5.205   2.436
 7637SOL    HW223811   2.461   5.176   2.284
 7638SOL     OW23812   3.314   6.349   0.656
 7638SOL    HW123813   3.237   6.286   0.668
 7638SOL    HW223814   3.370   6.350   0.739
 7639SOL     OW23815   1.275   1.960   0.488
 7639SOL    HW123816   1.268   1.963   0.388
 7639SOL    HW223817   1.245   2.048   0.526
 7640SOL     OW23818   3.390   1.990   6.573
 7640SOL    HW123819   3.448   2.062   6.535
 7640SOL    HW223820   3.296   2.023   6.578
 7641SOL     OW23821   1.500   4.436   1.867
 7641SOL    HW123822   1.579   4.497   1.872
 7641SOL    HW223823   1.425   4.484   1.821
 7642SOL     OW23824   3.781   0.936   2.982
 7642SOL    HW123825   3.829   0.892   2.907
 7642SOL    HW223826   3.843   0.947   3.060
 7643SOL     OW23827   4.908   3.693   4.087
 7643SOL    HW123828   4.863   3.778   4.115
 7643SOL    HW223829   4.947   3.648   4.167
 7644SOL     OW23830   5.967   2.374   2.295
 7644SOL    HW123831   5.914   2.456   2.317
 7644SOL    HW223832   5.917   2.319   2.227
 7645SOL     OW23833   3.933   4.444   5.678
 7645SOL    HW123834   4.021   4.405   5.652
 7645SOL    HW223835   3.870   4.370   5.702
 7646SOL     OW23836   1.229   3.725   2.918
 7646SOL    HW123837   1.194   3.737   3.011
 7646SOL    HW223838   1.329   3.726   2.920
 7647SOL     OW23839   6.607   3.918   2.881
 7647SOL    HW123840   6.682   3.982   2.866
 7647SOL    HW223841   6.534   3.936   2.814
 7648SOL     OW23842   2.351   1.472   3.218
 7648SOL    HW123843   2.418   1.539   3.251
 7648SOL    HW223844   2.394   1.382   3.213
 7649SOL     OW23845   1.112   0.851   3.109
 7649SOL    HW123846   1.143   0.881   3.019
 7649SOL    HW223847   1.041   0.914   3.143
 7650SOL     OW23848   5.160   2.228   1.076
 7650SOL    HW123849   5.188   2.285   0.998
 7650SOL    HW223850   5.064   2.201   1.064
 7651SOL     OW23851   2.582   0.955   4.467
 7651SOL    HW123852   2.491   0.997   4.472
 7651SOL    HW223853   2.646   1.020   4.427
 7652SOL     OW23854   6.313   3.622   4.512
 7652SOL    HW123855   6.409   3.596   4.516
 7652SOL    HW223856   6.278   3.610   4.419
 7653SOL     OW23857   2.194   2.080   0.092
 7653SOL    HW123858   2.099   2.062   0.114
 7653SOL    HW223859   2.234   1.998   0.050
 7654SOL     OW23860   4.979   2.945   3.289
 7654SOL    HW123861   4.902   2.953   3.352
 7654SOL    HW223862   5.058   2.994   3.326
 7655SOL     OW23863   4.549   0.218   3.138
 7655SOL    HW123864   4.518   0.196   3.230
 7655SOL    HW223865   4.494   0.169   3.071
 7656SOL     OW23866   2.337   5.123   5.780
 7656SOL    HW123867   2.306   5.216   5.759
 7656SOL    HW223868   2.301   5.096   5.870
 7657SOL     OW23869   1.883   3.157   4.148
 7657SOL    HW123870   1.843   3.222   4.212
 7657SOL    HW223871   1.879   3.065   4.187
 7658SOL     OW23872   3.389   0.214   5.748
 7658SOL    HW123873   3.411   0.125   5.789
 7658SOL    HW223874   3.294   0.215   5.718
 7659SOL     OW23875   5.839   5.229   6.887
 7659SOL    HW123876   5.829   5.131   6.899
 7659SOL    HW223877   5.930   5.249   6.849
 7660SOL     OW23878   0.403   5.818   3.882
 7660SOL    HW123879   0.400   5.765   3.797
 7660SOL    HW223880   0.473   5.779   3.942
 7661SOL     OW23881   6.073   2.889   4.554
 7661SOL    HW123882   6.072   2.972   4.499
 7661SOL    HW223883   6.060   2.810   4.495
 7662SOL     OW23884   0.924   2.964   2.485
 7662SOL    HW123885   0.868   2.887   2.455
 7662SOL    HW223886   0.876   3.049   2.467
 7663SOL     OW23887   1.457   5.671   6.344
 7663SOL    HW123888   1.508   5.755   6.361
 7663SOL    HW223889   1.471   5.642   6.249
 7664SOL     OW23890   3.466   0.209   1.380
 7664SOL    HW123891   3.412   0.172   1.305
 7664SOL    HW223892   3.516   0.135   1.426
 7665SOL     OW23893   4.669   0.325   4.669
 7665SOL    HW123894   4.689   0.235   4.708
 7665SOL    HW223895   4.583   0.360   4.706
 7666SOL     OW23896   0.392   6.063   1.465
 7666SOL    HW123897   0.328   6.065   1.542
 7666SOL    HW223898   0.422   6.156   1.445
 7667SOL     OW23899   4.731   5.645   2.410
 7667SOL    HW123900   4.708   5.636   2.507
 7667SOL    HW223901   4.785   5.728   2.396
 7668SOL     OW23902   2.993   4.544   0.700
 7668SOL    HW123903   2.918   4.495   0.745
 7668SOL    HW223904   3.044   4.481   0.642
 7669SOL     OW23905   5.226   2.188   5.579
 7669SOL    HW123906   5.287   2.172   5.657
 7669SOL    HW223907   5.147   2.126   5.585
 7670SOL     OW23908   0.901   5.217   6.991
 7670SOL    HW123909   0.892   5.305   6.944
 7670SOL    HW223910   0.882   5.143   6.926
 7671SOL     OW23911   4.343   1.043   2.987
 7671SOL    HW123912   4.281   1.121   2.991
 7671SOL    HW223913   4.423   1.061   3.044
 7672SOL     OW23914   0.514   6.366   3.280
 7672SOL    HW123915   0.549   6.413   3.199
 7672SOL    HW223916   0.420   6.395   3.297
 7673SOL     OW23917   1.817   5.713   0.220
 7673SOL    HW123918   1.800   5.763   0.135
 7673SOL    HW223919   1.752   5.637   0.227
 7674SOL     OW23920   5.956   1.241   3.348
 7674SOL    HW123921   6.030   1.254   3.413
 7674SOL    HW223922   5.980   1.284   3.261
 7675SOL     OW23923   6.314   6.674   2.222
 7675SOL    HW123924   6.224   6.701   2.189
 7675SOL    HW223925   6.312   6.664   2.321
 7676SOL     OW23926   2.129   1.807   1.155
 7676SOL    HW123927   2.140   1.813   1.254
 7676SOL    HW223928   2.104   1.897   1.119
 7677SOL     OW23929   0.583   5.206   2.146
 7677SOL    HW123930   0.503   5.236   2.094
 7677SOL    HW223931   0.667   5.235   2.099
 7678SOL     OW23932   1.742   1.589   5.035
 7678SOL    HW123933   1.661   1.539   5.064
 7678SOL    HW223934   1.729   1.687   5.051
 7679SOL     OW23935   2.550   5.367   6.687
 7679SOL    HW123936   2.538   5.437   6.616
 7679SOL    HW223937   2.472   5.370   6.749
 7680SOL     OW23938   1.847   1.876   1.067
 7680SOL    HW123939   1.768   1.861   1.008
 7680SOL    HW223940   1.863   1.795   1.124
 7681SOL     OW23941   2.300   0.140   0.954
 7681SOL    HW123942   2.252   0.216   0.997
 7681SOL    HW223943   2.259   0.054   0.986
 7682SOL     OW23944   3.396   0.066   2.565
 7682SOL    HW123945   3.457   0.009   2.510
 7682SOL    HW223946   3.305   0.025   2.566
 7683SOL     OW23947   5.771   1.290   3.544
 7683SOL    HW123948   5.831   1.245   3.478
 7683SOL    HW223949   5.786   1.389   3.541
 7684SOL     OW23950   3.843   2.044   2.230
 7684SOL    HW123951   3.807   2.105   2.159
 7684SOL    HW223952   3.830   1.949   2.202
 7685SOL     OW23953   3.281   2.448   0.032
 7685SOL    HW123954   3.353   2.404   7.002
 7685SOL    HW223955   3.246   2.527   7.006
 7686SOL     OW23956   6.411   6.735   2.853
 7686SOL    HW123957   6.480   6.669   2.880
 7686SOL    HW223958   6.442   6.786   2.773
 7687SOL     OW23959   5.747   5.093   4.010
 7687SOL    HW123960   5.754   5.190   4.034
 7687SOL    HW223961   5.800   5.075   3.927
 7688SOL     OW23962   1.587   5.800   5.863
 7688SOL    HW123963   1.562   5.846   5.949
 7688SOL    HW223964   1.543   5.847   5.786
 7689SOL     OW23965   5.478   6.683   3.040
 7689SOL    HW123966   5.450   6.758   3.100
 7689SOL    HW223967   5.411   6.673   2.966
 7690SOL     OW23968   5.528   5.136   0.613
 7690SOL    HW123969   5.486   5.064   0.667
 7690SOL    HW223970   5.456   5.189   0.567
 7691SOL     OW23971   5.540   2.707   5.231
 7691SOL    HW123972   5.463   2.679   5.289
 7691SOL    HW223973   5.604   2.631   5.221
 7692SOL     OW23974   0.537   6.693   2.033
 7692SOL    HW123975   0.457   6.752   2.026
 7692SOL    HW223976   0.612   6.744   2.074
 7693SOL     OW23977   4.012   0.181   1.178
 7693SOL    HW123978   4.012   0.240   1.097
 7693SOL    HW223979   3.934   0.119   1.173
 7694SOL     OW23980   0.235   4.677   5.381
 7694SOL    HW123981   0.168   4.746   5.409
 7694SOL    HW223982   0.199   4.626   5.303
 7695SOL     OW23983   4.386   6.919   0.828
 7695SOL    HW123984   4.411   6.950   0.736
 7695SOL    HW223985   4.307   6.858   0.823
 7696SOL     OW23986   6.734   0.959   4.881
 7696SOL    HW123987   6.781   1.001   4.803
 7696SOL    HW223988   6.656   0.906   4.848
 7697SOL     OW23989   3.026   6.384   2.502
 7697SOL    HW123990   2.927   6.401   2.508
 7697SOL    HW223991   3.053   6.380   2.406
 7698SOL     OW23992   6.680   2.186   3.562
 7698SOL    HW123993   6.599   2.202   3.506
 7698SOL    HW223994   6.717   2.095   3.542
 7699SOL     OW23995   3.559   6.005   6.850
 7699SOL    HW123996   3.625   6.013   6.775
 7699SOL    HW223997   3.512   5.917   6.843
 7700SOL     OW23998   5.163   6.359   4.436
 7700SOL    HW123999   5.191   6.267   4.461
 7700SOL    HW224000   5.067   6.358   4.406
 7701SOL     OW24001   6.405   1.508   6.886
 7701SOL    HW124002   6.352   1.423   6.893
 7701SOL    HW224003   6.457   1.508   6.800
 7702SOL     OW24004   3.653   6.147   5.725
 7702SOL    HW124005   3.740   6.167   5.681
 7702SOL    HW224006   3.599   6.232   5.730
 7703SOL     OW24007   6.158   0.407   5.818
 7703SOL    HW124008   6.194   0.329   5.869
 7703SOL    HW224009   6.076   0.441   5.863
 7704SOL     OW24010   5.800   5.336   4.800
 7704SOL    HW124011   5.707   5.324   4.834
 7704SOL    HW224012   5.845   5.247   4.795
 7705SOL     OW24013   4.010   5.421   6.512
 7705SOL    HW124014   4.004   5.452   6.607
 7705SOL    HW224015   4.002   5.321   6.509
 7706SOL     OW24016   4.394   3.101   5.331
 7706SOL    HW124017   4.479   3.150   5.345
 7706SOL    HW224018   4.324   3.164   5.297
 7707SOL     OW24019   0.624   5.579   6.200
 7707SOL    HW124020   0.538   5.571   6.151
 7707SOL    HW224021   0.698   5.597   6.135
 7708SOL     OW24022   6.724   0.273   5.377
 7708SOL    HW124023   6.727   0.323   5.463
 7708SOL    HW224024   6.755   0.332   5.303
 7709SOL     OW24025   5.703   4.330   1.619
 7709SOL    HW124026   5.741   4.412   1.576
 7709SOL    HW224027   5.666   4.353   1.709
 7710SOL     OW24028   2.794   0.544   0.205
 7710SOL    HW124029   2.817   0.638   0.229
 7710SOL    HW224030   2.846   0.517   0.124
 7711SOL     OW24031   6.552   6.326   5.714
 7711SOL    HW124032   6.481   6.385   5.673
 7711SOL    HW224033   6.570   6.357   5.807
 7712SOL     OW24034   5.474   5.940   2.561
 7712SOL    HW124035   5.548   5.975   2.618
 7712SOL    HW224036   5.503   5.943   2.465
 7713SOL     OW24037   1.392   4.334   0.478
 7713SOL    HW124038   1.450   4.254   0.489
 7713SOL    HW224039   1.423   4.407   0.539
 7714SOL     OW24040   6.132   4.168   5.633
 7714SOL    HW124041   6.154   4.101   5.563
 7714SOL    HW224042   6.186   4.150   5.715
 7715SOL     OW24043   3.970   2.136   0.098
 7715SOL    HW124044   3.982   2.037   0.100
 7715SOL    HW224045   3.883   2.159   0.054
 7716SOL     OW24046   6.111   4.682   3.316
 7716SOL    HW124047   6.101   4.758   3.380
 7716SOL    HW224048   6.025   4.665   3.270
 7717SOL     OW24049   1.807   0.929   4.987
 7717SOL    HW124050   1.739   0.993   5.023
 7717SOL    HW224051   1.803   0.844   5.039
 7718SOL     OW24052   1.645   2.782   3.159
 7718SOL    HW124053   1.700   2.746   3.235
 7718SOL    HW224054   1.593   2.707   3.118
 7719SOL     OW24055   6.660   4.426   4.869
 7719SOL    HW124056   6.576   4.374   4.859
 7719SOL    HW224057   6.715   4.417   4.785
 7720SOL     OW24058   0.250   1.424   0.085
 7720SOL    HW124059   0.342   1.464   0.080
 7720SOL    HW224060   0.198   1.450   0.004
 7721SOL     OW24061   0.569   5.148   2.418
 7721SOL    HW124062   0.580   5.156   2.319
 7721SOL    HW224063   0.503   5.076   2.439
 7722SOL     OW24064   1.075   5.485   3.257
 7722SOL    HW124065   0.991   5.431   3.247
 7722SOL    HW224066   1.057   5.563   3.316
 7723SOL     OW24067   5.062   2.954   6.980
 7723SOL    HW124068   5.116   2.954   0.041
 7723SOL    HW224069   4.965   2.941   7.003
 7724SOL     OW24070   3.180   4.182   1.010
 7724SOL    HW124071   3.227   4.266   1.036
 7724SOL    HW224072   3.199   4.111   1.078
 7725SOL     OW24073   6.399   2.408   3.751
 7725SOL    HW124074   6.402   2.309   3.747
 7725SOL    HW224075   6.308   2.440   3.724
 7726SOL     OW24076   1.946   5.926   5.159
 7726SOL    HW124077   1.900   6.007   5.196
 7726SOL    HW224078   1.912   5.907   5.067
 7727SOL     OW24079   0.034   1.084   3.114
 7727SOL    HW124080   7.004   1.089   3.198
 7727SOL    HW224081   7.017   1.144   3.045
 7728SOL     OW24082   1.244   4.667   3.240
 7728SOL    HW124083   1.169   4.732   3.255
 7728SOL    HW224084   1.278   4.635   3.329
 7729SOL     OW24085   5.690   2.298   1.270
 7729SOL    HW124086   5.600   2.341   1.284
 7729SOL    HW224087   5.745   2.308   1.353
 7730SOL     OW24088   6.044   5.903   0.944
 7730SOL    HW124089   5.961   5.850   0.962
 7730SOL    HW224090   6.023   5.977   0.881
 7731SOL     OW24091   6.387   0.879   6.521
 7731SOL    HW124092   6.397   0.896   6.620
 7731SOL    HW224093   6.335   0.796   6.507
 7732SOL     OW24094   4.253   6.403   0.724
 7732SOL    HW124095   4.175   6.438   0.776
 7732SOL    HW224096   4.298   6.479   0.676
 7733SOL     OW24097   4.701   6.548   2.590
 7733SOL    HW124098   4.677   6.595   2.506
 7733SOL    HW224099   4.635   6.475   2.608
 7734SOL     OW24100   2.692   5.355   3.148
 7734SOL    HW124101   2.718   5.387   3.239
 7734SOL    HW224102   2.688   5.433   3.085
 7735SOL     OW24103   5.119   6.336   6.753
 7735SOL    HW124104   5.033   6.291   6.732
 7735SOL    HW224105   5.102   6.432   6.775
 7736SOL     OW24106   3.348   3.674   0.206
 7736SOL    HW124107   3.280   3.712   0.268
 7736SOL    HW224108   3.304   3.609   0.144
 7737SOL     OW24109   3.141   0.348   2.444
 7737SOL    HW124110   3.092   0.260   2.442
 7737SOL    HW224111   3.200   0.352   2.525
 7738SOL     OW24112   2.956   5.998   6.959
 7738SOL    HW124113   2.864   6.015   6.995
 7738SOL    HW224114   2.969   5.900   6.946
 7739SOL     OW24115   0.768   2.240   0.863
 7739SOL    HW124116   0.710   2.320   0.852
 7739SOL    HW224117   0.779   2.194   0.775
 7740SOL     OW24118   2.192   0.796   3.043
 7740SOL    HW124119   2.240   0.755   2.965
 7740SOL    HW224120   2.109   0.842   3.011
 7741SOL     OW24121   1.058   5.019   5.873
 7741SOL    HW124122   1.010   5.093   5.919
 7741SOL    HW224123   1.136   5.057   5.822
 7742SOL     OW24124   5.018   2.047   3.595
 7742SOL    HW124125   4.945   2.057   3.663
 7742SOL    HW224126   4.979   2.046   3.503
 7743SOL     OW24127   6.110   1.115   0.287
 7743SOL    HW124128   6.180   1.125   0.358
 7743SOL    HW224129   6.020   1.120   0.330
 7744SOL     OW24130   0.879   6.484   3.659
 7744SOL    HW124131   0.794   6.498   3.610
 7744SOL    HW224132   0.957   6.497   3.597
 7745SOL     OW24133   3.796   1.031   6.534
 7745SOL    HW124134   3.827   0.938   6.556
 7745SOL    HW224135   3.802   1.089   6.615
 7746SOL     OW24136   2.342   6.464   0.209
 7746SOL    HW124137   2.324   6.437   0.115
 7746SOL    HW224138   2.414   6.407   0.247
 7747SOL     OW24139   5.591   6.039   1.382
 7747SOL    HW124140   5.550   5.950   1.366
 7747SOL    HW224141   5.612   6.049   1.480
 7748SOL     OW24142   2.911   3.621   4.789
 7748SOL    HW124143   2.960   3.535   4.769
 7748SOL    HW224144   2.876   3.617   4.883
 7749SOL     OW24145   2.376   2.678   5.915
 7749SOL    HW124146   2.313   2.605   5.888
 7749SOL    HW224147   2.467   2.660   5.877
 7750SOL     OW24148   0.122   6.054   1.642
 7750SOL    HW124149   0.081   6.135   1.684
 7750SOL    HW224150   0.129   5.981   1.710
 7751SOL     OW24151   1.162   2.610   1.973
 7751SOL    HW124152   1.210   2.619   1.885
 7751SOL    HW224153   1.088   2.543   1.964
 7752SOL     OW24154   5.755   0.172   5.969
 7752SOL    HW124155   5.661   0.141   5.952
 7752SOL    HW224156   5.753   0.265   6.007
 7753SOL     OW24157   2.398   1.828   3.924
 7753SOL    HW124158   2.490   1.803   3.954
 7753SOL    HW224159   2.383   1.791   3.832
 7754SOL     OW24160   3.007   6.400   1.213
 7754SOL    HW124161   3.027   6.378   1.308
 7754SOL    HW224162   2.928   6.348   1.181
 7755SOL     OW24163   2.511   2.182   5.518
 7755SOL    HW124164   2.482   2.149   5.429
 7755SOL    HW224165   2.438   2.236   5.559
 7756SOL     OW24166   2.838   6.599   2.758
 7756SOL    HW124167   2.791   6.604   2.669
 7756SOL    HW224168   2.771   6.574   2.828
 7757SOL     OW24169   5.686   4.871   0.606
 7757SOL    HW124170   5.743   4.789   0.604
 7757SOL    HW224171   5.713   4.932   0.531
 7758SOL     OW24172   2.258   7.004   5.773
 7758SOL    HW124173   2.310   6.923   5.745
 7758SOL    HW224174   2.220   0.025   5.691
 7759SOL     OW24175   1.956   2.057   5.753
 7759SOL    HW124176   1.965   1.977   5.813
 7759SOL    HW224177   2.047   2.097   5.738
 7760SOL     OW24178   5.956   3.747   2.172
 7760SOL    HW124179   5.881   3.696   2.130
 7760SOL    HW224180   5.956   3.732   2.270
 7761SOL     OW24181   6.488   6.722   4.721
 7761SOL    HW124182   6.513   6.802   4.667
 7761SOL    HW224183   6.437   6.658   4.664
 7762SOL     OW24184   2.325   0.273   4.279
 7762SOL    HW124185   2.321   0.216   4.197
 7762SOL    HW224186   2.380   0.354   4.262
 7763SOL     OW24187   2.142   0.175   6.758
 7763SOL    HW124188   2.156   0.127   6.844
 7763SOL    HW224189   2.054   0.148   6.718
 7764SOL     OW24190   3.588   3.700   5.195
 7764SOL    HW124191   3.645   3.665   5.269
 7764SOL    HW224192   3.645   3.717   5.114
 7765SOL     OW24193   6.211   3.216   4.893
 7765SOL    HW124194   6.290   3.187   4.947
 7765SOL    HW224195   6.241   3.250   4.804
 7766SOL     OW24196   6.793   3.899   0.151
 7766SOL    HW124197   6.737   3.818   0.168
 7766SOL    HW224198   6.740   3.982   0.170
 7767SOL     OW24199   4.606   5.694   2.170
 7767SOL    HW124200   4.536   5.737   2.227
 7767SOL    HW224201   4.672   5.648   2.228
 7768SOL     OW24202   4.646   4.264   2.882
 7768SOL    HW124203   4.570   4.202   2.902
 7768SOL    HW224204   4.722   4.244   2.944
 7769SOL     OW24205   4.603   1.813   4.045
 7769SOL    HW124206   4.533   1.885   4.042
 7769SOL    HW224207   4.629   1.796   4.140
 7770SOL     OW24208   1.686   3.682   4.747
 7770SOL    HW124209   1.617   3.729   4.802
 7770SOL    HW224210   1.657   3.587   4.730
 7771SOL     OW24211   3.476   2.017   5.283
 7771SOL    HW124212   3.393   2.028   5.228
 7771SOL    HW224213   3.551   2.066   5.240
 7772SOL     OW24214   4.928   6.710   1.926
 7772SOL    HW124215   4.843   6.657   1.918
 7772SOL    HW224216   4.994   6.678   1.858
 7773SOL     OW24217   1.817   4.905   5.290
 7773SOL    HW124218   1.844   4.822   5.338
 7773SOL    HW224219   1.897   4.964   5.279
 7774SOL     OW24220   4.831   2.264   4.493
 7774SOL    HW124221   4.785   2.261   4.582
 7774SOL    HW224222   4.930   2.252   4.508
 7775SOL     OW24223   4.314   7.007   0.098
 7775SOL    HW124224   4.332   0.081   0.084
 7775SOL    HW224225   4.395   6.963   0.136
 7776SOL     OW24226   0.870   6.125   6.985
 7776SOL    HW124227   0.866   6.216   0.002
 7776SOL    HW224228   0.886   6.057   0.034
 7777SOL     OW24229   6.104   5.393   3.947
 7777SOL    HW124230   6.173   5.334   3.989
 7777SOL    HW224231   6.148   5.464   3.892
 7778SOL     OW24232   5.386   3.667   1.678
 7778SOL    HW124233   5.452   3.613   1.730
 7778SOL    HW224234   5.415   3.763   1.678
 7779SOL     OW24235   2.604   1.446   1.550
 7779SOL    HW124236   2.625   1.524   1.608
 7779SOL    HW224237   2.643   1.363   1.591
 7780SOL     OW24238   0.565   5.107   5.818
 7780SOL    HW124239   0.629   5.146   5.751
 7780SOL    HW224240   0.613   5.038   5.871
 7781SOL     OW24241   2.038   4.270   1.777
 7781SOL    HW124242   2.124   4.287   1.730
 7781SOL    HW224243   2.051   4.278   1.876
 7782SOL     OW24244   5.023   5.116   4.270
 7782SOL    HW124245   4.950   5.174   4.234
 7782SOL    HW224246   5.017   5.112   4.369
 7783SOL     OW24247   0.651   0.031   5.646
 7783SOL    HW124248   0.611   0.039   5.554
 7783SOL    HW224249   0.617   0.106   5.703
 7784SOL     OW24250   3.641   2.791   2.025
 7784SOL    HW124251   3.630   2.703   2.071
 7784SOL    HW224252   3.736   2.821   2.032
 7785SOL     OW24253   1.951   6.191   4.785
 7785SOL    HW124254   1.915   6.233   4.701
 7785SOL    HW224255   1.889   6.208   4.861
 7786SOL     OW24256   3.515   0.329   0.546
 7786SOL    HW124257   3.593   0.319   0.609
 7786SOL    HW224258   3.431   0.300   0.592
 7787SOL     OW24259   2.211   3.035   6.976
 7787SOL    HW124260   2.244   3.010   6.886
 7787SOL    HW224261   2.119   2.998   6.990
 7788SOL     OW24262   1.905   4.973   1.586
 7788SOL    HW124263   1.976   4.994   1.654
 7788SOL    HW224264   1.903   5.044   1.516
 7789SOL     OW24265   2.656   0.052   6.297
 7789SOL    HW124266   2.603   0.123   6.345
 7789SOL    HW224267   2.712   0.095   6.226
 7790SOL     OW24268   4.981   5.503   2.565
 7790SOL    HW124269   4.945   5.521   2.474
 7790SOL    HW224270   4.982   5.405   2.583
 7791SOL     OW24271   2.094   5.360   2.950
 7791SOL    HW124272   2.042   5.325   2.872
 7791SOL    HW224273   2.048   5.335   3.035
 7792SOL     OW24274   1.769   5.842   4.297
 7792SOL    HW124275   1.750   5.939   4.279
 7792SOL    HW224276   1.744   5.789   4.216
 7793SOL     OW24277   3.805   0.895   0.197
 7793SOL    HW124278   3.792   0.796   0.199
 7793SOL    HW224279   3.735   0.939   0.254
 7794SOL     OW24280   7.003   4.298   1.899
 7794SOL    HW124281   6.939   4.222   1.884
 7794SOL    HW224282   0.000   4.305   1.996
 7795SOL     OW24283   2.411   4.734   5.303
 7795SOL    HW124284   2.356   4.672   5.359
 7795SOL    HW224285   2.352   4.779   5.235
 7796SOL     OW24286   3.506   3.238   5.217
 7796SOL    HW124287   3.447   3.159   5.234
 7796SOL    HW224288   3.554   3.225   5.130
 7797SOL     OW24289   1.040   6.105   1.700
 7797SOL    HW124290   1.036   6.013   1.662
 7797SOL    HW224291   1.017   6.172   1.629
 7798SOL     OW24292   0.501   2.914   3.470
 7798SOL    HW124293   0.510   2.897   3.372
 7798SOL    HW224294   0.534   3.006   3.491
 7799SOL     OW24295   1.996   5.559   2.415
 7799SOL    HW124296   1.897   5.549   2.413
 7799SOL    HW224297   2.035   5.493   2.480
 7800SOL     OW24298   1.122   5.270   2.804
 7800SOL    HW124299   1.108   5.367   2.826
 7800SOL    HW224300   1.046   5.217   2.842
 7801SOL     OW24301   1.680   1.618   2.444
 7801SOL    HW124302   1.752   1.688   2.450
 7801SOL    HW224303   1.638   1.606   2.534
 7802SOL     OW24304   6.494   3.047   0.470
 7802SOL    HW124305   6.541   3.094   0.545
 7802SOL    HW224306   6.464   2.957   0.502
 7803SOL     OW24307   4.461   2.079   6.927
 7803SOL    HW124308   4.473   2.129   6.842
 7803SOL    HW224309   4.405   2.134   6.990
 7804SOL     OW24310   4.477   2.129   5.226
 7804SOL    HW124311   4.548   2.072   5.268
 7804SOL    HW224312   4.520   2.199   5.169
 7805SOL     OW24313   5.271   3.319   2.018
 7805SOL    HW124314   5.187   3.276   2.051
 7805SOL    HW224315   5.259   3.419   2.018
 7806SOL     OW24316   5.610   1.624   5.981
 7806SOL    HW124317   5.578   1.702   6.034
 7806SOL    HW224318   5.594   1.540   6.033
 7807SOL     OW24319   0.696   4.901   5.940
 7807SOL    HW124320   0.713   4.920   6.037
 7807SOL    HW224321   0.634   4.823   5.932
 7808SOL     OW24322   6.012   3.401   3.592
 7808SOL    HW124323   6.012   3.350   3.678
 7808SOL    HW224324   6.021   3.337   3.515
 7809SOL     OW24325   5.267   4.967   5.268
 7809SOL    HW124326   5.308   4.953   5.178
 7809SOL    HW224327   5.172   4.937   5.268
 7810SOL     OW24328   3.452   6.383   5.078
 7810SOL    HW124329   3.435   6.292   5.118
 7810SOL    HW224330   3.502   6.372   4.992
 7811SOL     OW24331   1.493   4.801   1.966
 7811SOL    HW124332   1.559   4.756   2.027
 7811SOL    HW224333   1.520   4.896   1.951
 7812SOL     OW24334   1.455   2.439   4.547
 7812SOL    HW124335   1.425   2.357   4.497
 7812SOL    HW224336   1.420   2.521   4.502
 7813SOL     OW24337   4.091   2.087   1.348
 7813SOL    HW124338   4.004   2.083   1.397
 7813SOL    HW224339   4.130   1.996   1.343
 7814SOL     OW24340   6.919   2.935   3.398
 7814SOL    HW124341   6.850   3.007   3.401
 7814SOL    HW224342   6.874   2.846   3.408
 7815SOL     OW24343   6.155   2.432   3.620
 7815SOL    HW124344   6.149   2.518   3.569
 7815SOL    HW224345   6.090   2.366   3.583
 7816SOL     OW24346   0.965   2.420   6.650
 7816SOL    HW124347   0.986   2.322   6.655
 7816SOL    HW224348   0.962   2.448   6.554
 7817SOL     OW24349   4.645   4.555   4.613
 7817SOL    HW124350   4.564   4.600   4.650
 7817SOL    HW224351   4.721   4.565   4.677
 7818SOL     OW24352   4.802   0.629   2.876
 7818SOL    HW124353   4.708   0.648   2.906
 7818SOL    HW224354   4.851   0.581   2.949
 7819SOL     OW24355   0.189   3.686   3.750
 7819SOL    HW124356   0.271   3.634   3.725
 7819SOL    HW224357   0.177   3.762   3.687
 7820SOL     OW24358   1.496   1.254   5.553
 7820SOL    HW124359   1.541   1.179   5.601
 7820SOL    HW224360   1.521   1.251   5.456
 7821SOL     OW24361   5.669   5.551   0.297
 7821SOL    HW124362   5.628   5.637   0.266
 7821SOL    HW224363   5.729   5.515   0.226
 7822SOL     OW24364   0.977   1.304   6.528
 7822SOL    HW124365   0.990   1.301   6.627
 7822SOL    HW224366   0.998   1.214   6.489
 7823SOL     OW24367   2.477   3.672   6.138
 7823SOL    HW124368   2.451   3.579   6.162
 7823SOL    HW224369   2.573   3.686   6.161
 7824SOL     OW24370   5.901   0.890   4.103
 7824SOL    HW124371   5.991   0.857   4.132
 7824SOL    HW224372   5.832   0.820   4.123
 7825SOL     OW24373   1.044   3.331   0.774
 7825SOL    HW124374   1.049   3.427   0.803
 7825SOL    HW224375   1.061   3.272   0.853
 7826SOL     OW24376   5.647   1.544   6.380
 7826SOL    HW124377   5.703   1.602   6.321
 7826SOL    HW224378   5.621   1.461   6.330
 7827SOL     OW24379   2.465   4.560   0.800
 7827SOL    HW124380   2.487   4.485   0.737
 7827SOL    HW224381   2.485   4.532   0.894
 7828SOL     OW24382   0.813   5.346   1.345
 7828SOL    HW124383   0.893   5.291   1.366
 7828SOL    HW224384   0.833   5.442   1.363
 7829SOL     OW24385   2.401   2.830   0.158
 7829SOL    HW124386   2.318   2.886   0.149
 7829SOL    HW224387   2.462   2.848   0.081
 7830SOL     OW24388   4.211   3.654   5.822
 7830SOL    HW124389   4.137   3.624   5.762
 7830SOL    HW224390   4.289   3.685   5.768
 7831SOL     OW24391   1.375   5.159   0.940
 7831SOL    HW124392   1.474   5.154   0.955
 7831SOL    HW224393   1.332   5.205   1.018
 7832SOL     OW24394   3.300   1.512   4.297
 7832SOL    HW124395   3.350   1.475   4.218
 7832SOL    HW224396   3.229   1.575   4.265
 7833SOL     OW24397   0.924   0.718   0.143
 7833SOL    HW124398   0.986   0.652   0.184
 7833SOL    HW224399   0.830   0.696   0.170
 7834SOL     OW24400   0.049   1.294   3.851
 7834SOL    HW124401   0.118   1.365   3.836
 7834SOL    HW224402   7.012   1.321   3.926
 7835SOL     OW24403   2.812   2.279   4.672
 7835SOL    HW124404   2.838   2.255   4.766
 7835SOL    HW224405   2.766   2.368   4.673
 7836SOL     OW24406   3.242   2.724   5.409
 7836SOL    HW124407   3.310   2.777   5.460
 7836SOL    HW224408   3.172   2.786   5.373
 7837SOL     OW24409   6.640   5.378   1.471
 7837SOL    HW124410   6.569   5.311   1.489
 7837SOL    HW224411   6.725   5.348   1.514
 7838SOL     OW24412   4.182   6.415   0.392
 7838SOL    HW124413   4.247   6.489   0.373
 7838SOL    HW224414   4.194   6.342   0.324
 7839SOL     OW24415   6.016   4.764   5.141
 7839SOL    HW124416   5.920   4.770   5.116
 7839SOL    HW224417   6.065   4.843   5.104
 7840SOL     OW24418   4.949   3.212   4.301
 7840SOL    HW124419   4.960   3.247   4.394
 7840SOL    HW224420   4.881   3.139   4.301
 7841SOL     OW24421   4.991   1.505   6.501
 7841SOL    HW124422   4.945   1.426   6.543
 7841SOL    HW224423   4.963   1.589   6.548
 7842SOL     OW24424   1.839   1.645   2.823
 7842SOL    HW124425   1.867   1.610   2.734
 7842SOL    HW224426   1.919   1.681   2.872
 7843SOL     OW24427   4.865   4.225   2.245
 7843SOL    HW124428   4.789   4.290   2.246
 7843SOL    HW224429   4.852   4.157   2.318
 7844SOL     OW24430   4.714   0.503   3.700
 7844SOL    HW124431   4.785   0.469   3.761
 7844SOL    HW224432   4.644   0.550   3.753
 7845SOL     OW24433   6.346   1.639   4.265
 7845SOL    HW124434   6.270   1.608   4.322
 7845SOL    HW224435   6.312   1.664   4.175
 7846SOL     OW24436   1.666   0.936   1.967
 7846SOL    HW124437   1.604   0.993   2.020
 7846SOL    HW224438   1.760   0.952   1.997
 7847SOL     OW24439   6.656   1.617   2.510
 7847SOL    HW124440   6.711   1.578   2.435
 7847SOL    HW224441   6.717   1.643   2.585
 7848SOL     OW24442   3.065   3.436   1.072
 7848SOL    HW124443   2.990   3.373   1.055
 7848SOL    HW224444   3.137   3.423   1.003
 7849SOL     OW24445   5.566   3.830   3.438
 7849SOL    HW124446   5.586   3.760   3.369
 7849SOL    HW224447   5.552   3.918   3.393
 7850SOL     OW24448   0.442   1.928   3.912
 7850SOL    HW124449   0.366   1.863   3.913
 7850SOL    HW224450   0.512   1.896   3.848
 7851SOL     OW24451   6.873   6.630   0.922
 7851SOL    HW124452   6.824   6.570   0.859
 7851SOL    HW224453   6.941   6.682   0.872
 7852SOL     OW24454   2.812   6.996   5.415
 7852SOL    HW124455   2.869   6.946   5.350
 7852SOL    HW224456   2.788   6.937   5.492
 7853SOL     OW24457   3.862   1.337   2.172
 7853SOL    HW124458   3.820   1.322   2.082
 7853SOL    HW224459   3.909   1.255   2.202
 7854SOL     OW24460   2.844   3.504   0.537
 7854SOL    HW124461   2.820   3.491   0.633
 7854SOL    HW224462   2.813   3.594   0.507
 7855SOL     OW24463   3.043   6.060   5.810
 7855SOL    HW124464   2.975   6.071   5.883
 7855SOL    HW224465   3.074   5.965   5.806
 7856SOL     OW24466   5.565   5.172   4.340
 7856SOL    HW124467   5.644   5.232   4.349
 7856SOL    HW224468   5.482   5.228   4.333
 7857SOL     OW24469   6.087   2.422   5.532
 7857SOL    HW124470   6.057   2.327   5.523
 7857SOL    HW224471   6.185   2.424   5.551
 7858SOL     OW24472   4.612   5.398   3.587
 7858SOL    HW124473   4.628   5.359   3.496
 7858SOL    HW224474   4.626   5.327   3.656
 7859SOL     OW24475   6.184   3.987   5.427
 7859SOL    HW124476   6.203   3.917   5.496
 7859SOL    HW224477   6.256   3.986   5.357
 7860SOL     OW24478   4.486   0.127   2.551
 7860SOL    HW124479   4.562   0.191   2.560
 7860SOL    HW224480   4.400   0.177   2.555
 7861SOL     OW24481   3.864   5.349   1.571
 7861SOL    HW124482   3.776   5.366   1.527
 7861SOL    HW224483   3.937   5.396   1.521
 7862SOL     OW24484   3.001   4.683   1.734
 7862SOL    HW124485   2.948   4.612   1.782
 7862SOL    HW224486   2.972   4.688   1.639
 7863SOL     OW24487   6.816   6.542   3.809
 7863SOL    HW124488   6.730   6.570   3.852
 7863SOL    HW224489   6.863   6.623   3.774
 7864SOL     OW24490   6.999   6.524   5.367
 7864SOL    HW124491   0.005   6.535   5.272
 7864SOL    HW224492   0.043   6.467   5.416
 7865SOL     OW24493   4.991   6.866   5.015
 7865SOL    HW124494   4.904   6.885   5.060
 7865SOL    HW224495   4.977   6.800   4.941
 7866SOL     OW24496   2.618   2.388   6.758
 7866SOL    HW124497   2.531   2.349   6.788
 7866SOL    HW224498   2.689   2.362   6.824
 7867SOL     OW24499   5.536   6.893   2.400
 7867SOL    HW124500   5.465   6.962   2.385
 7867SOL    HW224501   5.610   6.906   2.335
 7868SOL     OW24502   5.855   6.519   2.427
 7868SOL    HW124503   5.781   6.479   2.373
 7868SOL    HW224504   5.831   6.516   2.524
 7869SOL     OW24505   5.370   3.300   0.306
 7869SOL    HW124506   5.454   3.267   0.349
 7869SOL    HW224507   5.295   3.300   0.373
 7870SOL     OW24508   4.585   4.941   4.717
 7870SOL    HW124509   4.543   4.939   4.626
 7870SOL    HW224510   4.673   4.893   4.714
 7871SOL     OW24511   5.428   3.804   2.502
 7871SOL    HW124512   5.511   3.773   2.548
 7871SOL    HW224513   5.360   3.829   2.571
 7872SOL     OW24514   2.192   4.308   2.426
 7872SOL    HW124515   2.268   4.371   2.439
 7872SOL    HW224516   2.107   4.360   2.421
 7873SOL     OW24517   5.131   0.591   5.697
 7873SOL    HW124518   5.167   0.684   5.711
 7873SOL    HW224519   5.160   0.558   5.608
 7874SOL     OW24520   4.915   1.527   0.464
 7874SOL    HW124521   4.928   1.498   0.369
 7874SOL    HW224522   4.818   1.543   0.482
 7875SOL     OW24523   4.552   2.202   6.708
 7875SOL    HW124524   4.636   2.239   6.748
 7875SOL    HW224525   4.485   2.276   6.696
 7876SOL     OW24526   6.747   6.889   5.215
 7876SOL    HW124527   6.651   6.881   5.189
 7876SOL    HW224528   6.794   6.802   5.197
 7877SOL     OW24529   6.763   3.002   2.652
 7877SOL    HW124530   6.791   3.093   2.680
 7877SOL    HW224531   6.836   2.937   2.671
 7878SOL     OW24532   4.683   5.088   4.009
 7878SOL    HW124533   4.724   4.998   4.025
 7878SOL    HW224534   4.584   5.082   4.021
 7879SOL     OW24535   5.137   5.944   3.429
 7879SOL    HW124536   5.085   5.961   3.512
 7879SOL    HW224537   5.228   5.910   3.453
 7880SOL     OW24538   1.208   5.243   0.703
 7880SOL    HW124539   1.247   5.255   0.794
 7880SOL    HW224540   1.239   5.156   0.664
 7881SOL     OW24541   5.245   3.533   4.682
 7881SOL    HW124542   5.190   3.616   4.675
 7881SOL    HW224543   5.292   3.517   4.595
 7882SOL     OW24544   1.792   3.409   2.521
 7882SOL    HW124545   1.859   3.379   2.588
 7882SOL    HW224546   1.791   3.346   2.443
 7883SOL     OW24547   1.793   0.044   1.268
 7883SOL    HW124548   1.829   0.116   1.209
 7883SOL    HW224549   1.723   0.083   1.329
 7884SOL     OW24550   2.064   3.471   4.057
 7884SOL    HW124551   1.965   3.466   4.041
 7884SOL    HW224552   2.097   3.563   4.037
 7885SOL     OW24553   6.036   6.382   1.768
 7885SOL    HW124554   6.122   6.425   1.796
 7885SOL    HW224555   5.969   6.392   1.842
 7886SOL     OW24556   3.938   5.075   0.911
 7886SOL    HW124557   4.000   5.146   0.878
 7886SOL    HW224558   3.872   5.115   0.974
 7887SOL     OW24559   3.351   2.496   5.322
 7887SOL    HW124560   3.309   2.580   5.355
 7887SOL    HW224561   3.285   2.444   5.268
 7888SOL     OW24562   0.381   0.347   4.931
 7888SOL    HW124563   0.367   0.292   5.013
 7888SOL    HW224564   0.444   0.422   4.952
 7889SOL     OW24565   0.653   4.687   6.855
 7889SOL    HW124566   0.604   4.614   6.903
 7889SOL    HW224567   0.636   4.680   6.757
 7890SOL     OW24568   0.650   3.464   4.089
 7890SOL    HW124569   0.576   3.427   4.034
 7890SOL    HW224570   0.711   3.517   4.030
 7891SOL     OW24571   1.942   4.349   4.922
 7891SOL    HW124572   1.895   4.362   5.010
 7891SOL    HW224573   1.998   4.266   4.926
 7892SOL     OW24574   1.819   2.140   3.743
 7892SOL    HW124575   1.896   2.202   3.728
 7892SOL    HW224576   1.852   2.046   3.748
 7893SOL     OW24577   6.403   0.317   2.030
 7893SOL    HW124578   6.364   0.387   2.090
 7893SOL    HW224579   6.435   0.361   1.945
 7894SOL     OW24580   3.414   0.964   1.320
 7894SOL    HW124581   3.471   1.045   1.303
 7894SOL    HW224582   3.322   0.980   1.286
 7895SOL     OW24583   4.796   0.292   4.417
 7895SOL    HW124584   4.754   0.261   4.503
 7895SOL    HW224585   4.888   0.254   4.409
 7896SOL     OW24586   4.782   2.944   1.508
 7896SOL    HW124587   4.804   2.915   1.601
 7896SOL    HW224588   4.744   2.867   1.457
 7897SOL     OW24589   3.610   2.418   1.365
 7897SOL    HW124590   3.588   2.334   1.416
 7897SOL    HW224591   3.530   2.478   1.364
 7898SOL     OW24592   4.020   0.229   3.699
 7898SOL    HW124593   3.921   0.218   3.686
 7898SOL    HW224594   4.039   0.264   3.791
 7899SOL     OW24595   5.851   6.634   1.707
 7899SOL    HW124596   5.914   6.643   1.630
 7899SOL    HW224597   5.852   6.540   1.741
 7900SOL     OW24598   0.974   5.266   1.731
 7900SOL    HW124599   1.061   5.303   1.764
 7900SOL    HW224600   0.906   5.340   1.725
 7901SOL     OW24601   4.715   1.033   6.895
 7901SOL    HW124602   4.792   1.006   6.838
 7901SOL    HW224603   4.743   1.030   6.991
 7902SOL     OW24604   5.801   5.703   2.338
 7902SOL    HW124605   5.880   5.764   2.339
 7902SOL    HW224606   5.822   5.622   2.283
 7903SOL     OW24607   4.811   1.465   2.998
 7903SOL    HW124608   4.781   1.441   2.906
 7903SOL    HW224609   4.836   1.382   3.048
 7904SOL     OW24610   5.656   6.818   2.639
 7904SOL    HW124611   5.619   6.744   2.694
 7904SOL    HW224612   5.602   6.828   2.555
 7905SOL     OW24613   5.678   2.329   0.414
 7905SOL    HW124614   5.621   2.333   0.496
 7905SOL    HW224615   5.767   2.370   0.434
 7906SOL     OW24616   0.563   5.203   0.845
 7906SOL    HW124617   0.568   5.198   0.944
 7906SOL    HW224618   0.470   5.230   0.818
 7907SOL     OW24619   6.364   2.137   3.781
 7907SOL    HW124620   6.336   2.090   3.865
 7907SOL    HW224621   6.448   2.096   3.746
 7908SOL     OW24622   1.320   1.051   6.520
 7908SOL    HW124623   1.392   1.100   6.471
 7908SOL    HW224624   1.360   0.974   6.570
 7909SOL     OW24625   4.992   4.214   3.974
 7909SOL    HW124626   4.955   4.302   4.005
 7909SOL    HW224627   5.042   4.171   4.049
 7910SOL     OW24628   2.196   3.114   0.416
 7910SOL    HW124629   2.291   3.084   0.414
 7910SOL    HW224630   2.177   3.170   0.335
 7911SOL     OW24631   1.218   4.705   0.487
 7911SOL    HW124632   1.260   4.645   0.555
 7911SOL    HW224633   1.229   4.800   0.516
 7912SOL     OW24634   6.017   4.608   1.143
 7912SOL    HW124635   5.984   4.541   1.077
 7912SOL    HW224636   5.945   4.673   1.164
 7913SOL     OW24637   1.384   4.028   2.041
 7913SOL    HW124638   1.383   4.109   1.983
 7913SOL    HW224639   1.318   3.961   2.007
 7914SOL     OW24640   6.916   4.450   0.752
 7914SOL    HW124641   6.977   4.385   0.798
 7914SOL    HW224642   6.946   4.543   0.772
 7915SOL     OW24643   5.164   2.121   2.447
 7915SOL    HW124644   5.118   2.196   2.494
 7915SOL    HW224645   5.219   2.070   2.513
 7916SOL     OW24646   6.871   6.069   5.581
 7916SOL    HW124647   6.825   6.004   5.641
 7916SOL    HW224648   6.848   6.162   5.609
 7917SOL     OW24649   3.958   3.265   5.543
 7917SOL    HW124650   3.862   3.240   5.559
 7917SOL    HW224651   4.014   3.235   5.620
 7918SOL     OW24652   6.290   1.222   4.258
 7918SOL    HW124653   6.207   1.246   4.309
 7918SOL    HW224654   6.304   1.123   4.264
 7919SOL     OW24655   1.565   4.462   3.121
 7919SOL    HW124656   1.626   4.528   3.166
 7919SOL    HW224657   1.487   4.510   3.081
 7920SOL     OW24658   6.451   6.859   0.828
 7920SOL    HW124659   6.358   6.825   0.817
 7920SOL    HW224660   6.453   6.931   0.897
 7921SOL     OW24661   5.952   6.057   2.411
 7921SOL    HW124662   5.982   5.996   2.338
 7921SOL    HW224663   5.904   6.003   2.481
 7922SOL     OW24664   0.540   6.112   0.332
 7922SOL    HW124665   0.629   6.074   0.358
 7922SOL    HW224666   0.467   6.051   0.364
 7923SOL     OW24667   3.801   0.757   6.595
 7923SOL    HW124668   3.810   0.671   6.545
 7923SOL    HW224669   3.766   0.739   6.687
 7924SOL     OW24670   4.992   0.355   2.063
 7924SOL    HW124671   5.038   0.403   2.138
 7924SOL    HW224672   4.939   0.278   2.100
 7925SOL     OW24673   0.728   0.262   0.146
 7925SOL    HW124674   0.710   0.319   0.066
 7925SOL    HW224675   0.672   0.180   0.142
 7926SOL     OW24676   4.747   2.110   6.114
 7926SOL    HW124677   4.725   2.089   6.019
 7926SOL    HW224678   4.843   2.089   6.132
 7927SOL     OW24679   4.753   6.206   2.550
 7927SOL    HW124680   4.710   6.125   2.511
 7927SOL    HW224681   4.705   6.233   2.633
 7928SOL     OW24682   1.101   1.993   4.026
 7928SOL    HW124683   1.194   1.979   4.062
 7928SOL    HW224684   1.034   1.965   4.095
 7929SOL     OW24685   4.383   3.726   5.625
 7929SOL    HW124686   4.367   3.815   5.582
 7929SOL    HW224687   4.362   3.653   5.559
 7930SOL     OW24688   4.504   5.231   5.702
 7930SOL    HW124689   4.521   5.322   5.740
 7930SOL    HW224690   4.490   5.238   5.603
 7931SOL     OW24691   2.961   3.207   6.977
 7931SOL    HW124692   3.021   3.260   6.917
 7931SOL    HW224693   2.869   3.205   6.939
 7932SOL     OW24694   1.367   5.991   6.785
 7932SOL    HW124695   1.373   6.072   6.727
 7932SOL    HW224696   1.377   5.909   6.728
 7933SOL     OW24697   6.461   0.294   6.012
 7933SOL    HW124698   6.449   0.391   5.990
 7933SOL    HW224699   6.495   0.245   5.932
 7934SOL     OW24700   1.620   5.159   6.838
 7934SOL    HW124701   1.677   5.208   6.772
 7934SOL    HW224702   1.525   5.158   6.807
 7935SOL     OW24703   6.114   6.342   1.026
 7935SOL    HW124704   6.117   6.247   1.058
 7935SOL    HW224705   6.186   6.357   0.959
 7936SOL     OW24706   2.804   5.818   2.004
 7936SOL    HW124707   2.719   5.816   1.952
 7936SOL    HW224708   2.859   5.737   1.982
 7937SOL     OW24709   6.738   6.156   3.857
 7937SOL    HW124710   6.833   6.127   3.864
 7937SOL    HW224711   6.693   6.145   3.945
 7938SOL     OW24712   6.375   6.155   4.373
 7938SOL    HW124713   6.450   6.218   4.353
 7938SOL    HW224714   6.386   6.072   4.318
 7939SOL     OW24715   1.977   2.157   5.305
 7939SOL    HW124716   1.890   2.158   5.256
 7939SOL    HW224717   2.021   2.246   5.295
 7940SOL     OW24718   2.045   2.852   1.585
 7940SOL    HW124719   2.065   2.755   1.576
 7940SOL    HW224720   2.098   2.891   1.660
 7941SOL     OW24721   6.136   6.239   1.571
 7941SOL    HW124722   6.084   6.289   1.640
 7941SOL    HW224723   6.233   6.240   1.596
 7942SOL     OW24724   0.268   4.589   2.733
 7942SOL    HW124725   0.331   4.638   2.793
 7942SOL    HW224726   0.188   4.560   2.785
 7943SOL     OW24727   0.473   4.447   6.398
 7943SOL    HW124728   0.430   4.494   6.475
 7943SOL    HW224729   0.518   4.364   6.431
 7944SOL     OW24730   0.838   2.789   0.469
 7944SOL    HW124731   0.853   2.852   0.393
 7944SOL    HW224732   0.798   2.839   0.546
 7945SOL     OW24733   6.526   5.428   1.202
 7945SOL    HW124734   6.494   5.357   1.139
 7945SOL    HW224735   6.615   5.402   1.239
 7946SOL     OW24736   3.471   0.139   5.261
 7946SOL    HW124737   3.400   0.100   5.320
 7946SOL    HW224738   3.520   0.066   5.215
 7947SOL     OW24739   3.054   1.486   5.513
 7947SOL    HW124740   3.134   1.430   5.536
 7947SOL    HW224741   3.085   1.573   5.474
 7948SOL     OW24742   0.760   5.741   1.196
 7948SOL    HW124743   0.708   5.675   1.250
 7948SOL    HW224744   0.832   5.781   1.252
 7949SOL     OW24745   5.215   4.204   5.615
 7949SOL    HW124746   5.163   4.268   5.673
 7949SOL    HW224747   5.176   4.113   5.623
 7950SOL     OW24748   4.863   5.294   4.063
 7950SOL    HW124749   4.825   5.386   4.056
 7950SOL    HW224750   4.797   5.227   4.030
 7951SOL     OW24751   2.243   5.028   2.402
 7951SOL    HW124752   2.225   5.041   2.500
 7951SOL    HW224753   2.215   5.111   2.352
 7952SOL     OW24754   6.717   3.474   6.507
 7952SOL    HW124755   6.753   3.508   6.420
 7952SOL    HW224756   6.688   3.550   6.564
 7953SOL     OW24757   3.792   2.060   2.786
 7953SOL    HW124758   3.781   2.102   2.695
 7953SOL    HW224759   3.826   1.967   2.775
 7954SOL     OW24760   3.097   4.271   6.267
 7954SOL    HW124761   2.997   4.258   6.265
 7954SOL    HW224762   3.126   4.319   6.184
 7955SOL     OW24763   2.749   1.237   6.528
 7955SOL    HW124764   2.764   1.326   6.570
 7955SOL    HW224765   2.711   1.249   6.436
 7956SOL     OW24766   5.129   6.719   2.119
 7956SOL    HW124767   5.114   6.793   2.185
 7956SOL    HW224768   5.046   6.706   2.064
 7957SOL     OW24769   1.650   0.708   0.591
 7957SOL    HW124770   1.560   0.710   0.547
 7957SOL    HW224771   1.639   0.688   0.688
 7958SOL     OW24772   4.402   5.135   6.103
 7958SOL    HW124773   4.338   5.110   6.030
 7958SOL    HW224774   4.451   5.053   6.133
 7959SOL     OW24775   5.230   6.232   0.958
 7959SOL    HW124776   5.210   6.211   1.054
 7959SOL    HW224777   5.329   6.237   0.945
 7960SOL     OW24778   1.767   0.542   5.835
 7960SOL    HW124779   1.675   0.564   5.866
 7960SOL    HW224780   1.827   0.527   5.913
 7961SOL     OW24781   6.925   0.653   0.142
 7961SOL    HW124782   6.970   0.635   0.055
 7961SOL    HW224783   6.946   0.580   0.207
 7962SOL     OW24784   1.049   1.061   5.955
 7962SOL    HW124785   1.033   1.158   5.938
 7962SOL    HW224786   1.147   1.047   5.973
 7963SOL     OW24787   5.951   6.147   4.218
 7963SOL    HW124788   5.969   6.145   4.316
 7963SOL    HW224789   6.037   6.155   4.168
 7964SOL     OW24790   6.875   4.023   2.771
 7964SOL    HW124791   6.961   4.072   2.782
 7964SOL    HW224792   6.801   4.087   2.750
 7965SOL     OW24793   4.397   2.212   6.034
 7965SOL    HW124794   4.302   2.234   6.010
 7965SOL    HW224795   4.448   2.296   6.051
 7966SOL     OW24796   2.849   2.583   5.632
 7966SOL    HW124797   2.948   2.586   5.619
 7966SOL    HW224798   2.810   2.509   5.577
 7967SOL     OW24799   3.399   6.133   2.322
 7967SOL    HW124800   3.325   6.139   2.389
 7967SOL    HW224801   3.431   6.225   2.299
 7968SOL     OW24802   0.687   2.359   4.113
 7968SOL    HW124803   0.722   2.268   4.138
 7968SOL    HW224804   0.588   2.359   4.120
 7969SOL     OW24805   5.246   6.106   0.293
 7969SOL    HW124806   5.325   6.107   0.232
 7969SOL    HW224807   5.167   6.146   0.247
 7970SOL     OW24808   6.692   2.850   2.137
 7970SOL    HW124809   6.700   2.828   2.234
 7970SOL    HW224810   6.771   2.904   2.108
 7971SOL     OW24811   3.405   1.792   1.160
 7971SOL    HW124812   3.401   1.847   1.243
 7971SOL    HW224813   3.416   1.695   1.184
 7972SOL     OW24814   2.429   3.437   0.276
 7972SOL    HW124815   2.436   3.407   0.371
 7972SOL    HW224816   2.376   3.370   0.224
 7973SOL     OW24817   4.078   4.808   4.618
 7973SOL    HW124818   4.151   4.782   4.682
 7973SOL    HW224819   4.016   4.872   4.663
 7974SOL     OW24820   5.818   0.507   5.329
 7974SOL    HW124821   5.743   0.442   5.342
 7974SOL    HW224822   5.802   0.588   5.385
 7975SOL     OW24823   6.657   0.919   1.765
 7975SOL    HW124824   6.557   0.917   1.767
 7975SOL    HW224825   6.687   0.972   1.685
 7976SOL     OW24826   0.982   0.264   5.921
 7976SOL    HW124827   0.983   0.355   5.878
 7976SOL    HW224828   0.901   0.256   5.979
 7977SOL     OW24829   4.458   5.805   3.189
 7977SOL    HW124830   4.482   5.781   3.095
 7977SOL    HW224831   4.373   5.857   3.190
 7978SOL     OW24832   5.946   2.294   6.668
 7978SOL    HW124833   5.957   2.304   6.767
 7978SOL    HW224834   6.018   2.345   6.621
 7979SOL     OW24835   3.473   5.229   6.023
 7979SOL    HW124836   3.430   5.140   6.038
 7979SOL    HW224837   3.404   5.296   5.996
 7980SOL     OW24838   2.942   5.493   6.953
 7980SOL    HW124839   2.867   5.448   7.001
 7980SOL    HW224840   3.027   5.445   6.971
 7981SOL     OW24841   0.810   5.259   2.000
 7981SOL    HW124842   0.886   5.241   2.062
 7981SOL    HW224843   0.811   5.194   1.925
 7982SOL     OW24844   1.747   1.084   0.265
 7982SOL    HW124845   1.825   1.145   0.280
 7982SOL    HW224846   1.726   1.035   0.350
 7983SOL     OW24847   6.224   2.271   0.853
 7983SOL    HW124848   6.144   2.259   0.912
 7983SOL    HW224849   6.220   2.206   0.777
 7984SOL     OW24850   1.323   1.030   0.884
 7984SOL    HW124851   1.260   0.961   0.921
 7984SOL    HW224852   1.414   1.016   0.921
 7985SOL     OW24853   2.643   1.124   3.929
 7985SOL    HW124854   2.720   1.096   3.987
 7985SOL    HW224855   2.629   1.222   3.937
 7986SOL     OW24856   2.807   1.080   6.141
 7986SOL    HW124857   2.842   1.085   6.048
 7986SOL    HW224858   2.709   1.101   6.141
 7987SOL     OW24859   1.922   2.275   6.398
 7987SOL    HW124860   1.935   2.325   6.313
 7987SOL    HW224861   1.879   2.187   6.379
 7988SOL     OW24862   0.838   2.019   2.882
 7988SOL    HW124863   0.819   1.945   2.946
 7988SOL    HW224864   0.871   2.099   2.933
 7989SOL     OW24865   2.204   3.307   6.736
 7989SOL    HW124866   2.301   3.322   6.755
 7989SOL    HW224867   2.151   3.385   6.769
 7990SOL     OW24868   1.216   4.509   4.425
 7990SOL    HW124869   1.132   4.454   4.418
 7990SOL    HW224870   1.199   4.586   4.485
 7991SOL     OW24871   6.052   0.284   3.102
 7991SOL    HW124872   6.031   0.347   3.177
 7991SOL    HW224873   6.033   0.190   3.132
 7992SOL     OW24874   1.152   0.366   0.517
 7992SOL    HW124875   1.073   0.337   0.572
 7992SOL    HW224876   1.128   0.362   0.420
 7993SOL     OW24877   0.532   6.742   0.632
 7993SOL    HW124878   0.475   6.675   0.679
 7993SOL    HW224879   0.490   6.768   0.545
 7994SOL     OW24880   3.984   6.923   3.735
 7994SOL    HW124881   4.005   6.985   3.811
 7994SOL    HW224882   3.945   6.838   3.770
 7995SOL     OW24883   6.360   5.618   3.524
 7995SOL    HW124884   6.453   5.653   3.511
 7995SOL    HW224885   6.294   5.680   3.483
 7996SOL     OW24886   2.456   6.752   4.715
 7996SOL    HW124887   2.480   6.688   4.642
 7996SOL    HW224888   2.434   6.700   4.798
 7997SOL     OW24889   0.279   1.154   1.056
 7997SOL    HW124890   0.309   1.247   1.033
 7997SOL    HW224891   0.322   1.126   1.142
 7998SOL     OW24892   2.567   0.185   0.273
 7998SOL    HW124893   2.559   0.107   0.335
 7998SOL    HW224894   2.637   0.166   0.204
 7999SOL     OW24895   1.047   0.557   5.786
 7999SOL    HW124896   1.125   0.557   5.724
 7999SOL    HW224897   0.983   0.630   5.760
 8000SOL     OW24898   4.683   7.004   6.588
 8000SOL    HW124899   4.748   0.036   6.640
 8000SOL    HW224900   4.688   0.007   6.491
 8001SOL     OW24901   4.009   6.369   1.515
 8001SOL    HW124902   3.952   6.391   1.594
 8001SOL    HW224903   4.091   6.321   1.545
 8002SOL     OW24904   2.219   0.654   6.322
 8002SOL    HW124905   2.309   0.617   6.300
 8002SOL    HW224906   2.181   0.702   6.242
 8003SOL     OW24907   2.545   5.490   1.887
 8003SOL    HW124908   2.537   5.535   1.976
 8003SOL    HW224909   2.462   5.438   1.868
 8004SOL     OW24910   2.251   2.963   2.625
 8004SOL    HW124911   2.343   2.959   2.665
 8004SOL    HW224912   2.184   2.973   2.698
 8005SOL     OW24913   3.004   1.330   3.472
 8005SOL    HW124914   3.096   1.292   3.475
 8005SOL    HW224915   2.941   1.262   3.433
 8006SOL     OW24916   2.161   6.586   5.676
 8006SOL    HW124917   2.101   6.596   5.754
 8006SOL    HW224918   2.252   6.557   5.707
 8007SOL     OW24919   6.039   1.414   5.645
 8007SOL    HW124920   6.030   1.441   5.549
 8007SOL    HW224921   5.970   1.462   5.700
 8008SOL     OW24922   4.552   5.758   6.576
 8008SOL    HW124923   4.570   5.857   6.577
 8008SOL    HW224924   4.603   5.714   6.650
 8009SOL     OW24925   5.798   0.523   1.769
 8009SOL    HW124926   5.761   0.513   1.861
 8009SOL    HW224927   5.897   0.506   1.771
 8010SOL     OW24928   1.944   1.146   5.433
 8010SOL    HW124929   1.960   1.145   5.334
 8010SOL    HW224930   1.889   1.065   5.458
 8011SOL     OW24931   3.309   2.454   1.176
 8011SOL    HW124932   3.313   2.357   1.149
 8011SOL    HW224933   3.341   2.464   1.270
 8012SOL     OW24934   2.053   3.853   0.412
 8012SOL    HW124935   2.052   3.764   0.367
 8012SOL    HW224936   1.960   3.890   0.415
 8013SOL     OW24937   1.735   5.308   3.311
 8013SOL    HW124938   1.795   5.365   3.367
 8013SOL    HW224939   1.788   5.267   3.236
 8014SOL     OW24940   0.801   6.528   4.940
 8014SOL    HW124941   0.873   6.480   4.988
 8014SOL    HW224942   0.840   6.585   4.868
 8015SOL     OW24943   2.484   0.683   5.975
 8015SOL    HW124944   2.415   0.738   6.023
 8015SOL    HW224945   2.547   0.643   6.042
 8016SOL     OW24946   4.273   0.180   5.783
 8016SOL    HW124947   4.238   0.087   5.770
 8016SOL    HW224948   4.366   0.186   5.745
 8017SOL     OW24949   5.541   6.970   0.634
 8017SOL    HW124950   5.527   6.884   0.584
 8017SOL    HW224951   5.635   7.003   0.618
 8018SOL     OW24952   3.150   2.068   6.875
 8018SOL    HW124953   3.144   2.123   6.792
 8018SOL    HW224954   3.232   2.094   6.927
 8019SOL     OW24955   2.874   4.518   1.030
 8019SOL    HW124956   2.795   4.487   0.978
 8019SOL    HW224957   2.845   4.550   1.120
 8020SOL     OW24958   6.475   0.017   6.906
 8020SOL    HW124959   6.465   0.111   6.937
 8020SOL    HW224960   6.476   0.015   6.806
 8021SOL     OW24961   1.673   2.419   0.711
 8021SOL    HW124962   1.609   2.343   0.702
 8021SOL    HW224963   1.672   2.453   0.805
 8022SOL     OW24964   5.845   0.284   2.246
 8022SOL    HW124965   5.792   0.220   2.300
 8022SOL    HW224966   5.831   0.265   2.148
 8023SOL     OW24967   6.061   5.264   3.016
 8023SOL    HW124968   6.006   5.180   3.010
 8023SOL    HW224969   6.020   5.325   3.084
 8024SOL     OW24970   1.433   4.819   6.061
 8024SOL    HW124971   1.370   4.811   6.139
 8024SOL    HW224972   1.383   4.799   5.977
 8025SOL     OW24973   2.087   5.753   0.275
 8025SOL    HW124974   2.002   5.754   0.223
 8025SOL    HW224975   2.066   5.769   0.372
 8026SOL     OW24976   6.778   4.280   0.069
 8026SOL    HW124977   6.720   4.199   0.076
 8026SOL    HW224978   6.761   4.325   7.004
 8027SOL     OW24979   4.372   0.101   5.109
 8027SOL    HW124980   4.298   0.142   5.162
 8027SOL    HW224981   4.460   0.125   5.150
 8028SOL     OW24982   4.018   5.935   5.719
 8028SOL    HW124983   4.013   5.836   5.731
 8028SOL    HW224984   3.954   5.964   5.648
 8029SOL     OW24985   5.254   3.199   1.131
 8029SOL    HW124986   5.231   3.234   1.222
 8029SOL    HW224987   5.200   3.247   1.062
 8030SOL     OW24988   4.727   4.950   0.459
 8030SOL    HW124989   4.728   4.850   0.463
 8030SOL    HW224990   4.792   4.981   0.390
 8031SOL     OW24991   6.250   6.605   2.478
 8031SOL    HW124992   6.182   6.606   2.552
 8031SOL    HW224993   6.302   6.519   2.482
 8032SOL     OW24994   6.798   4.289   1.436
 8032SOL    HW124995   6.861   4.276   1.513
 8032SOL    HW224996   6.799   4.384   1.407
 8033SOL     OW24997   4.664   2.104   6.448
 8033SOL    HW124998   4.633   2.118   6.542
 8033SOL    HW224999   4.731   2.030   6.445
 8034SOL     OW25000   4.733   0.946   4.971
 8034SOL    HW125001   4.636   0.936   4.950
 8034SOL    HW225002   4.769   1.026   4.923
 8035SOL     OW25003   5.760   1.622   3.315
 8035SOL    HW125004   5.663   1.624   3.336
 8035SOL    HW225005   5.774   1.584   3.223
 8036SOL     OW25006   6.574   3.893   3.488
 8036SOL    HW125007   6.573   3.817   3.554
 8036SOL    HW225008   6.480   3.919   3.466
 8037SOL     OW25009   1.689   2.928   6.915
 8037SOL    HW125010   1.644   3.010   6.950
 8037SOL    HW225011   1.656   2.908   6.823
 8038SOL     OW25012   4.753   0.304   2.787
 8038SOL    HW125013   4.756   0.242   2.866
 8038SOL    HW225014   4.669   0.357   2.790
 8039SOL     OW25015   0.292   1.638   5.330
 8039SOL    HW125016   0.313   1.540   5.333
 8039SOL    HW225017   0.204   1.652   5.285
 8040SOL     OW25018   1.530   5.284   0.301
 8040SOL    HW125019   1.510   5.382   0.300
 8040SOL    HW225020   1.458   5.234   0.252
 8041SOL     OW25021   3.074   1.180   2.824
 8041SOL    HW125022   3.020   1.178   2.909
 8041SOL    HW225023   3.134   1.260   2.825
 8042SOL     OW25024   3.693   3.000   4.890
 8042SOL    HW125025   3.764   2.971   4.954
 8042SOL    HW225026   3.669   3.095   4.906
 8043SOL     OW25027   3.299   6.489   1.246
 8043SOL    HW125028   3.199   6.487   1.243
 8043SOL    HW225029   3.335   6.407   1.202
 8044SOL     OW25030   4.437   2.647   1.131
 8044SOL    HW125031   4.404   2.682   1.043
 8044SOL    HW225032   4.423   2.548   1.135
 8045SOL     OW25033   5.961   2.433   2.887
 8045SOL    HW125034   5.974   2.334   2.884
 8045SOL    HW225035   5.914   2.458   2.972
 8046SOL     OW25036   0.748   4.521   1.524
 8046SOL    HW125037   0.787   4.541   1.434
 8046SOL    HW225038   0.683   4.445   1.516
 8047SOL     OW25039   4.515   5.454   6.529
 8047SOL    HW125040   4.527   5.359   6.559
 8047SOL    HW225041   4.590   5.510   6.565
 8048SOL     OW25042   4.637   1.857   0.024
 8048SOL    HW125043   4.713   1.888   0.082
 8048SOL    HW225044   4.594   1.936   7.004
 8049SOL     OW25045   1.106   0.354   6.904
 8049SOL    HW125046   1.189   0.300   6.919
 8049SOL    HW225047   1.029   0.293   6.887
 8050SOL     OW25048   2.100   3.568   3.459
 8050SOL    HW125049   2.125   3.656   3.419
 8050SOL    HW225050   2.113   3.496   3.391
 8051SOL     OW25051   4.751   5.852   4.215
 8051SOL    HW125052   4.813   5.901   4.277
 8051SOL    HW225053   4.692   5.918   4.169
 8052SOL     OW25054   3.126   1.727   1.098
 8052SOL    HW125055   3.150   1.631   1.084
 8052SOL    HW225056   3.208   1.783   1.089
 8053SOL     OW25057   3.465   2.961   4.360
 8053SOL    HW125058   3.434   2.941   4.453
 8053SOL    HW225059   3.411   2.908   4.294
 8054SOL     OW25060   6.501   4.908   5.232
 8054SOL    HW125061   6.573   4.975   5.253
 8054SOL    HW225062   6.470   4.920   5.138
 8055SOL     OW25063   0.122   0.273   5.313
 8055SOL    HW125064   0.083   0.356   5.275
 8055SOL    HW225065   0.048   0.210   5.339
 8056SOL     OW25066   2.413   0.976   4.042
 8056SOL    HW125067   2.326   1.003   4.001
 8056SOL    HW225068   2.488   1.024   3.997
 8057SOL     OW25069   2.927   2.226   3.086
 8057SOL    HW125070   2.857   2.291   3.058
 8057SOL    HW225071   2.948   2.164   3.010
 8058SOL     OW25072   3.744   6.978   3.604
 8058SOL    HW125073   3.665   6.962   3.663
 8058SOL    HW225074   3.827   6.946   3.650
 8059SOL     OW25075   2.589   1.820   4.287
 8059SOL    HW125076   2.494   1.812   4.317
 8059SOL    HW225077   2.608   1.751   4.218
 8060SOL     OW25078   6.189   2.319   6.137
 8060SOL    HW125079   6.287   2.306   6.119
 8060SOL    HW225080   6.136   2.260   6.076
 8061SOL     OW25081   0.044   6.972   2.552
 8061SOL    HW125082   0.003   7.003   2.637
 8061SOL    HW225083   7.000   6.977   2.478
 8062SOL     OW25084   3.231   4.883   4.623
 8062SOL    HW125085   3.136   4.858   4.606
 8062SOL    HW225086   3.247   4.894   4.721
 8063SOL     OW25087   2.171   2.335   2.712
 8063SOL    HW125088   2.170   2.236   2.699
 8063SOL    HW225089   2.224   2.357   2.794
 8064SOL     OW25090   6.441   2.635   1.049
 8064SOL    HW125091   6.507   2.619   0.976
 8064SOL    HW225092   6.451   2.728   1.083
 8065SOL     OW25093   2.791   5.664   4.133
 8065SOL    HW125094   2.775   5.679   4.036
 8065SOL    HW225095   2.722   5.601   4.169
 8066SOL     OW25096   0.388   1.364   5.416
 8066SOL    HW125097   0.295   1.350   5.450
 8066SOL    HW225098   0.454   1.320   5.477
 8067SOL     OW25099   4.917   2.625   2.819
 8067SOL    HW125100   4.919   2.538   2.771
 8067SOL    HW225101   4.834   2.675   2.795
 8068SOL     OW25102   6.930   4.686   1.735
 8068SOL    HW125103   6.840   4.663   1.698
 8068SOL    HW225104   6.999   4.625   1.697
 8069SOL     OW25105   2.234   5.477   0.877
 8069SOL    HW125106   2.164   5.420   0.835
 8069SOL    HW225107   2.238   5.565   0.831
 8070SOL     OW25108   3.837   3.578   0.979
 8070SOL    HW125109   3.886   3.493   0.958
 8070SOL    HW225110   3.742   3.569   0.950
 8071SOL     OW25111   3.504   6.579   4.414
 8071SOL    HW125112   3.418   6.528   4.418
 8071SOL    HW225113   3.503   6.652   4.483
 8072SOL     OW25114   4.180   1.388   0.858
 8072SOL    HW125115   4.205   1.293   0.879
 8072SOL    HW225116   4.241   1.450   0.906
 8073SOL     OW25117   2.980   5.008   5.090
 8073SOL    HW125118   2.973   4.925   5.035
 8073SOL    HW225119   3.031   4.989   5.173
 8074SOL     OW25120   3.033   2.880   0.789
 8074SOL    HW125121   2.941   2.897   0.825
 8074SOL    HW225122   3.059   2.952   0.725
 8075SOL     OW25123   6.539   0.119   0.299
 8075SOL    HW125124   6.509   0.183   0.228
 8075SOL    HW225125   6.612   0.160   0.353
 8076SOL     OW25126   6.125   0.475   5.420
 8076SOL    HW125127   6.147   0.530   5.501
 8076SOL    HW225128   6.025   0.470   5.410
 8077SOL     OW25129   3.064   6.446   2.753
 8077SOL    HW125130   2.988   6.511   2.761
 8077SOL    HW225131   3.066   6.408   2.661
 8078SOL     OW25132   6.919   1.786   0.598
 8078SOL    HW125133   6.983   1.711   0.585
 8078SOL    HW225134   6.961   1.858   0.653
 8079SOL     OW25135   6.269   1.703   3.993
 8079SOL    HW125136   6.212   1.623   3.973
 8079SOL    HW225137   6.211   1.781   4.017
 8080SOL     OW25138   0.960   2.809   2.019
 8080SOL    HW125139   0.894   2.763   2.078
 8080SOL    HW225140   1.042   2.752   2.010
 8081SOL     OW25141   6.255   5.443   6.104
 8081SOL    HW125142   6.223   5.374   6.039
 8081SOL    HW225143   6.353   5.433   6.117
 8082SOL     OW25144   4.218   0.205   2.155
 8082SOL    HW125145   4.170   0.159   2.229
 8082SOL    HW225146   4.232   0.301   2.178
 8083SOL     OW25147   4.986   3.095   3.024
 8083SOL    HW125148   4.967   3.184   3.065
 8083SOL    HW225149   5.012   3.031   3.097
 8084SOL     OW25150   3.820   6.202   0.050
 8084SOL    HW125151   3.723   6.200   0.024
 8084SOL    HW225152   3.833   6.153   0.136
 8085SOL     OW25153   6.355   6.482   2.028
 8085SOL    HW125154   6.385   6.399   2.076
 8085SOL    HW225155   6.319   6.547   2.095
 8086SOL     OW25156   6.586   0.906   2.413
 8086SOL    HW125157   6.539   0.875   2.331
 8086SOL    HW225158   6.633   0.829   2.457
 8087SOL     OW25159   2.402   0.375   0.187
 8087SOL    HW125160   2.434   0.304   0.250
 8087SOL    HW225161   2.415   0.465   0.229
 8088SOL     OW25162   6.179   1.380   1.529
 8088SOL    HW125163   6.128   1.400   1.446
 8088SOL    HW225164   6.227   1.462   1.560
 8089SOL     OW25165   5.957   2.644   0.961
 8089SOL    HW125166   5.921   2.601   1.044
 8089SOL    HW225167   5.889   2.708   0.925
 8090SOL     OW25168   4.371   1.511   6.840
 8090SOL    HW125169   4.456   1.497   6.789
 8090SOL    HW225170   4.333   1.601   6.818
 8091SOL     OW25171   2.046   4.088   5.002
 8091SOL    HW125172   2.007   4.069   5.092
 8091SOL    HW225173   2.145   4.075   5.005
 8092SOL     OW25174   5.644   2.091   5.189
 8092SOL    HW125175   5.595   2.164   5.142
 8092SOL    HW225176   5.581   2.014   5.204
 8093SOL     OW25177   3.713   4.881   3.151
 8093SOL    HW125178   3.722   4.949   3.078
 8093SOL    HW225179   3.793   4.822   3.152
 8094SOL     OW25180   0.822   3.049   4.663
 8094SOL    HW125181   0.904   3.044   4.720
 8094SOL    HW225182   0.750   3.096   4.714
 8095SOL     OW25183   0.212   4.875   4.655
 8095SOL    HW125184   0.157   4.869   4.572
 8095SOL    HW225185   0.278   4.801   4.656
 8096SOL     OW25186   1.804   6.672   3.109
 8096SOL    HW125187   1.737   6.697   3.178
 8096SOL    HW225188   1.888   6.725   3.122
 8097SOL     OW25189   4.209   6.784   4.484
 8097SOL    HW125190   4.180   6.877   4.461
 8097SOL    HW225191   4.185   6.764   4.579
 8098SOL     OW25192   1.905   6.458   2.987
 8098SOL    HW125193   1.937   6.399   3.061
 8098SOL    HW225194   1.853   6.534   3.024
 8099SOL     OW25195   4.080   5.829   5.026
 8099SOL    HW125196   4.097   5.742   4.980
 8099SOL    HW225197   4.041   5.895   4.961
 8100SOL     OW25198   0.046   0.388   6.914
 8100SOL    HW125199   7.004   0.352   6.981
 8100SOL    HW225200   0.046   0.488   6.918
 8101SOL     OW25201   2.068   5.841   2.391
 8101SOL    HW125202   2.022   5.752   2.398
 8101SOL    HW225203   2.038   5.900   2.466
 8102SOL     OW25204   0.860   4.088   3.799
 8102SOL    HW125205   0.939   4.143   3.826
 8102SOL    HW225206   0.874   4.053   3.707
 8103SOL     OW25207   2.685   7.001   1.461
 8103SOL    HW125208   2.685   6.902   1.463
 8103SOL    HW225209   2.764   0.010   1.408
 8104SOL     OW25210   2.022   0.350   5.646
 8104SOL    HW125211   2.101   0.409   5.630
 8104SOL    HW225212   2.045   0.256   5.621
 8105SOL     OW25213   0.535   3.467   3.496
 8105SOL    HW125214   0.532   3.491   3.398
 8105SOL    HW225215   0.596   3.531   3.543
 8106SOL     OW25216   3.145   6.593   2.997
 8106SOL    HW125217   3.147   6.548   2.908
 8106SOL    HW225218   3.174   6.688   2.987
 8107SOL     OW25219   1.115   4.962   4.330
 8107SOL    HW125220   1.104   5.006   4.419
 8107SOL    HW225221   1.209   4.975   4.298
 8108SOL     OW25222   6.247   2.905   5.560
 8108SOL    HW125223   6.182   2.967   5.514
 8108SOL    HW225224   6.340   2.934   5.539
 8109SOL     OW25225   0.159   4.158   5.076
 8109SOL    HW125226   0.254   4.140   5.103
 8109SOL    HW225227   0.158   4.197   4.984
 8110SOL     OW25228   3.958   6.347   1.789
 8110SOL    HW125229   3.888   6.411   1.821
 8110SOL    HW225230   3.967   6.272   1.854
 8111SOL     OW25231   5.171   1.287   4.437
 8111SOL    HW125232   5.219   1.292   4.350
 8111SOL    HW225233   5.085   1.239   4.426
 8112SOL     OW25234   2.558   2.077   3.970
 8112SOL    HW125235   2.503   2.062   4.052
 8112SOL    HW225236   2.505   2.052   3.889
 8113SOL     OW25237   1.498   3.809   0.107
 8113SOL    HW125238   1.459   3.818   0.199
 8113SOL    HW225239   1.429   3.837   0.039
 8114SOL     OW25240   1.568   3.948   3.027
 8114SOL    HW125241   1.519   3.869   3.065
 8114SOL    HW225242   1.642   3.975   3.090
 8115SOL     OW25243   3.540   0.370   6.980
 8115SOL    HW125244   3.473   0.441   6.958
 8115SOL    HW225245   3.626   0.413   7.008
 8116SOL     OW25246   4.327   4.608   6.392
 8116SOL    HW125247   4.349   4.529   6.450
 8116SOL    HW225248   4.263   4.580   6.320
 8117SOL     OW25249   2.099   6.981   3.469
 8117SOL    HW125250   2.065   0.002   3.386
 8117SOL    HW225251   2.028   6.983   3.540
 8118SOL     OW25252   5.097   4.538   6.892
 8118SOL    HW125253   5.191   4.550   6.923
 8118SOL    HW225254   5.087   4.448   6.850
 8119SOL     OW25255   5.327   5.650   6.301
 8119SOL    HW125256   5.280   5.580   6.353
 8119SOL    HW225257   5.329   5.735   6.354
 8120SOL     OW25258   3.077   4.779   0.775
 8120SOL    HW125259   3.075   4.681   0.754
 8120SOL    HW225260   3.016   4.797   0.853
 8121SOL     OW25261   6.957   5.017   2.543
 8121SOL    HW125262   6.972   4.959   2.462
 8121SOL    HW225263   6.860   5.017   2.566
 8122SOL     OW25264   0.493   5.490   3.230
 8122SOL    HW125265   0.583   5.528   3.205
 8122SOL    HW225266   0.427   5.514   3.159
 8123SOL     OW25267   6.891   2.123   6.717
 8123SOL    HW125268   6.930   2.032   6.732
 8123SOL    HW225269   6.792   2.116   6.710
 8124SOL     OW25270   5.839   6.239   1.583
 8124SOL    HW125271   5.858   6.186   1.500
 8124SOL    HW225272   5.899   6.210   1.657
 8125SOL     OW25273   1.136   1.906   3.263
 8125SOL    HW125274   1.213   1.890   3.324
 8125SOL    HW225275   1.148   1.992   3.214
 8126SOL     OW25276   4.519   4.457   2.492
 8126SOL    HW125277   4.567   4.383   2.539
 8126SOL    HW225278   4.537   4.451   2.394
 8127SOL     OW25279   2.320   4.584   6.466
 8127SOL    HW125280   2.384   4.659   6.448
 8127SOL    HW225281   2.307   4.575   6.565
 8128SOL     OW25282   2.449   1.734   1.909
 8128SOL    HW125283   2.429   1.804   1.977
 8128SOL    HW225284   2.411   1.646   1.938
 8129SOL     OW25285   4.025   0.222   6.325
 8129SOL    HW125286   3.959   0.230   6.399
 8129SOL    HW225287   4.082   0.304   6.322
 8130SOL     OW25288   0.412   3.329   6.510
 8130SOL    HW125289   0.459   3.256   6.461
 8130SOL    HW225290   0.313   3.315   6.504
 8131SOL     OW25291   2.560   2.089   1.362
 8131SOL    HW125292   2.600   2.049   1.444
 8131SOL    HW225293   2.491   2.156   1.389
 8132SOL     OW25294   5.956   6.845   6.146
 8132SOL    HW125295   5.965   6.751   6.179
 8132SOL    HW225296   6.010   6.856   6.063
 8133SOL     OW25297   3.265   5.578   1.526
 8133SOL    HW125298   3.283   5.480   1.523
 8133SOL    HW225299   3.180   5.595   1.577
 8134SOL     OW25300   6.560   2.901   5.949
 8134SOL    HW125301   6.472   2.930   5.986
 8134SOL    HW225302   6.555   2.805   5.922
 8135SOL     OW25303   2.660   6.750   1.600
 8135SOL    HW125304   2.717   6.668   1.608
 8135SOL    HW225305   2.634   6.781   1.692
 8136SOL     OW25306   4.363   5.399   3.153
 8136SOL    HW125307   4.374   5.474   3.218
 8136SOL    HW225308   4.299   5.427   3.081
 8137SOL     OW25309   3.330   1.910   4.837
 8137SOL    HW125310   3.256   1.878   4.897
 8137SOL    HW225311   3.305   1.999   4.798
 8138SOL     OW25312   5.353   1.161   0.704
 8138SOL    HW125313   5.378   1.076   0.659
 8138SOL    HW225314   5.257   1.182   0.686
 8139SOL     OW25315   0.068   1.328   2.389
 8139SOL    HW125316   0.165   1.350   2.396
 8139SOL    HW225317   0.018   1.378   2.459
 8140SOL     OW25318   5.072   0.338   0.623
 8140SOL    HW125319   5.004   0.333   0.697
 8140SOL    HW225320   5.027   0.329   0.535
 8141SOL     OW25321   4.662   6.009   4.648
 8141SOL    HW125322   4.749   5.965   4.674
 8141SOL    HW225323   4.674   6.055   4.559
 8142SOL     OW25324   1.107   5.397   0.272
 8142SOL    HW125325   1.008   5.401   0.287
 8142SOL    HW225326   1.134   5.303   0.250
 8143SOL     OW25327   5.684   4.477   1.280
 8143SOL    HW125328   5.752   4.407   1.259
 8143SOL    HW225329   5.594   4.435   1.290
 8144SOL     OW25330   6.080   6.290   6.417
 8144SOL    HW125331   6.043   6.339   6.496
 8144SOL    HW225332   6.169   6.251   6.440
 8145SOL     OW25333   5.854   5.755   1.683
 8145SOL    HW125334   5.837   5.744   1.585
 8145SOL    HW225335   5.767   5.766   1.731
 8146SOL     OW25336   4.419   0.642   4.518
 8146SOL    HW125337   4.506   0.642   4.468
 8146SOL    HW225338   4.438   0.636   4.616
 8147SOL     OW25339   5.764   1.663   1.343
 8147SOL    HW125340   5.759   1.630   1.248
 8147SOL    HW225341   5.730   1.756   1.348
 8148SOL     OW25342   5.211   4.300   1.194
 8148SOL    HW125343   5.254   4.248   1.120
 8148SOL    HW225344   5.189   4.392   1.162
 8149SOL     OW25345   2.798   6.219   2.218
 8149SOL    HW125346   2.837   6.251   2.132
 8149SOL    HW225347   2.834   6.128   2.238
 8150SOL     OW25348   1.423   3.812   0.644
 8150SOL    HW125349   1.505   3.828   0.590
 8150SOL    HW225350   1.438   3.845   0.738
 8151SOL     OW25351   6.084   2.303   1.651
 8151SOL    HW125352   6.130   2.391   1.643
 8151SOL    HW225353   6.045   2.294   1.742
 8152SOL     OW25354   0.266   1.946   2.675
 8152SOL    HW125355   0.275   1.846   2.667
 8152SOL    HW225356   0.190   1.968   2.737
 8153SOL     OW25357   2.165   0.301   3.410
 8153SOL    HW125358   2.071   0.292   3.377
 8153SOL    HW225359   2.223   0.235   3.364
 8154SOL     OW25360   3.237   5.169   2.249
 8154SOL    HW125361   3.176   5.244   2.221
 8154SOL    HW225362   3.219   5.146   2.344
 8155SOL     OW25363   1.891   3.792   1.608
 8155SOL    HW125364   1.836   3.726   1.659
 8155SOL    HW225365   1.951   3.841   1.670
 8156SOL     OW25366   5.036   0.098   1.058
 8156SOL    HW125367   5.062   0.194   1.066
 8156SOL    HW225368   5.030   0.072   0.962
 8157SOL     OW25369   0.083   5.395   6.763
 8157SOL    HW125370   0.070   5.453   6.683
 8157SOL    HW225371   0.081   5.299   6.735
 8158SOL     OW25372   4.935   5.376   0.770
 8158SOL    HW125373   4.933   5.350   0.674
 8158SOL    HW225374   4.997   5.316   0.819
 8159SOL     OW25375   3.155   5.737   1.954
 8159SOL    HW125376   3.126   5.686   2.035
 8159SOL    HW225377   3.164   5.833   1.976
 8160SOL     OW25378   5.276   0.899   3.527
 8160SOL    HW125379   5.194   0.842   3.532
 8160SOL    HW225380   5.284   0.937   3.435
 8161SOL     OW25381   5.413   1.693   6.423
 8161SOL    HW125382   5.484   1.629   6.454
 8161SOL    HW225383   5.456   1.773   6.382
 8162SOL     OW25384   6.050   5.964   5.992
 8162SOL    HW125385   6.102   5.882   6.015
 8162SOL    HW225386   6.003   5.997   6.074
 8163SOL     OW25387   2.507   3.857   5.354
 8163SOL    HW125388   2.435   3.798   5.390
 8163SOL    HW225389   2.474   3.906   5.273
 8164SOL     OW25390   5.411   3.299   0.704
 8164SOL    HW125391   5.360   3.213   0.701
 8164SOL    HW225392   5.509   3.279   0.706
 8165SOL     OW25393   1.211   4.418   6.501
 8165SOL    HW125394   1.219   4.331   6.453
 8165SOL    HW225395   1.283   4.480   6.469
 8166SOL     OW25396   1.527   0.426   2.014
 8166SOL    HW125397   1.473   0.464   1.939
 8166SOL    HW225398   1.623   0.421   1.986
 8167SOL     OW25399   6.098   6.830   4.707
 8167SOL    HW125400   6.170   6.874   4.653
 8167SOL    HW225401   6.014   6.824   4.653
 8168SOL     OW25402   2.260   1.530   3.483
 8168SOL    HW125403   2.325   1.478   3.427
 8168SOL    HW225404   2.181   1.473   3.503
 8169SOL     OW25405   4.733   2.364   1.480
 8169SOL    HW125406   4.736   2.325   1.572
 8169SOL    HW225407   4.725   2.464   1.487
 8170SOL     OW25408   1.642   5.288   2.954
 8170SOL    HW125409   1.582   5.286   3.034
 8170SOL    HW225410   1.599   5.340   2.881
 8171SOL     OW25411   1.509   1.366   0.022
 8171SOL    HW125412   1.605   1.395   0.014
 8171SOL    HW225413   1.480   1.372   0.117
 8172SOL     OW25414   0.609   1.700   1.782
 8172SOL    HW125415   0.576   1.791   1.807
 8172SOL    HW225416   0.692   1.709   1.726
 8173SOL     OW25417   4.624   0.917   1.698
 8173SOL    HW125418   4.619   0.968   1.612
 8173SOL    HW225419   4.720   0.896   1.718
 8174SOL     OW25420   6.177   2.850   0.971
 8174SOL    HW125421   6.101   2.785   0.973
 8174SOL    HW225422   6.232   2.841   1.053
 8175SOL     OW25423   6.857   3.083   6.226
 8175SOL    HW125424   6.848   3.117   6.320
 8175SOL    HW225425   6.864   3.160   6.163
 8176SOL     OW25426   2.986   5.585   2.084
 8176SOL    HW125427   2.916   5.526   2.043
 8176SOL    HW225428   3.069   5.532   2.098
 8177SOL     OW25429   2.598   6.145   3.617
 8177SOL    HW125430   2.549   6.231   3.606
 8177SOL    HW225431   2.533   6.073   3.641
 8178SOL     OW25432   2.918   5.592   6.682
 8178SOL    HW125433   2.934   5.570   6.778
 8178SOL    HW225434   2.976   5.534   6.624
 8179SOL     OW25435   4.795   2.676   5.854
 8179SOL    HW125436   4.738   2.731   5.915
 8179SOL    HW225437   4.878   2.726   5.831
 8180SOL     OW25438   6.554   7.000   4.660
 8180SOL    HW125439   6.572   0.061   4.608
 8180SOL    HW225440   6.629   6.983   4.724
 8181SOL     OW25441   2.031   1.441   1.864
 8181SOL    HW125442   2.086   1.499   1.923
 8181SOL    HW225443   2.057   1.346   1.878
 8182SOL     OW25444   3.659   2.827   6.311
 8182SOL    HW125445   3.643   2.762   6.236
 8182SOL    HW225446   3.605   2.910   6.295
 8183SOL     OW25447   0.367   2.902   4.299
 8183SOL    HW125448   0.444   2.931   4.242
 8183SOL    HW225449   0.291   2.875   4.241
 8184SOL     OW25450   5.268   2.157   6.032
 8184SOL    HW125451   5.214   2.239   6.009
 8184SOL    HW225452   5.314   2.124   5.950
 8185SOL     OW25453   2.612   6.362   0.285
 8185SOL    HW125454   2.693   6.333   0.337
 8185SOL    HW225455   2.620   6.330   0.191
 8186SOL     OW25456   3.559   5.180   6.669
 8186SOL    HW125457   3.594   5.181   6.575
 8186SOL    HW225458   3.490   5.108   6.678
 8187SOL     OW25459   1.479   2.056   5.710
 8187SOL    HW125460   1.534   2.108   5.776
 8187SOL    HW225461   1.500   1.959   5.719
 8188SOL     OW25462   5.702   2.443   1.840
 8188SOL    HW125463   5.740   2.486   1.922
 8188SOL    HW225464   5.745   2.483   1.758
 8189SOL     OW25465   4.604   4.908   2.793
 8189SOL    HW125466   4.635   4.839   2.728
 8189SOL    HW225467   4.590   4.865   2.883
 8190SOL     OW25468   4.292   5.442   4.099
 8190SOL    HW125469   4.350   5.376   4.052
 8190SOL    HW225470   4.250   5.399   4.179
 8191SOL     OW25471   3.040   6.214   2.889
 8191SOL    HW125472   3.019   6.298   2.840
 8191SOL    HW225473   3.121   6.171   2.849
 8192SOL     OW25474   3.555   5.768   0.581
 8192SOL    HW125475   3.572   5.676   0.615
 8192SOL    HW225476   3.633   5.826   0.603
 8193SOL     OW25477   6.767   6.663   4.124
 8193SOL    HW125478   6.856   6.637   4.160
 8193SOL    HW225479   6.777   6.744   4.065
 8194SOL     OW25480   6.030   2.487   0.673
 8194SOL    HW125481   6.038   2.395   0.635
 8194SOL    HW225482   5.968   2.486   0.752
 8195SOL     OW25483   0.811   0.112   0.856
 8195SOL    HW125484   0.727   0.070   0.823
 8195SOL    HW225485   0.809   0.118   0.956
 8196SOL     OW25486   3.461   0.427   5.300
 8196SOL    HW125487   3.447   0.342   5.250
 8196SOL    HW225488   3.487   0.499   5.235
 8197SOL     OW25489   4.295   1.301   5.759
 8197SOL    HW125490   4.324   1.396   5.753
 8197SOL    HW225491   4.215   1.295   5.818
 8198SOL     OW25492   3.229   6.045   3.237
 8198SOL    HW125493   3.247   6.143   3.241
 8198SOL    HW225494   3.196   6.013   3.326
 8199SOL     OW25495   6.574   3.026   6.466
 8199SOL    HW125496   6.573   2.931   6.436
 8199SOL    HW225497   6.483   3.052   6.497
 8200SOL     OW25498   4.310   3.613   1.707
 8200SOL    HW125499   4.297   3.521   1.670
 8200SOL    HW225500   4.227   3.641   1.756
 8201SOL     OW25501   5.663   0.977   4.486
 8201SOL    HW125502   5.745   0.964   4.542
 8201SOL    HW225503   5.629   0.888   4.456
 8202SOL     OW25504   0.552   5.493   4.339
 8202SOL    HW125505   0.563   5.485   4.240
 8202SOL    HW225506   0.557   5.589   4.365
 8203SOL     OW25507   4.895   2.224   0.667
 8203SOL    HW125508   4.907   2.315   0.628
 8203SOL    HW225509   4.831   2.229   0.744
 8204SOL     OW25510   3.046   5.412   0.909
 8204SOL    HW125511   3.070   5.505   0.938
 8204SOL    HW225512   2.956   5.388   0.945
 8205SOL     OW25513   0.254   4.796   1.215
 8205SOL    HW125514   0.194   4.716   1.211
 8205SOL    HW225515   0.206   4.875   1.175
 8206SOL     OW25516   4.046   2.877   5.751
 8206SOL    HW125517   3.985   2.929   5.692
 8206SOL    HW225518   4.036   2.779   5.731
 8207SOL     OW25519   3.814   4.365   5.348
 8207SOL    HW125520   3.755   4.312   5.410
 8207SOL    HW225521   3.806   4.328   5.255
 8208SOL     OW25522   2.085   6.531   1.777
 8208SOL    HW125523   1.997   6.578   1.788
 8208SOL    HW225524   2.106   6.523   1.679
 8209SOL     OW25525   0.646   1.463   5.711
 8209SOL    HW125526   0.693   1.428   5.792
 8209SOL    HW225527   0.611   1.554   5.730
 8210SOL     OW25528   3.081   0.961   1.656
 8210SOL    HW125529   3.035   0.937   1.741
 8210SOL    HW225530   3.148   0.890   1.634
 8211SOL     OW25531   3.387   3.843   3.332
 8211SOL    HW125532   3.376   3.931   3.285
 8211SOL    HW225533   3.428   3.858   3.422
 8212SOL     OW25534   3.742   1.737   1.117
 8212SOL    HW125535   3.767   1.716   1.022
 8212SOL    HW225536   3.651   1.700   1.136
 8213SOL     OW25537   5.070   4.731   2.350
 8213SOL    HW125538   5.004   4.806   2.346
 8213SOL    HW225539   5.154   4.764   2.393
 8214SOL     OW25540   1.727   5.688   4.091
 8214SOL    HW125541   1.695   5.678   3.997
 8214SOL    HW225542   1.748   5.598   4.129
 8215SOL     OW25543   3.962   4.994   6.740
 8215SOL    HW125544   4.047   4.943   6.742
 8215SOL    HW225545   3.887   4.936   6.771
 8216SOL     OW25546   4.573   6.551   3.027
 8216SOL    HW125547   4.637   6.479   3.000
 8216SOL    HW225548   4.598   6.637   2.981
 8217SOL     OW25549   2.199   3.888   2.174
 8217SOL    HW125550   2.195   3.842   2.085
 8217SOL    HW225551   2.175   3.823   2.246
 8218SOL     OW25552   1.260   0.020   4.033
 8218SOL    HW125553   1.250   0.019   3.934
 8218SOL    HW225554   1.346   7.000   4.058
 8219SOL     OW25555   3.721   3.802   1.646
 8219SOL    HW125556   3.666   3.736   1.697
 8219SOL    HW225557   3.761   3.868   1.709
 8220SOL     OW25558   3.402   4.256   5.684
 8220SOL    HW125559   3.435   4.166   5.654
 8220SOL    HW225560   3.377   4.310   5.604
 8221SOL     OW25561   6.414   4.937   3.147
 8221SOL    HW125562   6.508   4.952   3.178
 8221SOL    HW225563   6.364   5.024   3.150
 8222SOL     OW25564   4.802   2.141   1.328
 8222SOL    HW125565   4.834   2.089   1.408
 8222SOL    HW225566   4.771   2.231   1.357
 8223SOL     OW25567   0.417   4.849   6.145
 8223SOL    HW125568   0.358   4.802   6.080
 8223SOL    HW225569   0.390   4.945   6.151
 8224SOL     OW25570   5.114   1.599   1.685
 8224SOL    HW125571   5.131   1.591   1.587
 8224SOL    HW225572   5.088   1.694   1.707
 8225SOL     OW25573   3.623   1.387   1.561
 8225SOL    HW125574   3.673   1.301   1.556
 8225SOL    HW225575   3.672   1.450   1.623
 8226SOL     OW25576   3.169   0.494   0.452
 8226SOL    HW125577   3.165   0.445   0.539
 8226SOL    HW225578   3.243   0.561   0.455
 8227SOL     OW25579   0.055   1.643   2.383
 8227SOL    HW125580   0.120   1.616   2.311
 8227SOL    HW225581   0.104   1.694   2.454
 8228SOL     OW25582   0.987   1.858   5.959
 8228SOL    HW125583   1.048   1.899   5.891
 8228SOL    HW225584   0.955   1.769   5.925
 8229SOL     OW25585   3.735   4.382   1.376
 8229SOL    HW125586   3.697   4.388   1.468
 8229SOL    HW225587   3.788   4.297   1.367
 8230SOL     OW25588   3.851   6.671   5.426
 8230SOL    HW125589   3.860   6.751   5.366
 8230SOL    HW225590   3.825   6.701   5.517
 8231SOL     OW25591   3.459   2.240   1.763
 8231SOL    HW125592   3.554   2.262   1.787
 8231SOL    HW225593   3.420   2.180   1.833
 8232SOL     OW25594   5.726   2.029   2.385
 8232SOL    HW125595   5.791   1.961   2.350
 8232SOL    HW225596   5.757   2.062   2.474
 8233SOL     OW25597   1.600   6.270   6.352
 8233SOL    HW125598   1.617   6.260   6.254
 8233SOL    HW225599   1.572   6.364   6.371
 8234SOL     OW25600   2.751   3.697   0.129
 8234SOL    HW125601   2.842   3.685   0.089
 8234SOL    HW225602   2.681   3.670   0.064
 8235SOL     OW25603   0.156   3.590   6.900
 8235SOL    HW125604   0.218   3.520   6.934
 8235SOL    HW225605   0.209   3.668   6.866
 8236SOL     OW25606   0.481   5.157   6.334
 8236SOL    HW125607   0.475   5.250   6.371
 8236SOL    HW225608   0.445   5.156   6.241
 8237SOL     OW25609   4.662   6.342   6.227
 8237SOL    HW125610   4.738   6.325   6.289
 8237SOL    HW225611   4.580   6.294   6.260
 8238SOL     OW25612   0.492   6.299   6.997
 8238SOL    HW125613   0.405   6.250   6.988
 8238SOL    HW225614   0.506   6.356   6.916
 8239SOL     OW25615   0.596   1.024   4.896
 8239SOL    HW125616   0.628   1.035   4.990
 8239SOL    HW225617   0.562   1.111   4.862
 8240SOL     OW25618   2.978   3.832   3.401
 8240SOL    HW125619   2.941   3.912   3.355
 8240SOL    HW225620   2.979   3.847   3.499
 8241SOL     OW25621   2.497   4.808   5.973
 8241SOL    HW125622   2.572   4.782   6.033
 8241SOL    HW225623   2.412   4.810   6.025
 8242SOL     OW25624   0.419   4.086   4.812
 8242SOL    HW125625   0.503   4.139   4.819
 8242SOL    HW225626   0.442   3.989   4.807
 8243SOL     OW25627   0.137   4.085   0.754
 8243SOL    HW125628   0.048   4.127   0.772
 8243SOL    HW225629   0.203   4.117   0.822
 8244SOL     OW25630   0.256   0.370   4.234
 8244SOL    HW125631   0.227   0.430   4.309
 8244SOL    HW225632   0.314   0.420   4.171
 8245SOL     OW25633   3.813   1.280   2.867
 8245SOL    HW125634   3.731   1.267   2.813
 8245SOL    HW225635   3.791   1.271   2.965
 8246SOL     OW25636   0.098   4.802   6.754
 8246SOL    HW125637   0.196   4.808   6.774
 8246SOL    HW225638   0.066   4.708   6.770
 8247SOL     OW25639   2.493   6.977   3.815
 8247SOL    HW125640   2.591   6.959   3.807
 8247SOL    HW225641   2.478   0.049   3.841
 8248SOL     OW25642   0.799   4.953   5.243
 8248SOL    HW125643   0.807   5.002   5.156
 8248SOL    HW225644   0.737   4.876   5.232
 8249SOL     OW25645   1.878   0.905   5.589
 8249SOL    HW125646   1.935   0.941   5.662
 8249SOL    HW225647   1.879   0.805   5.591
 8250SOL     OW25648   3.444   2.133   1.527
 8250SOL    HW125649   3.351   2.150   1.494
 8250SOL    HW225650   3.452   2.160   1.623
 8251SOL     OW25651   5.780   1.118   4.055
 8251SOL    HW125652   5.765   1.175   4.135
 8251SOL    HW225653   5.836   1.039   4.081
 8252SOL     OW25654   3.795   1.864   0.208
 8252SOL    HW125655   3.726   1.915   0.157
 8252SOL    HW225656   3.806   1.773   0.168
 8253SOL     OW25657   3.906   5.690   0.108
 8253SOL    HW125658   3.883   5.778   0.150
 8253SOL    HW225659   4.004   5.674   0.115
 8254SOL     OW25660   5.095   4.305   6.016
 8254SOL    HW125661   5.159   4.245   5.969
 8254SOL    HW225662   5.002   4.273   6.002
 8255SOL     OW25663   1.226   0.200   6.237
 8255SOL    HW125664   1.292   0.272   6.257
 8255SOL    HW225665   1.242   0.121   6.296
 8256SOL     OW25666   6.494   6.887   3.074
 8256SOL    HW125667   6.457   6.834   2.997
 8256SOL    HW225668   6.511   6.826   3.151
 8257SOL     OW25669   5.790   4.677   3.705
 8257SOL    HW125670   5.693   4.664   3.684
 8257SOL    HW225671   5.845   4.651   3.625
 8258SOL     OW25672   4.966   3.123   1.328
 8258SOL    HW125673   5.050   3.134   1.380
 8258SOL    HW225674   4.924   3.035   1.349
 8259SOL     OW25675   3.896   2.077   5.531
 8259SOL    HW125676   3.825   2.027   5.582
 8259SOL    HW225677   3.884   2.175   5.545
 8260SOL     OW25678   1.870   6.181   1.477
 8260SOL    HW125679   1.939   6.112   1.499
 8260SOL    HW225680   1.906   6.272   1.499
 8261SOL     OW25681   5.262   6.439   3.197
 8261SOL    HW125682   5.346   6.439   3.143
 8261SOL    HW225683   5.259   6.358   3.255
 8262SOL     OW25684   0.789   4.515   0.640
 8262SOL    HW125685   0.760   4.425   0.607
 8262SOL    HW225686   0.842   4.561   0.568
 8263SOL     OW25687   6.691   3.038   0.065
 8263SOL    HW125688   6.669   3.020   6.992
 8263SOL    HW225689   6.771   3.098   0.070
 8264SOL     OW25690   0.994   0.136   1.576
 8264SOL    HW125691   0.959   0.191   1.500
 8264SOL    HW225692   0.980   0.184   1.662
 8265SOL     OW25693   5.172   0.723   2.025
 8265SOL    HW125694   5.080   0.686   2.034
 8265SOL    HW225695   5.167   0.817   1.991
 8266SOL     OW25696   2.648   0.188   4.666
 8266SOL    HW125697   2.600   0.108   4.630
 8266SOL    HW225698   2.714   0.159   4.735
 8267SOL     OW25699   1.659   4.488   1.377
 8267SOL    HW125700   1.573   4.532   1.402
 8267SOL    HW225701   1.678   4.413   1.440
 8268SOL     OW25702   3.096   4.861   5.992
 8268SOL    HW125703   3.156   4.941   5.995
 8268SOL    HW225704   3.066   4.846   5.897
 8269SOL     OW25705   4.585   2.275   2.814
 8269SOL    HW125706   4.611   2.372   2.820
 8269SOL    HW225707   4.650   2.220   2.867
 8270SOL     OW25708   3.429   5.802   5.868
 8270SOL    HW125709   3.357   5.741   5.901
 8270SOL    HW225710   3.506   5.800   5.932
 8271SOL     OW25711   6.328   6.556   3.839
 8271SOL    HW125712   6.345   6.477   3.780
 8271SOL    HW225713   6.232   6.555   3.868
 8272SOL     OW25714   0.046   1.176   2.627
 8272SOL    HW125715   0.067   1.225   2.543
 8272SOL    HW225716   7.006   1.101   2.608
 8273SOL     OW25717   2.939   1.271   0.048
 8273SOL    HW125718   2.915   1.205   7.000
 8273SOL    HW225719   2.876   1.262   0.125
 8274SOL     OW25720   4.142   4.833   5.671
 8274SOL    HW125721   4.096   4.860   5.756
 8274SOL    HW225722   4.084   4.768   5.621
 8275SOL     OW25723   5.841   0.402   4.572
 8275SOL    HW125724   5.923   0.344   4.575
 8275SOL    HW225725   5.795   0.389   4.484
 8276SOL     OW25726   6.537   2.195   5.665
 8276SOL    HW125727   6.593   2.232   5.739
 8276SOL    HW225728   6.570   2.229   5.577
 8277SOL     OW25729   2.457   5.921   5.168
 8277SOL    HW125730   2.403   5.962   5.095
 8277SOL    HW225731   2.553   5.919   5.140
 8278SOL     OW25732   3.353   1.562   6.726
 8278SOL    HW125733   3.299   1.613   6.793
 8278SOL    HW225734   3.403   1.488   6.771
 8279SOL     OW25735   6.190   5.736   6.098
 8279SOL    HW125736   6.205   5.648   6.144
 8279SOL    HW225737   6.204   5.725   6.000
 8280SOL     OW25738   4.282   2.324   0.824
 8280SOL    HW125739   4.303   2.268   0.744
 8280SOL    HW225740   4.325   2.414   0.814
 8281SOL     OW25741   2.108   4.385   2.090
 8281SOL    HW125742   2.188   4.342   2.048
 8281SOL    HW225743   2.127   4.406   2.186
 8282SOL     OW25744   2.520   3.556   0.025
 8282SOL    HW125745   2.424   3.580   0.013
 8282SOL    HW225746   2.535   3.527   0.120
 8283SOL     OW25747   0.973   4.825   4.076
 8283SOL    HW125748   1.039   4.776   4.019
 8283SOL    HW225749   1.022   4.872   4.150
 8284SOL     OW25750   1.592   3.936   2.196
 8284SOL    HW125751   1.618   3.845   2.162
 8284SOL    HW225752   1.503   3.962   2.158
 8285SOL     OW25753   3.815   3.558   5.319
 8285SOL    HW125754   3.902   3.514   5.340
 8285SOL    HW225755   3.744   3.522   5.379
 8286SOL     OW25756   5.456   1.996   4.893
 8286SOL    HW125757   5.470   1.958   4.985
 8286SOL    HW225758   5.358   2.003   4.875
 8287SOL     OW25759   1.239   5.837   3.905
 8287SOL    HW125760   1.185   5.825   3.989
 8287SOL    HW225761   1.182   5.881   3.835
 8288SOL     OW25762   0.827   2.450   2.462
 8288SOL    HW125763   0.877   2.533   2.486
 8288SOL    HW225764   0.779   2.415   2.542
 8289SOL     OW25765   6.041   0.361   6.271
 8289SOL    HW125766   5.959   0.396   6.225
 8289SOL    HW225767   6.118   0.423   6.251
 8290SOL     OW25768   4.726   1.830   1.858
 8290SOL    HW125769   4.703   1.922   1.828
 8290SOL    HW225770   4.826   1.820   1.859
 8291SOL     OW25771   5.672   5.685   6.473
 8291SOL    HW125772   5.642   5.591   6.490
 8291SOL    HW225773   5.760   5.684   6.427
 8292SOL     OW25774   2.467   5.995   6.380
 8292SOL    HW125775   2.385   6.051   6.374
 8292SOL    HW225776   2.509   6.006   6.471
 8293SOL     OW25777   1.457   3.927   1.693
 8293SOL    HW125778   1.418   4.017   1.712
 8293SOL    HW225779   1.553   3.936   1.667
 8294SOL     OW25780   6.526   3.367   4.766
 8294SOL    HW125781   6.453   3.436   4.770
 8294SOL    HW225782   6.612   3.410   4.740
 8295SOL     OW25783   5.121   3.550   2.875
 8295SOL    HW125784   5.085   3.615   2.941
 8295SOL    HW225785   5.050   3.527   2.809
 8296SOL     OW25786   3.716   5.163   0.429
 8296SOL    HW125787   3.697   5.230   0.357
 8296SOL    HW225788   3.631   5.117   0.454
 8297SOL     OW25789   6.700   3.240   2.184
 8297SOL    HW125790   6.631   3.180   2.224
 8297SOL    HW225791   6.657   3.300   2.116
 8298SOL     OW25792   0.293   0.670   0.132
 8298SOL    HW125793   0.321   0.653   0.227
 8298SOL    HW225794   0.256   0.762   0.124
 8299SOL     OW25795   0.847   2.972   0.713
 8299SOL    HW125796   0.804   3.060   0.696
 8299SOL    HW225797   0.780   2.909   0.752
 8300SOL     OW25798   6.425   6.425   5.022
 8300SOL    HW125799   6.381   6.515   5.020
 8300SOL    HW225800   6.514   6.429   4.977
 8301SOL     OW25801   4.684   0.660   6.532
 8301SOL    HW125802   4.672   0.614   6.620
 8301SOL    HW225803   4.599   0.706   6.506
 8302SOL     OW25804   4.330   7.021   5.415
 8302SOL    HW125805   4.325   0.010   5.514
 8302SOL    HW225806   4.297   0.081   5.370
 8303SOL     OW25807   0.065   0.441   3.363
 8303SOL    HW125808   7.006   0.444   3.419
 8303SOL    HW225809   0.062   0.514   3.295
 8304SOL     OW25810   5.303   5.011   1.660
 8304SOL    HW125811   5.268   5.063   1.738
 8304SOL    HW225812   5.305   4.914   1.683
 8305SOL     OW25813   4.247   5.020   4.167
 8305SOL    HW125814   4.282   5.089   4.230
 8305SOL    HW225815   4.164   5.053   4.123
 8306SOL     OW25816   6.626   1.466   2.784
 8306SOL    HW125817   6.531   1.493   2.793
 8306SOL    HW225818   6.633   1.395   2.714
 8307SOL     OW25819   3.374   5.239   1.450
 8307SOL    HW125820   3.320   5.235   1.534
 8307SOL    HW225821   3.312   5.248   1.372
 8308SOL     OW25822   2.080   4.132   0.314
 8308SOL    HW125823   2.129   4.049   0.340
 8308SOL    HW225824   2.052   4.182   0.396
 8309SOL     OW25825   5.940   4.977   2.997
 8309SOL    HW125826   5.852   4.930   2.993
 8309SOL    HW225827   5.998   4.933   3.066
 8310SOL     OW25828   1.098   5.659   0.730
 8310SOL    HW125829   1.162   5.600   0.681
 8310SOL    HW225830   1.076   5.619   0.819
 8311SOL     OW25831   5.350   0.470   4.690
 8311SOL    HW125832   5.269   0.470   4.631
 8311SOL    HW225833   5.336   0.533   4.766
 8312SOL     OW25834   5.588   1.098   0.400
 8312SOL    HW125835   5.543   1.174   0.354
 8312SOL    HW225836   5.522   1.047   0.454
 8313SOL     OW25837   4.549   0.167   5.670
 8313SOL    HW125838   4.638   0.131   5.700
 8313SOL    HW225839   4.552   0.266   5.667
 8314SOL     OW25840   6.164   6.911   6.544
 8314SOL    HW125841   6.186   6.833   6.485
 8314SOL    HW225842   6.090   6.965   6.502
 8315SOL     OW25843   4.107   3.635   2.949
 8315SOL    HW125844   4.123   3.566   2.878
 8315SOL    HW225845   4.073   3.590   3.032
 8316SOL     OW25846   1.732   3.318   0.362
 8316SOL    HW125847   1.777   3.391   0.414
 8316SOL    HW225848   1.637   3.343   0.346
 8317SOL     OW25849   2.519   2.045   3.415
 8317SOL    HW125850   2.447   2.082   3.356
 8317SOL    HW225851   2.478   2.010   3.499
 8318SOL     OW25852   4.111   1.262   5.350
 8318SOL    HW125853   4.037   1.304   5.402
 8318SOL    HW225854   4.087   1.261   5.253
 8319SOL     OW25855   1.943   6.969   0.218
 8319SOL    HW125856   1.954   0.006   0.139
 8319SOL    HW225857   1.877   7.009   0.281
 8320SOL     OW25858   3.538   3.939   3.543
 8320SOL    HW125859   3.528   4.022   3.597
 8320SOL    HW225860   3.585   3.869   3.596
 8321SOL     OW25861   0.196   6.769   6.123
 8321SOL    HW125862   0.286   6.735   6.153
 8321SOL    HW225863   0.142   6.693   6.088
 8322SOL     OW25864   0.299   1.496   0.341
 8322SOL    HW125865   0.373   1.456   0.394
 8322SOL    HW225866   0.274   1.435   0.265
 8323SOL     OW25867   3.500   4.993   1.573
 8323SOL    HW125868   3.432   5.010   1.645
 8323SOL    HW225869   3.458   5.006   1.483
 8324SOL     OW25870   5.349   0.502   0.705
 8324SOL    HW125871   5.420   0.439   0.673
 8324SOL    HW225872   5.261   0.456   0.705
 8325SOL     OW25873   0.818   4.349   5.260
 8325SOL    HW125874   0.893   4.414   5.272
 8325SOL    HW225875   0.814   4.318   5.165
 8326SOL     OW25876   4.354   3.559   6.782
 8326SOL    HW125877   4.307   3.549   6.869
 8326SOL    HW225878   4.330   3.647   6.741
 8327SOL     OW25879   0.835   0.345   5.597
 8327SOL    HW125880   0.742   0.335   5.564
 8327SOL    HW225881   0.892   0.270   5.563
 8328SOL     OW25882   2.251   6.509   6.396
 8328SOL    HW125883   2.305   6.509   6.312
 8328SOL    HW225884   2.305   6.467   6.469
 8329SOL     OW25885   0.297   2.156   5.088
 8329SOL    HW125886   0.247   2.139   5.173
 8329SOL    HW225887   0.232   2.185   5.017
 8330SOL     OW25888   3.530   1.442   6.499
 8330SOL    HW125889   3.554   1.425   6.404
 8330SOL    HW225890   3.502   1.537   6.511
 8331SOL     OW25891   2.771   0.927   1.066
 8331SOL    HW125892   2.824   0.998   1.021
 8331SOL    HW225893   2.673   0.945   1.053
 8332SOL     OW25894   5.384   4.968   1.942
 8332SOL    HW125895   5.426   5.056   1.962
 8332SOL    HW225896   5.444   4.916   1.881
 8333SOL     OW25897   1.796   4.807   6.845
 8333SOL    HW125898   1.827   4.859   6.766
 8333SOL    HW225899   1.871   4.798   6.910
 8334SOL     OW25900   2.777   2.480   6.328
 8334SOL    HW125901   2.870   2.446   6.311
 8334SOL    HW225902   2.766   2.501   6.425
 8335SOL     OW25903   3.925   2.535   0.253
 8335SOL    HW125904   3.850   2.530   0.187
 8335SOL    HW225905   3.988   2.608   0.226
 8336SOL     OW25906   1.259   3.906   3.339
 8336SOL    HW125907   1.346   3.857   3.338
 8336SOL    HW225908   1.191   3.852   3.289
 8337SOL     OW25909   0.313   6.677   4.063
 8337SOL    HW125910   0.385   6.745   4.073
 8337SOL    HW225911   0.255   6.678   4.145
 8338SOL     OW25912   3.524   5.713   2.211
 8338SOL    HW125913   3.618   5.742   2.230
 8338SOL    HW225914   3.475   5.789   2.169
 8339SOL     OW25915   0.082   1.151   1.577
 8339SOL    HW125916   0.024   1.129   1.499
 8339SOL    HW225917   0.085   1.074   1.641
 8340SOL     OW25918   5.430   3.998   0.360
 8340SOL    HW125919   5.416   3.981   0.263
 8340SOL    HW225920   5.345   3.980   0.410
 8341SOL     OW25921   3.747   0.536   0.001
 8341SOL    HW125922   3.737   0.564   0.096
 8341SOL    HW225923   3.844   0.540   6.999
 8342SOL     OW25924   4.063   0.036   0.253
 8342SOL    HW125925   4.129   0.031   0.177
 8342SOL    HW225926   4.018   6.970   0.264
 8343SOL     OW25927   6.412   5.568   4.002
 8343SOL    HW125928   6.455   5.489   3.960
 8343SOL    HW225929   6.442   5.651   3.955
 8344SOL     OW25930   6.625   4.451   4.395
 8344SOL    HW125931   6.651   4.520   4.463
 8344SOL    HW225932   6.650   4.360   4.428
 8345SOL     OW25933   4.565   2.182   3.548
 8345SOL    HW125934   4.581   2.085   3.530
 8345SOL    HW225935   4.511   2.192   3.631
 8346SOL     OW25936   3.482   3.545   6.137
 8346SOL    HW125937   3.482   3.525   6.235
 8346SOL    HW225938   3.461   3.642   6.123
 8347SOL     OW25939   3.232   0.033   6.413
 8347SOL    HW125940   3.159   0.012   6.478
 8347SOL    HW225941   3.311   0.069   6.463
 8348SOL     OW25942   2.289   0.394   1.528
 8348SOL    HW125943   2.192   0.368   1.528
 8348SOL    HW225944   2.343   0.320   1.489
 8349SOL     OW25945   1.411   6.508   1.784
 8349SOL    HW125946   1.475   6.465   1.721
 8349SOL    HW225947   1.350   6.439   1.823
 8350SOL     OW25948   2.971   6.630   6.358
 8350SOL    HW125949   2.880   6.659   6.387
 8350SOL    HW225950   2.982   6.532   6.378
 8351SOL     OW25951   5.711   5.404   4.036
 8351SOL    HW125952   5.737   5.495   4.067
 8351SOL    HW225953   5.613   5.402   4.014
 8352SOL     OW25954   1.586   0.015   2.776
 8352SOL    HW125955   1.526   0.025   2.697
 8352SOL    HW225956   1.593   0.103   2.824
 8353SOL     OW25957   0.860   3.826   0.742
 8353SOL    HW125958   0.814   3.784   0.821
 8353SOL    HW225959   0.864   3.925   0.755
 8354SOL     OW25960   3.469   0.092   3.920
 8354SOL    HW125961   3.397   0.143   3.966
 8354SOL    HW225962   3.558   0.123   3.952
 8355SOL     OW25963   1.697   1.024   5.344
 8355SOL    HW125964   1.601   1.034   5.316
 8355SOL    HW225965   1.713   0.930   5.373
 8356SOL     OW25966   1.133   5.365   1.419
 8356SOL    HW125967   1.148   5.381   1.321
 8356SOL    HW225968   1.190   5.288   1.449
 8357SOL     OW25969   3.902   6.246   5.607
 8357SOL    HW125970   3.894   6.318   5.675
 8357SOL    HW225971   3.928   6.285   5.518
 8358SOL     OW25972   1.149   2.691   4.832
 8358SOL    HW125973   1.191   2.780   4.844
 8358SOL    HW225974   1.139   2.671   4.735
 8359SOL     OW25975   2.297   1.597   4.638
 8359SOL    HW125976   2.220   1.654   4.665
 8359SOL    HW225977   2.288   1.571   4.542
 8360SOL     OW25978   4.748   7.021   1.265
 8360SOL    HW125979   4.702   0.001   1.176
 8360SOL    HW225980   4.835   6.974   1.256
 8361SOL     OW25981   3.431   0.821   0.252
 8361SOL    HW125982   3.374   0.809   0.171
 8361SOL    HW225983   3.478   0.909   0.247
 8362SOL     OW25984   5.655   1.946   1.424
 8362SOL    HW125985   5.620   2.028   1.469
 8362SOL    HW225986   5.583   1.902   1.371
 8363SOL     OW25987   5.146   1.690   0.529
 8363SOL    HW125988   5.172   1.635   0.608
 8363SOL    HW225989   5.054   1.664   0.499
 8364SOL     OW25990   0.688   3.276   4.287
 8364SOL    HW125991   0.605   3.225   4.311
 8364SOL    HW225992   0.673   3.325   4.201
 8365SOL     OW25993   1.148   2.428   2.919
 8365SOL    HW125994   1.158   2.527   2.932
 8365SOL    HW225995   1.141   2.407   2.822
 8366SOL     OW25996   3.490   5.459   0.726
 8366SOL    HW125997   3.401   5.490   0.760
 8366SOL    HW225998   3.495   5.360   0.730
 8367SOL     OW25999   3.533   5.395   5.344
 8367SOL    HW126000   3.586   5.311   5.340
 8367SOL    HW226001   3.436   5.373   5.358
 8368SOL     OW26002   1.046   5.868   0.552
 8368SOL    HW126003   1.070   5.952   0.600
 8368SOL    HW226004   1.065   5.790   0.611
 8369SOL     OW26005   0.539   1.133   6.887
 8369SOL    HW126006   0.603   1.058   6.901
 8369SOL    HW226007   0.465   1.103   6.828
 8370SOL     OW26008   2.250   0.844   6.004
 8370SOL    HW126009   2.286   0.854   5.911
 8370SOL    HW226010   2.152   0.863   6.004
 8371SOL     OW26011   1.781   3.366   6.719
 8371SOL    HW126012   1.777   3.452   6.769
 8371SOL    HW226013   1.851   3.307   6.759
 8372SOL     OW26014   1.629   5.889   1.484
 8372SOL    HW126015   1.646   5.843   1.571
 8372SOL    HW226016   1.564   5.836   1.430
 8373SOL     OW26017   1.664   0.443   4.637
 8373SOL    HW126018   1.649   0.347   4.617
 8373SOL    HW226019   1.703   0.488   4.556
 8374SOL     OW26020   0.047   7.005   5.001
 8374SOL    HW126021   7.014   6.923   5.013
 8374SOL    HW226022   7.019   0.062   5.030
 8375SOL     OW26023   3.363   6.717   6.182
 8375SOL    HW126024   3.347   6.802   6.133
 8375SOL    HW226025   3.404   6.736   6.271
 8376SOL     OW26026   1.607   1.605   3.783
 8376SOL    HW126027   1.659   1.683   3.748
 8376SOL    HW226028   1.532   1.639   3.839
 8377SOL     OW26029   5.759   6.368   0.303
 8377SOL    HW126030   5.785   6.287   0.356
 8377SOL    HW226031   5.743   6.341   0.208
 8378SOL     OW26032   4.067   5.271   3.741
 8378SOL    HW126033   4.089   5.358   3.784
 8378SOL    HW226034   4.145   5.209   3.749
 8379SOL     OW26035   5.096   2.559   2.198
 8379SOL    HW126036   5.196   2.560   2.195
 8379SOL    HW226037   5.064   2.615   2.274
 8380SOL     OW26038   0.459   0.184   6.747
 8380SOL    HW126039   0.421   0.092   6.760
 8380SOL    HW226040   0.385   0.249   6.733
 8381SOL     OW26041   0.239   2.784   3.519
 8381SOL    HW126042   0.318   2.845   3.511
 8381SOL    HW226043   0.175   2.821   3.587
 8382SOL     OW26044   2.348   6.938   1.292
 8382SOL    HW126045   2.431   6.989   1.269
 8382SOL    HW226046   2.268   6.994   1.271
 8383SOL     OW26047   3.040   6.960   5.734
 8383SOL    HW126048   3.106   6.917   5.796
 8383SOL    HW226049   2.949   6.957   5.775
 8384SOL     OW26050   6.916   1.638   0.913
 8384SOL    HW126051   6.989   1.654   0.846
 8384SOL    HW226052   6.844   1.706   0.901
 8385SOL     OW26053   4.136   1.921   0.711
 8385SOL    HW126054   4.099   1.923   0.804
 8385SOL    HW226055   4.100   1.841   0.663
 8386SOL     OW26056   2.188   5.440   1.160
 8386SOL    HW126057   2.202   5.431   1.061
 8386SOL    HW226058   2.157   5.533   1.180
 8387SOL     OW26059   1.501   1.955   1.256
 8387SOL    HW126060   1.498   1.888   1.330
 8387SOL    HW226061   1.590   2.002   1.257
 8388SOL     OW26062   1.757   6.537   1.155
 8388SOL    HW126063   1.682   6.529   1.090
 8388SOL    HW226064   1.757   6.629   1.194
 8389SOL     OW26065   0.203   3.669   4.526
 8389SOL    HW126066   0.168   3.613   4.600
 8389SOL    HW226067   0.296   3.640   4.503
 8390SOL     OW26068   3.845   6.644   6.846
 8390SOL    HW126069   3.933   6.597   6.849
 8390SOL    HW226070   3.772   6.581   6.876
 8391SOL     OW26071   4.783   4.988   1.247
 8391SOL    HW126072   4.729   5.070   1.267
 8391SOL    HW226073   4.793   4.934   1.331
 8392SOL     OW26074   6.691   5.578   5.957
 8392SOL    HW126075   6.641   5.596   5.872
 8392SOL    HW226076   6.626   5.547   6.027
 8393SOL     OW26077   6.931   6.793   3.749
 8393SOL    HW126078   0.006   6.801   3.732
 8393SOL    HW226079   6.914   6.793   3.847
 8394SOL     OW26080   0.140   2.716   1.634
 8394SOL    HW126081   0.089   2.789   1.679
 8394SOL    HW226082   0.207   2.756   1.571
 8395SOL     OW26083   1.190   6.196   4.657
 8395SOL    HW126084   1.257   6.147   4.601
 8395SOL    HW226085   1.099   6.157   4.643
 8396SOL     OW26086   4.252   4.681   2.014
 8396SOL    HW126087   4.160   4.662   1.980
 8396SOL    HW226088   4.246   4.731   2.101
 8397SOL     OW26089   2.345   0.850   3.645
 8397SOL    HW126090   2.416   0.920   3.642
 8397SOL    HW226091   2.362   0.781   3.575
 8398SOL     OW26092   4.258   2.418   6.221
 8398SOL    HW126093   4.341   2.449   6.174
 8398SOL    HW226094   4.251   2.318   6.213
 8399SOL     OW26095   6.709   0.383   6.764
 8399SOL    HW126096   6.621   0.370   6.719
 8399SOL    HW226097   6.695   0.431   6.851
 8400SOL     OW26098   0.971   0.216   3.765
 8400SOL    HW126099   1.039   0.272   3.812
 8400SOL    HW226100   0.880   0.256   3.779
 8401SOL     OW26101   3.638   1.979   5.704
 8401SOL    HW126102   3.553   1.943   5.745
 8401SOL    HW226103   3.703   2.000   5.777
 8402SOL     OW26104   4.222   1.808   5.545
 8402SOL    HW126105   4.148   1.850   5.492
 8402SOL    HW226106   4.303   1.800   5.487
 8403SOL     OW26107   0.876   1.768   3.412
 8403SOL    HW126108   0.810   1.697   3.387
 8403SOL    HW226109   0.911   1.812   3.330
 8404SOL     OW26110   5.013   5.853   6.514
 8404SOL    HW126111   4.939   5.805   6.466
 8404SOL    HW226112   5.039   5.800   6.595
 8405SOL     OW26113   2.403   0.965   6.187
 8405SOL    HW126114   2.441   1.056   6.171
 8405SOL    HW226115   2.350   0.936   6.107
 8406SOL     OW26116   4.681   0.178   0.494
 8406SOL    HW126117   4.585   0.194   0.472
 8406SOL    HW226118   4.689   0.160   0.593
 8407SOL     OW26119   4.690   6.490   3.669
 8407SOL    HW126120   4.614   6.462   3.610
 8407SOL    HW226121   4.763   6.530   3.613
 8408SOL     OW26122   5.136   2.797   2.633
 8408SOL    HW126123   5.084   2.765   2.713
 8408SOL    HW226124   5.174   2.888   2.653
 8409SOL     OW26125   6.225   3.333   3.204
 8409SOL    HW126126   6.314   3.289   3.212
 8409SOL    HW226127   6.161   3.288   3.267
 8410SOL     OW26128   4.880   0.749   1.465
 8410SOL    HW126129   4.840   0.682   1.527
 8410SOL    HW226130   4.978   0.758   1.484
 8411SOL     OW26131   1.464   5.330   5.628
 8411SOL    HW126132   1.418   5.275   5.558
 8411SOL    HW226133   1.560   5.301   5.635
 8412SOL     OW26134   4.513   1.785   2.085
 8412SOL    HW126135   4.440   1.778   2.016
 8412SOL    HW226136   4.599   1.751   2.046
 8413SOL     OW26137   4.636   4.658   0.316
 8413SOL    HW126138   4.655   4.563   0.337
 8413SOL    HW226139   4.613   4.667   0.219
 8414SOL     OW26140   4.189   5.504   2.982
 8414SOL    HW126141   4.135   5.587   2.994
 8414SOL    HW226142   4.176   5.468   2.890
 8415SOL     OW26143   6.691   5.612   4.264
 8415SOL    HW126144   6.760   5.656   4.322
 8415SOL    HW226145   6.733   5.580   4.180
 8416SOL     OW26146   5.514   4.348   3.117
 8416SOL    HW126147   5.455   4.281   3.072
 8416SOL    HW226148   5.586   4.299   3.168
 8417SOL     OW26149   1.281   5.089   6.232
 8417SOL    HW126150   1.373   5.128   6.223
 8417SOL    HW226151   1.288   4.992   6.256
 8418SOL     OW26152   6.294   5.305   1.325
 8418SOL    HW126153   6.346   5.387   1.350
 8418SOL    HW226154   6.304   5.287   1.227
 8419SOL     OW26155   5.424   1.581   3.053
 8419SOL    HW126156   5.457   1.675   3.053
 8419SOL    HW226157   5.339   1.575   3.105
 8420SOL     OW26158   4.090   0.281   0.869
 8420SOL    HW126159   4.044   0.299   0.782
 8420SOL    HW226160   4.187   0.263   0.852
 8421SOL     OW26161   2.879   6.234   1.055
 8421SOL    HW126162   2.917   6.215   0.965
 8421SOL    HW226163   2.785   6.267   1.046
 8422SOL     OW26164   4.533   0.742   1.440
 8422SOL    HW126165   4.552   0.839   1.453
 8422SOL    HW226166   4.591   0.706   1.366
 8423SOL     OW26167   3.969   4.644   6.066
 8423SOL    HW126168   3.906   4.637   5.988
 8423SOL    HW226169   3.928   4.699   6.138
 8424SOL     OW26170   2.533   2.509   2.729
 8424SOL    HW126171   2.456   2.525   2.667
 8424SOL    HW226172   2.596   2.443   2.687
 8425SOL     OW26173   5.787   5.838   0.737
 8425SOL    HW126174   5.696   5.832   0.778
 8425SOL    HW226175   5.844   5.900   0.791
 8426SOL     OW26176   3.296   2.911   4.151
 8426SOL    HW126177   3.243   2.980   4.103
 8426SOL    HW226178   3.285   2.823   4.106
 8427SOL     OW26179   2.699   3.535   5.732
 8427SOL    HW126180   2.694   3.581   5.643
 8427SOL    HW226181   2.694   3.436   5.718
 8428SOL     OW26182   6.788   4.037   1.499
 8428SOL    HW126183   6.767   4.134   1.482
 8428SOL    HW226184   6.885   4.021   1.481
 8429SOL     OW26185   2.210   3.907   3.726
 8429SOL    HW126186   2.251   3.974   3.788
 8429SOL    HW226187   2.114   3.893   3.751
 8430SOL     OW26188   3.749   5.937   3.934
 8430SOL    HW126189   3.761   5.965   3.838
 8430SOL    HW226190   3.696   5.853   3.938
 8431SOL     OW26191   2.766   5.645   0.820
 8431SOL    HW126192   2.776   5.550   0.792
 8431SOL    HW226193   2.852   5.679   0.859
 8432SOL     OW26194   5.846   0.056   6.202
 8432SOL    HW126195   5.775   0.080   6.135
 8432SOL    HW226196   5.877   6.986   6.186
 8433SOL     OW26197   6.639   2.179   0.567
 8433SOL    HW126198   6.641   2.233   0.483
 8433SOL    HW226199   6.701   2.221   0.634
 8434SOL     OW26200   3.244   6.327   5.320
 8434SOL    HW126201   3.252   6.318   5.419
 8434SOL    HW226202   3.147   6.332   5.294
 8435SOL     OW26203   5.148   0.363   1.085
 8435SOL    HW126204   5.180   0.451   1.049
 8435SOL    HW226205   5.104   0.377   1.174
 8436SOL     OW26206   3.385   6.792   4.617
 8436SOL    HW126207   3.438   6.852   4.677
 8436SOL    HW226208   3.288   6.811   4.629
 8437SOL     OW26209   1.389   0.127   3.315
 8437SOL    HW126210   1.372   0.115   3.413
 8437SOL    HW226211   1.350   0.051   3.264
 8438SOL     OW26212   2.860   5.025   2.161
 8438SOL    HW126213   2.821   5.075   2.083
 8438SOL    HW226214   2.851   4.927   2.145
 8439SOL     OW26215   6.392   5.202   1.573
 8439SOL    HW126216   6.353   5.175   1.660
 8439SOL    HW226217   6.319   5.230   1.510
 8440SOL     OW26218   0.946   1.748   3.922
 8440SOL    HW126219   0.918   1.813   3.851
 8440SOL    HW226220   1.011   1.683   3.884
 8441SOL     OW26221   5.638   6.332   0.020
 8441SOL    HW126222   5.648   6.426   0.054
 8441SOL    HW226223   5.716   6.310   6.985
 8442SOL     OW26224   3.374   2.710   5.762
 8442SOL    HW126225   3.283   2.687   5.796
 8442SOL    HW226226   3.425   2.627   5.742
 8443SOL     OW26227   1.220   6.335   3.582
 8443SOL    HW126228   1.311   6.370   3.601
 8443SOL    HW226229   1.179   6.388   3.507
 8444SOL     OW26230   3.233   5.714   4.034
 8444SOL    HW126231   3.279   5.713   3.946
 8444SOL    HW226232   3.301   5.721   4.108
 8445SOL     OW26233   3.612   5.366   1.494
 8445SOL    HW126234   3.597   5.425   1.574
 8445SOL    HW226235   3.529   5.313   1.477
 8446SOL     OW26236   4.170   5.051   0.371
 8446SOL    HW126237   4.261   5.087   0.390
 8446SOL    HW226238   4.106   5.083   0.441
 8447SOL     OW26239   5.643   2.186   1.833
 8447SOL    HW126240   5.655   2.284   1.850
 8447SOL    HW226241   5.633   2.171   1.734
 8448SOL     OW26242   5.561   4.902   4.378
 8448SOL    HW126243   5.508   4.986   4.363
 8448SOL    HW226244   5.599   4.904   4.470
 8449SOL     OW26245   6.033   3.144   4.452
 8449SOL    HW126246   6.023   3.207   4.529
 8449SOL    HW226247   6.061   3.194   4.371
 8450SOL     OW26248   1.607   5.636   2.147
 8450SOL    HW126249   1.673   5.574   2.103
 8450SOL    HW226250   1.638   5.730   2.136
 8451SOL     OW26251   5.047   2.805   0.921
 8451SOL    HW126252   5.136   2.780   0.958
 8451SOL    HW226253   5.049   2.900   0.890
 8452SOL     OW26254   0.145   1.126   2.218
 8452SOL    HW126255   0.092   1.211   2.226
 8452SOL    HW226256   0.170   1.094   2.310
 8453SOL     OW26257   6.643   4.079   6.753
 8453SOL    HW126258   6.698   4.109   6.676
 8453SOL    HW226259   6.561   4.135   6.760
 8454SOL     OW26260   0.441   6.391   0.603
 8454SOL    HW126261   0.440   6.316   0.670
 8454SOL    HW226262   0.531   6.433   0.602
 8455SOL     OW26263   5.372   1.814   1.512
 8455SOL    HW126264   5.326   1.726   1.511
 8455SOL    HW226265   5.319   1.880   1.458
 8456SOL     OW26266   4.524   4.771   3.031
 8456SOL    HW126267   4.588   4.700   3.059
 8456SOL    HW226268   4.438   4.729   3.000
 8457SOL     OW26269   0.167   6.325   5.433
 8457SOL    HW126270   0.250   6.373   5.404
 8457SOL    HW226271   0.162   6.236   5.387
 8458SOL     OW26272   2.594   1.425   6.964
 8458SOL    HW126273   2.593   1.326   6.977
 8458SOL    HW226274   2.500   1.458   6.955
 8459SOL     OW26275   3.038   6.287   1.980
 8459SOL    HW126276   3.032   6.366   1.918
 8459SOL    HW226277   2.967   6.221   1.956
 8460SOL     OW26278   4.641   2.381   5.526
 8460SOL    HW126279   4.669   2.370   5.622
 8460SOL    HW226280   4.679   2.465   5.489
 8461SOL     OW26281   0.832   3.797   2.722
 8461SOL    HW126282   0.931   3.809   2.716
 8461SOL    HW226283   0.811   3.702   2.746
 8462SOL     OW26284   3.668   2.520   0.758
 8462SOL    HW126285   3.672   2.524   0.658
 8462SOL    HW226286   3.574   2.531   0.788
 8463SOL     OW26287   6.380   0.468   6.902
 8463SOL    HW126288   6.356   0.564   6.920
 8463SOL    HW226289   6.406   0.457   6.807
 8464SOL     OW26290   5.562   3.798   5.839
 8464SOL    HW126291   5.560   3.703   5.873
 8464SOL    HW226292   5.542   3.798   5.741
 8465SOL     OW26293   2.437   2.397   0.764
 8465SOL    HW126294   2.485   2.462   0.822
 8465SOL    HW226295   2.476   2.306   0.776
 8466SOL     OW26296   6.961   0.097   5.418
 8466SOL    HW126297   6.954   0.098   5.518
 8466SOL    HW226298   6.871   0.083   5.379
 8467SOL     OW26299   3.814   0.581   1.261
 8467SOL    HW126300   3.775   0.630   1.339
 8467SOL    HW226301   3.883   0.517   1.292
 8468SOL     OW26302   4.472   2.453   0.607
 8468SOL    HW126303   4.385   2.500   0.594
 8468SOL    HW226304   4.547   2.520   0.606
 8469SOL     OW26305   2.737   2.012   5.486
 8469SOL    HW126306   2.749   1.914   5.503
 8469SOL    HW226307   2.642   2.037   5.504
 8470SOL     OW26308   0.341   4.733   0.025
 8470SOL    HW126309   0.352   4.810   6.985
 8470SOL    HW226310   0.362   4.763   0.118
 8471SOL     OW26311   4.132   0.616   4.559
 8471SOL    HW126312   4.221   0.576   4.578
 8471SOL    HW226313   4.114   0.690   4.624
 8472SOL     OW26314   6.497   0.387   5.701
 8472SOL    HW126315   6.473   0.453   5.772
 8472SOL    HW226316   6.455   0.299   5.720
 8473SOL     OW26317   6.663   6.126   1.027
 8473SOL    HW126318   6.701   6.033   1.032
 8473SOL    HW226319   6.623   6.150   1.115
 8474SOL     OW26320   3.622   3.524   2.468
 8474SOL    HW126321   3.712   3.508   2.509
 8474SOL    HW226322   3.629   3.516   2.369
 8475SOL     OW26323   0.237   2.834   2.930
 8475SOL    HW126324   0.231   2.796   2.838
 8475SOL    HW226325   0.290   2.918   2.928
 8476SOL     OW26326   6.445   1.624   1.377
 8476SOL    HW126327   6.508   1.652   1.304
 8476SOL    HW226328   6.444   1.525   1.384
 8477SOL     OW26329   5.178   6.383   2.620
 8477SOL    HW126330   5.126   6.328   2.555
 8477SOL    HW226331   5.274   6.386   2.594
 8478SOL     OW26332   1.461   6.540   6.195
 8478SOL    HW126333   1.370   6.579   6.179
 8478SOL    HW226334   1.489   6.486   6.116
 8479SOL     OW26335   0.974   2.162   1.044
 8479SOL    HW126336   0.938   2.144   1.135
 8479SOL    HW226337   0.900   2.194   0.985
 8480SOL     OW26338   5.323   2.753   0.444
 8480SOL    HW126339   5.421   2.745   0.421
 8480SOL    HW226340   5.311   2.743   0.543
 8481SOL     OW26341   4.962   2.719   5.049
 8481SOL    HW126342   5.062   2.724   5.046
 8481SOL    HW226343   4.925   2.732   4.957
 8482SOL     OW26344   4.718   6.711   2.816
 8482SOL    HW126345   4.813   6.724   2.845
 8482SOL    HW226346   4.716   6.648   2.738
 8483SOL     OW26347   3.440   5.973   1.861
 8483SOL    HW126348   3.522   6.027   1.845
 8483SOL    HW226349   3.429   5.957   1.959
 8484SOL     OW26350   6.761   5.941   3.314
 8484SOL    HW126351   6.854   5.913   3.339
 8484SOL    HW226352   6.757   5.962   3.217
 8485SOL     OW26353   3.494   2.554   0.171
 8485SOL    HW126354   3.472   2.644   0.209
 8485SOL    HW226355   3.427   2.487   0.202
 8486SOL     OW26356   1.889   1.779   2.477
 8486SOL    HW126357   1.984   1.769   2.508
 8486SOL    HW226358   1.857   1.872   2.495
 8487SOL     OW26359   5.733   1.672   5.508
 8487SOL    HW126360   5.708   1.680   5.412
 8487SOL    HW226361   5.657   1.704   5.565
 8488SOL     OW26362   5.497   6.522   0.999
 8488SOL    HW126363   5.468   6.617   0.993
 8488SOL    HW226364   5.478   6.485   1.090
 8489SOL     OW26365   6.496   1.870   1.637
 8489SOL    HW126366   6.563   1.812   1.590
 8489SOL    HW226367   6.421   1.892   1.575
 8490SOL     OW26368   3.762   6.527   5.126
 8490SOL    HW126369   3.845   6.582   5.117
 8490SOL    HW226370   3.713   6.527   5.039
 8491SOL     OW26371   2.451   6.171   1.855
 8491SOL    HW126372   2.459   6.270   1.851
 8491SOL    HW226373   2.363   6.143   1.816
 8492SOL     OW26374   5.733   4.278   5.346
 8492SOL    HW126375   5.798   4.204   5.366
 8492SOL    HW226376   5.774   4.340   5.279
 8493SOL     OW26377   2.158   2.475   5.847
 8493SOL    HW126378   2.092   2.546   5.821
 8493SOL    HW226379   2.164   2.408   5.773
 8494SOL     OW26380   4.306   5.128   1.177
 8494SOL    HW126381   4.256   5.212   1.155
 8494SOL    HW226382   4.386   5.151   1.232
 8495SOL     OW26383   6.183   5.018   2.094
 8495SOL    HW126384   6.166   5.060   2.005
 8495SOL    HW226385   6.257   4.951   2.086
 8496SOL     OW26386   1.583   2.103   2.351
 8496SOL    HW126387   1.583   2.201   2.331
 8496SOL    HW226388   1.676   2.068   2.345
 8497SOL     OW26389   6.697   0.740   3.611
 8497SOL    HW126390   6.779   0.737   3.667
 8497SOL    HW226391   6.644   0.823   3.632
 8498SOL     OW26392   6.240   5.905   2.998
 8498SOL    HW126393   6.208   5.984   3.050
 8498SOL    HW226394   6.335   5.920   2.970
 8499SOL     OW26395   2.164   3.860   6.643
 8499SOL    HW126396   2.141   3.919   6.721
 8499SOL    HW226397   2.082   3.844   6.588
 8500SOL     OW26398   1.766   5.988   5.532
 8500SOL    HW126399   1.774   6.024   5.439
 8500SOL    HW226400   1.717   6.054   5.588
 8501SOL     OW26401   0.165   2.450   6.542
 8501SOL    HW126402   0.258   2.478   6.568
 8501SOL    HW226403   0.146   2.480   6.449
 8502SOL     OW26404   0.501   3.445   1.110
 8502SOL    HW126405   0.530   3.350   1.104
 8502SOL    HW226406   0.547   3.489   1.187
 8503SOL     OW26407   1.125   4.982   4.872
 8503SOL    HW126408   1.173   4.905   4.914
 8503SOL    HW226409   1.182   5.020   4.799
 8504SOL     OW26410   2.378   5.103   2.909
 8504SOL    HW126411   2.435   5.023   2.897
 8504SOL    HW226412   2.384   5.161   2.828
 8505SOL     OW26413   6.568   3.430   3.116
 8505SOL    HW126414   6.530   3.372   3.188
 8505SOL    HW226415   6.571   3.525   3.148
 8506SOL     OW26416   1.124   1.178   0.106
 8506SOL    HW126417   1.147   1.143   0.015
 8506SOL    HW226418   1.065   1.112   0.153
 8507SOL     OW26419   3.710   0.379   4.866
 8507SOL    HW126420   3.733   0.296   4.814
 8507SOL    HW226421   3.737   0.459   4.813
 8508SOL     OW26422   5.084   1.834   4.599
 8508SOL    HW126423   4.997   1.838   4.648
 8508SOL    HW226424   5.095   1.743   4.558
 8509SOL     OW26425   4.610   1.120   3.593
 8509SOL    HW126426   4.535   1.114   3.658
 8509SOL    HW226427   4.675   1.190   3.622
 8510SOL     OW26428   5.799   4.502   2.142
 8510SOL    HW126429   5.725   4.459   2.091
 8510SOL    HW226430   5.866   4.540   2.077
 8511SOL     OW26431   6.210   4.283   2.493
 8511SOL    HW126432   6.204   4.366   2.549
 8511SOL    HW226433   6.119   4.243   2.484
 8512SOL     OW26434   2.474   1.477   2.640
 8512SOL    HW126435   2.542   1.413   2.677
 8512SOL    HW226436   2.436   1.439   2.556
 8513SOL     OW26437   6.888   5.638   0.838
 8513SOL    HW126438   6.932   5.594   0.916
 8513SOL    HW226439   6.789   5.630   0.848
 8514SOL     OW26440   2.026   2.295   3.644
 8514SOL    HW126441   2.101   2.233   3.623
 8514SOL    HW226442   2.058   2.366   3.708
 8515SOL     OW26443   4.865   2.168   1.069
 8515SOL    HW126444   4.802   2.149   0.994
 8515SOL    HW226445   4.814   2.185   1.153
 8516SOL     OW26446   0.378   1.859   2.048
 8516SOL    HW126447   0.346   1.919   1.976
 8516SOL    HW226448   0.348   1.765   2.029
 8517SOL     OW26449   0.527   2.359   6.172
 8517SOL    HW126450   0.469   2.283   6.140
 8517SOL    HW226451   0.488   2.445   6.141
 8518SOL     OW26452   4.624   3.818   0.329
 8518SOL    HW126453   4.680   3.785   0.253
 8518SOL    HW226454   4.565   3.893   0.297
 8519SOL     OW26455   1.912   5.111   2.081
 8519SOL    HW126456   1.918   5.163   2.167
 8519SOL    HW226457   1.939   5.170   2.005
 8520SOL     OW26458   3.826   2.003   0.886
 8520SOL    HW126459   3.727   1.988   0.886
 8520SOL    HW226460   3.866   1.959   0.806
 8521SOL     OW26461   1.873   4.908   5.929
 8521SOL    HW126462   1.807   4.903   5.854
 8521SOL    HW226463   1.962   4.874   5.896
 8522SOL     OW26464   1.443   5.709   1.736
 8522SOL    HW126465   1.489   5.737   1.820
 8522SOL    HW226466   1.377   5.780   1.709
 8523SOL     OW26467   3.208   0.257   6.605
 8523SOL    HW126468   3.232   0.190   6.674
 8523SOL    HW226469   3.183   0.343   6.649
 8524SOL     OW26470   1.464   1.854   4.826
 8524SOL    HW126471   1.406   1.921   4.779
 8524SOL    HW226472   1.442   1.852   4.923
 8525SOL     OW26473   6.211   4.535   2.613
 8525SOL    HW126474   6.137   4.601   2.598
 8525SOL    HW226475   6.295   4.583   2.636
 8526SOL     OW26476   3.775   4.922   0.753
 8526SOL    HW126477   3.761   4.837   0.805
 8526SOL    HW226478   3.834   4.983   0.805
 8527SOL     OW26479   2.942   0.130   4.767
 8527SOL    HW126480   2.954   0.054   4.832
 8527SOL    HW226481   2.903   0.094   4.682
 8528SOL     OW26482   5.182   2.949   6.197
 8528SOL    HW126483   5.187   2.850   6.211
 8528SOL    HW226484   5.133   2.991   6.273
 8529SOL     OW26485   0.852   0.449   0.318
 8529SOL    HW126486   0.800   0.383   0.263
 8529SOL    HW226487   0.805   0.538   0.316
 8530SOL     OW26488   2.191   4.139   5.647
 8530SOL    HW126489   2.187   4.109   5.552
 8530SOL    HW226490   2.183   4.239   5.650
 8531SOL     OW26491   6.143   4.507   1.549
 8531SOL    HW126492   6.134   4.579   1.480
 8531SOL    HW226493   6.072   4.438   1.534
 8532SOL     OW26494   4.294   5.107   4.450
 8532SOL    HW126495   4.292   5.109   4.550
 8532SOL    HW226496   4.318   5.014   4.420
 8533SOL     OW26497   1.733   0.091   5.975
 8533SOL    HW126498   1.816   0.145   5.978
 8533SOL    HW226499   1.723   0.040   6.061
 8534SOL     OW26500   6.872   3.518   3.764
 8534SOL    HW126501   6.927   3.449   3.718
 8534SOL    HW226502   6.931   3.581   3.814
 8535SOL     OW26503   0.542   1.770   5.370
 8535SOL    HW126504   0.467   1.708   5.348
 8535SOL    HW226505   0.508   1.864   5.375
 8536SOL     OW26506   5.759   1.641   5.065
 8536SOL    HW126507   5.741   1.705   4.990
 8536SOL    HW226508   5.857   1.620   5.067
 8537SOL     OW26509   5.902   1.212   2.294
 8537SOL    HW126510   5.868   1.208   2.200
 8537SOL    HW226511   5.957   1.294   2.307
 8538SOL     OW26512   0.754   1.366   5.153
 8538SOL    HW126513   0.697   1.432   5.105
 8538SOL    HW226514   0.840   1.410   5.180
 8539SOL     OW26515   6.599   1.926   1.897
 8539SOL    HW126516   6.551   1.859   1.953
 8539SOL    HW226517   6.610   1.891   1.804
 8540SOL     OW26518   3.314   1.918   0.486
 8540SOL    HW126519   3.300   2.001   0.431
 8540SOL    HW226520   3.377   1.857   0.437
 8541SOL     OW26521   3.269   2.093   4.267
 8541SOL    HW126522   3.249   2.172   4.209
 8541SOL    HW226523   3.289   2.014   4.209
 8542SOL     OW26524   2.517   4.355   5.468
 8542SOL    HW126525   2.488   4.260   5.451
 8542SOL    HW226526   2.549   4.395   5.382
 8543SOL     OW26527   3.247   1.146   6.474
 8543SOL    HW126528   3.154   1.121   6.447
 8543SOL    HW226529   3.274   1.230   6.427
 8544SOL     OW26530   5.127   3.009   4.445
 8544SOL    HW126531   5.164   3.101   4.449
 8544SOL    HW226532   5.069   3.000   4.364
 8545SOL     OW26533   4.100   6.876   4.886
 8545SOL    HW126534   4.059   6.898   4.975
 8545SOL    HW226535   4.179   6.935   4.871
 8546SOL     OW26536   0.522   0.243   2.341
 8546SOL    HW126537   0.426   0.268   2.336
 8546SOL    HW226538   0.532   0.145   2.328
 8547SOL     OW26539   1.125   6.785   6.301
 8547SOL    HW126540   1.058   6.842   6.255
 8547SOL    HW226541   1.145   6.704   6.245
 8548SOL     OW26542   6.955   3.329   5.663
 8548SOL    HW126543   6.969   3.427   5.651
 8548SOL    HW226544   0.016   3.287   5.698
 8549SOL     OW26545   0.522   2.173   4.405
 8549SOL    HW126546   0.602   2.233   4.399
 8549SOL    HW226547   0.485   2.158   4.313
 8550SOL     OW26548   1.330   4.898   0.280
 8550SOL    HW126549   1.265   4.831   0.317
 8550SOL    HW226550   1.388   4.933   0.354
 8551SOL     OW26551   2.761   2.873   0.144
 8551SOL    HW126552   2.705   2.912   0.071
 8551SOL    HW226553   2.846   2.925   0.152
 8552SOL     OW26554   2.024   0.599   2.886
 8552SOL    HW126555   2.119   0.619   2.859
 8552SOL    HW226556   1.966   0.677   2.863
 8553SOL     OW26557   4.269   4.300   6.443
 8553SOL    HW126558   4.175   4.304   6.409
 8553SOL    HW226559   4.277   4.357   6.524
 8554SOL     OW26560   0.337   5.740   0.850
 8554SOL    HW126561   0.316   5.701   0.760
 8554SOL    HW226562   0.295   5.831   0.857
 8555SOL     OW26563   3.201   1.127   3.480
 8555SOL    HW126564   3.212   1.120   3.381
 8555SOL    HW226565   3.127   1.066   3.509
 8556SOL     OW26566   2.214   6.276   4.847
 8556SOL    HW126567   2.140   6.259   4.782
 8556SOL    HW226568   2.201   6.219   4.928
 8557SOL     OW26569   6.556   0.442   2.305
 8557SOL    HW126570   6.461   0.467   2.284
 8557SOL    HW226571   6.557   0.363   2.367
 8558SOL     OW26572   2.220   5.890   3.105
 8558SOL    HW126573   2.295   5.955   3.099
 8558SOL    HW226574   2.255   5.797   3.100
 8559SOL     OW26575   1.842   6.948   2.864
 8559SOL    HW126576   1.848   6.874   2.797
 8559SOL    HW226577   1.774   7.015   2.833
 8560SOL     OW26578   1.394   5.465   2.175
 8560SOL    HW126579   1.458   5.535   2.206
 8560SOL    HW226580   1.341   5.432   2.253
 8561SOL     OW26581   3.222   0.219   3.110
 8561SOL    HW126582   3.296   0.286   3.101
 8561SOL    HW226583   3.185   0.198   3.019
 8562SOL     OW26584   3.557   6.404   6.702
 8562SOL    HW126585   3.494   6.333   6.733
 8562SOL    HW226586   3.641   6.401   6.757
 8563SOL     OW26587   1.132   4.971   2.226
 8563SOL    HW126588   1.116   4.943   2.132
 8563SOL    HW226589   1.083   5.056   2.245
 8564SOL     OW26590   2.992   6.917   4.890
 8564SOL    HW126591   2.980   6.906   4.989
 8564SOL    HW226592   2.925   6.861   4.842
 8565SOL     OW26593   3.372   4.748   0.926
 8565SOL    HW126594   3.398   4.728   0.832
 8565SOL    HW226595   3.274   4.732   0.939
 8566SOL     OW26596   1.274   0.226   1.534
 8566SOL    HW126597   1.206   0.179   1.590
 8566SOL    HW226598   1.366   0.199   1.562
 8567SOL     OW26599   0.483   2.166   2.273
 8567SOL    HW126600   0.562   2.228   2.271
 8567SOL    HW226601   0.490   2.106   2.352
 8568SOL     OW26602   5.722   2.086   0.275
 8568SOL    HW126603   5.738   2.181   0.303
 8568SOL    HW226604   5.810   2.039   0.266
 8569SOL     OW26605   4.948   2.167   5.170
 8569SOL    HW126606   4.924   2.237   5.237
 8569SOL    HW226607   5.046   2.170   5.152
 8570SOL     OW26608   0.835   1.440   4.184
 8570SOL    HW126609   0.765   1.473   4.120
 8570SOL    HW226610   0.839   1.340   4.180
 8571SOL     OW26611   0.788   6.099   5.279
 8571SOL    HW126612   0.853   6.121   5.206
 8571SOL    HW226613   0.823   6.025   5.335
 8572SOL     OW26614   1.738   4.195   5.813
 8572SOL    HW126615   1.770   4.242   5.730
 8572SOL    HW226616   1.786   4.107   5.821
 8573SOL     OW26617   3.248   5.801   6.278
 8573SOL    HW126618   3.233   5.818   6.376
 8573SOL    HW226619   3.276   5.886   6.234
 8574SOL     OW26620   6.005   0.215   6.500
 8574SOL    HW126621   5.959   0.126   6.491
 8574SOL    HW226622   5.994   0.266   6.415
 8575SOL     OW26623   2.308   2.247   3.315
 8575SOL    HW126624   2.304   2.241   3.215
 8575SOL    HW226625   2.266   2.333   3.345
 8576SOL     OW26626   1.731   4.723   4.393
 8576SOL    HW126627   1.798   4.683   4.331
 8576SOL    HW226628   1.641   4.682   4.377
 8577SOL     OW26629   1.331   0.369   5.924
 8577SOL    HW126630   1.297   0.354   6.017
 8577SOL    HW226631   1.259   0.346   5.859
 8578SOL     OW26632   6.681   5.268   4.828
 8578SOL    HW126633   6.604   5.205   4.823
 8578SOL    HW226634   6.647   5.362   4.824
 8579SOL     OW26635   1.739   6.409   2.049
 8579SOL    HW126636   1.691   6.497   2.037
 8579SOL    HW226637   1.815   6.421   2.112
 8580SOL     OW26638   1.916   5.531   0.597
 8580SOL    HW126639   1.912   5.505   0.694
 8580SOL    HW226640   1.823   5.535   0.561
 8581SOL     OW26641   3.236   4.416   1.675
 8581SOL    HW126642   3.144   4.384   1.695
 8581SOL    HW226643   3.263   4.384   1.583
 8582SOL     OW26644   4.747   4.254   5.161
 8582SOL    HW126645   4.699   4.294   5.084
 8582SOL    HW226646   4.841   4.287   5.163
 8583SOL     OW26647   3.724   0.219   3.976
 8583SOL    HW126648   3.735   0.279   3.897
 8583SOL    HW226649   3.741   0.270   4.060
 8584SOL     OW26650   1.059   6.306   5.764
 8584SOL    HW126651   0.998   6.307   5.843
 8584SOL    HW226652   1.063   6.213   5.727
 8585SOL     OW26653   6.103   1.373   0.724
 8585SOL    HW126654   6.027   1.315   0.695
 8585SOL    HW226655   6.067   1.457   0.764
 8586SOL     OW26656   3.422   6.480   1.973
 8586SOL    HW126657   3.376   6.451   1.889
 8586SOL    HW226658   3.366   6.549   2.019
 8587SOL     OW26659   0.907   0.678   4.482
 8587SOL    HW126660   0.981   0.691   4.549
 8587SOL    HW226661   0.878   0.582   4.483
 8588SOL     OW26662   4.659   1.439   6.680
 8588SOL    HW126663   4.726   1.385   6.629
 8588SOL    HW226664   4.636   1.391   6.765
 8589SOL     OW26665   6.195   2.594   5.197
 8589SOL    HW126666   6.255   2.663   5.237
 8589SOL    HW226667   6.140   2.636   5.124
 8590SOL     OW26668   0.500   0.619   2.454
 8590SOL    HW126669   0.570   0.586   2.517
 8590SOL    HW226670   0.543   0.673   2.381
 8591SOL     OW26671   0.360   4.043   7.005
 8591SOL    HW126672   0.377   4.049   6.907
 8591SOL    HW226673   0.329   3.951   0.005
 8592SOL     OW26674   5.594   1.955   6.776
 8592SOL    HW126675   5.536   1.876   6.797
 8592SOL    HW226676   5.537   2.035   6.760
 8593SOL     OW26677   3.394   0.949   6.835
 8593SOL    HW126678   3.396   1.022   6.903
 8593SOL    HW226679   3.477   0.953   6.779
 8594SOL     OW26680   5.549   2.482   5.466
 8594SOL    HW126681   5.482   2.556   5.466
 8594SOL    HW226682   5.585   2.471   5.373
 8595SOL     OW26683   6.728   1.095   3.721
 8595SOL    HW126684   6.741   1.015   3.779
 8595SOL    HW226685   6.631   1.109   3.704
 8596SOL     OW26686   1.347   4.623   2.999
 8596SOL    HW126687   1.311   4.638   3.091
 8596SOL    HW226688   1.285   4.561   2.949
 8597SOL     OW26689   5.235   1.458   2.180
 8597SOL    HW126690   5.195   1.479   2.270
 8597SOL    HW226691   5.197   1.521   2.112
 8598SOL     OW26692   5.678   0.442   6.492
 8598SOL    HW126693   5.730   0.422   6.574
 8598SOL    HW226694   5.703   0.378   6.420
 8599SOL     OW26695   1.915   2.347   4.460
 8599SOL    HW126696   1.852   2.391   4.523
 8599SOL    HW226697   1.995   2.404   4.446
 8600SOL     OW26698   5.180   3.717   0.105
 8600SOL    HW126699   5.244   3.654   0.149
 8600SOL    HW226700   5.181   3.701   0.006
 8601SOL     OW26701   0.635   1.540   4.015
 8601SOL    HW126702   0.643   1.539   3.915
 8601SOL    HW226703   0.555   1.594   4.041
 8602SOL     OW26704   3.074   6.700   2.543
 8602SOL    HW126705   3.000   6.662   2.598
 8602SOL    HW226706   3.063   6.672   2.447
 8603SOL     OW26707   5.096   6.461   1.089
 8603SOL    HW126708   5.087   6.411   1.003
 8603SOL    HW226709   5.179   6.432   1.136
 8604SOL     OW26710   0.837   2.570   5.509
 8604SOL    HW126711   0.748   2.598   5.546
 8604SOL    HW226712   0.908   2.586   5.577
 8605SOL     OW26713   2.343   5.502   4.116
 8605SOL    HW126714   2.430   5.480   4.071
 8605SOL    HW226715   2.347   5.596   4.151
 8606SOL     OW26716   1.891   2.533   6.548
 8606SOL    HW126717   1.899   2.458   6.482
 8606SOL    HW226718   1.809   2.519   6.604
 8607SOL     OW26719   2.969   4.714   6.305
 8607SOL    HW126720   2.990   4.640   6.368
 8607SOL    HW226721   3.031   4.791   6.323
 8608SOL     OW26722   2.447   4.606   2.704
 8608SOL    HW126723   2.364   4.563   2.670
 8608SOL    HW226724   2.423   4.685   2.761
 8609SOL     OW26725   4.912   0.544   3.197
 8609SOL    HW126726   4.925   0.643   3.191
 8609SOL    HW226727   4.822   0.520   3.161
 8610SOL     OW26728   0.495   1.215   2.978
 8610SOL    HW126729   0.456   1.273   3.049
 8610SOL    HW226730   0.424   1.189   2.913
 8611SOL     OW26731   3.080   1.878   4.413
 8611SOL    HW126732   3.016   1.928   4.355
 8611SOL    HW226733   3.029   1.813   4.470
 8612SOL     OW26734   2.939   3.161   1.053
 8612SOL    HW126735   3.014   3.097   1.042
 8612SOL    HW226736   2.892   3.143   1.140
 8613SOL     OW26737   2.932   1.799   2.057
 8613SOL    HW126738   2.945   1.740   1.978
 8613SOL    HW226739   2.915   1.893   2.027
 8614SOL     OW26740   1.346   3.119   4.061
 8614SOL    HW126741   1.390   3.162   4.140
 8614SOL    HW226742   1.248   3.140   4.062
 8615SOL     OW26743   4.202   2.107   5.208
 8615SOL    HW126744   4.163   2.036   5.149
 8615SOL    HW226745   4.302   2.104   5.203
 8616SOL     OW26746   3.071   4.858   2.039
 8616SOL    HW126747   3.027   4.799   2.107
 8616SOL    HW226748   3.039   4.952   2.051
 8617SOL     OW26749   5.664   1.012   4.819
 8617SOL    HW126750   5.572   1.001   4.781
 8617SOL    HW226751   5.658   1.063   4.906
 8618SOL     OW26752   6.522   4.641   1.067
 8618SOL    HW126753   6.497   4.636   1.164
 8618SOL    HW226754   6.609   4.594   1.053
 8619SOL     OW26755   4.048   5.215   1.863
 8619SOL    HW126756   4.133   5.217   1.812
 8619SOL    HW226757   4.064   5.170   1.951
 8620SOL     OW26758   2.315   5.992   3.426
 8620SOL    HW126759   2.225   6.018   3.391
 8620SOL    HW226760   2.327   6.027   3.519
 8621SOL     OW26761   5.343   2.274   2.304
 8621SOL    HW126762   5.246   2.264   2.325
 8621SOL    HW226763   5.384   2.184   2.293
 8622SOL     OW26764   4.939   4.072   1.535
 8622SOL    HW126765   4.887   4.046   1.617
 8622SOL    HW226766   4.876   4.089   1.460
 8623SOL     OW26767   1.009   4.144   5.612
 8623SOL    HW126768   0.990   4.109   5.520
 8623SOL    HW226769   0.985   4.074   5.679
 8624SOL     OW26770   1.929   3.741   5.136
 8624SOL    HW126771   1.951   3.670   5.203
 8624SOL    HW226772   1.869   3.808   5.178
 8625SOL     OW26773   5.026   0.980   5.612
 8625SOL    HW126774   5.029   1.076   5.641
 8625SOL    HW226775   4.931   0.952   5.601
 8626SOL     OW26776   3.986   2.404   6.879
 8626SOL    HW126777   3.956   2.404   6.784
 8626SOL    HW226778   3.947   2.325   6.927
 8627SOL     OW26779   1.777   1.479   2.135
 8627SOL    HW126780   1.718   1.459   2.214
 8627SOL    HW226781   1.730   1.455   2.051
 8628SOL     OW26782   6.089   6.643   0.520
 8628SOL    HW126783   6.170   6.583   0.514
 8628SOL    HW226784   6.014   6.602   0.468
 8629SOL     OW26785   1.404   6.583   4.878
 8629SOL    HW126786   1.483   6.644   4.892
 8629SOL    HW226787   1.386   6.574   4.780
 8630SOL     OW26788   4.800   2.785   3.942
 8630SOL    HW126789   4.823   2.868   3.992
 8630SOL    HW226790   4.773   2.713   4.007
 8631SOL     OW26791   1.073   5.421   6.444
 8631SOL    HW126792   1.058   5.419   6.345
 8631SOL    HW226793   0.989   5.391   6.490
 8632SOL     OW26794   3.957   4.887   5.338
 8632SOL    HW126795   3.934   4.823   5.411
 8632SOL    HW226796   4.019   4.957   5.373
 8633SOL     OW26797   5.762   2.621   6.113
 8633SOL    HW126798   5.742   2.699   6.054
 8633SOL    HW226799   5.804   2.653   6.198
 8634SOL     OW26800   5.385   4.106   6.693
 8634SOL    HW126801   5.398   4.204   6.683
 8634SOL    HW226802   5.322   4.087   6.768
 8635SOL     OW26803   5.306   3.135   6.586
 8635SOL    HW126804   5.317   3.042   6.551
 8635SOL    HW226805   5.251   3.132   6.670
 8636SOL     OW26806   5.562   5.880   0.971
 8636SOL    HW126807   5.659   5.883   0.996
 8636SOL    HW226808   5.529   5.973   0.953
 8637SOL     OW26809   2.222   1.306   6.792
 8637SOL    HW126810   2.231   1.213   6.759
 8637SOL    HW226811   2.272   1.368   6.732
 8638SOL     OW26812   3.598   2.074   4.774
 8638SOL    HW126813   3.525   2.031   4.828
 8638SOL    HW226814   3.564   2.096   4.683
 8639SOL     OW26815   5.184   2.936   0.284
 8639SOL    HW126816   5.254   2.937   0.213
 8639SOL    HW226817   5.214   2.878   0.360
 8640SOL     OW26818   4.000   3.248   6.556
 8640SOL    HW126819   4.054   3.240   6.640
 8640SOL    HW226820   4.025   3.332   6.508
 8641SOL     OW26821   4.137   4.769   4.127
 8641SOL    HW126822   4.180   4.855   4.154
 8641SOL    HW226823   4.208   4.699   4.115
 8642SOL     OW26824   1.024   6.449   4.291
 8642SOL    HW126825   1.066   6.477   4.205
 8642SOL    HW226826   0.980   6.528   4.334
 8643SOL     OW26827   2.263   0.945   6.419
 8643SOL    HW126828   2.259   0.852   6.384
 8643SOL    HW226829   2.298   1.006   6.348
 8644SOL     OW26830   5.555   2.272   5.800
 8644SOL    HW126831   5.527   2.359   5.841
 8644SOL    HW226832   5.619   2.290   5.725
 8645SOL     OW26833   4.273   4.748   1.221
 8645SOL    HW126834   4.241   4.671   1.277
 8645SOL    HW226835   4.220   4.830   1.245
 8646SOL     OW26836   0.242   1.993   6.892
 8646SOL    HW126837   0.204   2.075   6.849
 8646SOL    HW226838   0.261   2.012   6.989
 8647SOL     OW26839   2.142   5.065   6.737
 8647SOL    HW126840   2.235   5.037   6.711
 8647SOL    HW226841   2.077   4.993   6.713
 8648SOL     OW26842   0.004   0.430   2.599
 8648SOL    HW126843   0.076   0.496   2.618
 8648SOL    HW226844   0.027   0.379   2.516
 8649SOL     OW26845   5.487   5.835   6.639
 8649SOL    HW126846   5.424   5.860   6.565
 8649SOL    HW226847   5.581   5.833   6.604
 8650SOL     OW26848   1.089   5.576   5.009
 8650SOL    HW126849   1.119   5.664   4.973
 8650SOL    HW226850   1.062   5.586   5.105
 8651SOL     OW26851   4.323   0.914   0.607
 8651SOL    HW126852   4.330   0.873   0.698
 8651SOL    HW226853   4.227   0.915   0.579
 8652SOL     OW26854   1.886   4.857   3.337
 8652SOL    HW126855   1.803   4.812   3.303
 8652SOL    HW226856   1.905   4.938   3.283
 8653SOL     OW26857   0.043   1.087   6.177
 8653SOL    HW126858   0.053   1.132   6.089
 8653SOL    HW226859   0.018   1.155   6.247
 8654SOL     OW26860   0.751   4.805   1.745
 8654SOL    HW126861   0.847   4.778   1.752
 8654SOL    HW226862   0.695   4.725   1.726
 8655SOL     OW26863   6.175   0.501   4.375
 8655SOL    HW126864   6.189   0.574   4.441
 8655SOL    HW226865   6.118   0.430   4.416
 8656SOL     OW26866   6.596   0.734   1.971
 8656SOL    HW126867   6.677   0.736   2.029
 8656SOL    HW226868   6.594   0.817   1.914
 8657SOL     OW26869   5.266   5.975   6.817
 8657SOL    HW126870   5.331   5.906   6.784
 8657SOL    HW226871   5.304   6.066   6.803
 8658SOL     OW26872   6.332   6.505   0.436
 8658SOL    HW126873   6.400   6.578   0.432
 8658SOL    HW226874   6.377   6.419   0.459
 8659SOL     OW26875   4.683   2.285   2.057
 8659SOL    HW126876   4.597   2.244   2.028
 8659SOL    HW226877   4.665   2.369   2.108
 8660SOL     OW26878   0.018   3.488   1.702
 8660SOL    HW126879   0.036   3.551   1.778
 8660SOL    HW226880   0.097   3.427   1.690
 8661SOL     OW26881   6.623   3.989   1.255
 8661SOL    HW126882   6.640   3.925   1.180
 8661SOL    HW226883   6.705   3.996   1.312
 8662SOL     OW26884   4.406   5.671   1.670
 8662SOL    HW126885   4.422   5.722   1.755
 8662SOL    HW226886   4.335   5.718   1.616
 8663SOL     OW26887   2.842   5.372   2.628
 8663SOL    HW126888   2.930   5.339   2.663
 8663SOL    HW226889   2.767   5.330   2.679
 8664SOL     OW26890   2.184   5.052   1.658
 8664SOL    HW126891   2.259   5.103   1.616
 8664SOL    HW226892   2.212   4.957   1.673
 8665SOL     OW26893   5.507   5.274   4.879
 8665SOL    HW126894   5.466   5.239   4.794
 8665SOL    HW226895   5.436   5.317   4.934
 8666SOL     OW26896   5.525   1.170   3.533
 8666SOL    HW126897   5.545   1.074   3.553
 8666SOL    HW226898   5.605   1.226   3.555
 8667SOL     OW26899   4.477   1.679   4.504
 8667SOL    HW126900   4.533   1.714   4.429
 8667SOL    HW226901   4.523   1.697   4.591
 8668SOL     OW26902   5.641   3.770   3.719
 8668SOL    HW126903   5.590   3.756   3.634
 8668SOL    HW226904   5.706   3.695   3.731
 8669SOL     OW26905   0.589   6.616   6.949
 8669SOL    HW126906   0.538   6.578   6.871
 8669SOL    HW226907   0.679   6.572   6.954
 8670SOL     OW26908   4.279   5.505   6.347
 8670SOL    HW126909   4.364   5.465   6.383
 8670SOL    HW226910   4.203   5.480   6.407
 8671SOL     OW26911   6.805   1.606   3.488
 8671SOL    HW126912   6.799   1.545   3.567
 8671SOL    HW226913   6.713   1.638   3.464
 8672SOL     OW26914   0.692   5.497   4.010
 8672SOL    HW126915   0.612   5.438   4.007
 8672SOL    HW226916   0.663   5.592   4.016
 8673SOL     OW26917   5.850   1.740   0.396
 8673SOL    HW126918   5.906   1.720   0.316
 8673SOL    HW226919   5.846   1.839   0.410
 8674SOL     OW26920   5.927   5.393   2.766
 8674SOL    HW126921   5.866   5.375   2.688
 8674SOL    HW226922   5.991   5.317   2.776
 8675SOL     OW26923   4.206   1.885   5.037
 8675SOL    HW126924   4.151   1.943   4.977
 8675SOL    HW226925   4.164   1.795   5.044
 8676SOL     OW26926   5.383   6.866   3.214
 8676SOL    HW126927   5.311   6.861   3.144
 8676SOL    HW226928   5.410   6.961   3.227
 8677SOL     OW26929   2.202   5.385   6.539
 8677SOL    HW126930   2.219   5.421   6.448
 8677SOL    HW226931   2.125   5.321   6.536
 8678SOL     OW26932   1.146   0.495   0.826
 8678SOL    HW126933   1.241   0.480   0.852
 8678SOL    HW226934   1.143   0.545   0.739
 8679SOL     OW26935   0.714   1.224   3.548
 8679SOL    HW126936   0.742   1.211   3.643
 8679SOL    HW226937   0.630   1.278   3.544
 8680SOL     OW26938   6.140   4.007   0.159
 8680SOL    HW126939   6.083   3.926   0.178
 8680SOL    HW226940   6.196   4.028   0.239
 8681SOL     OW26941   4.857   5.571   1.351
 8681SOL    HW126942   4.779   5.572   1.414
 8681SOL    HW226943   4.847   5.647   1.286
 8682SOL     OW26944   6.127   7.021   2.813
 8682SOL    HW126945   6.116   7.007   2.911
 8682SOL    HW226946   6.050   6.980   2.764
 8683SOL     OW26947   1.618   2.248   5.384
 8683SOL    HW126948   1.583   2.155   5.394
 8683SOL    HW226949   1.677   2.253   5.303
 8684SOL     OW26950   5.739   3.046   4.460
 8684SOL    HW126951   5.722   3.065   4.364
 8684SOL    HW226952   5.838   3.051   4.478
 8685SOL     OW26953   5.776   2.399   6.295
 8685SOL    HW126954   5.736   2.423   6.383
 8685SOL    HW226955   5.809   2.483   6.250
 8686SOL     OW26956   6.833   0.761   2.096
 8686SOL    HW126957   6.895   0.686   2.074
 8686SOL    HW226958   6.839   0.782   2.194
 8687SOL     OW26959   5.257   5.038   2.471
 8687SOL    HW126960   5.322   5.022   2.397
 8687SOL    HW226961   5.289   5.115   2.527
 8688SOL     OW26962   1.017   5.138   6.496
 8688SOL    HW126963   0.926   5.165   6.466
 8688SOL    HW226964   1.083   5.150   6.422
 8689SOL     OW26965   4.031   2.248   0.902
 8689SOL    HW126966   3.956   2.236   0.838
 8689SOL    HW226967   4.115   2.269   0.852
 8690SOL     OW26968   1.423   3.685   4.238
 8690SOL    HW126969   1.504   3.652   4.286
 8690SOL    HW226970   1.407   3.781   4.261
 8691SOL     OW26971   3.984   1.892   6.304
 8691SOL    HW126972   4.043   1.957   6.352
 8691SOL    HW226973   3.944   1.829   6.370
 8692SOL     OW26974   3.178   1.250   3.907
 8692SOL    HW126975   3.155   1.339   3.866
 8692SOL    HW226976   3.278   1.243   3.917
 8693SOL     OW26977   5.830   6.992   0.259
 8693SOL    HW126978   5.904   6.970   0.322
 8693SOL    HW226979   5.819   0.068   0.252
 8694SOL     OW26980   5.278   1.293   4.693
 8694SOL    HW126981   5.274   1.379   4.744
 8694SOL    HW226982   5.253   1.311   4.597
 8695SOL     OW26983   4.269   3.744   6.097
 8695SOL    HW126984   4.230   3.699   6.017
 8695SOL    HW226985   4.329   3.819   6.068
 8696SOL     OW26986   2.351   5.362   5.269
 8696SOL    HW126987   2.432   5.364   5.326
 8696SOL    HW226988   2.346   5.446   5.214
 8697SOL     OW26989   0.416   4.531   6.644
 8697SOL    HW126990   0.497   4.472   6.647
 8697SOL    HW226991   0.362   4.516   6.727
 8698SOL     OW26992   5.094   6.040   4.874
 8698SOL    HW126993   5.136   5.951   4.894
 8698SOL    HW226994   5.133   6.109   4.935
 8699SOL     OW26995   1.789   3.066   4.462
 8699SOL    HW126996   1.824   3.156   4.438
 8699SOL    HW226997   1.708   3.046   4.407
 8700SOL     OW26998   0.850   0.475   4.728
 8700SOL    HW126999   0.929   0.524   4.765
 8700SOL    HW227000   0.808   0.419   4.799
 8701SOL     OW27001   1.164   1.537   0.445
 8701SOL    HW127002   1.149   1.582   0.533
 8701SOL    HW227003   1.153   1.438   0.455
 8702SOL     OW27004   5.148   5.013   2.056
 8702SOL    HW127005   5.231   4.971   2.018
 8702SOL    HW227006   5.172   5.075   2.130
 8703SOL     OW27007   2.977   4.857   0.144
 8703SOL    HW127008   3.022   4.905   0.219
 8703SOL    HW227009   2.925   4.923   0.088
 8704SOL     OW27010   0.597   4.192   3.481
 8704SOL    HW127011   0.556   4.113   3.526
 8704SOL    HW227012   0.636   4.165   3.394
 8705SOL     OW27013   5.013   1.815   6.322
 8705SOL    HW127014   5.022   1.734   6.264
 8705SOL    HW227015   5.015   1.897   6.265
 8706SOL     OW27016   5.098   2.082   0.207
 8706SOL    HW127017   5.029   2.141   0.165
 8706SOL    HW227018   5.083   2.079   0.306
 8707SOL     OW27019   0.414   1.809   5.008
 8707SOL    HW127020   0.416   1.727   5.065
 8707SOL    HW227021   0.496   1.863   5.023
 8708SOL     OW27022   4.192   1.911   3.727
 8708SOL    HW127023   4.103   1.869   3.746
 8708SOL    HW227024   4.264   1.859   3.774
 8709SOL     OW27025   6.778   0.045   6.687
 8709SOL    HW127026   6.818   0.135   6.704
 8709SOL    HW227027   6.681   0.055   6.665
 8710SOL     OW27028   1.960   2.987   3.083
 8710SOL    HW127029   1.887   3.010   3.019
 8710SOL    HW227030   1.924   2.992   3.177
 8711SOL     OW27031   2.046   6.675   2.850
 8711SOL    HW127032   1.979   6.607   2.879
 8711SOL    HW227033   2.135   6.631   2.837
 8712SOL     OW27034   3.573   1.800   4.247
 8712SOL    HW127035   3.651   1.740   4.228
 8712SOL    HW227036   3.604   1.877   4.304
 8713SOL     OW27037   0.028   3.370   2.174
 8713SOL    HW127038   0.006   3.351   2.270
 8713SOL    HW227039   6.980   3.427   2.134
 8714SOL     OW27040   1.324   0.110   5.397
 8714SOL    HW127041   1.225   0.108   5.383
 8714SOL    HW227042   1.346   0.068   5.485
 8715SOL     OW27043   3.968   0.996   0.898
 8715SOL    HW127044   4.065   1.007   0.919
 8715SOL    HW227045   3.921   0.957   0.977
 8716SOL     OW27046   0.407   6.373   0.324
 8716SOL    HW127047   0.428   6.387   0.420
 8716SOL    HW227048   0.423   6.278   0.300
 8717SOL     OW27049   2.898   3.800   5.311
 8717SOL    HW127050   2.922   3.829   5.219
 8717SOL    HW227051   2.819   3.853   5.344
 8718SOL     OW27052   1.208   2.256   5.724
 8718SOL    HW127053   1.232   2.175   5.778
 8718SOL    HW227054   1.129   2.301   5.764
 8719SOL     OW27055   3.588   0.381   0.285
 8719SOL    HW127056   3.669   0.323   0.297
 8719SOL    HW227057   3.521   0.360   0.357
 8720SOL     OW27058   1.203   6.308   6.325
 8720SOL    HW127059   1.103   6.309   6.332
 8720SOL    HW227060   1.242   6.277   6.412
 8721SOL     OW27061   6.752   2.048   1.083
 8721SOL    HW127062   6.843   2.068   1.121
 8721SOL    HW227063   6.696   2.130   1.086
 8722SOL     OW27064   3.212   1.466   1.523
 8722SOL    HW127065   3.197   1.564   1.511
 8722SOL    HW227066   3.193   1.440   1.617
 8723SOL     OW27067   5.443   6.628   1.784
 8723SOL    HW127068   5.482   6.603   1.695
 8723SOL    HW227069   5.387   6.710   1.774
 8724SOL     OW27070   5.487   6.733   4.184
 8724SOL    HW127071   5.436   6.819   4.190
 8724SOL    HW227072   5.423   6.659   4.164
 8725SOL     OW27073   2.106   5.595   5.808
 8725SOL    HW127074   2.020   5.642   5.785
 8725SOL    HW227075   2.183   5.655   5.789
 8726SOL     OW27076   0.250   0.657   2.607
 8726SOL    HW127077   0.283   0.569   2.641
 8726SOL    HW227078   0.326   0.709   2.567
 8727SOL     OW27079   6.451   0.224   1.403
 8727SOL    HW127080   6.442   0.228   1.303
 8727SOL    HW227081   6.545   0.246   1.429
 8728SOL     OW27082   5.915   0.837   1.730
 8728SOL    HW127083   5.954   0.780   1.658
 8728SOL    HW227084   5.980   0.845   1.805
 8729SOL     OW27085   3.216   5.016   5.622
 8729SOL    HW127086   3.230   5.074   5.542
 8729SOL    HW227087   3.123   5.026   5.656
 8730SOL     OW27088   5.310   4.013   2.374
 8730SOL    HW127089   5.354   3.939   2.424
 8730SOL    HW227090   5.216   3.987   2.353
 8731SOL     OW27091   0.642   3.557   3.214
 8731SOL    HW127092   0.722   3.615   3.226
 8731SOL    HW227093   0.671   3.468   3.178
 8732SOL     OW27094   5.650   5.012   1.826
 8732SOL    HW127095   5.726   4.964   1.869
 8732SOL    HW227096   5.676   5.107   1.809
 8733SOL     OW27097   1.363   5.607   1.008
 8733SOL    HW127098   1.347   5.559   1.095
 8733SOL    HW227099   1.288   5.671   0.992
 8734SOL     OW27100   0.699   3.117   3.286
 8734SOL    HW127101   0.776   3.113   3.350
 8734SOL    HW227102   0.615   3.136   3.335
 8735SOL     OW27103   0.641   2.671   6.137
 8735SOL    HW127104   0.559   2.620   6.112
 8735SOL    HW227105   0.640   2.692   6.234
 8736SOL     OW27106   0.298   5.598   1.919
 8736SOL    HW127107   0.264   5.653   1.995
 8736SOL    HW227108   0.331   5.510   1.954
 8737SOL     OW27109   1.680   6.269   0.383
 8737SOL    HW127110   1.625   6.188   0.398
 8737SOL    HW227111   1.642   6.323   0.308
 8738SOL     OW27112   2.708   5.702   3.892
 8738SOL    HW127113   2.709   5.688   3.793
 8738SOL    HW227114   2.671   5.793   3.913
 8739SOL     OW27115   5.531   5.554   5.920
 8739SOL    HW127116   5.591   5.588   5.847
 8739SOL    HW227117   5.545   5.609   6.003
 8740SOL     OW27118   4.163   1.430   3.854
 8740SOL    HW127119   4.251   1.457   3.816
 8740SOL    HW227120   4.092   1.438   3.784
 8741SOL     OW27121   2.282   0.653   2.834
 8741SOL    HW127122   2.311   0.717   2.763
 8741SOL    HW227123   2.331   0.566   2.823
 8742SOL     OW27124   4.817   0.522   1.632
 8742SOL    HW127125   4.832   0.425   1.611
 8742SOL    HW227126   4.726   0.533   1.673
 8743SOL     OW27127   1.435   0.550   1.383
 8743SOL    HW127128   1.346   0.556   1.337
 8743SOL    HW227129   1.421   0.542   1.482
 8744SOL     OW27130   4.543   2.705   0.389
 8744SOL    HW127131   4.569   2.762   0.467
 8744SOL    HW227132   4.601   2.729   0.311
 8745SOL     OW27133   6.045   1.748   6.462
 8745SOL    HW127134   6.110   1.697   6.519
 8745SOL    HW227135   6.016   1.692   6.386
 8746SOL     OW27136   5.370   5.868   4.483
 8746SOL    HW127137   5.443   5.933   4.504
 8746SOL    HW227138   5.378   5.789   4.543
 8747SOL     OW27139   0.487   1.595   2.783
 8747SOL    HW127140   0.459   1.606   2.687
 8747SOL    HW227141   0.557   1.524   2.789
 8748SOL     OW27142   0.269   1.524   5.040
 8748SOL    HW127143   0.180   1.520   5.086
 8748SOL    HW227144   0.269   1.462   4.962
 8749SOL     OW27145   1.714   0.257   5.609
 8749SOL    HW127146   1.662   0.251   5.694
 8749SOL    HW227147   1.812   0.263   5.630
 8750SOL     OW27148   3.289   3.799   5.765
 8750SOL    HW127149   3.337   3.879   5.802
 8750SOL    HW227150   3.306   3.792   5.667
 8751SOL     OW27151   6.771   2.045   2.398
 8751SOL    HW127152   6.841   2.018   2.333
 8751SOL    HW227153   6.746   2.141   2.383
 8752SOL     OW27154   3.424   2.861   6.850
 8752SOL    HW127155   3.497   2.801   6.883
 8752SOL    HW227156   3.441   2.884   6.754
 8753SOL     OW27157   2.920   2.224   6.437
 8753SOL    HW127158   2.948   2.148   6.378
 8753SOL    HW227159   2.823   2.215   6.459
 8754SOL     OW27160   2.088   4.531   5.397
 8754SOL    HW127161   2.086   4.526   5.297
 8754SOL    HW227162   2.180   4.556   5.427
 8755SOL     OW27163   2.161   0.667   1.155
 8755SOL    HW127164   2.087   0.710   1.207
 8755SOL    HW227165   2.185   0.725   1.077
 8756SOL     OW27166   2.130   3.312   3.345
 8756SOL    HW127167   2.184   3.288   3.426
 8756SOL    HW227168   2.166   3.264   3.265
 8757SOL     OW27169   4.431   5.475   6.922
 8757SOL    HW127170   4.518   5.449   6.882
 8757SOL    HW227171   4.395   5.400   6.977
 8758SOL     OW27172   4.639   6.224   2.789
 8758SOL    HW127173   4.688   6.281   2.855
 8758SOL    HW227174   4.663   6.128   2.803
 8759SOL     OW27175   5.330   3.200   0.038
 8759SOL    HW127176   5.418   3.153   0.030
 8759SOL    HW227177   5.336   3.269   0.110
 8760SOL     OW27178   2.650   0.885   4.716
 8760SOL    HW127179   2.581   0.932   4.770
 8760SOL    HW227180   2.631   0.898   4.619
 8761SOL     OW27181   6.146   2.165   1.266
 8761SOL    HW127182   6.057   2.127   1.291
 8761SOL    HW227183   6.147   2.263   1.286
 8762SOL     OW27184   0.735   5.347   4.761
 8762SOL    HW127185   0.759   5.373   4.668
 8762SOL    HW227186   0.792   5.398   4.826
 8763SOL     OW27187   6.063   7.010   5.714
 8763SOL    HW127188   5.966   6.986   5.723
 8763SOL    HW227189   6.071   0.078   5.673
 8764SOL     OW27190   4.187   6.550   5.515
 8764SOL    HW127191   4.141   6.633   5.547
 8764SOL    HW227192   4.276   6.575   5.475
 8765SOL     OW27193   4.978   0.560   4.094
 8765SOL    HW127194   5.007   0.550   3.999
 8765SOL    HW227195   4.939   0.474   4.127
 8766SOL     OW27196   4.317   4.302   5.353
 8766SOL    HW127197   4.293   4.368   5.282
 8766SOL    HW227198   4.283   4.333   5.441
 8767SOL     OW27199   5.326   6.771   2.813
 8767SOL    HW127200   5.258   6.717   2.763
 8767SOL    HW227201   5.280   6.844   2.862
 8768SOL     OW27202   1.126   2.768   0.238
 8768SOL    HW127203   1.102   2.837   0.169
 8768SOL    HW227204   1.214   2.726   0.214
 8769SOL     OW27205   6.854   1.129   3.293
 8769SOL    HW127206   6.796   1.185   3.353
 8769SOL    HW227207   6.818   1.036   3.290
 8770SOL     OW27208   4.613   4.383   2.218
 8770SOL    HW127209   4.594   4.333   2.133
 8770SOL    HW227210   4.671   4.461   2.198
 8771SOL     OW27211   1.068   1.925   6.225
 8771SOL    HW127212   1.022   1.907   6.138
 8771SOL    HW227213   1.150   1.867   6.232
 8772SOL     OW27214   4.690   0.381   6.474
 8772SOL    HW127215   4.629   0.316   6.519
 8772SOL    HW227216   4.650   0.472   6.478
 8773SOL     OW27217   5.883   2.665   3.408
 8773SOL    HW127218   5.828   2.717   3.343
 8773SOL    HW227219   5.841   2.575   3.425
 8774SOL     OW27220   1.435   0.436   0.441
 8774SOL    HW127221   1.433   0.525   0.486
 8774SOL    HW227222   1.342   0.399   0.436
 8775SOL     OW27223   5.403   1.213   6.058
 8775SOL    HW127224   5.343   1.233   5.980
 8775SOL    HW227225   5.385   1.121   6.091
 8776SOL     OW27226   4.665   3.453   0.976
 8776SOL    HW127227   4.672   3.492   0.885
 8776SOL    HW227228   4.633   3.358   0.970
 8777SOL     OW27229   6.696   4.257   3.348
 8777SOL    HW127230   6.675   4.215   3.436
 8777SOL    HW227231   6.696   4.188   3.276
 8778SOL     OW27232   4.947   2.893   5.809
 8778SOL    HW127233   5.043   2.913   5.787
 8778SOL    HW227234   4.923   2.937   5.895
 8779SOL     OW27235   2.642   5.760   2.404
 8779SOL    HW127236   2.544   5.740   2.399
 8779SOL    HW227237   2.673   5.748   2.498
 8780SOL     OW27238   7.003   0.203   2.742
 8780SOL    HW127239   6.999   0.290   2.693
 8780SOL    HW227240   0.042   0.211   2.820
 8781SOL     OW27241   5.002   0.716   3.564
 8781SOL    HW127242   4.926   0.680   3.510
 8781SOL    HW227243   4.987   0.696   3.660
 8782SOL     OW27244   6.955   0.862   1.510
 8782SOL    HW127245   6.918   0.946   1.550
 8782SOL    HW227246   6.879   0.801   1.485
 8783SOL     OW27247   6.954   4.113   3.175
 8783SOL    HW127248   6.863   4.110   3.133
 8783SOL    HW227249   6.944   4.115   3.274
 8784SOL     OW27250   0.103   6.511   6.190
 8784SOL    HW127251   0.067   6.422   6.165
 8784SOL    HW227252   0.109   6.519   6.289
 8785SOL     OW27253   6.075   5.337   6.780
 8785SOL    HW127254   6.097   5.302   6.690
 8785SOL    HW227255   6.157   5.338   6.837
 8786SOL     OW27256   2.879   1.479   1.097
 8786SOL    HW127257   2.970   1.476   1.055
 8786SOL    HW227258   2.812   1.436   1.037
 8787SOL     OW27259   2.838   1.342   2.134
 8787SOL    HW127260   2.822   1.373   2.227
 8787SOL    HW227261   2.921   1.385   2.098
 8788SOL     OW27262   0.048   1.203   5.235
 8788SOL    HW127263   0.096   1.215   5.148
 8788SOL    HW227264   0.041   1.106   5.256
 8789SOL     OW27265   6.485   5.419   5.483
 8789SOL    HW127266   6.564   5.424   5.422
 8789SOL    HW227267   6.402   5.441   5.431
 8790SOL     OW27268   5.996   0.779   6.327
 8790SOL    HW127269   6.050   0.860   6.304
 8790SOL    HW227270   5.919   0.773   6.264
 8791SOL     OW27271   5.131   6.865   5.246
 8791SOL    HW127272   5.100   6.886   5.154
 8791SOL    HW227273   5.076   6.790   5.283
 8792SOL     OW27274   3.291   4.904   2.985
 8792SOL    HW127275   3.343   4.888   3.069
 8792SOL    HW227276   3.334   4.976   2.932
 8793SOL     OW27277   0.775   4.897   2.685
 8793SOL    HW127278   0.698   4.833   2.695
 8793SOL    HW227279   0.795   4.909   2.587
 8794SOL     OW27280   5.662   0.656   3.187
 8794SOL    HW127281   5.753   0.675   3.149
 8794SOL    HW227282   5.672   0.591   3.263
 8795SOL     OW27283   1.221   4.618   5.514
 8795SOL    HW127284   1.187   4.536   5.560
 8795SOL    HW227285   1.210   4.697   5.574
 8796SOL     OW27286   5.043   2.807   3.043
 8796SOL    HW127287   4.969   2.797   2.978
 8796SOL    HW227288   5.006   2.821   3.135
 8797SOL     OW27289   0.079   6.976   5.921
 8797SOL    HW127290   0.023   0.006   5.985
 8797SOL    HW227291   0.139   6.915   5.972
 8798SOL     OW27292   4.597   6.124   6.791
 8798SOL    HW127293   4.586   6.206   6.847
 8798SOL    HW227294   4.506   6.088   6.767
 8799SOL     OW27295   2.489   4.918   3.605
 8799SOL    HW127296   2.411   4.980   3.603
 8799SOL    HW227297   2.478   4.853   3.680
 8800SOL     OW27298   5.205   4.878   6.172
 8800SOL    HW127299   5.169   4.825   6.095
 8800SOL    HW227300   5.302   4.895   6.158
 8801SOL     OW27301   5.976   1.570   4.759
 8801SOL    HW127302   5.984   1.480   4.801
 8801SOL    HW227303   5.903   1.568   4.690
 8802SOL     OW27304   1.843   5.760   5.772
 8802SOL    HW127305   1.755   5.763   5.818
 8802SOL    HW227306   1.869   5.853   5.743
 8803SOL     OW27307   6.706   0.205   0.499
 8803SOL    HW127308   6.770   0.129   0.502
 8803SOL    HW227309   6.756   0.291   0.509
 8804SOL     OW27310   2.432   6.138   1.151
 8804SOL    HW127311   2.380   6.208   1.101
 8804SOL    HW227312   2.381   6.053   1.153
 8805SOL     OW27313   3.678   5.968   3.432
 8805SOL    HW127314   3.602   6.033   3.427
 8805SOL    HW227315   3.643   5.874   3.426
 8806SOL     OW27316   2.694   4.802   1.085
 8806SOL    HW127317   2.637   4.854   1.148
 8806SOL    HW227318   2.747   4.734   1.136
 8807SOL     OW27319   4.779   1.331   0.243
 8807SOL    HW127320   4.693   1.359   0.286
 8807SOL    HW227321   4.799   1.391   0.166
 8808SOL     OW27322   6.508   2.354   6.173
 8808SOL    HW127323   6.600   2.380   6.142
 8808SOL    HW227324   6.471   2.285   6.111
 8809SOL     OW27325   2.660   4.787   3.440
 8809SOL    HW127326   2.682   4.733   3.521
 8809SOL    HW227327   2.597   4.861   3.465
 8810SOL     OW27328   5.785   0.112   4.889
 8810SOL    HW127329   5.699   0.153   4.921
 8810SOL    HW227330   5.831   0.067   4.966
 8811SOL     OW27331   3.102   0.635   3.155
 8811SOL    HW127332   3.196   0.651   3.186
 8811SOL    HW227333   3.097   0.649   3.056
 8812SOL     OW27334   2.378   0.500   0.497
 8812SOL    HW127335   2.469   0.461   0.481
 8812SOL    HW227336   2.308   0.438   0.462
 8813SOL     OW27337   1.976   5.623   3.138
 8813SOL    HW127338   2.023   5.612   3.225
 8813SOL    HW227339   1.951   5.719   3.126
 8814SOL     OW27340   5.924   0.113   0.577
 8814SOL    HW127341   5.984   0.040   0.544
 8814SOL    HW227342   5.858   0.075   0.642
 8815SOL     OW27343   5.555   6.814   1.449
 8815SOL    HW127344   5.618   6.853   1.382
 8815SOL    HW227345   5.462   6.814   1.412
 8816SOL     OW27346   1.164   6.725   6.731
 8816SOL    HW127347   1.157   6.642   6.675
 8816SOL    HW227348   1.144   6.703   6.826
 8817SOL     OW27349   0.116   3.913   3.577
 8817SOL    HW127350   0.145   3.978   3.507
 8817SOL    HW227351   0.054   3.959   3.641
 8818SOL     OW27352   1.450   5.514   3.681
 8818SOL    HW127353   1.379   5.518   3.752
 8818SOL    HW227354   1.470   5.418   3.660
 8819SOL     OW27355   6.173   4.990   5.028
 8819SOL    HW127356   6.245   4.996   5.097
 8819SOL    HW227357   6.172   5.073   4.973
 8820SOL     OW27358   2.852   0.810   5.269
 8820SOL    HW127359   2.853   0.710   5.264
 8820SOL    HW227360   2.789   0.839   5.341
 8821SOL     OW27361   1.534   5.723   0.797
 8821SOL    HW127362   1.615   5.763   0.840
 8821SOL    HW227363   1.487   5.664   0.862
 8822SOL     OW27364   0.571   0.715   3.203
 8822SOL    HW127365   0.576   0.799   3.148
 8822SOL    HW227366   0.631   0.725   3.283
 8823SOL     OW27367   2.150   1.112   2.434
 8823SOL    HW127368   2.158   1.078   2.340
 8823SOL    HW227369   2.143   1.212   2.432
 8824SOL     OW27370   1.560   1.288   0.322
 8824SOL    HW127371   1.619   1.212   0.295
 8824SOL    HW227372   1.614   1.371   0.332
 8825SOL     OW27373   1.323   1.318   1.741
 8825SOL    HW127374   1.409   1.305   1.790
 8825SOL    HW227375   1.261   1.374   1.796
 8826SOL     OW27376   1.054   3.743   1.108
 8826SOL    HW127377   1.004   3.765   1.191
 8826SOL    HW227378   1.096   3.826   1.071
 8827SOL     OW27379   4.221   0.275   2.958
 8827SOL    HW127380   4.168   0.278   3.043
 8827SOL    HW227381   4.292   0.204   2.966
 8828SOL     OW27382   4.226   4.922   6.776
 8828SOL    HW127383   4.305   4.883   6.824
 8828SOL    HW227384   4.218   4.879   6.686
 8829SOL     OW27385   5.504   1.809   1.243
 8829SOL    HW127386   5.463   1.852   1.162
 8829SOL    HW227387   5.437   1.750   1.287
 8830SOL     OW27388   2.154   1.739   2.635
 8830SOL    HW127389   2.215   1.723   2.713
 8830SOL    HW227390   2.160   1.661   2.572
 8831SOL     OW27391   5.540   2.530   3.113
 8831SOL    HW127392   5.455   2.569   3.079
 8831SOL    HW227393   5.566   2.452   3.056
 8832SOL     OW27394   6.146   6.035   3.624
 8832SOL    HW127395   6.122   6.128   3.650
 8832SOL    HW227396   6.110   5.971   3.691
 8833SOL     OW27397   3.288   4.716   6.673
 8833SOL    HW127398   3.361   4.652   6.651
 8833SOL    HW227399   3.227   4.676   6.741
 8834SOL     OW27400   5.597   3.626   4.414
 8834SOL    HW127401   5.584   3.563   4.338
 8834SOL    HW227402   5.693   3.628   4.440
 8835SOL     OW27403   5.175   0.813   5.983
 8835SOL    HW127404   5.232   0.874   6.039
 8835SOL    HW227405   5.208   0.815   5.889
 8836SOL     OW27406   4.752   1.521   0.873
 8836SOL    HW127407   4.698   1.597   0.835
 8836SOL    HW227408   4.784   1.546   0.964
 8837SOL     OW27409   0.266   0.034   2.724
 8837SOL    HW127410   0.177   0.042   2.679
 8837SOL    HW227411   0.274   0.103   2.796
 8838SOL     OW27412   1.843   4.452   3.618
 8838SOL    HW127413   1.829   4.493   3.708
 8838SOL    HW227414   1.924   4.393   3.620
 8839SOL     OW27415   4.240   6.358   2.092
 8839SOL    HW127416   4.209   6.448   2.063
 8839SOL    HW227417   4.291   6.366   2.178
 8840SOL     OW27418   6.926   0.790   2.372
 8840SOL    HW127419   6.869   0.716   2.408
 8840SOL    HW227420   6.926   0.867   2.437
 8841SOL     OW27421   6.543   1.555   4.076
 8841SOL    HW127422   6.496   1.563   4.164
 8841SOL    HW227423   6.487   1.596   4.005
 8842SOL     OW27424   3.206   3.663   3.409
 8842SOL    HW127425   3.289   3.718   3.414
 8842SOL    HW227426   3.125   3.722   3.420
 8843SOL     OW27427   2.161   3.174   3.953
 8843SOL    HW127428   2.187   3.266   3.981
 8843SOL    HW227429   2.131   3.121   4.033
 8844SOL     OW27430   6.597   1.656   4.744
 8844SOL    HW127431   6.563   1.744   4.775
 8844SOL    HW227432   6.521   1.591   4.737
 8845SOL     OW27433   2.354   3.900   0.806
 8845SOL    HW127434   2.326   3.825   0.746
 8845SOL    HW227435   2.282   3.918   0.873
 8846SOL     OW27436   3.423   4.931   4.419
 8846SOL    HW127437   3.373   4.892   4.496
 8846SOL    HW227438   3.514   4.960   4.449
 8847SOL     OW27439   2.558   1.019   3.077
 8847SOL    HW127440   2.530   1.005   2.982
 8847SOL    HW227441   2.579   0.930   3.119
 8848SOL     OW27442   2.976   2.161   2.312
 8848SOL    HW127443   2.900   2.164   2.378
 8848SOL    HW227444   2.962   2.231   2.243
 8849SOL     OW27445   3.692   5.471   3.253
 8849SOL    HW127446   3.759   5.513   3.192
 8849SOL    HW227447   3.735   5.398   3.306
 8850SOL     OW27448   2.296   1.093   0.020
 8850SOL    HW127449   2.250   1.168   6.994
 8850SOL    HW227450   2.228   1.040   0.070
 8851SOL     OW27451   0.926   5.184   2.251
 8851SOL    HW127452   0.853   5.115   2.260
 8851SOL    HW227453   0.938   5.231   2.338
 8852SOL     OW27454   4.223   4.065   5.864
 8852SOL    HW127455   4.318   4.052   5.893
 8852SOL    HW227456   4.188   4.150   5.903
 8853SOL     OW27457   3.473   0.688   5.910
 8853SOL    HW127458   3.455   0.589   5.910
 8853SOL    HW227459   3.533   0.711   5.986
 8854SOL     OW27460   3.270   1.326   6.246
 8854SOL    HW127461   3.365   1.294   6.247
 8854SOL    HW227462   3.267   1.420   6.212
 8855SOL     OW27463   6.890   6.149   0.358
 8855SOL    HW127464   6.937   6.230   0.394
 8855SOL    HW227465   6.830   6.175   0.283
 8856SOL     OW27466   6.388   0.924   5.934
 8856SOL    HW127467   6.366   0.901   6.028
 8856SOL    HW227468   6.406   1.022   5.927
 8857SOL     OW27469   6.607   2.324   4.287
 8857SOL    HW127470   6.673   2.356   4.354
 8857SOL    HW227471   6.552   2.401   4.255
 8858SOL     OW27472   1.499   2.492   5.484
 8858SOL    HW127473   1.559   2.423   5.443
 8858SOL    HW227474   1.472   2.462   5.576
 8859SOL     OW27475   6.568   0.965   4.284
 8859SOL    HW127476   6.646   0.916   4.323
 8859SOL    HW227477   6.598   1.055   4.251
 8860SOL     OW27478   1.021   3.453   3.125
 8860SOL    HW127479   1.034   3.476   3.029
 8860SOL    HW227480   0.939   3.397   3.135
 8861SOL     OW27481   3.609   1.683   6.047
 8861SOL    HW127482   3.620   1.591   6.012
 8861SOL    HW227483   3.687   1.707   6.105
 8862SOL     OW27484   6.422   0.546   3.480
 8862SOL    HW127485   6.376   0.621   3.432
 8862SOL    HW227486   6.391   0.459   3.442
 8863SOL     OW27487   0.930   5.708   3.855
 8863SOL    HW127488   1.014   5.695   3.909
 8863SOL    HW227489   0.939   5.790   3.799
 8864SOL     OW27490   2.443   2.769   6.200
 8864SOL    HW127491   2.542   2.768   6.186
 8864SOL    HW227492   2.397   2.729   6.120
 8865SOL     OW27493   2.887   1.670   5.784
 8865SOL    HW127494   2.932   1.716   5.860
 8865SOL    HW227495   2.877   1.573   5.805
 8866SOL     OW27496   4.797   6.739   3.462
 8866SOL    HW127497   4.803   6.715   3.366
 8866SOL    HW227498   4.878   6.705   3.510
 8867SOL     OW27499   5.429   3.668   2.255
 8867SOL    HW127500   5.334   3.700   2.246
 8867SOL    HW227501   5.468   3.702   2.340
 8868SOL     OW27502   6.320   3.258   0.433
 8868SOL    HW127503   6.235   3.205   0.434
 8868SOL    HW227504   6.398   3.195   0.437
 8869SOL     OW27505   4.284   5.993   4.268
 8869SOL    HW127506   4.270   6.091   4.282
 8869SOL    HW227507   4.236   5.964   4.185
 8870SOL     OW27508   4.484   0.422   0.261
 8870SOL    HW127509   4.449   0.459   0.347
 8870SOL    HW227510   4.517   0.497   0.203
 8871SOL     OW27511   0.868   0.660   3.603
 8871SOL    HW127512   0.878   0.590   3.532
 8871SOL    HW227513   0.784   0.712   3.586
 8872SOL     OW27514   1.624   5.003   5.132
 8872SOL    HW127515   1.682   4.966   5.204
 8872SOL    HW227516   1.528   4.987   5.154
 8873SOL     OW27517   0.947   5.502   2.261
 8873SOL    HW127518   0.870   5.550   2.219
 8873SOL    HW227519   0.913   5.441   2.333
 8874SOL     OW27520   3.012   6.505   1.800
 8874SOL    HW127521   2.930   6.480   1.750
 8874SOL    HW227522   3.084   6.530   1.736
 8875SOL     OW27523   6.114   3.808   4.613
 8875SOL    HW127524   6.175   3.886   4.622
 8875SOL    HW227525   6.168   3.724   4.607
 8876SOL     OW27526   2.027   0.428   3.923
 8876SOL    HW127527   2.012   0.385   3.834
 8876SOL    HW227528   2.124   0.446   3.936
 8877SOL     OW27529   2.838   1.306   4.139
 8877SOL    HW127530   2.878   1.340   4.224
 8877SOL    HW227531   2.844   1.376   4.068
 8878SOL     OW27532   6.859   5.704   0.580
 8878SOL    HW127533   6.848   5.803   0.577
 8878SOL    HW227534   6.885   5.675   0.672
 8879SOL     OW27535   4.881   4.677   1.765
 8879SOL    HW127536   4.893   4.719   1.855
 8879SOL    HW227537   4.934   4.593   1.761
 8880SOL     OW27538   5.767   5.337   4.384
 8880SOL    HW127539   5.812   5.349   4.472
 8880SOL    HW227540   5.824   5.282   4.324
 8881SOL     OW27541   6.254   6.564   4.402
 8881SOL    HW127542   6.313   6.638   4.371
 8881SOL    HW227543   6.160   6.599   4.413
 8882SOL     OW27544   5.518   1.561   1.000
 8882SOL    HW127545   5.436   1.603   1.037
 8882SOL    HW227546   5.503   1.537   0.904
 8883SOL     OW27547   1.919   6.966   5.535
 8883SOL    HW127548   1.875   6.897   5.592
 8883SOL    HW227549   1.849   7.011   5.478
 8884SOL     OW27550   6.014   4.405   6.646
 8884SOL    HW127551   5.930   4.438   6.603
 8884SOL    HW227552   6.078   4.481   6.658
 8885SOL     OW27553   0.625   3.260   0.370
 8885SOL    HW127554   0.625   3.167   0.335
 8885SOL    HW227555   0.580   3.263   0.459
 8886SOL     OW27556   3.657   6.035   5.002
 8886SOL    HW127557   3.582   5.986   5.046
 8886SOL    HW227558   3.619   6.112   4.950
 8887SOL     OW27559   3.235   1.755   1.790
 8887SOL    HW127560   3.246   1.711   1.701
 8887SOL    HW227561   3.213   1.852   1.777
 8888SOL     OW27562   1.265   1.715   0.097
 8888SOL    HW127563   1.268   1.782   0.171
 8888SOL    HW227564   1.202   1.641   0.123
 8889SOL     OW27565   5.574   0.172   5.063
 8889SOL    HW127566   5.606   0.121   5.143
 8889SOL    HW227567   5.490   0.221   5.087
 8890SOL     OW27568   6.194   5.592   3.775
 8890SOL    HW127569   6.264   5.591   3.703
 8890SOL    HW227570   6.204   5.676   3.829
 8891SOL     OW27571   5.292   3.406   5.630
 8891SOL    HW127572   5.345   3.398   5.545
 8891SOL    HW227573   5.204   3.360   5.618
 8892SOL     OW27574   3.856   5.604   3.084
 8892SOL    HW127575   3.939   5.649   3.053
 8892SOL    HW227576   3.782   5.623   3.020
 8893SOL     OW27577   1.011   6.746   2.997
 8893SOL    HW127578   0.980   6.679   3.065
 8893SOL    HW227579   0.933   6.775   2.941
 8894SOL     OW27580   4.073   2.597   5.682
 8894SOL    HW127581   4.058   2.598   5.583
 8894SOL    HW227582   4.171   2.598   5.701
 8895SOL     OW27583   6.479   1.647   1.931
 8895SOL    HW127584   6.520   1.570   1.980
 8895SOL    HW227585   6.400   1.681   1.982
 8896SOL     OW27586   1.833   3.285   5.464
 8896SOL    HW127587   1.746   3.331   5.449
 8896SOL    HW227588   1.884   3.281   5.377
 8897SOL     OW27589   1.545   3.150   3.461
 8897SOL    HW127590   1.504   3.212   3.394
 8897SOL    HW227591   1.593   3.204   3.530
 8898SOL     OW27592   5.515   4.013   3.710
 8898SOL    HW127593   5.526   4.082   3.639
 8898SOL    HW227594   5.585   3.942   3.700
 8899SOL     OW27595   1.729   4.695   0.375
 8899SOL    HW127596   1.775   4.613   0.341
 8899SOL    HW227597   1.666   4.729   0.305
 8900SOL     OW27598   5.959   2.931   2.104
 8900SOL    HW127599   5.893   2.921   2.179
 8900SOL    HW227600   6.051   2.910   2.137
 8901SOL     OW27601   1.670   1.385   4.413
 8901SOL    HW127602   1.588   1.433   4.445
 8901SOL    HW227603   1.751   1.431   4.447
 8902SOL     OW27604   2.752   6.794   0.952
 8902SOL    HW127605   2.793   6.703   0.947
 8902SOL    HW227606   2.690   6.799   1.031
 8903SOL     OW27607   0.616   1.547   4.759
 8903SOL    HW127608   0.678   1.626   4.752
 8903SOL    HW227609   0.592   1.515   4.668
 8904SOL     OW27610   6.044   5.855   3.817
 8904SOL    HW127611   5.958   5.814   3.787
 8904SOL    HW227612   6.050   5.848   3.917
 8905SOL     OW27613   1.947   4.533   4.216
 8905SOL    HW127614   1.960   4.587   4.132
 8905SOL    HW227615   2.030   4.537   4.271
 8906SOL     OW27616   6.806   6.703   6.471
 8906SOL    HW127617   6.864   6.783   6.457
 8906SOL    HW227618   6.711   6.732   6.485
 8907SOL     OW27619   3.109   2.223   4.481
 8907SOL    HW127620   3.018   2.224   4.440
 8907SOL    HW227621   3.168   2.161   4.430
 8908SOL     OW27622   0.972   3.747   6.815
 8908SOL    HW127623   1.011   3.832   6.779
 8908SOL    HW227624   1.037   3.672   6.803
 8909SOL     OW27625   1.964   0.420   5.380
 8909SOL    HW127626   2.038   0.367   5.337
 8909SOL    HW227627   1.972   0.414   5.479
 8910SOL     OW27628   0.549   2.697   5.857
 8910SOL    HW127629   0.541   2.796   5.868
 8910SOL    HW227630   0.490   2.651   5.925
 8911SOL     OW27631   4.477   2.405   5.020
 8911SOL    HW127632   4.492   2.503   5.004
 8911SOL    HW227633   4.380   2.385   5.009
 8912SOL     OW27634   4.039   2.731   0.911
 8912SOL    HW127635   3.994   2.661   0.967
 8912SOL    HW227636   3.974   2.765   0.843
 8913SOL     OW27637   4.821   5.031   6.735
 8913SOL    HW127638   4.914   5.002   6.714
 8913SOL    HW227639   4.823   5.097   6.811
 8914SOL     OW27640   3.705   0.728   4.222
 8914SOL    HW127641   3.769   0.735   4.298
 8914SOL    HW227642   3.739   0.783   4.145
 8915SOL     OW27643   0.939   2.941   3.951
 8915SOL    HW127644   0.854   2.994   3.954
 8915SOL    HW227645   0.923   2.856   3.902
 8916SOL     OW27646   6.935   3.863   0.363
 8916SOL    HW127647   6.881   3.851   0.280
 8916SOL    HW227648   7.005   3.792   0.367
 8917SOL     OW27649   6.455   4.413   6.330
 8917SOL    HW127650   6.515   4.422   6.410
 8917SOL    HW227651   6.442   4.502   6.288
 8918SOL     OW27652   6.802   3.717   1.128
 8918SOL    HW127653   6.715   3.678   1.156
 8918SOL    HW227654   6.877   3.664   1.167
 8919SOL     OW27655   3.874   4.132   0.668
 8919SOL    HW127656   3.787   4.177   0.689
 8919SOL    HW227657   3.947   4.171   0.725
 8920SOL     OW27658   1.116   0.001   0.315
 8920SOL    HW127659   1.113   6.985   0.407
 8920SOL    HW227660   1.048   6.980   0.257
 8921SOL     OW27661   2.469   2.200   2.559
 8921SOL    HW127662   2.469   2.152   2.646
 8921SOL    HW227663   2.550   2.259   2.553
 8922SOL     OW27664   3.503   4.913   1.131
 8922SOL    HW127665   3.445   4.871   1.060
 8922SOL    HW227666   3.458   4.904   1.220
 8923SOL     OW27667   1.157   2.942   6.411
 8923SOL    HW127668   1.229   2.906   6.352
 8923SOL    HW227669   1.171   2.908   6.504
 8924SOL     OW27670   3.257   6.142   5.986
 8924SOL    HW127671   3.330   6.090   5.941
 8924SOL    HW227672   3.180   6.152   5.924
 8925SOL     OW27673   0.660   1.111   2.647
 8925SOL    HW127674   0.686   1.067   2.561
 8925SOL    HW227675   0.588   1.178   2.629
 8926SOL     OW27676   5.473   3.975   6.031
 8926SOL    HW127677   5.542   3.950   6.099
 8926SOL    HW227678   5.467   3.904   5.961
 8927SOL     OW27679   1.057   1.729   4.582
 8927SOL    HW127680   1.151   1.698   4.569
 8927SOL    HW227681   1.017   1.678   4.658
 8928SOL     OW27682   6.848   0.933   5.904
 8928SOL    HW127683   6.890   0.876   5.975
 8928SOL    HW227684   6.779   0.879   5.855
 8929SOL     OW27685   6.734   3.603   4.151
 8929SOL    HW127686   6.708   3.527   4.092
 8929SOL    HW227687   6.830   3.595   4.176
 8930SOL     OW27688   1.780   4.051   4.672
 8930SOL    HW127689   1.856   3.986   4.675
 8930SOL    HW227690   1.816   4.144   4.678
 8931SOL     OW27691   3.124   3.119   1.338
 8931SOL    HW127692   3.181   3.200   1.353
 8931SOL    HW227693   3.183   3.040   1.319
 8932SOL     OW27694   5.518   0.174   0.424
 8932SOL    HW127695   5.566   0.251   0.466
 8932SOL    HW227696   5.520   0.096   0.487
 8933SOL     OW27697   1.377   2.908   6.201
 8933SOL    HW127698   1.398   2.994   6.154
 8933SOL    HW227699   1.462   2.864   6.230
 8934SOL     OW27700   3.104   5.256   4.513
 8934SOL    HW127701   3.105   5.353   4.538
 8934SOL    HW227702   3.017   5.216   4.542
 8935SOL     OW27703   5.794   3.904   1.497
 8935SOL    HW127704   5.768   3.950   1.412
 8935SOL    HW227705   5.762   3.809   1.494
 8936SOL     OW27706   1.415   3.395   0.994
 8936SOL    HW127707   1.326   3.408   1.038
 8936SOL    HW227708   1.402   3.353   0.904
 8937SOL     OW27709   0.090   0.042   4.725
 8937SOL    HW127710   0.078   0.051   4.824
 8937SOL    HW227711   0.154   0.111   4.692
 8938SOL     OW27712   6.739   1.095   7.015
 8938SOL    HW127713   6.692   1.055   0.071
 8938SOL    HW227714   6.831   1.125   0.020
 8939SOL     OW27715   5.854   3.831   4.664
 8939SOL    HW127716   5.799   3.790   4.592
 8939SOL    HW227717   5.950   3.805   4.652
 8940SOL     OW27718   5.924   1.458   1.411
 8940SOL    HW127719   5.870   1.536   1.382
 8940SOL    HW227720   5.879   1.412   1.488
 8941SOL     OW27721   6.431   2.573   2.977
 8941SOL    HW127722   6.337   2.563   2.943
 8941SOL    HW227723   6.436   2.544   3.072
 8942SOL     OW27724   0.903   5.558   5.580
 8942SOL    HW127725   0.882   5.620   5.655
 8942SOL    HW227726   0.844   5.579   5.502
 8943SOL     OW27727   3.714   5.482   0.001
 8943SOL    HW127728   3.804   5.519   0.024
 8943SOL    HW227729   3.645   5.553   0.013
 8944SOL     OW27730   5.258   6.127   4.638
 8944SOL    HW127731   5.185   6.126   4.707
 8944SOL    HW227732   5.253   6.044   4.583
 8945SOL     OW27733   0.017   2.255   4.344
 8945SOL    HW127734   0.087   2.201   4.298
 8945SOL    HW227735   7.002   2.201   4.420
 8946SOL     OW27736   3.878   0.750   4.428
 8946SOL    HW127737   3.968   0.742   4.471
 8946SOL    HW227738   3.826   0.822   4.473
 8947SOL     OW27739   1.848   3.155   5.926
 8947SOL    HW127740   1.862   3.081   5.860
 8947SOL    HW227741   1.850   3.242   5.877
 8948SOL     OW27742   6.197   5.995   3.376
 8948SOL    HW127743   6.172   6.048   3.457
 8948SOL    HW227744   6.180   5.898   3.393
 8949SOL     OW27745   3.850   6.000   0.475
 8949SOL    HW127746   3.929   6.053   0.507
 8949SOL    HW227747   3.835   5.923   0.537
 8950SOL     OW27748   4.217   3.094   0.958
 8950SOL    HW127749   4.243   3.109   1.053
 8950SOL    HW227750   4.271   3.153   0.899
 8951SOL     OW27751   1.783   0.710   5.126
 8951SOL    HW127752   1.841   0.743   5.201
 8951SOL    HW227753   1.817   0.620   5.096
 8952SOL     OW27754   1.008   5.097   3.411
 8952SOL    HW127755   0.946   5.126   3.339
 8952SOL    HW227756   0.959   5.042   3.478
 8953SOL     OW27757   0.239   4.809   0.824
 8953SOL    HW127758   0.191   4.895   0.838
 8953SOL    HW227759   0.336   4.821   0.844
 8954SOL     OW27760   0.095   0.309   4.000
 8954SOL    HW127761   0.160   0.283   3.928
 8954SOL    HW227762   0.145   0.345   4.079
 8955SOL     OW27763   7.000   4.944   3.228
 8955SOL    HW127764   0.065   4.984   3.253
 8955SOL    HW227765   6.957   4.904   3.310
 8956SOL     OW27766   1.627   1.031   5.657
 8956SOL    HW127767   1.702   0.979   5.615
 8956SOL    HW227768   1.625   1.013   5.756
 8957SOL     OW27769   2.299   4.565   1.452
 8957SOL    HW127770   2.225   4.498   1.454
 8957SOL    HW227771   2.261   4.657   1.442
 8958SOL     OW27772   0.860   2.367   5.335
 8958SOL    HW127773   0.848   2.434   5.407
 8958SOL    HW227774   0.895   2.281   5.373
 8959SOL     OW27775   1.794   3.872   2.759
 8959SOL    HW127776   1.866   3.922   2.808
 8959SOL    HW227777   1.744   3.814   2.824
 8960SOL     OW27778   5.421   5.383   4.002
 8960SOL    HW127779   5.404   5.317   4.076
 8960SOL    HW227780   5.334   5.415   3.966
 8961SOL     OW27781   3.463   1.420   4.113
 8961SOL    HW127782   3.451   1.339   4.056
 8961SOL    HW227783   3.560   1.447   4.113
 8962SOL     OW27784   6.235   5.221   1.912
 8962SOL    HW127785   6.225   5.318   1.932
 8962SOL    HW227786   6.328   5.192   1.934
 8963SOL     OW27787   3.634   6.586   4.848
 8963SOL    HW127788   3.587   6.512   4.799
 8963SOL    HW227789   3.707   6.623   4.790
 8964SOL     OW27790   6.161   2.664   2.791
 8964SOL    HW127791   6.075   2.704   2.823
 8964SOL    HW227792   6.147   2.568   2.770
 8965SOL     OW27793   2.559   5.343   0.257
 8965SOL    HW127794   2.577   5.260   0.311
 8965SOL    HW227795   2.470   5.333   0.211
 8966SOL     OW27796   6.458   3.908   0.529
 8966SOL    HW127797   6.475   3.902   0.627
 8966SOL    HW227798   6.462   4.004   0.500
 8967SOL     OW27799   3.920   0.655   2.178
 8967SOL    HW127800   3.911   0.622   2.272
 8967SOL    HW227801   3.870   0.595   2.116
 8968SOL     OW27802   4.257   5.801   2.169
 8968SOL    HW127803   4.244   5.829   2.074
 8968SOL    HW227804   4.252   5.701   2.175
 8969SOL     OW27805   0.281   0.324   3.798
 8969SOL    HW127806   0.331   0.266   3.734
 8969SOL    HW227807   0.233   0.396   3.748
 8970SOL     OW27808   2.254   2.554   6.417
 8970SOL    HW127809   2.172   2.497   6.420
 8970SOL    HW227810   2.230   2.648   6.440
 8971SOL     OW27811   5.681   5.658   1.276
 8971SOL    HW127812   5.604   5.718   1.299
 8971SOL    HW227813   5.742   5.650   1.355
 8972SOL     OW27814   4.474   3.953   0.618
 8972SOL    HW127815   4.394   3.977   0.672
 8972SOL    HW227816   4.460   3.864   0.575
 8973SOL     OW27817   6.787   3.089   3.138
 8973SOL    HW127818   6.694   3.062   3.162
 8973SOL    HW227819   6.839   3.007   3.112
 8974SOL     OW27820   1.701   3.181   3.926
 8974SOL    HW127821   1.770   3.184   3.998
 8974SOL    HW227822   1.736   3.131   3.847
 8975SOL     OW27823   0.961   6.393   6.727
 8975SOL    HW127824   0.997   6.463   6.666
 8975SOL    HW227825   0.901   6.331   6.676
 8976SOL     OW27826   6.948   5.427   0.217
 8976SOL    HW127827   6.974   5.400   0.124
 8976SOL    HW227828   0.007   5.441   0.272
 8977SOL     OW27829   6.594   3.730   6.511
 8977SOL    HW127830   6.506   3.712   6.468
 8977SOL    HW227831   6.580   3.760   6.605
 8978SOL     OW27832   5.831   0.052   4.623
 8978SOL    HW127833   5.801   6.980   4.613
 8978SOL    HW227834   5.802   0.086   4.713
 8979SOL     OW27835   1.367   4.587   6.352
 8979SOL    HW127836   1.462   4.610   6.372
 8979SOL    HW227837   1.363   4.504   6.297
 8980SOL     OW27838   4.802   3.014   5.566
 8980SOL    HW127839   4.870   2.971   5.626
 8980SOL    HW227840   4.713   2.971   5.581
 8981SOL     OW27841   5.027   1.985   5.619
 8981SOL    HW127842   5.032   1.914   5.688
 8981SOL    HW227843   4.960   1.960   5.549
 8982SOL     OW27844   0.422   1.819   0.894
 8982SOL    HW127845   0.390   1.819   0.799
 8982SOL    HW227846   0.348   1.849   0.954
 8983SOL     OW27847   0.303   5.566   1.048
 8983SOL    HW127848   0.232   5.502   1.018
 8983SOL    HW227849   0.321   5.633   0.976
 8984SOL     OW27850   6.349   6.031   4.081
 8984SOL    HW127851   6.283   6.104   4.064
 8984SOL    HW227852   6.301   5.943   4.085
 8985SOL     OW27853   2.733   2.050   1.019
 8985SOL    HW127854   2.749   2.098   1.105
 8985SOL    HW227855   2.645   2.002   1.023
 8986SOL     OW27856   3.888   5.416   2.647
 8986SOL    HW127857   3.984   5.442   2.658
 8986SOL    HW227858   3.877   5.318   2.665
 8987SOL     OW27859   2.905   0.544   1.493
 8987SOL    HW127860   3.001   0.566   1.474
 8987SOL    HW227861   2.846   0.613   1.451
 8988SOL     OW27862   2.193   4.658   0.487
 8988SOL    HW127863   2.150   4.586   0.432
 8988SOL    HW227864   2.292   4.657   0.471
 8989SOL     OW27865   5.167   4.009   2.053
 8989SOL    HW127866   5.067   4.003   2.044
 8989SOL    HW227867   5.201   3.928   2.101
 8990SOL     OW27868   2.632   5.176   1.733
 8990SOL    HW127869   2.668   5.149   1.822
 8990SOL    HW227870   2.537   5.204   1.743
 8991SOL     OW27871   2.360   1.118   0.693
 8991SOL    HW127872   2.406   1.149   0.610
 8991SOL    HW227873   2.272   1.164   0.702
 8992SOL     OW27874   6.652   2.163   6.968
 8992SOL    HW127875   6.579   2.148   6.901
 8992SOL    HW227876   6.727   2.213   6.925
 8993SOL     OW27877   4.577   2.534   2.608
 8993SOL    HW127878   4.563   2.558   2.512
 8993SOL    HW227879   4.498   2.481   2.640
 8994SOL     OW27880   0.682   5.960   4.536
 8994SOL    HW127881   0.596   5.971   4.487
 8994SOL    HW227882   0.663   5.949   4.634
 8995SOL     OW27883   1.024   2.695   5.639
 8995SOL    HW127884   1.048   2.791   5.631
 8995SOL    HW227885   0.995   2.675   5.733
 8996SOL     OW27886   0.351   4.855   1.920
 8996SOL    HW127887   0.322   4.761   1.939
 8996SOL    HW227888   0.413   4.854   1.841
 8997SOL     OW27889   4.288   1.370   6.544
 8997SOL    HW127890   4.280   1.401   6.449
 8997SOL    HW227891   4.245   1.280   6.554
 8998SOL     OW27892   0.555   2.719   4.126
 8998SOL    HW127893   0.567   2.818   4.131
 8998SOL    HW227894   0.585   2.686   4.036
 8999SOL     OW27895   3.905   0.281   6.572
 8999SOL    HW127896   3.970   0.205   6.576
 8999SOL    HW227897   3.912   0.335   6.655
 9000SOL     OW27898   2.053   4.358   6.558
 9000SOL    HW127899   2.112   4.412   6.499
 9000SOL    HW227900   2.061   4.390   6.653
 9001SOL     OW27901   1.509   5.500   3.253
 9001SOL    HW127902   1.592   5.446   3.272
 9001SOL    HW227903   1.495   5.565   3.327
 9002SOL     OW27904   0.863   5.085   4.970
 9002SOL    HW127905   0.840   5.157   4.905
 9002SOL    HW227906   0.943   5.034   4.937
 9003SOL     OW27907   5.268   2.684   1.219
 9003SOL    HW127908   5.306   2.777   1.211
 9003SOL    HW227909   5.185   2.687   1.275
 9004SOL     OW27910   4.117   6.729   1.988
 9004SOL    HW127911   4.026   6.730   1.946
 9004SOL    HW227912   4.184   6.691   1.923
 9005SOL     OW27913   5.991   2.121   4.328
 9005SOL    HW127914   6.045   2.042   4.355
 9005SOL    HW227915   5.929   2.096   4.254
 9006SOL     OW27916   1.166   5.791   1.016
 9006SOL    HW127917   1.068   5.809   1.001
 9006SOL    HW227918   1.210   5.873   1.052
 9007SOL     OW27919   3.584   6.149   4.072
 9007SOL    HW127920   3.517   6.095   4.123
 9007SOL    HW227921   3.620   6.095   3.996
 9008SOL     OW27922   6.782   5.478   2.657
 9008SOL    HW127923   6.820   5.479   2.749
 9008SOL    HW227924   6.857   5.478   2.590
 9009SOL     OW27925   2.537   6.763   0.752
 9009SOL    HW127926   2.613   6.794   0.810
 9009SOL    HW227927   2.573   6.708   0.677
 9010SOL     OW27928   0.860   0.108   4.619
 9010SOL    HW127929   0.892   0.087   4.527
 9010SOL    HW227930   0.764   0.136   4.616
 9011SOL     OW27931   4.316   1.775   1.892
 9011SOL    HW127932   4.265   1.692   1.914
 9011SOL    HW227933   4.290   1.808   1.802
 9012SOL     OW27934   2.805   4.640   1.263
 9012SOL    HW127935   2.735   4.653   1.333
 9012SOL    HW227936   2.886   4.693   1.287
 9013SOL     OW27937   6.043   6.207   4.515
 9013SOL    HW127938   6.042   6.304   4.538
 9013SOL    HW227939   6.137   6.176   4.502
 9014SOL     OW27940   1.482   1.093   0.073
 9014SOL    HW127941   1.512   1.178   0.031
 9014SOL    HW227942   1.561   1.044   0.109
 9015SOL     OW27943   6.365   0.772   0.570
 9015SOL    HW127944   6.313   0.706   0.515
 9015SOL    HW227945   6.359   0.747   0.666
 9016SOL     OW27946   0.140   6.493   6.477
 9016SOL    HW127947   0.043   6.478   6.499
 9016SOL    HW227948   0.190   6.518   6.559
 9017SOL     OW27949   5.012   2.714   2.393
 9017SOL    HW127950   4.917   2.745   2.404
 9017SOL    HW227951   5.068   2.752   2.466
 9018SOL     OW27952   4.371   1.407   5.230
 9018SOL    HW127953   4.291   1.370   5.277
 9018SOL    HW227954   4.402   1.343   5.160
 9019SOL     OW27955   1.069   0.322   1.033
 9019SOL    HW127956   0.975   0.298   1.058
 9019SOL    HW227957   1.067   0.396   0.966
 9020SOL     OW27958   1.364   3.752   1.896
 9020SOL    HW127959   1.396   3.798   1.813
 9020SOL    HW227960   1.327   3.662   1.872
 9021SOL     OW27961   6.224   0.277   3.776
 9021SOL    HW127962   6.162   0.237   3.843
 9021SOL    HW227963   6.209   0.376   3.771
 9022SOL     OW27964   2.766   0.728   1.373
 9022SOL    HW127965   2.669   0.744   1.357
 9022SOL    HW227966   2.805   0.682   1.293
 9023SOL     OW27967   3.641   2.909   2.802
 9023SOL    HW127968   3.571   2.860   2.750
 9023SOL    HW227969   3.719   2.930   2.743
 9024SOL     OW27970   1.220   5.659   6.529
 9024SOL    HW127971   1.163   5.576   6.527
 9024SOL    HW227972   1.286   5.655   6.454
 9025SOL     OW27973   6.756   5.875   0.928
 9025SOL    HW127974   6.726   5.788   0.968
 9025SOL    HW227975   6.712   5.887   0.839
 9026SOL     OW27976   3.686   3.368   2.794
 9026SOL    HW127977   3.621   3.297   2.764
 9026SOL    HW227978   3.743   3.331   2.867
 9027SOL     OW27979   2.149   1.720   3.321
 9027SOL    HW127980   2.100   1.661   3.256
 9027SOL    HW227981   2.200   1.663   3.385
 9028SOL     OW27982   2.587   4.060   6.183
 9028SOL    HW127983   2.609   4.109   6.099
 9028SOL    HW227984   2.501   4.095   6.220
 9029SOL     OW27985   3.213   5.364   5.154
 9029SOL    HW127986   3.221   5.409   5.243
 9029SOL    HW227987   3.237   5.429   5.082
 9030SOL     OW27988   1.790   0.753   2.837
 9030SOL    HW127989   1.750   0.731   2.748
 9030SOL    HW227990   1.755   0.842   2.868
 9031SOL     OW27991   4.902   5.114   5.454
 9031SOL    HW127992   4.895   5.127   5.355
 9031SOL    HW227993   4.936   5.022   5.473
 9032SOL     OW27994   3.969   3.182   0.864
 9032SOL    HW127995   4.047   3.133   0.903
 9032SOL    HW227996   3.884   3.137   0.892
 9033SOL     OW27997   2.173   3.912   3.464
 9033SOL    HW127998   2.198   3.918   3.561
 9033SOL    HW227999   2.131   3.998   3.435
 9034SOL     OW28000   3.503   0.227   4.601
 9034SOL    HW128001   3.525   0.138   4.561
 9034SOL    HW228002   3.406   0.230   4.626
 9035SOL     OW28003   1.059   6.315   5.440
 9035SOL    HW128004   1.012   6.249   5.498
 9035SOL    HW228005   1.152   6.283   5.421
 9036SOL     OW28006   1.435   1.115   4.680
 9036SOL    HW128007   1.342   1.152   4.673
 9036SOL    HW228008   1.470   1.098   4.588
 9037SOL     OW28009   1.395   4.362   6.204
 9037SOL    HW128010   1.333   4.309   6.145
 9037SOL    HW228011   1.443   4.300   6.266
 9038SOL     OW28012   4.570   0.581   5.156
 9038SOL    HW128013   4.562   0.668   5.108
 9038SOL    HW228014   4.606   0.512   5.093
 9039SOL     OW28015   1.758   4.530   4.811
 9039SOL    HW128016   1.813   4.487   4.884
 9039SOL    HW228017   1.741   4.626   4.835
 9040SOL     OW28018   2.550   1.674   3.214
 9040SOL    HW128019   2.621   1.736   3.250
 9040SOL    HW228020   2.594   1.600   3.163
 9041SOL     OW28021   0.745   2.391   1.911
 9041SOL    HW128022   0.707   2.299   1.922
 9041SOL    HW228023   0.707   2.432   1.827
 9042SOL     OW28024   3.482   6.728   3.908
 9042SOL    HW128025   3.479   6.628   3.908
 9042SOL    HW228026   3.389   6.764   3.914
 9043SOL     OW28027   1.819   0.923   6.085
 9043SOL    HW128028   1.786   1.009   6.046
 9043SOL    HW228029   1.792   0.847   6.026
 9044SOL     OW28030   6.454   1.346   1.379
 9044SOL    HW128031   6.481   1.317   1.287
 9044SOL    HW228032   6.423   1.266   1.430
 9045SOL     OW28033   3.768   1.714   2.540
 9045SOL    HW128034   3.682   1.738   2.495
 9045SOL    HW228035   3.757   1.629   2.591
 9046SOL     OW28036   3.385   3.393   4.236
 9046SOL    HW128037   3.375   3.323   4.307
 9046SOL    HW228038   3.474   3.383   4.191
 9047SOL     OW28039   1.902   3.312   4.951
 9047SOL    HW128040   1.988   3.318   5.001
 9047SOL    HW228041   1.890   3.218   4.918
 9048SOL     OW28042   5.762   2.747   6.360
 9048SOL    HW128043   5.665   2.768   6.350
 9048SOL    HW228044   5.812   2.830   6.384
 9049SOL     OW28045   4.246   6.627   6.255
 9049SOL    HW128046   4.271   6.531   6.238
 9049SOL    HW228047   4.215   6.637   6.349
 9050SOL     OW28048   0.302   5.056   5.748
 9050SOL    HW128049   0.237   5.115   5.796
 9050SOL    HW228050   0.395   5.090   5.760
 9051SOL     OW28051   4.586   6.201   1.016
 9051SOL    HW128052   4.674   6.156   1.006
 9051SOL    HW228053   4.544   6.214   0.926
 9052SOL     OW28054   1.909   2.982   3.361
 9052SOL    HW128055   1.825   2.943   3.398
 9052SOL    HW228056   1.970   3.009   3.436
 9053SOL     OW28057   2.098   1.499   3.148
 9053SOL    HW128058   2.196   1.485   3.165
 9053SOL    HW228059   2.050   1.412   3.160
 9054SOL     OW28060   1.271   0.032   2.267
 9054SOL    HW128061   1.197   6.998   2.231
 9054SOL    HW228062   1.324   7.002   2.334
 9055SOL     OW28063   7.019   3.813   3.123
 9055SOL    HW128064   7.010   3.743   3.194
 9055SOL    HW228065   7.005   3.904   3.163
 9056SOL     OW28066   6.023   6.951   1.929
 9056SOL    HW128067   5.974   7.003   1.859
 9056SOL    HW228068   5.970   6.869   1.953
 9057SOL     OW28069   6.066   5.213   6.149
 9057SOL    HW128070   6.111   5.244   6.233
 9057SOL    HW228071   6.125   5.231   6.071
 9058SOL     OW28072   1.515   2.032   3.528
 9058SOL    HW128073   1.603   2.020   3.481
 9058SOL    HW228074   1.451   2.079   3.467
 9059SOL     OW28075   0.367   1.314   4.117
 9059SOL    HW128076   0.281   1.269   4.141
 9059SOL    HW228077   0.438   1.288   4.183
 9060SOL     OW28078   0.215   3.307   1.579
 9060SOL    HW128079   0.211   3.207   1.582
 9060SOL    HW228080   0.301   3.338   1.620
 9061SOL     OW28081   3.798   5.783   2.213
 9061SOL    HW128082   3.832   5.694   2.180
 9061SOL    HW228083   3.866   5.853   2.192
 9062SOL     OW28084   1.859   5.254   2.324
 9062SOL    HW128085   1.793   5.326   2.300
 9062SOL    HW228086   1.810   5.171   2.350
 9063SOL     OW28087   2.625   0.156   2.792
 9063SOL    HW128088   2.625   0.101   2.708
 9063SOL    HW228089   2.661   0.247   2.772
 9064SOL     OW28090   5.884   3.646   4.375
 9064SOL    HW128091   5.891   3.746   4.378
 9064SOL    HW228092   5.933   3.611   4.295
 9065SOL     OW28093   3.530   5.399   6.844
 9065SOL    HW128094   3.551   5.314   6.796
 9065SOL    HW228095   3.605   5.422   6.906
 9066SOL     OW28096   5.870   0.626   0.177
 9066SOL    HW128097   5.809   0.577   0.114
 9066SOL    HW228098   5.873   0.578   0.264
 9067SOL     OW28099   6.091   6.834   4.980
 9067SOL    HW128100   6.095   6.857   4.882
 9067SOL    HW228101   6.172   6.782   5.005
 9068SOL     OW28102   3.088   0.339   4.887
 9068SOL    HW128103   3.056   0.249   4.860
 9068SOL    HW228104   3.149   0.331   4.965
 9069SOL     OW28105   3.456   2.481   1.655
 9069SOL    HW128106   3.441   2.388   1.688
 9069SOL    HW228107   3.540   2.518   1.694
 9070SOL     OW28108   0.616   3.649   6.198
 9070SOL    HW128109   0.659   3.628   6.286
 9070SOL    HW228110   0.685   3.688   6.136
 9071SOL     OW28111   4.834   6.895   0.634
 9071SOL    HW128112   4.887   6.854   0.708
 9071SOL    HW228113   4.855   6.849   0.548
 9072SOL     OW28114   6.046   1.004   1.347
 9072SOL    HW128115   6.070   1.047   1.260
 9072SOL    HW228116   6.011   0.912   1.330
 9073SOL     OW28117   3.498   6.332   0.869
 9073SOL    HW128118   3.536   6.241   0.855
 9073SOL    HW228119   3.489   6.350   0.967
 9074SOL     OW28120   1.742   0.665   1.862
 9074SOL    HW128121   1.767   0.756   1.894
 9074SOL    HW228122   1.777   0.652   1.769
 9075SOL     OW28123   0.818   0.283   1.091
 9075SOL    HW128124   0.821   0.239   1.181
 9075SOL    HW228125   0.797   0.380   1.104
 9076SOL     OW28126   5.379   1.214   5.135
 9076SOL    HW128127   5.448   1.242   5.068
 9076SOL    HW228128   5.292   1.201   5.088
 9077SOL     OW28129   5.789   0.775   6.948
 9077SOL    HW128130   5.744   0.864   6.956
 9077SOL    HW228131   5.767   0.719   0.004
 9078SOL     OW28132   4.883   3.606   0.443
 9078SOL    HW128133   4.876   3.561   0.354
 9078SOL    HW228134   4.859   3.541   0.515
 9079SOL     OW28135   1.802   6.084   4.480
 9079SOL    HW128136   1.896   6.084   4.446
 9079SOL    HW228137   1.784   5.998   4.528
 9080SOL     OW28138   5.610   2.369   0.142
 9080SOL    HW128139   5.660   2.456   0.140
 9080SOL    HW228140   5.624   2.325   0.230
 9081SOL     OW28141   3.563   6.959   2.363
 9081SOL    HW128142   3.572   0.003   2.289
 9081SOL    HW228143   3.652   6.942   2.404
 9082SOL     OW28144   2.671   6.799   5.545
 9082SOL    HW128145   2.605   6.812   5.472
 9082SOL    HW228146   2.629   6.823   5.633
 9083SOL     OW28147   3.679   4.237   5.961
 9083SOL    HW128148   3.685   4.325   6.009
 9083SOL    HW228149   3.688   4.252   5.862
 9084SOL     OW28150   2.747   2.810   6.049
 9084SOL    HW128151   2.823   2.829   6.110
 9084SOL    HW228152   2.729   2.890   5.992
 9085SOL     OW28153   1.229   4.980   0.612
 9085SOL    HW128154   1.144   4.996   0.562
 9085SOL    HW228155   1.217   4.904   0.676
 9086SOL     OW28156   6.884   4.150   0.762
 9086SOL    HW128157   6.804   4.207   0.744
 9086SOL    HW228158   6.870   4.060   0.721
 9087SOL     OW28159   4.686   2.551   1.708
 9087SOL    HW128160   4.769   2.603   1.728
 9087SOL    HW228161   4.644   2.587   1.624
 9088SOL     OW28162   6.779   6.462   1.137
 9088SOL    HW128163   6.818   6.371   1.125
 9088SOL    HW228164   6.820   6.524   1.070
 9089SOL     OW28165   4.857   6.164   5.162
 9089SOL    HW128166   4.841   6.109   5.080
 9089SOL    HW228167   4.770   6.176   5.211
 9090SOL     OW28168   6.362   6.350   3.680
 9090SOL    HW128169   6.453   6.311   3.690
 9090SOL    HW228170   6.359   6.407   3.598
 9091SOL     OW28171   2.631   3.894   0.839
 9091SOL    HW128172   2.534   3.910   0.826
 9091SOL    HW228173   2.646   3.800   0.869
 9092SOL     OW28174   0.106   0.975   0.771
 9092SOL    HW128175   0.096   0.956   0.869
 9092SOL    HW228176   0.066   0.901   0.718
 9093SOL     OW28177   1.520   6.066   6.535
 9093SOL    HW128178   1.535   6.143   6.473
 9093SOL    HW228179   1.600   6.007   6.535
 9094SOL     OW28180   6.316   5.204   2.900
 9094SOL    HW128181   6.302   5.106   2.916
 9094SOL    HW228182   6.264   5.257   2.967
 9095SOL     OW28183   4.643   3.726   6.775
 9095SOL    HW128184   4.736   3.761   6.786
 9095SOL    HW228185   4.645   3.633   6.738
 9096SOL     OW28186   5.501   3.942   1.674
 9096SOL    HW128187   5.516   4.022   1.615
 9096SOL    HW228188   5.588   3.913   1.712
 9097SOL     OW28189   0.817   2.392   6.910
 9097SOL    HW128190   0.879   2.396   6.988
 9097SOL    HW228191   0.858   2.439   6.832
 9098SOL     OW28192   3.662   2.710   6.878
 9098SOL    HW128193   3.737   2.773   6.862
 9098SOL    HW228194   3.650   2.651   6.798
 9099SOL     OW28195   2.690   3.196   6.887
 9099SOL    HW128196   2.702   3.134   6.810
 9099SOL    HW228197   2.651   3.282   6.854
 9100SOL     OW28198   1.179   3.582   4.283
 9100SOL    HW128199   1.274   3.605   4.262
 9100SOL    HW228200   1.167   3.483   4.278
 9101SOL     OW28201   2.601   2.314   2.921
 9101SOL    HW128202   2.579   2.229   2.874
 9101SOL    HW228203   2.583   2.391   2.860
 9102SOL     OW28204   2.842   0.269   2.197
 9102SOL    HW128205   2.798   0.274   2.287
 9102SOL    HW228206   2.774   0.284   2.126
 9103SOL     OW28207   6.435   3.237   6.724
 9103SOL    HW128208   6.511   3.288   6.762
 9103SOL    HW228209   6.357   3.242   6.786
 9104SOL     OW28210   5.769   6.471   2.688
 9104SOL    HW128211   5.826   6.419   2.751
 9104SOL    HW228212   5.697   6.519   2.739
 9105SOL     OW28213   1.749   1.473   6.965
 9105SOL    HW128214   1.743   1.572   6.974
 9105SOL    HW228215   1.842   1.448   6.938
 9106SOL     OW28216   6.945   3.608   7.020
 9106SOL    HW128217   0.005   3.632   6.971
 9106SOL    HW228218   6.865   3.636   6.966
 9107SOL     OW28219   3.197   0.887   6.157
 9107SOL    HW128220   3.179   0.887   6.255
 9107SOL    HW228221   3.155   0.968   6.116
 9108SOL     OW28222   4.669   3.824   5.730
 9108SOL    HW128223   4.606   3.900   5.741
 9108SOL    HW228224   4.706   3.824   5.638
 9109SOL     OW28225   0.580   2.987   2.671
 9109SOL    HW128226   0.647   2.937   2.726
 9109SOL    HW228227   0.616   3.076   2.645
 9110SOL     OW28228   2.126   3.731   3.985
 9110SOL    HW128229   2.050   3.785   3.950
 9110SOL    HW228230   2.202   3.791   4.011
 9111SOL     OW28231   4.543   1.272   0.651
 9111SOL    HW128232   4.531   1.232   0.741
 9111SOL    HW228233   4.468   1.245   0.591
 9112SOL     OW28234   0.511   4.896   3.901
 9112SOL    HW128235   0.564   4.871   3.982
 9112SOL    HW228236   0.563   4.874   3.819
 9113SOL     OW28237   5.506   0.970   2.434
 9113SOL    HW128238   5.458   1.028   2.368
 9113SOL    HW228239   5.593   1.013   2.459
 9114SOL     OW28240   0.563   4.536   1.850
 9114SOL    HW128241   0.662   4.528   1.861
 9114SOL    HW228242   0.518   4.511   1.936
 9115SOL     OW28243   6.799   4.848   4.876
 9115SOL    HW128244   6.719   4.833   4.934
 9115SOL    HW228245   6.876   4.794   4.911
 9116SOL     OW28246   6.847   1.276   1.820
 9116SOL    HW128247   6.869   1.362   1.772
 9116SOL    HW228248   6.907   1.204   1.787
 9117SOL     OW28249   6.096   2.842   0.462
 9117SOL    HW128250   6.158   2.796   0.399
 9117SOL    HW228251   6.115   2.813   0.555
 9118SOL     OW28252   6.666   3.673   0.220
 9118SOL    HW128253   6.576   3.670   0.264
 9118SOL    HW228254   6.719   3.592   0.248
 9119SOL     OW28255   4.936   0.581   1.882
 9119SOL    HW128256   4.977   0.506   1.933
 9119SOL    HW228257   4.929   0.556   1.785
 9120SOL     OW28258   5.934   1.869   5.702
 9120SOL    HW128259   5.870   1.860   5.626
 9120SOL    HW228260   5.909   1.948   5.758
 9121SOL     OW28261   3.638   1.199   5.046
 9121SOL    HW128262   3.675   1.244   5.127
 9121SOL    HW228263   3.539   1.191   5.055
 9122SOL     OW28264   1.669   4.019   2.480
 9122SOL    HW128265   1.604   4.092   2.501
 9122SOL    HW228266   1.630   3.959   2.410
 9123SOL     OW28267   2.026   1.127   4.027
 9123SOL    HW128268   1.929   1.137   4.045
 9123SOL    HW228269   2.040   1.057   3.956
 9124SOL     OW28270   5.499   6.568   6.898
 9124SOL    HW128271   5.575   6.580   6.962
 9124SOL    HW228272   5.412   6.586   6.945
 9125SOL     OW28273   4.682   3.761   0.894
 9125SOL    HW128274   4.713   3.673   0.857
 9125SOL    HW228275   4.602   3.793   0.843
 9126SOL     OW28276   6.325   3.542   1.518
 9126SOL    HW128277   6.296   3.590   1.435
 9126SOL    HW228278   6.297   3.595   1.598
 9127SOL     OW28279   6.584   1.946   6.101
 9127SOL    HW128280   6.602   1.881   6.175
 9127SOL    HW228281   6.644   2.025   6.111
 9128SOL     OW28282   5.440   1.577   5.470
 9128SOL    HW128283   5.506   1.601   5.399
 9128SOL    HW228284   5.440   1.648   5.541
 9129SOL     OW28285   0.560   2.718   0.259
 9129SOL    HW128286   0.563   2.675   0.349
 9129SOL    HW228287   0.618   2.667   0.195
 9130SOL     OW28288   0.052   3.571   6.510
 9130SOL    HW128289   0.058   3.476   6.544
 9130SOL    HW228290   0.029   3.570   6.413
 9131SOL     OW28291   5.778   2.460   4.866
 9131SOL    HW128292   5.722   2.379   4.851
 9131SOL    HW228293   5.825   2.454   4.954
 9132SOL     OW28294   0.764   5.364   4.455
 9132SOL    HW128295   0.684   5.398   4.405
 9132SOL    HW228296   0.791   5.275   4.417
 9133SOL     OW28297   3.169   6.611   1.597
 9133SOL    HW128298   3.107   6.681   1.561
 9133SOL    HW228299   3.239   6.591   1.528
 9134SOL     OW28300   4.581   5.761   1.104
 9134SOL    HW128301   4.659   5.767   1.165
 9134SOL    HW228302   4.596   5.819   1.024
 9135SOL     OW28303   6.637   6.812   1.923
 9135SOL    HW128304   6.725   6.789   1.882
 9135SOL    HW228305   6.568   6.821   1.852
 9136SOL     OW28306   5.137   6.604   6.778
 9136SOL    HW128307   5.205   6.665   6.819
 9136SOL    HW228308   5.050   6.651   6.772
 9137SOL     OW28309   5.403   1.306   0.298
 9137SOL    HW128310   5.317   1.255   0.289
 9137SOL    HW228311   5.392   1.378   0.367
 9138SOL     OW28312   0.397   6.001   6.922
 9138SOL    HW128313   0.493   6.010   6.948
 9138SOL    HW228314   0.375   6.070   6.853
 9139SOL     OW28315   2.347   1.854   3.189
 9139SOL    HW128316   2.275   1.842   3.257
 9139SOL    HW228317   2.410   1.776   3.194
 9140SOL     OW28318   6.914   3.391   2.721
 9140SOL    HW128319   6.968   3.308   2.734
 9140SOL    HW228320   6.880   3.422   2.810
 9141SOL     OW28321   5.595   0.340   0.645
 9141SOL    HW128322   5.619   0.305   0.735
 9141SOL    HW228323   5.615   0.438   0.640
 9142SOL     OW28324   0.896   2.622   0.813
 9142SOL    HW128325   0.844   2.572   0.883
 9142SOL    HW228326   0.919   2.713   0.847
 9143SOL     OW28327   6.345   3.443   6.918
 9143SOL    HW128328   6.336   3.386   6.999
 9143SOL    HW228329   6.254   3.472   6.887
 9144SOL     OW28330   2.472   5.100   4.361
 9144SOL    HW128331   2.459   5.140   4.452
 9144SOL    HW228332   2.392   5.043   4.339
 9145SOL     OW28333   0.193   5.710   0.130
 9145SOL    HW128334   0.138   5.636   0.091
 9145SOL    HW228335   0.165   5.725   0.225
 9146SOL     OW28336   5.387   2.863   3.527
 9146SOL    HW128337   5.338   2.778   3.547
 9146SOL    HW228338   5.406   2.912   3.612
 9147SOL     OW28339   5.940   0.008   5.108
 9147SOL    HW128340   5.997   6.958   5.070
 9147SOL    HW228341   5.998   0.086   5.133
 9148SOL     OW28342   5.208   6.216   1.227
 9148SOL    HW128343   5.148   6.212   1.307
 9148SOL    HW228344   5.300   6.245   1.255
 9149SOL     OW28345   5.937   3.904   2.779
 9149SOL    HW128346   5.944   3.830   2.847
 9149SOL    HW228347   6.018   3.904   2.721
 9150SOL     OW28348   3.653   5.486   1.238
 9150SOL    HW128349   3.631   5.458   1.332
 9150SOL    HW228350   3.570   5.520   1.193
 9151SOL     OW28351   2.076   4.162   3.335
 9151SOL    HW128352   2.043   4.223   3.263
 9151SOL    HW228353   2.146   4.208   3.390
 9152SOL     OW28354   2.126   4.511   4.815
 9152SOL    HW128355   2.197   4.449   4.781
 9152SOL    HW228356   2.048   4.457   4.847
 9153SOL     OW28357   0.438   2.820   6.821
 9153SOL    HW128358   0.486   2.736   6.847
 9153SOL    HW228359   0.501   2.897   6.827
 9154SOL     OW28360   4.936   4.767   6.883
 9154SOL    HW128361   4.959   4.813   6.797
 9154SOL    HW228362   4.993   4.685   6.893
 9155SOL     OW28363   1.555   3.685   2.085
 9155SOL    HW128364   1.612   3.617   2.039
 9155SOL    HW228365   1.479   3.711   2.025
 9156SOL     OW28366   1.077   2.299   0.148
 9156SOL    HW128367   1.132   2.254   0.077
 9156SOL    HW228368   0.992   2.249   0.161
 9157SOL     OW28369   1.284   3.892   6.427
 9157SOL    HW128370   1.261   3.806   6.471
 9157SOL    HW228371   1.309   3.875   6.332
 9158SOL     OW28372   5.728   3.627   4.802
 9158SOL    HW128373   5.784   3.708   4.785
 9158SOL    HW228374   5.637   3.655   4.832
 9159SOL     OW28375   1.578   1.183   2.150
 9159SOL    HW128376   1.655   1.122   2.167
 9159SOL    HW228377   1.578   1.258   2.216
 9160SOL     OW28378   6.817   6.326   5.616
 9160SOL    HW128379   6.719   6.326   5.634
 9160SOL    HW228380   6.840   6.399   5.552
 9161SOL     OW28381   5.474   5.041   4.065
 9161SOL    HW128382   5.570   5.042   4.036
 9161SOL    HW228383   5.463   5.101   4.144
 9162SOL     OW28384   4.074   1.114   3.388
 9162SOL    HW128385   4.021   1.047   3.336
 9162SOL    HW228386   4.172   1.093   3.379
 9163SOL     OW28387   0.635   2.618   4.470
 9163SOL    HW128388   0.557   2.676   4.491
 9163SOL    HW228389   0.718   2.656   4.511
 9164SOL     OW28390   2.408   0.191   6.980
 9164SOL    HW128391   2.328   0.132   6.992
 9164SOL    HW228392   2.408   0.262   0.028
 9165SOL     OW28393   6.158   0.908   5.414
 9165SOL    HW128394   6.210   0.854   5.348
 9165SOL    HW228395   6.220   0.944   5.484
 9166SOL     OW28396   4.580   6.082   1.310
 9166SOL    HW128397   4.568   6.171   1.353
 9166SOL    HW228398   4.623   6.093   1.221
 9167SOL     OW28399   2.262   1.980   6.142
 9167SOL    HW128400   2.347   2.031   6.153
 9167SOL    HW228401   2.277   1.885   6.171
 9168SOL     OW28402   0.072   6.038   5.795
 9168SOL    HW128403   0.096   5.992   5.709
 9168SOL    HW228404   0.092   5.977   5.871
 9169SOL     OW28405   6.656   0.670   6.090
 9169SOL    HW128406   6.719   0.623   6.153
 9169SOL    HW228407   6.666   0.769   6.100
 9170SOL     OW28408   1.483   0.233   6.484
 9170SOL    HW128409   1.507   0.154   6.541
 9170SOL    HW228410   1.566   0.285   6.464
 9171SOL     OW28411   3.974   5.372   0.264
 9171SOL    HW128412   3.993   5.311   0.341
 9171SOL    HW228413   3.875   5.380   0.252
 9172SOL     OW28414   5.168   0.743   2.648
 9172SOL    HW128415   5.218   0.695   2.720
 9172SOL    HW228416   5.214   0.732   2.561
 9173SOL     OW28417   5.815   4.214   5.986
 9173SOL    HW128418   5.803   4.313   5.977
 9173SOL    HW228419   5.730   4.167   5.963
 9174SOL     OW28420   6.631   4.241   0.711
 9174SOL    HW128421   6.609   4.226   0.615
 9174SOL    HW228422   6.553   4.214   0.768
 9175SOL     OW28423   1.262   6.167   6.551
 9175SOL    HW128424   1.357   6.146   6.528
 9175SOL    HW228425   1.213   6.082   6.574
 9176SOL     OW28426   2.337   0.929   3.250
 9176SOL    HW128427   2.322   1.023   3.221
 9176SOL    HW228428   2.302   0.866   3.180
 9177SOL     OW28429   0.583   4.537   4.213
 9177SOL    HW128430   0.651   4.607   4.232
 9177SOL    HW228431   0.613   4.481   4.137
 9178SOL     OW28432   1.630   5.123   0.985
 9178SOL    HW128433   1.717   5.155   1.023
 9178SOL    HW228434   1.637   5.115   0.886
 9179SOL     OW28435   2.335   5.233   3.860
 9179SOL    HW128436   2.263   5.222   3.929
 9179SOL    HW228437   2.399   5.303   3.890
 9180SOL     OW28438   0.012   2.895   3.640
 9180SOL    HW128439   7.002   2.909   3.547
 9180SOL    HW228440   6.974   2.832   3.688
 9181SOL     OW28441   5.812   2.625   4.428
 9181SOL    HW128442   5.744   2.684   4.472
 9181SOL    HW228443   5.779   2.531   4.430
 9182SOL     OW28444   2.840   0.038   3.071
 9182SOL    HW128445   2.882   6.986   3.021
 9182SOL    HW228446   2.746   0.050   3.040
 9183SOL     OW28447   4.636   4.182   6.797
 9183SOL    HW128448   4.621   4.264   6.852
 9183SOL    HW228449   4.566   4.114   6.818
 9184SOL     OW28450   4.510   1.848   0.959
 9184SOL    HW128451   4.527   1.794   1.041
 9184SOL    HW228452   4.487   1.942   0.985
 9185SOL     OW28453   5.720   6.336   5.412
 9185SOL    HW128454   5.704   6.433   5.428
 9185SOL    HW228455   5.678   6.283   5.486
 9186SOL     OW28456   6.072   7.021   4.479
 9186SOL    HW128457   6.104   0.087   4.444
 9186SOL    HW228458   6.013   0.012   4.558
 9187SOL     OW28459   3.574   2.225   0.432
 9187SOL    HW128460   3.516   2.305   0.444
 9187SOL    HW228461   3.517   2.146   0.408
 9188SOL     OW28462   2.120   0.414   2.059
 9188SOL    HW128463   2.156   0.379   1.973
 9188SOL    HW228464   2.140   0.349   2.132
 9189SOL     OW28465   3.162   5.456   1.825
 9189SOL    HW128466   3.227   5.511   1.877
 9189SOL    HW228467   3.101   5.516   1.773
 9190SOL     OW28468   1.455   3.643   5.450
 9190SOL    HW128469   1.533   3.640   5.513
 9190SOL    HW228470   1.489   3.640   5.356
 9191SOL     OW28471   5.765   1.094   0.069
 9191SOL    HW128472   5.767   1.041   0.154
 9191SOL    HW228473   5.854   1.086   0.023
 9192SOL     OW28474   7.019   2.410   6.259
 9192SOL    HW128475   6.982   2.503   6.270
 9192SOL    HW228476   6.953   2.344   6.294
 9193SOL     OW28477   4.048   3.783   5.087
 9193SOL    HW128478   4.094   3.705   5.130
 9193SOL    HW228479   4.086   3.797   4.996
 9194SOL     OW28480   2.863   1.257   2.613
 9194SOL    HW128481   2.894   1.305   2.532
 9194SOL    HW228482   2.942   1.220   2.662
 9195SOL     OW28483   1.118   3.753   3.171
 9195SOL    HW128484   1.151   3.661   3.191
 9195SOL    HW228485   1.019   3.756   3.183
 9196SOL     OW28486   5.423   6.716   3.645
 9196SOL    HW128487   5.370   6.750   3.567
 9196SOL    HW228488   5.512   6.684   3.612
 9197SOL     OW28489   3.224   4.652   1.469
 9197SOL    HW128490   3.282   4.683   1.544
 9197SOL    HW228491   3.211   4.553   1.475
 9198SOL     OW28492   6.400   4.141   6.266
 9198SOL    HW128493   6.407   4.239   6.284
 9198SOL    HW228494   6.321   4.123   6.208
 9199SOL     OW28495   6.867   3.130   5.450
 9199SOL    HW128496   6.778   3.175   5.439
 9199SOL    HW228497   6.926   3.187   5.508
 9200SOL     OW28498   3.239   6.462   5.814
 9200SOL    HW128499   3.289   6.505   5.889
 9200SOL    HW228500   3.142   6.456   5.836
 9201SOL     OW28501   6.931   3.427   0.202
 9201SOL    HW128502   6.839   3.392   0.183
 9201SOL    HW228503   6.954   3.496   0.132
 9202SOL     OW28504   0.781   6.146   3.717
 9202SOL    HW128505   0.858   6.210   3.714
 9202SOL    HW228506   0.791   6.080   3.643
 9203SOL     OW28507   6.309   2.955   6.057
 9203SOL    HW128508   6.301   2.999   6.147
 9203SOL    HW228509   6.253   3.005   5.991
 9204SOL     OW28510   5.027   3.600   4.320
 9204SOL    HW128511   5.120   3.564   4.327
 9204SOL    HW228512   4.982   3.594   4.409
 9205SOL     OW28513   5.358   5.558   3.307
 9205SOL    HW128514   5.400   5.608   3.384
 9205SOL    HW228515   5.300   5.621   3.255
 9206SOL     OW28516   3.463   5.641   3.235
 9206SOL    HW128517   3.518   5.561   3.260
 9206SOL    HW228518   3.409   5.619   3.153
 9207SOL     OW28519   4.803   4.028   0.417
 9207SOL    HW128520   4.738   3.953   0.409
 9207SOL    HW228521   4.771   4.092   0.488
 9208SOL     OW28522   5.554   4.598   3.018
 9208SOL    HW128523   5.467   4.646   3.027
 9208SOL    HW228524   5.548   4.510   3.066
 9209SOL     OW28525   4.716   1.069   0.150
 9209SOL    HW128526   4.616   1.066   0.145
 9209SOL    HW228527   4.743   1.145   0.209
 9210SOL     OW28528   1.232   1.830   1.471
 9210SOL    HW128529   1.256   1.788   1.558
 9210SOL    HW228530   1.189   1.919   1.487
 9211SOL     OW28531   6.069   2.529   5.995
 9211SOL    HW128532   6.138   2.600   5.983
 9211SOL    HW228533   6.105   2.457   6.055
 9212SOL     OW28534   5.098   5.126   3.974
 9212SOL    HW128535   5.023   5.183   4.007
 9212SOL    HW228536   5.185   5.171   3.993
 9213SOL     OW28537   5.437   4.732   4.926
 9213SOL    HW128538   5.393   4.727   4.836
 9213SOL    HW228539   5.420   4.647   4.976
 9214SOL     OW28540   0.082   3.100   5.305
 9214SOL    HW128541   7.017   3.132   5.341
 9214SOL    HW228542   0.150   3.172   5.317
 9215SOL     OW28543   1.887   3.814   2.078
 9215SOL    HW128544   1.877   3.717   2.102
 9215SOL    HW228545   1.939   3.822   1.993
 9216SOL     OW28546   2.698   6.832   3.188
 9216SOL    HW128547   2.723   6.927   3.205
 9216SOL    HW228548   2.781   6.776   3.185
 9217SOL     OW28549   5.998   3.597   6.260
 9217SOL    HW128550   6.038   3.640   6.179
 9217SOL    HW228551   6.033   3.504   6.269
 9218SOL     OW28552   3.265   0.747   7.005
 9218SOL    HW128553   3.300   0.817   6.943
 9218SOL    HW228554   3.279   0.657   6.965
 9219SOL     OW28555   5.233   3.908   6.174
 9219SOL    HW128556   5.263   3.918   6.269
 9219SOL    HW228557   5.296   3.957   6.114
 9220SOL     OW28558   1.162   6.227   2.159
 9220SOL    HW128559   1.121   6.159   2.220
 9220SOL    HW228560   1.207   6.298   2.214
 9221SOL     OW28561   1.643   0.399   3.116
 9221SOL    HW128562   1.699   0.480   3.128
 9221SOL    HW228563   1.560   0.408   3.172
 9222SOL     OW28564   2.708   5.855   5.357
 9222SOL    HW128565   2.677   5.942   5.394
 9222SOL    HW228566   2.720   5.863   5.258
 9223SOL     OW28567   1.674   2.364   4.187
 9223SOL    HW128568   1.639   2.377   4.280
 9223SOL    HW228569   1.672   2.267   4.163
 9224SOL     OW28570   0.918   5.531   4.191
 9224SOL    HW128571   0.886   5.526   4.096
 9224SOL    HW228572   0.957   5.443   4.218
 9225SOL     OW28573   3.192   6.319   6.177
 9225SOL    HW128574   3.234   6.277   6.097
 9225SOL    HW228575   3.109   6.367   6.150
 9226SOL     OW28576   0.264   6.816   1.545
 9226SOL    HW128577   0.289   6.745   1.611
 9226SOL    HW228578   0.178   6.860   1.574
 9227SOL     OW28579   1.843   5.492   1.135
 9227SOL    HW128580   1.789   5.472   1.217
 9227SOL    HW228581   1.928   5.537   1.161
 9228SOL     OW28582   3.112   0.867   6.510
 9228SOL    HW128583   3.143   0.919   6.590
 9228SOL    HW228584   3.047   0.922   6.458
 9229SOL     OW28585   0.782   5.096   5.624
 9229SOL    HW128586   0.837   5.179   5.633
 9229SOL    HW228587   0.837   5.016   5.650
 9230SOL     OW28588   5.052   3.093   3.627
 9230SOL    HW128589   5.029   3.009   3.677
 9230SOL    HW228590   5.111   3.070   3.549
 9231SOL     OW28591   1.422   3.678   4.546
 9231SOL    HW128592   1.323   3.681   4.563
 9231SOL    HW228593   1.456   3.772   4.537
 9232SOL     OW28594   3.832   5.233   6.748
 9232SOL    HW128595   3.738   5.201   6.735
 9232SOL    HW228596   3.894   5.155   6.757
 9233SOL     OW28597   6.135   5.925   1.677
 9233SOL    HW128598   6.041   5.891   1.672
 9233SOL    HW228599   6.138   6.020   1.647
 9234SOL     OW28600   3.300   5.697   0.253
 9234SOL    HW128601   3.207   5.717   0.283
 9234SOL    HW228602   3.362   5.701   0.331
 9235SOL     OW28603   1.962   2.671   3.592
 9235SOL    HW128604   1.938   2.750   3.535
 9235SOL    HW228605   1.878   2.627   3.626
 9236SOL     OW28606   1.885   4.175   6.757
 9236SOL    HW128607   1.980   4.205   6.771
 9236SOL    HW228608   1.824   4.254   6.761
 9237SOL     OW28609   0.244   6.081   3.246
 9237SOL    HW128610   0.219   6.129   3.330
 9237SOL    HW228611   0.262   5.985   3.267
 9238SOL     OW28612   1.908   2.767   6.382
 9238SOL    HW128613   1.882   2.680   6.423
 9238SOL    HW228614   2.008   2.775   6.381
 9239SOL     OW28615   0.061   3.973   6.722
 9239SOL    HW128616   0.118   4.053   6.706
 9239SOL    HW228617   0.007   3.986   6.805
 9240SOL     OW28618   5.371   2.717   2.466
 9240SOL    HW128619   5.361   2.685   2.372
 9240SOL    HW228620   5.320   2.657   2.527
 9241SOL     OW28621   0.784   5.186   6.375
 9241SOL    HW128622   0.702   5.159   6.425
 9241SOL    HW228623   0.813   5.111   6.314
 9242SOL     OW28624   1.375   4.580   0.674
 9242SOL    HW128625   1.467   4.593   0.636
 9242SOL    HW228626   1.382   4.566   0.772
 9243SOL     OW28627   0.807   0.221   1.365
 9243SOL    HW128628   0.782   0.125   1.357
 9243SOL    HW228629   0.724   0.277   1.357
 9244SOL     OW28630   3.319   4.696   5.892
 9244SOL    HW128631   3.282   4.699   5.800
 9244SOL    HW228632   3.251   4.729   5.957
 9245SOL     OW28633   1.344   5.562   3.968
 9245SOL    HW128634   1.348   5.539   4.065
 9245SOL    HW228635   1.332   5.661   3.958
 9246SOL     OW28636   6.690   6.574   2.405
 9246SOL    HW128637   6.749   6.623   2.468
 9246SOL    HW228638   6.683   6.625   2.319
 9247SOL     OW28639   2.574   6.124   3.270
 9247SOL    HW128640   2.663   6.134   3.315
 9247SOL    HW228641   2.507   6.089   3.336
 9248SOL     OW28642   2.841   1.941   4.268
 9248SOL    HW128643   2.844   2.007   4.193
 9248SOL    HW228644   2.748   1.903   4.274
 9249SOL     OW28645   3.517   4.556   1.091
 9249SOL    HW128646   3.450   4.627   1.067
 9249SOL    HW228647   3.585   4.595   1.153
 9250SOL     OW28648   6.030   2.919   4.202
 9250SOL    HW128649   6.041   2.835   4.256
 9250SOL    HW228650   5.983   2.898   4.116
 9251SOL     OW28651   3.918   1.620   2.949
 9251SOL    HW128652   3.982   1.543   2.947
 9251SOL    HW228653   3.909   1.654   3.043
 9252SOL     OW28654   5.135   0.825   4.057
 9252SOL    HW128655   5.161   0.852   4.150
 9252SOL    HW228656   5.085   0.738   4.060
 9253SOL     OW28657   5.423   5.224   5.709
 9253SOL    HW128658   5.347   5.166   5.676
 9253SOL    HW228659   5.458   5.279   5.633
 9254SOL     OW28660   5.758   5.221   3.336
 9254SOL    HW128661   5.661   5.243   3.331
 9254SOL    HW228662   5.792   5.236   3.429
 9255SOL     OW28663   4.542   4.256   0.904
 9255SOL    HW128664   4.561   4.165   0.868
 9255SOL    HW228665   4.583   4.266   0.995
 9256SOL     OW28666   2.908   0.674   2.693
 9256SOL    HW128667   2.972   0.646   2.622
 9256SOL    HW228668   2.958   0.702   2.775
 9257SOL     OW28669   0.163   4.047   3.331
 9257SOL    HW128670   0.114   4.095   3.259
 9257SOL    HW228671   0.247   4.008   3.293
 9258SOL     OW28672   3.402   4.158   2.917
 9258SOL    HW128673   3.496   4.149   2.885
 9258SOL    HW228674   3.394   4.123   3.010
 9259SOL     OW28675   0.133   2.126   0.109
 9259SOL    HW128676   0.168   2.159   0.197
 9259SOL    HW228677   0.107   2.204   0.052
 9260SOL     OW28678   5.983   1.733   5.400
 9260SOL    HW128679   5.962   1.821   5.358
 9260SOL    HW228680   5.909   1.707   5.461
 9261SOL     OW28681   2.760   1.180   0.235
 9261SOL    HW128682   2.751   1.083   0.214
 9261SOL    HW228683   2.674   1.214   0.272
 9262SOL     OW28684   6.487   4.846   4.960
 9262SOL    HW128685   6.445   4.774   4.904
 9262SOL    HW228686   6.489   4.931   4.908
 9263SOL     OW28687   4.743   0.213   1.623
 9263SOL    HW128688   4.649   0.236   1.647
 9263SOL    HW228689   4.763   0.119   1.652
 9264SOL     OW28690   4.994   4.432   0.387
 9264SOL    HW128691   4.999   4.518   0.337
 9264SOL    HW228692   5.080   4.417   0.436
 9265SOL     OW28693   4.271   2.351   0.429
 9265SOL    HW128694   4.306   2.410   0.357
 9265SOL    HW228695   4.206   2.402   0.486
 9266SOL     OW28696   1.289   6.614   1.069
 9266SOL    HW128697   1.268   6.654   1.158
 9266SOL    HW228698   1.221   6.544   1.047
 9267SOL     OW28699   6.831   2.607   4.630
 9267SOL    HW128700   6.777   2.526   4.607
 9267SOL    HW228701   6.922   2.599   4.589
 9268SOL     OW28702   1.308   5.089   2.506
 9268SOL    HW128703   1.350   5.093   2.416
 9268SOL    HW228704   1.222   5.141   2.505
 9269SOL     OW28705   4.046   1.230   6.337
 9269SOL    HW128706   4.090   1.144   6.364
 9269SOL    HW228707   4.115   1.301   6.324
 9270SOL     OW28708   4.357   6.803   5.932
 9270SOL    HW128709   4.404   6.730   5.981
 9270SOL    HW228710   4.266   6.817   5.973
 9271SOL     OW28711   5.755   0.155   1.156
 9271SOL    HW128712   5.838   0.126   1.109
 9271SOL    HW228713   5.764   0.251   1.183
 9272SOL     OW28714   1.061   5.863   5.280
 9272SOL    HW128715   1.008   5.847   5.197
 9272SOL    HW228716   0.999   5.867   5.358
 9273SOL     OW28717   5.527   6.610   2.752
 9273SOL    HW128718   5.451   6.674   2.766
 9273SOL    HW228719   5.505   6.547   2.678
 9274SOL     OW28720   6.345   1.287   0.388
 9274SOL    HW128721   6.254   1.322   0.408
 9274SOL    HW228722   6.408   1.363   0.374
 9275SOL     OW28723   6.502   1.035   0.444
 9275SOL    HW128724   6.473   1.120   0.487
 9275SOL    HW228725   6.500   0.961   0.511
 9276SOL     OW28726   1.565   3.293   1.472
 9276SOL    HW128727   1.618   3.376   1.460
 9276SOL    HW228728   1.513   3.275   1.388
 9277SOL     OW28729   4.423   4.188   0.425
 9277SOL    HW128730   4.344   4.135   0.456
 9277SOL    HW228731   4.507   4.146   0.460
 9278SOL     OW28732   1.962   0.258   5.931
 9278SOL    HW128733   1.985   0.306   5.847
 9278SOL    HW228734   2.003   0.305   6.009
 9279SOL     OW28735   3.554   0.974   2.316
 9279SOL    HW128736   3.545   1.030   2.234
 9279SOL    HW228737   3.556   0.878   2.290
 9280SOL     OW28738   2.049   1.712   2.971
 9280SOL    HW128739   2.068   1.634   3.031
 9280SOL    HW228740   2.130   1.769   2.963
 9281SOL     OW28741   2.255   3.544   6.391
 9281SOL    HW128742   2.159   3.517   6.378
 9281SOL    HW228743   2.260   3.644   6.399
 9282SOL     OW28744   5.488   0.363   3.707
 9282SOL    HW128745   5.537   0.331   3.626
 9282SOL    HW228746   5.548   0.358   3.786
 9283SOL     OW28747   5.292   0.951   3.816
 9283SOL    HW128748   5.210   0.898   3.834
 9283SOL    HW228749   5.313   0.949   3.719
 9284SOL     OW28750   2.669   3.324   5.392
 9284SOL    HW128751   2.749   3.377   5.364
 9284SOL    HW228752   2.675   3.232   5.355
 9285SOL     OW28753   4.641   2.219   0.830
 9285SOL    HW128754   4.638   2.319   0.834
 9285SOL    HW228755   4.571   2.181   0.890
 9286SOL     OW28756   5.396   5.698   1.106
 9286SOL    HW128757   5.347   5.642   1.039
 9286SOL    HW228758   5.461   5.757   1.058
 9287SOL     OW28759   3.438   5.042   0.437
 9287SOL    HW128760   3.405   5.126   0.479
 9287SOL    HW228761   3.451   4.972   0.508
 9288SOL     OW28762   4.501   1.511   2.898
 9288SOL    HW128763   4.459   1.466   2.819
 9288SOL    HW228764   4.574   1.572   2.866
 9289SOL     OW28765   3.781   0.485   2.019
 9289SOL    HW128766   3.694   0.452   2.055
 9289SOL    HW228767   3.773   0.499   1.920
 9290SOL     OW28768   5.768   1.209   2.930
 9290SOL    HW128769   5.765   1.132   2.865
 9290SOL    HW228770   5.675   1.237   2.952
 9291SOL     OW28771   1.154   5.817   5.739
 9291SOL    HW128772   1.148   5.759   5.657
 9291SOL    HW228773   1.250   5.830   5.763
 9292SOL     OW28774   1.811   3.107   6.453
 9292SOL    HW128775   1.857   3.068   6.533
 9292SOL    HW228776   1.841   3.059   6.370
 9293SOL     OW28777   5.482   2.740   6.327
 9293SOL    HW128778   5.491   2.789   6.241
 9293SOL    HW228779   5.439   2.652   6.311
 9294SOL     OW28780   4.499   7.013   6.042
 9294SOL    HW128781   4.515   0.073   5.989
 9294SOL    HW228782   4.469   6.940   5.981
 9295SOL     OW28783   5.600   0.987   5.250
 9295SOL    HW128784   5.651   0.994   5.336
 9295SOL    HW228785   5.502   0.986   5.270
 9296SOL     OW28786   1.707   5.756   6.962
 9296SOL    HW128787   1.785   5.781   6.905
 9296SOL    HW228788   1.705   5.657   6.975
 9297SOL     OW28789   0.770   6.600   2.690
 9297SOL    HW128790   0.677   6.593   2.654
 9297SOL    HW228791   0.785   6.693   2.724
 9298SOL     OW28792   1.034   6.559   6.467
 9298SOL    HW128793   0.981   6.494   6.413
 9298SOL    HW228794   1.077   6.626   6.406
 9299SOL     OW28795   0.574   2.430   4.751
 9299SOL    HW128796   0.553   2.528   4.754
 9299SOL    HW228797   0.668   2.416   4.784
 9300SOL     OW28798   0.102   4.505   5.955
 9300SOL    HW128799   0.195   4.469   5.948
 9300SOL    HW228800   0.048   4.448   6.017
 9301SOL     OW28801   5.546   5.552   4.360
 9301SOL    HW128802   5.566   5.647   4.387
 9301SOL    HW228803   5.631   5.505   4.339
 9302SOL     OW28804   2.432   2.596   4.163
 9302SOL    HW128805   2.370   2.665   4.199
 9302SOL    HW228806   2.415   2.582   4.065
 9303SOL     OW28807   2.838   3.943   1.002
 9303SOL    HW128808   2.740   3.927   1.010
 9303SOL    HW228809   2.864   3.944   0.905
 9304SOL     OW28810   4.045   4.614   1.808
 9304SOL    HW128811   3.978   4.565   1.753
 9304SOL    HW228812   4.128   4.559   1.817
 9305SOL     OW28813   3.165   1.085   0.848
 9305SOL    HW128814   3.135   1.133   0.930
 9305SOL    HW228815   3.196   1.151   0.779
 9306SOL     OW28816   0.612   4.860   5.506
 9306SOL    HW128817   0.555   4.889   5.429
 9306SOL    HW228818   0.649   4.940   5.553
 9307SOL     OW28819   1.212   3.483   1.155
 9307SOL    HW128820   1.193   3.458   1.250
 9307SOL    HW228821   1.169   3.570   1.134
 9308SOL     OW28822   2.089   3.562   0.312
 9308SOL    HW128823   2.143   3.497   0.258
 9308SOL    HW228824   2.064   3.521   0.399
 9309SOL     OW28825   3.600   4.957   6.147
 9309SOL    HW128826   3.684   5.010   6.149
 9309SOL    HW228827   3.613   4.875   6.091
 9310SOL     OW28828   5.489   5.280   5.959
 9310SOL    HW128829   5.485   5.380   5.963
 9310SOL    HW228830   5.450   5.248   5.873
 9311SOL     OW28831   4.641   4.578   1.678
 9311SOL    HW128832   4.720   4.627   1.714
 9311SOL    HW228833   4.576   4.560   1.751
 9312SOL     OW28834   1.108   3.583   0.851
 9312SOL    HW128835   1.101   3.666   0.906
 9312SOL    HW228836   1.182   3.594   0.784
 9313SOL     OW28837   0.138   0.238   0.894
 9313SOL    HW128838   0.215   0.301   0.893
 9313SOL    HW228839   0.158   0.162   0.956
 9314SOL     OW28840   5.732   4.348   7.004
 9314SOL    HW128841   5.722   4.350   0.080
 9314SOL    HW228842   5.760   4.438   6.971
 9315SOL     OW28843   6.332   0.084   5.429
 9315SOL    HW128844   6.286   0.016   5.485
 9315SOL    HW228845   6.428   0.058   5.416
 9316SOL     OW28846   5.511   6.649   5.783
 9316SOL    HW128847   5.569   6.679   5.859
 9316SOL    HW228848   5.429   6.705   5.779
 9317SOL     OW28849   5.541   5.285   3.788
 9317SOL    HW128850   5.491   5.210   3.745
 9317SOL    HW228851   5.504   5.301   3.880
 9318SOL     OW28852   5.911   1.400   6.054
 9318SOL    HW128853   5.840   1.330   6.045
 9318SOL    HW228854   5.924   1.445   5.965
 9319SOL     OW28855   2.736   2.579   6.590
 9319SOL    HW128856   2.833   2.558   6.600
 9319SOL    HW228857   2.682   2.515   6.643
 9320SOL     OW28858   3.291   0.515   4.745
 9320SOL    HW128859   3.282   0.611   4.720
 9320SOL    HW228860   3.227   0.494   4.819
 9321SOL     OW28861   0.281   0.240   4.707
 9321SOL    HW128862   0.281   0.314   4.639
 9321SOL    HW228863   0.325   0.272   4.791
 9322SOL     OW28864   6.761   3.470   6.208
 9322SOL    HW128865   6.675   3.511   6.178
 9322SOL    HW228866   6.794   3.406   6.139
 9323SOL     OW28867   1.341   0.588   5.382
 9323SOL    HW128868   1.427   0.552   5.420
 9323SOL    HW228869   1.342   0.688   5.388
 9324SOL     OW28870   1.354   4.162   1.761
 9324SOL    HW128871   1.273   4.210   1.728
 9324SOL    HW228872   1.416   4.229   1.803
 9325SOL     OW28873   5.856   1.373   0.282
 9325SOL    HW128874   5.886   1.326   0.199
 9325SOL    HW228875   5.813   1.460   0.258
 9326SOL     OW28876   2.775   4.752   0.562
 9326SOL    HW128877   2.716   4.772   0.640
 9326SOL    HW228878   2.785   4.653   0.552
 9327SOL     OW28879   4.505   0.114   2.288
 9327SOL    HW128880   4.502   0.093   2.386
 9327SOL    HW228881   4.523   0.212   2.277
 9328SOL     OW28882   2.499   1.092   4.846
 9328SOL    HW128883   2.400   1.105   4.836
 9328SOL    HW228884   2.547   1.167   4.801
 9329SOL     OW28885   5.803   3.715   0.943
 9329SOL    HW128886   5.762   3.672   1.024
 9329SOL    HW228887   5.850   3.645   0.889
 9330SOL     OW28888   6.291   0.317   5.295
 9330SOL    HW128889   6.318   0.235   5.345
 9330SOL    HW228890   6.233   0.374   5.354
 9331SOL     OW28891   2.296   1.057   6.684
 9331SOL    HW128892   2.394   1.050   6.702
 9331SOL    HW228893   2.280   1.053   6.585
 9332SOL     OW28894   4.104   4.720   0.719
 9332SOL    HW128895   4.180   4.765   0.671
 9332SOL    HW228896   4.090   4.764   0.808
 9333SOL     OW28897   3.569   4.311   6.594
 9333SOL    HW128898   3.482   4.269   6.570
 9333SOL    HW228899   3.557   4.410   6.605
 9334SOL     OW28900   4.953   6.754   3.799
 9334SOL    HW128901   5.046   6.774   3.829
 9334SOL    HW228902   4.955   6.716   3.707
 9335SOL     OW28903   1.179   0.779   6.854
 9335SOL    HW128904   1.192   0.705   6.920
 9335SOL    HW228905   1.098   0.760   6.798
 9336SOL     OW28906   3.489   6.529   5.335
 9336SOL    HW128907   3.481   6.558   5.240
 9336SOL    HW228908   3.429   6.586   5.392
 9337SOL     OW28909   4.243   1.096   4.878
 9337SOL    HW128910   4.295   1.108   4.963
 9337SOL    HW228911   4.145   1.106   4.898
 9338SOL     OW28912   6.277   0.129   1.597
 9338SOL    HW128913   6.337   0.174   1.530
 9338SOL    HW228914   6.193   0.101   1.551
 9339SOL     OW28915   6.136   6.218   0.726
 9339SOL    HW128916   6.115   6.314   0.748
 9339SOL    HW228917   6.235   6.207   0.717
 9340SOL     OW28918   4.600   4.778   3.359
 9340SOL    HW128919   4.593   4.681   3.334
 9340SOL    HW228920   4.580   4.788   3.456
 9341SOL     OW28921   6.591   4.991   1.045
 9341SOL    HW128922   6.658   4.964   1.114
 9341SOL    HW228923   6.622   4.962   0.955
 9342SOL     OW28924   3.128   0.077   4.026
 9342SOL    HW128925   3.082   0.083   3.937
 9342SOL    HW228926   3.175   0.163   4.044
 9343SOL     OW28927   5.162   3.935   1.613
 9343SOL    HW128928   5.066   3.963   1.612
 9343SOL    HW228929   5.211   3.986   1.683
 9344SOL     OW28930   5.302   6.476   2.032
 9344SOL    HW128931   5.349   6.559   2.003
 9344SOL    HW228932   5.237   6.498   2.106
 9345SOL     OW28933   6.912   5.870   1.975
 9345SOL    HW128934   6.869   5.813   1.905
 9345SOL    HW228935   6.870   5.961   1.974
 9346SOL     OW28936   5.523   0.851   1.520
 9346SOL    HW128937   5.586   0.928   1.526
 9346SOL    HW228938   5.572   0.766   1.536
 9347SOL     OW28939   3.600   4.067   0.530
 9347SOL    HW128940   3.661   4.132   0.483
 9347SOL    HW228941   3.643   3.977   0.531
 9348SOL     OW28942   2.335   6.299   2.735
 9348SOL    HW128943   2.353   6.201   2.736
 9348SOL    HW228944   2.345   6.335   2.642
 9349SOL     OW28945   5.884   4.912   1.944
 9349SOL    HW128946   5.845   4.911   2.036
 9349SOL    HW228947   5.947   4.835   1.933
 9350SOL     OW28948   0.101   2.499   5.594
 9350SOL    HW128949   0.061   2.547   5.673
 9350SOL    HW228950   0.141   2.566   5.532
 9351SOL     OW28951   3.123   0.381   6.136
 9351SOL    HW128952   3.153   0.347   6.225
 9351SOL    HW228953   3.203   0.391   6.076
 9352SOL     OW28954   3.768   1.151   6.278
 9352SOL    HW128955   3.854   1.203   6.274
 9352SOL    HW228956   3.778   1.073   6.340
 9353SOL     OW28957   0.592   4.178   0.832
 9353SOL    HW128958   0.652   4.244   0.878
 9353SOL    HW228959   0.574   4.209   0.739
 9354SOL     OW28960   0.082   2.165   5.866
 9354SOL    HW128961   7.007   2.149   5.864
 9354SOL    HW228962   0.126   2.096   5.923
 9355SOL     OW28963   6.991   1.928   4.733
 9355SOL    HW128964   0.058   1.960   4.762
 9355SOL    HW228965   6.997   1.832   4.705
 9356SOL     OW28966   4.598   6.066   2.075
 9356SOL    HW128967   4.572   6.162   2.076
 9356SOL    HW228968   4.628   6.040   1.982
 9357SOL     OW28969   1.246   3.196   6.726
 9357SOL    HW128970   1.267   3.242   6.639
 9357SOL    HW228971   1.323   3.207   6.789
 9358SOL     OW28972   6.858   3.021   2.347
 9358SOL    HW128973   6.849   3.110   2.392
 9358SOL    HW228974   6.862   3.034   2.248
 9359SOL     OW28975   1.880   3.682   5.550
 9359SOL    HW128976   1.788   3.683   5.590
 9359SOL    HW228977   1.948   3.683   5.624
 9360SOL     OW28978   1.336   5.361   6.840
 9360SOL    HW128979   1.335   5.269   6.880
 9360SOL    HW228980   1.290   5.425   6.902
 9361SOL     OW28981   1.671   5.345   2.625
 9361SOL    HW128982   1.590   5.373   2.677
 9361SOL    HW228983   1.651   5.260   2.576
 9362SOL     OW28984   2.026   3.168   2.518
 9362SOL    HW128985   1.965   3.100   2.477
 9362SOL    HW228986   2.078   3.126   2.591
 9363SOL     OW28987   3.442   6.408   2.240
 9363SOL    HW128988   3.479   6.479   2.299
 9363SOL    HW228989   3.450   6.436   2.144
 9364SOL     OW28990   3.496   3.046   6.283
 9364SOL    HW128991   3.410   3.030   6.235
 9364SOL    HW228992   3.477   3.083   6.374
 9365SOL     OW28993   2.330   1.818   4.388
 9365SOL    HW128994   2.359   1.818   4.484
 9365SOL    HW228995   2.261   1.746   4.374
 9366SOL     OW28996   3.687   5.810   6.363
 9366SOL    HW128997   3.773   5.777   6.325
 9366SOL    HW228998   3.699   5.830   6.460
 9367SOL     OW28999   0.062   6.915   3.024
 9367SOL    HW129000   0.084   6.834   2.970
 9367SOL    HW229001   6.989   6.938   3.012
 9368SOL     OW29002   2.606   1.193   2.672
 9368SOL    HW129003   2.597   1.207   2.771
 9368SOL    HW229004   2.700   1.208   2.645
 9369SOL     OW29005   6.680   5.811   4.864
 9369SOL    HW129006   6.648   5.842   4.775
 9369SOL    HW229007   6.733   5.884   4.908
 9370SOL     OW29008   5.642   0.052   3.522
 9370SOL    HW129009   5.558   0.042   3.469
 9370SOL    HW229010   5.663   0.149   3.534
 9371SOL     OW29011   2.880   5.200   1.085
 9371SOL    HW129012   2.856   5.167   0.994
 9371SOL    HW229013   2.899   5.122   1.145
 9372SOL     OW29014   5.037   0.551   2.256
 9372SOL    HW129015   5.110   0.573   2.321
 9372SOL    HW229016   4.955   0.603   2.279
 9373SOL     OW29017   5.330   1.802   2.372
 9373SOL    HW129018   5.360   1.796   2.467
 9373SOL    HW229019   5.382   1.873   2.325
 9374SOL     OW29020   0.157   3.841   0.114
 9374SOL    HW129021   0.065   3.851   0.077
 9374SOL    HW229022   0.200   3.759   0.075
 9375SOL     OW29023   0.745   1.338   1.376
 9375SOL    HW129024   0.706   1.298   1.293
 9375SOL    HW229025   0.792   1.267   1.428
 9376SOL     OW29026   2.594   4.075   1.391
 9376SOL    HW129027   2.591   4.131   1.308
 9376SOL    HW229028   2.511   4.090   1.444
 9377SOL     OW29029   1.934   5.479   3.782
 9377SOL    HW129030   1.982   5.503   3.866
 9377SOL    HW229031   1.843   5.444   3.804
 9378SOL     OW29032   1.787   0.964   3.801
 9378SOL    HW129033   1.758   1.029   3.871
 9378SOL    HW229034   1.748   0.991   3.712
 9379SOL     OW29035   5.038   6.667   5.755
 9379SOL    HW129036   5.084   6.611   5.824
 9379SOL    HW229037   4.947   6.630   5.737
 9380SOL     OW29038   4.673   5.498   5.266
 9380SOL    HW129039   4.767   5.497   5.231
 9380SOL    HW229040   4.671   5.456   5.357
 9381SOL     OW29041   4.193   3.191   5.770
 9381SOL    HW129042   4.155   3.130   5.839
 9381SOL    HW229043   4.284   3.159   5.744
 9382SOL     OW29044   3.446   0.950   4.050
 9382SOL    HW129045   3.533   0.905   4.036
 9382SOL    HW229046   3.414   0.935   4.144
 9383SOL     OW29047   6.825   5.728   4.584
 9383SOL    HW129048   6.891   5.689   4.649
 9383SOL    HW229049   6.873   5.785   4.517
 9384SOL     OW29050   4.147   0.705   1.823
 9384SOL    HW129051   4.198   0.623   1.798
 9384SOL    HW229052   4.055   0.701   1.784
 9385SOL     OW29053   3.957   1.432   3.366
 9385SOL    HW129054   4.018   1.502   3.329
 9385SOL    HW229055   4.005   1.345   3.372
 9386SOL     OW29056   2.724   5.836   5.086
 9386SOL    HW129057   2.795   5.878   5.030
 9386SOL    HW229058   2.694   5.751   5.042
 9387SOL     OW29059   2.870   1.682   0.206
 9387SOL    HW129060   2.840   1.622   0.280
 9387SOL    HW229061   2.822   1.657   0.122
 9388SOL     OW29062   2.777   5.834   3.287
 9388SOL    HW129063   2.769   5.920   3.339
 9388SOL    HW229064   2.835   5.850   3.207
 9389SOL     OW29065   2.031   0.612   3.468
 9389SOL    HW129066   2.104   0.638   3.404
 9389SOL    HW229067   1.984   0.531   3.433
 9390SOL     OW29068   5.624   4.794   6.722
 9390SOL    HW129069   5.676   4.849   6.786
 9390SOL    HW229070   5.640   4.827   6.629
 9391SOL     OW29071   1.423   1.023   5.266
 9391SOL    HW129072   1.417   1.111   5.218
 9391SOL    HW229073   1.406   0.949   5.201
 9392SOL     OW29074   5.734   5.260   5.826
 9392SOL    HW129075   5.788   5.297   5.902
 9392SOL    HW229076   5.638   5.285   5.838
 9393SOL     OW29077   3.274   6.802   6.769
 9393SOL    HW129078   3.240   6.769   6.681
 9393SOL    HW229079   3.342   6.874   6.753
 9394SOL     OW29080   6.857   0.661   1.782
 9394SOL    HW129081   6.783   0.716   1.821
 9394SOL    HW229082   6.817   0.587   1.727
 9395SOL     OW29083   3.521   1.550   1.226
 9395SOL    HW129084   3.605   1.514   1.183
 9395SOL    HW229085   3.493   1.489   1.300
 9396SOL     OW29086   2.305   4.207   4.176
 9396SOL    HW129087   2.252   4.156   4.245
 9396SOL    HW229088   2.354   4.282   4.221
 9397SOL     OW29089   3.754   6.321   6.034
 9397SOL    HW129090   3.787   6.363   6.119
 9397SOL    HW229091   3.654   6.325   6.032
 9398SOL     OW29092   6.071   0.835   4.951
 9398SOL    HW129093   6.045   0.833   5.047
 9398SOL    HW229094   6.094   0.928   4.924
 9399SOL     OW29095   1.339   2.967   5.075
 9399SOL    HW129096   1.423   2.928   5.036
 9399SOL    HW229097   1.312   2.915   5.156
 9400SOL     OW29098   5.055   1.350   0.886
 9400SOL    HW129099   5.029   1.430   0.940
 9400SOL    HW229100   4.995   1.342   0.806
 9401SOL     OW29101   6.610   1.004   3.443
 9401SOL    HW129102   6.571   0.968   3.359
 9401SOL    HW229103   6.628   1.102   3.433
 9402SOL     OW29104   1.222   5.486   2.533
 9402SOL    HW129105   1.288   5.551   2.496
 9402SOL    HW229106   1.189   5.518   2.622
 9403SOL     OW29107   6.618   1.403   1.618
 9403SOL    HW129108   6.574   1.381   1.531
 9403SOL    HW229109   6.564   1.366   1.694
 9404SOL     OW29110   0.855   2.275   0.458
 9404SOL    HW129111   0.913   2.357   0.458
 9404SOL    HW229112   0.907   2.197   0.424
 9405SOL     OW29113   2.295   4.110   3.903
 9405SOL    HW129114   2.313   4.111   4.002
 9405SOL    HW229115   2.342   4.187   3.860
 9406SOL     OW29116   0.167   2.937   6.425
 9406SOL    HW129117   0.078   2.981   6.411
 9406SOL    HW229118   0.205   2.965   6.513
 9407SOL     OW29119   2.640   5.133   3.538
 9407SOL    HW129120   2.617   5.151   3.442
 9407SOL    HW229121   2.586   5.055   3.571
 9408SOL     OW29122   6.198   2.483   6.362
 9408SOL    HW129123   6.111   2.532   6.367
 9408SOL    HW229124   6.191   2.411   6.293
 9409SOL     OW29125   6.383   5.175   0.583
 9409SOL    HW129126   6.451   5.240   0.617
 9409SOL    HW229127   6.337   5.213   0.503
 9410SOL     OW29128   1.436   0.754   2.379
 9410SOL    HW129129   1.530   0.723   2.369
 9410SOL    HW229130   1.376   0.702   2.318
 9411SOL     OW29131   3.709   3.635   3.056
 9411SOL    HW129132   3.751   3.711   3.105
 9411SOL    HW229133   3.675   3.667   2.968
 9412SOL     OW29134   1.053   1.479   2.200
 9412SOL    HW129135   0.998   1.488   2.117
 9412SOL    HW229136   1.150   1.484   2.176
 9413SOL     OW29137   4.213   5.605   3.598
 9413SOL    HW129138   4.128   5.583   3.550
 9413SOL    HW229139   4.208   5.570   3.692
 9414SOL     OW29140   2.940   1.143   3.052
 9414SOL    HW129141   2.916   1.162   3.147
 9414SOL    HW229142   2.895   1.060   3.021
 9415SOL     OW29143   2.224   6.762   2.502
 9415SOL    HW129144   2.291   6.749   2.575
 9415SOL    HW229145   2.176   6.849   2.515
 9416SOL     OW29146   6.821   1.461   6.092
 9416SOL    HW129147   6.766   1.500   6.018
 9416SOL    HW229148   6.782   1.373   6.120
 9417SOL     OW29149   3.685   0.629   0.777
 9417SOL    HW129150   3.590   0.617   0.748
 9417SOL    HW229151   3.689   0.633   0.877
 9418SOL     OW29152   3.189   0.682   1.595
 9418SOL    HW129153   3.160   0.663   1.502
 9418SOL    HW229154   3.281   0.645   1.610
 9419SOL     OW29155   2.407   4.396   6.290
 9419SOL    HW129156   2.370   4.304   6.306
 9419SOL    HW229157   2.369   4.460   6.357
 9420SOL     OW29158   5.695   5.081   0.389
 9420SOL    HW129159   5.625   5.080   0.460
 9420SOL    HW229160   5.770   5.141   0.416
 9421SOL     OW29161   2.576   6.682   4.378
 9421SOL    HW129162   2.621   6.771   4.384
 9421SOL    HW229163   2.522   6.677   4.294
 9422SOL     OW29164   3.296   5.578   2.737
 9422SOL    HW129165   3.208   5.542   2.707
 9422SOL    HW229166   3.367   5.550   2.673
 9423SOL     OW29167   3.346   6.453   3.681
 9423SOL    HW129168   3.276   6.383   3.690
 9423SOL    HW229169   3.430   6.423   3.727
 9424SOL     OW29170   4.816   1.835   4.655
 9424SOL    HW129171   4.775   1.896   4.587
 9424SOL    HW229172   4.743   1.789   4.707
 9425SOL     OW29173   5.161   3.986   1.300
 9425SOL    HW129174   5.098   4.061   1.279
 9425SOL    HW229175   5.184   3.988   1.397
 9426SOL     OW29176   3.505   1.928   6.111
 9426SOL    HW129177   3.583   1.973   6.155
 9426SOL    HW229178   3.533   1.837   6.080
 9427SOL     OW29179   3.039   5.613   3.260
 9427SOL    HW129180   3.029   5.688   3.194
 9427SOL    HW229181   2.985   5.534   3.229
 9428SOL     OW29182   6.621   0.796   1.174
 9428SOL    HW129183   6.711   0.806   1.131
 9428SOL    HW229184   6.633   0.760   1.266
 9429SOL     OW29185   2.167   3.737   3.228
 9429SOL    HW129186   2.263   3.739   3.200
 9429SOL    HW229187   2.148   3.815   3.288
 9430SOL     OW29188   0.351   2.574   5.103
 9430SOL    HW129189   0.418   2.648   5.104
 9430SOL    HW229190   0.385   2.497   5.156
 9431SOL     OW29191   6.741   4.441   0.983
 9431SOL    HW129192   6.722   4.349   1.019
 9431SOL    HW229193   6.775   4.433   0.889
 9432SOL     OW29194   5.813   0.556   3.985
 9432SOL    HW129195   5.864   0.598   3.910
 9432SOL    HW229196   5.721   0.595   3.988
 9433SOL     OW29197   3.143   6.333   3.150
 9433SOL    HW129198   3.135   6.425   3.111
 9433SOL    HW229199   3.154   6.266   3.077
 9434SOL     OW29200   5.557   5.958   2.029
 9434SOL    HW129201   5.469   5.969   1.982
 9434SOL    HW229202   5.541   5.921   2.120
 9435SOL     OW29203   0.261   2.552   3.624
 9435SOL    HW129204   0.359   2.539   3.643
 9435SOL    HW229205   0.246   2.646   3.592
 9436SOL     OW29206   1.388   2.602   1.581
 9436SOL    HW129207   1.461   2.655   1.538
 9436SOL    HW229208   1.420   2.566   1.669
 9437SOL     OW29209   0.698   6.010   2.688
 9437SOL    HW129210   0.763   6.086   2.686
 9437SOL    HW229211   0.707   5.961   2.774
 9438SOL     OW29212   0.728   0.429   1.930
 9438SOL    HW129213   0.763   0.493   1.862
 9438SOL    HW229214   0.681   0.480   2.003
 9439SOL     OW29215   0.783   3.139   0.020
 9439SOL    HW129216   0.836   3.202   6.986
 9439SOL    HW229217   0.725   3.192   0.082
 9440SOL     OW29218   3.741   5.082   2.917
 9440SOL    HW129219   3.764   5.109   2.823
 9440SOL    HW229220   3.787   5.144   2.981
 9441SOL     OW29221   5.898   4.499   5.959
 9441SOL    HW129222   5.943   4.450   5.884
 9441SOL    HW229223   5.952   4.488   6.043
 9442SOL     OW29224   5.203   3.692   1.474
 9442SOL    HW129225   5.267   3.656   1.542
 9442SOL    HW229226   5.170   3.781   1.504
 9443SOL     OW29227   2.440   5.036   0.798
 9443SOL    HW129228   2.404   5.025   0.705
 9443SOL    HW229229   2.515   4.972   0.813
 9444SOL     OW29230   1.732   3.593   0.694
 9444SOL    HW129231   1.658   3.622   0.754
 9444SOL    HW229232   1.774   3.509   0.730
 9445SOL     OW29233   6.082   3.288   2.792
 9445SOL    HW129234   6.170   3.331   2.814
 9445SOL    HW229235   6.099   3.193   2.763
 9446SOL     OW29236   6.264   5.245   4.889
 9446SOL    HW129237   6.344   5.210   4.937
 9446SOL    HW229238   6.292   5.288   4.804
 9447SOL     OW29239   5.808   4.953   3.766
 9447SOL    HW129240   5.818   4.855   3.749
 9447SOL    HW229241   5.713   4.980   3.752
 9448SOL     OW29242   6.987   0.199   6.080
 9448SOL    HW129243   6.940   0.286   6.085
 9448SOL    HW229244   6.954   0.139   6.154
 9449SOL     OW29245   5.415   6.814   0.171
 9449SOL    HW129246   5.353   6.891   0.187
 9449SOL    HW229247   5.368   6.729   0.194
 9450SOL     OW29248   2.514   5.976   3.067
 9450SOL    HW129249   2.445   6.031   3.020
 9450SOL    HW229250   2.542   6.023   3.151
 9451SOL     OW29251   4.480   6.234   5.787
 9451SOL    HW129252   4.435   6.275   5.708
 9451SOL    HW229253   4.437   6.269   5.871
 9452SOL     OW29254   1.645   4.037   6.753
 9452SOL    HW129255   1.604   4.113   6.802
 9452SOL    HW229256   1.735   4.064   6.717
 9453SOL     OW29257   2.704   5.146   2.964
 9453SOL    HW129258   2.716   5.198   3.048
 9453SOL    HW229259   2.793   5.128   2.922
 9454SOL     OW29260   3.480   3.486   6.404
 9454SOL    HW129261   3.546   3.547   6.448
 9454SOL    HW229262   3.452   3.416   6.469
 9455SOL     OW29263   2.430   1.723   3.640
 9455SOL    HW129264   2.514   1.670   3.653
 9455SOL    HW229265   2.354   1.661   3.623
 9456SOL     OW29266   6.757   3.165   0.377
 9456SOL    HW129267   6.678   3.127   0.426
 9456SOL    HW229268   6.732   3.254   0.338
 9457SOL     OW29269   1.210   4.286   4.109
 9457SOL    HW129270   1.221   4.309   4.205
 9457SOL    HW229271   1.149   4.208   4.100
 9458SOL     OW29272   0.379   3.739   6.105
 9458SOL    HW129273   0.360   3.837   6.108
 9458SOL    HW229274   0.467   3.720   6.148
 9459SOL     OW29275   5.214   4.820   3.523
 9459SOL    HW129276   5.129   4.862   3.494
 9459SOL    HW229277   5.278   4.816   3.446
 9460SOL     OW29278   1.739   3.890   4.150
 9460SOL    HW129279   1.723   3.878   4.248
 9460SOL    HW229280   1.835   3.913   4.135
 9461SOL     OW29281   0.331   1.795   1.673
 9461SOL    HW129282   0.384   1.880   1.683
 9461SOL    HW229283   0.387   1.718   1.702
 9462SOL     OW29284   1.818   3.230   3.581
 9462SOL    HW129285   1.762   3.298   3.629
 9462SOL    HW229286   1.853   3.163   3.647
 9463SOL     OW29287   6.056   0.383   1.410
 9463SOL    HW129288   5.983   0.402   1.345
 9463SOL    HW229289   6.124   0.457   1.406
 9464SOL     OW29290   5.672   0.289   0.909
 9464SOL    HW129291   5.751   0.348   0.891
 9464SOL    HW229292   5.679   0.252   1.002
 9465SOL     OW29293   0.113   4.055   1.573
 9465SOL    HW129294   0.148   4.045   1.480
 9465SOL    HW229295   0.107   3.965   1.617
 9466SOL     OW29296   3.330   4.555   5.407
 9466SOL    HW129297   3.282   4.608   5.338
 9466SOL    HW229298   3.286   4.466   5.417
 9467SOL     OW29299   1.637   2.714   1.184
 9467SOL    HW129300   1.714   2.706   1.248
 9467SOL    HW229301   1.646   2.798   1.131
 9468SOL     OW29302   5.596   4.038   6.413
 9468SOL    HW129303   5.661   4.114   6.422
 9468SOL    HW229304   5.505   4.070   6.439
 9469SOL     OW29305   0.478   5.151   1.837
 9469SOL    HW129306   0.508   5.213   1.764
 9469SOL    HW229307   0.393   5.106   1.809
 9470SOL     OW29308   5.194   3.128   6.833
 9470SOL    HW129309   5.247   3.171   6.906
 9470SOL    HW229310   5.129   3.064   6.873
 9471SOL     OW29311   6.443   2.694   4.346
 9471SOL    HW129312   6.412   2.647   4.429
 9471SOL    HW229313   6.389   2.661   4.268
 9472SOL     OW29314   6.045   2.717   4.995
 9472SOL    HW129315   5.946   2.715   4.979
 9472SOL    HW229316   6.092   2.736   4.909
 9473SOL     OW29317   3.145   4.928   0.569
 9473SOL    HW129318   3.204   4.857   0.530
 9473SOL    HW229319   3.102   4.893   0.653
 9474SOL     OW29320   0.109   3.668   0.458
 9474SOL    HW129321   0.141   3.698   0.548
 9474SOL    HW229322   0.144   3.576   0.439
 9475SOL     OW29323   3.656   3.254   0.252
 9475SOL    HW129324   3.700   3.210   0.329
 9475SOL    HW229325   3.605   3.335   0.283
 9476SOL     OW29326   4.024   3.850   4.272
 9476SOL    HW129327   4.018   3.931   4.214
 9476SOL    HW229328   4.026   3.768   4.215
 9477SOL     OW29329   0.851   2.962   0.249
 9477SOL    HW129330   0.867   2.993   0.155
 9477SOL    HW229331   0.755   2.976   0.273
 9478SOL     OW29332   5.200   3.407   1.319
 9478SOL    HW129333   5.267   3.481   1.324
 9478SOL    HW229334   5.118   3.440   1.272
 9479SOL     OW29335   4.314   6.646   0.265
 9479SOL    HW129336   4.379   6.705   0.314
 9479SOL    HW229337   4.248   6.703   0.216
 9480SOL     OW29338   5.560   4.636   0.401
 9480SOL    HW129339   5.542   4.591   0.488
 9480SOL    HW229340   5.477   4.639   0.346
 9481SOL     OW29341   5.086   3.373   2.487
 9481SOL    HW129342   5.153   3.302   2.465
 9481SOL    HW229343   5.059   3.420   2.403
 9482SOL     OW29344   0.263   1.260   2.806
 9482SOL    HW129345   0.170   1.232   2.783
 9482SOL    HW229346   0.262   1.313   2.891
 9483SOL     OW29347   1.888   0.122   0.645
 9483SOL    HW129348   1.978   0.079   0.637
 9483SOL    HW229349   1.849   0.101   0.735
 9484SOL     OW29350   4.170   0.066   4.479
 9484SOL    HW129351   4.108   0.075   4.556
 9484SOL    HW229352   4.259   0.106   4.502
 9485SOL     OW29353   0.372   0.825   0.721
 9485SOL    HW129354   0.372   0.792   0.626
 9485SOL    HW229355   0.303   0.896   0.731
 9486SOL     OW29356   3.977   6.237   1.038
 9486SOL    HW129357   3.899   6.173   1.037
 9486SOL    HW229358   4.033   6.220   1.119
 9487SOL     OW29359   3.200   4.001   3.970
 9487SOL    HW129360   3.250   3.964   4.048
 9487SOL    HW229361   3.124   3.940   3.948
 9488SOL     OW29362   2.689   0.246   1.164
 9488SOL    HW129363   2.701   0.286   1.255
 9488SOL    HW229364   2.767   0.187   1.143
 9489SOL     OW29365   4.819   4.382   1.517
 9489SOL    HW129366   4.778   4.457   1.569
 9489SOL    HW229367   4.761   4.301   1.522
 9490SOL     OW29368   6.082   5.453   2.477
 9490SOL    HW129369   6.006   5.493   2.426
 9490SOL    HW229370   6.068   5.354   2.485
 9491SOL     OW29371   4.953   4.466   4.079
 9491SOL    HW129372   4.893   4.530   4.128
 9491SOL    HW229373   5.018   4.426   4.143
 9492SOL     OW29374   3.952   3.052   4.750
 9492SOL    HW129375   3.875   3.025   4.808
 9492SOL    HW229376   3.940   3.013   4.659
 9493SOL     OW29377   2.440   5.772   4.165
 9493SOL    HW129378   2.500   5.701   4.201
 9493SOL    HW229379   2.477   5.805   4.078
 9494SOL     OW29380   5.538   2.979   2.749
 9494SOL    HW129381   5.442   2.965   2.773
 9494SOL    HW229382   5.596   2.940   2.820
 9495SOL     OW29383   6.815   1.884   3.209
 9495SOL    HW129384   6.894   1.902   3.150
 9495SOL    HW229385   6.755   1.964   3.209
 9496SOL     OW29386   6.159   3.710   1.721
 9496SOL    HW129387   6.156   3.708   1.821
 9496SOL    HW229388   6.092   3.645   1.685
 9497SOL     OW29389   5.958   6.803   5.335
 9497SOL    HW129390   5.946   6.846   5.246
 9497SOL    HW229391   5.873   6.810   5.387
 9498SOL     OW29392   5.688   5.806   4.373
 9498SOL    HW129393   5.615   5.863   4.409
 9498SOL    HW229394   5.776   5.837   4.411
 9499SOL     OW29395   2.294   5.035   6.039
 9499SOL    HW129396   2.237   4.954   6.054
 9499SOL    HW229397   2.320   5.075   6.127
 9500SOL     OW29398   4.824   0.248   0.763
 9500SOL    HW129399   4.864   0.158   0.778
 9500SOL    HW229400   4.818   0.297   0.850
 9501SOL     OW29401   2.758   0.939   5.059
 9501SOL    HW129402   2.797   0.878   5.128
 9501SOL    HW229403   2.783   1.033   5.080
 9502SOL     OW29404   5.901   2.365   5.068
 9502SOL    HW129405   5.960   2.297   5.024
 9502SOL    HW229406   5.926   2.374   5.164
 9503SOL     OW29407   0.552   1.238   0.644
 9503SOL    HW129408   0.514   1.329   0.625
 9503SOL    HW229409   0.481   1.179   0.681
 9504SOL     OW29410   6.677   3.349   0.141
 9504SOL    HW129411   6.586   3.362   0.179
 9504SOL    HW229412   6.678   3.377   0.045
 9505SOL     OW29413   5.085   4.503   4.626
 9505SOL    HW129414   5.156   4.469   4.688
 9505SOL    HW229415   5.126   4.524   4.537
 9506SOL     OW29416   1.891   2.130   6.752
 9506SOL    HW129417   1.949   2.194   6.803
 9506SOL    HW229418   1.895   2.152   6.654
 9507SOL     OW29419   0.494   1.176   2.160
 9507SOL    HW129420   0.580   1.126   2.159
 9507SOL    HW229421   0.426   1.127   2.105
 9508SOL     OW29422   6.366   2.054   1.869
 9508SOL    HW129423   6.312   2.005   1.800
 9508SOL    HW229424   6.457   2.014   1.874
 9509SOL     OW29425   0.251   0.981   4.159
 9509SOL    HW129426   0.244   0.888   4.196
 9509SOL    HW229427   0.280   0.977   4.064
 9510SOL     OW29428   1.836   3.745   3.666
 9510SOL    HW129429   1.818   3.716   3.572
 9510SOL    HW229430   1.913   3.693   3.703
 9511SOL     OW29431   1.905   0.229   1.097
 9511SOL    HW129432   1.934   0.156   1.036
 9511SOL    HW229433   1.876   0.309   1.043
 9512SOL     OW29434   6.271   1.943   1.411
 9512SOL    HW129435   6.196   1.888   1.374
 9512SOL    HW229436   6.282   2.026   1.357
 9513SOL     OW29437   2.006   3.957   6.003
 9513SOL    HW129438   2.098   3.984   5.972
 9513SOL    HW229439   2.009   3.937   6.101
 9514SOL     OW29440   2.505   5.645   6.012
 9514SOL    HW129441   2.573   5.651   5.939
 9514SOL    HW229442   2.528   5.570   6.074
 9515SOL     OW29443   1.504   5.440   1.245
 9515SOL    HW129444   1.583   5.390   1.279
 9515SOL    HW229445   1.523   5.476   1.153
 9516SOL     OW29446   6.090   5.194   6.558
 9516SOL    HW129447   5.999   5.152   6.551
 9516SOL    HW229448   6.127   5.207   6.466
 9517SOL     OW29449   1.315   3.844   1.222
 9517SOL    HW129450   1.372   3.767   1.193
 9517SOL    HW229451   1.354   3.886   1.304
 9518SOL     OW29452   2.166   1.789   0.594
 9518SOL    HW129453   2.126   1.774   0.684
 9518SOL    HW229454   2.094   1.799   0.525
 9519SOL     OW29455   3.453   3.244   4.755
 9519SOL    HW129456   3.407   3.317   4.806
 9519SOL    HW229457   3.431   3.156   4.796
 9520SOL     OW29458   2.244   1.979   2.881
 9520SOL    HW129459   2.238   2.051   2.950
 9520SOL    HW229460   2.183   2.000   2.805
 9521SOL     OW29461   5.263   5.939   1.995
 9521SOL    HW129462   5.250   5.984   2.083
 9521SOL    HW229463   5.176   5.899   1.965
 9522SOL     OW29464   2.321   5.465   1.410
 9522SOL    HW129465   2.262   5.437   1.334
 9522SOL    HW229466   2.413   5.484   1.375
 9523SOL     OW29467   3.190   5.371   4.763
 9523SOL    HW129468   3.119   5.309   4.796
 9523SOL    HW229469   3.245   5.324   4.693
 9524SOL     OW29470   3.669   3.059   1.565
 9524SOL    HW129471   3.706   3.133   1.621
 9524SOL    HW229472   3.723   2.976   1.579
 9525SOL     OW29473   2.342   2.928   5.805
 9525SOL    HW129474   2.324   2.852   5.868
 9525SOL    HW229475   2.346   2.893   5.711
 9526SOL     OW29476   5.219   5.451   1.858
 9526SOL    HW129477   5.291   5.514   1.827
 9526SOL    HW229478   5.139   5.461   1.799
 9527SOL     OW29479   0.873   0.368   3.050
 9527SOL    HW129480   0.901   0.460   3.077
 9527SOL    HW229481   0.947   0.325   2.998
 9528SOL     OW29482   7.012   1.226   7.004
 9528SOL    HW129483   0.000   1.230   0.080
 9528SOL    HW229484   6.973   1.312   6.971
 9529SOL     OW29485   6.249   2.885   5.157
 9529SOL    HW129486   6.172   2.851   5.102
 9529SOL    HW229487   6.218   2.960   5.216
 9530SOL     OW29488   1.829   3.304   2.267
 9530SOL    HW129489   1.913   3.344   2.231
 9530SOL    HW229490   1.750   3.349   2.225
 9531SOL     OW29491   4.530   5.682   2.949
 9531SOL    HW129492   4.466   5.606   2.934
 9531SOL    HW229493   4.596   5.685   2.874
 9532SOL     OW29494   0.161   6.674   2.160
 9532SOL    HW129495   0.215   6.755   2.137
 9532SOL    HW229496   0.065   6.700   2.171
 9533SOL     OW29497   6.852   0.106   5.122
 9533SOL    HW129498   6.780   0.158   5.076
 9533SOL    HW229499   6.812   0.027   5.168
 9534SOL     OW29500   6.389   3.307   5.251
 9534SOL    HW129501   6.300   3.350   5.264
 9534SOL    HW229502   6.388   3.254   5.166
 9535SOL     OW29503   2.455   1.221   5.643
 9535SOL    HW129504   2.518   1.265   5.579
 9535SOL    HW229505   2.396   1.156   5.593
 9536SOL     OW29506   3.241   4.728   5.217
 9536SOL    HW129507   3.312   4.798   5.215
 9536SOL    HW229508   3.198   4.721   5.127
 9537SOL     OW29509   2.609   6.704   2.982
 9537SOL    HW129510   2.549   6.639   3.030
 9537SOL    HW229511   2.641   6.773   3.047
 9538SOL     OW29512   6.770   2.188   4.003
 9538SOL    HW129513   6.787   2.252   4.078
 9538SOL    HW229514   6.734   2.238   3.924
 9539SOL     OW29515   1.697   3.502   5.003
 9539SOL    HW129516   1.743   3.582   4.965
 9539SOL    HW229517   1.741   3.419   4.968
 9540SOL     OW29518   5.482   3.847   4.346
 9540SOL    HW129519   5.567   3.796   4.360
 9540SOL    HW229520   5.404   3.787   4.363
 9541SOL     OW29521   3.114   1.762   6.006
 9541SOL    HW129522   3.043   1.718   6.061
 9541SOL    HW229523   3.091   1.858   5.991
 9542SOL     OW29524   5.109   3.875   4.311
 9542SOL    HW129525   5.095   3.912   4.403
 9542SOL    HW229526   5.100   3.775   4.314
 9543SOL     OW29527   2.822   1.097   4.759
 9543SOL    HW129528   2.782   1.011   4.790
 9543SOL    HW229529   2.754   1.149   4.707
 9544SOL     OW29530   0.250   1.711   3.238
 9544SOL    HW129531   0.261   1.809   3.248
 9544SOL    HW229532   0.186   1.677   3.306
 9545SOL     OW29533   6.577   5.133   3.520
 9545SOL    HW129534   6.521   5.054   3.493
 9545SOL    HW229535   6.523   5.194   3.578
 9546SOL     OW29536   2.886   2.359   5.850
 9546SOL    HW129537   2.908   2.280   5.792
 9546SOL    HW229538   2.836   2.327   5.931
 9547SOL     OW29539   2.180   6.296   3.851
 9547SOL    HW129540   2.218   6.372   3.904
 9547SOL    HW229541   2.114   6.331   3.785
 9548SOL     OW29542   6.096   6.305   5.310
 9548SOL    HW129543   6.077   6.390   5.262
 9548SOL    HW229544   6.174   6.259   5.268
 9549SOL     OW29545   2.869   3.725   1.354
 9549SOL    HW129546   2.911   3.702   1.442
 9549SOL    HW229547   2.808   3.650   1.326
 9550SOL     OW29548   6.962   1.174   0.253
 9550SOL    HW129549   6.872   1.215   0.264
 9550SOL    HW229550   6.953   1.079   0.225
 9551SOL     OW29551   6.317   0.961   4.184
 9551SOL    HW129552   6.411   0.957   4.218
 9551SOL    HW229553   6.267   0.881   4.215
 9552SOL     OW29554   1.064   5.837   2.526
 9552SOL    HW129555   1.099   5.804   2.614
 9552SOL    HW229556   1.125   5.808   2.453
 9553SOL     OW29557   6.326   3.991   6.979
 9553SOL    HW129558   6.340   3.894   6.958
 9553SOL    HW229559   6.254   4.000   0.024
 9554SOL     OW29560   2.455   0.263   1.354
 9554SOL    HW129561   2.502   0.245   1.267
 9554SOL    HW229562   2.512   0.231   1.430
 9555SOL     OW29563   0.817   1.109   1.492
 9555SOL    HW129564   0.841   1.020   1.453
 9555SOL    HW229565   0.875   1.129   1.570
 9556SOL     OW29566   2.855   2.730   1.085
 9556SOL    HW129567   2.948   2.713   1.055
 9556SOL    HW229568   2.811   2.793   1.021
 9557SOL     OW29569   6.500   0.938   3.206
 9557SOL    HW129570   6.515   1.027   3.163
 9557SOL    HW229571   6.489   0.868   3.135
 9558SOL     OW29572   6.456   5.577   4.575
 9558SOL    HW129573   6.436   5.650   4.509
 9558SOL    HW229574   6.520   5.512   4.534
 9559SOL     OW29575   0.252   3.786   1.313
 9559SOL    HW129576   0.213   3.873   1.284
 9559SOL    HW229577   0.202   3.710   1.270
 9560SOL     OW29578   1.273   1.871   2.932
 9560SOL    HW129579   1.213   1.946   2.907
 9560SOL    HW229580   1.320   1.837   2.851
 9561SOL     OW29581   1.641   6.449   0.599
 9561SOL    HW129582   1.609   6.536   0.560
 9561SOL    HW229583   1.655   6.383   0.525
 9562SOL     OW29584   3.234   6.784   4.945
 9562SOL    HW129585   3.147   6.813   4.906
 9562SOL    HW229586   3.224   6.692   4.985
 9563SOL     OW29587   5.945   6.601   0.268
 9563SOL    HW129588   5.896   6.687   0.282
 9563SOL    HW229589   5.882   6.524   0.274
 9564SOL     OW29590   2.766   6.963   6.591
 9564SOL    HW129591   2.823   7.021   6.650
 9564SOL    HW229592   2.740   7.015   6.509
 9565SOL     OW29593   4.097   5.990   5.382
 9565SOL    HW129594   4.169   6.045   5.425
 9565SOL    HW229595   4.131   5.897   5.367
 9566SOL     OW29596   3.413   4.640   0.127
 9566SOL    HW129597   3.315   4.660   0.125
 9566SOL    HW229598   3.465   4.725   0.131
 9567SOL     OW29599   6.842   5.159   6.506
 9567SOL    HW129600   6.767   5.217   6.535
 9567SOL    HW229601   6.811   5.064   6.500
 9568SOL     OW29602   5.134   2.757   6.780
 9568SOL    HW129603   5.067   2.829   6.800
 9568SOL    HW229604   5.225   2.797   6.773
 9569SOL     OW29605   0.151   0.741   2.293
 9569SOL    HW129606   0.067   0.786   2.324
 9569SOL    HW229607   0.192   0.691   2.370
 9570SOL     OW29608   1.032   1.931   1.775
 9570SOL    HW129609   1.059   1.991   1.700
 9570SOL    HW229610   1.100   1.858   1.785
 9571SOL     OW29611   2.748   3.887   6.676
 9571SOL    HW129612   2.835   3.906   6.721
 9571SOL    HW229613   2.756   3.905   6.578
 9572SOL     OW29614   1.728   5.272   1.299
 9572SOL    HW129615   1.784   5.241   1.222
 9572SOL    HW229616   1.711   5.196   1.361
 9573SOL     OW29617   0.387   1.449   6.391
 9573SOL    HW129618   0.384   1.544   6.424
 9573SOL    HW229619   0.435   1.446   6.304
 9574SOL     OW29620   3.841   2.972   4.476
 9574SOL    HW129621   3.767   2.934   4.532
 9574SOL    HW229622   3.807   3.050   4.424
 9575SOL     OW29623   5.609   0.503   1.087
 9575SOL    HW129624   5.529   0.559   1.067
 9575SOL    HW229625   5.624   0.438   1.013
 9576SOL     OW29626   2.851   0.906   2.395
 9576SOL    HW129627   2.907   0.988   2.386
 9576SOL    HW229628   2.886   0.849   2.470
 9577SOL     OW29629   1.161   1.083   3.634
 9577SOL    HW129630   1.139   1.043   3.723
 9577SOL    HW229631   1.083   1.071   3.572
 9578SOL     OW29632   7.000   3.710   3.402
 9578SOL    HW129633   0.052   3.654   3.367
 9578SOL    HW229634   0.012   3.771   3.474
 9579SOL     OW29635   1.305   5.329   3.236
 9579SOL    HW129636   1.215   5.370   3.247
 9579SOL    HW229637   1.375   5.400   3.245
 9580SOL     OW29638   4.876   2.866   1.141
 9580SOL    HW129639   4.924   2.811   1.073
 9580SOL    HW229640   4.893   2.963   1.124
 9581SOL     OW29641   1.312   5.317   6.581
 9581SOL    HW129642   1.311   5.343   6.678
 9581SOL    HW229643   1.236   5.361   6.534
 9582SOL     OW29644   4.222   4.825   4.847
 9582SOL    HW129645   4.152   4.890   4.877
 9582SOL    HW229646   4.235   4.755   4.917
 9583SOL     OW29647   2.726   3.276   1.276
 9583SOL    HW129648   2.667   3.278   1.357
 9583SOL    HW229649   2.813   3.321   1.297
 9584SOL     OW29650   6.023   6.221   6.793
 9584SOL    HW129651   6.019   6.126   6.823
 9584SOL    HW229652   5.930   6.260   6.791
 9585SOL     OW29653   6.449   1.189   3.046
 9585SOL    HW129654   6.392   1.173   2.966
 9585SOL    HW229655   6.472   1.286   3.053
 9586SOL     OW29656   6.330   4.243   1.900
 9586SOL    HW129657   6.301   4.327   1.854
 9586SOL    HW229658   6.250   4.189   1.923
 9587SOL     OW29659   6.108   0.297   2.393
 9587SOL    HW129660   6.016   0.305   2.356
 9587SOL    HW229661   6.103   0.275   2.490
 9588SOL     OW29662   0.662   1.621   2.044
 9588SOL    HW129663   0.673   1.696   2.109
 9588SOL    HW229664   0.673   1.655   1.951
 9589SOL     OW29665   2.986   5.874   6.369
 9589SOL    HW129666   3.019   5.950   6.313
 9589SOL    HW229667   2.959   5.909   6.459
 9590SOL     OW29668   0.157   5.015   2.730
 9590SOL    HW129669   0.072   5.009   2.677
 9590SOL    HW229670   0.231   4.971   2.680
 9591SOL     OW29671   3.135   5.782   6.925
 9591SOL    HW129672   3.156   5.693   6.966
 9591SOL    HW229673   3.167   5.855   6.985
 9592SOL     OW29674   3.722   5.105   1.750
 9592SOL    HW129675   3.723   5.068   1.842
 9592SOL    HW229676   3.632   5.144   1.730
 9593SOL     OW29677   5.304   0.835   4.712
 9593SOL    HW129678   5.352   0.921   4.693
 9593SOL    HW229679   5.293   0.825   4.811
 9594SOL     OW29680   0.217   5.626   3.570
 9594SOL    HW129681   0.186   5.584   3.655
 9594SOL    HW229682   0.316   5.616   3.562
 9595SOL     OW29683   1.936   4.302   4.018
 9595SOL    HW129684   1.922   4.350   4.104
 9595SOL    HW229685   2.029   4.319   3.985
 9596SOL     OW29686   0.463   5.485   0.422
 9596SOL    HW129687   0.492   5.568   0.375
 9596SOL    HW229688   0.541   5.447   0.473
 9597SOL     OW29689   6.895   4.062   1.177
 9597SOL    HW129690   6.922   4.158   1.167
 9597SOL    HW229691   6.908   4.015   1.090
 9598SOL     OW29692   0.415   3.578   5.327
 9598SOL    HW129693   0.358   3.505   5.289
 9598SOL    HW229694   0.510   3.547   5.331
 9599SOL     OW29695   3.012   0.711   4.745
 9599SOL    HW129696   2.995   0.769   4.824
 9599SOL    HW229697   3.009   0.615   4.773
 9600SOL     OW29698   2.382   6.838   5.606
 9600SOL    HW129699   2.428   6.863   5.521
 9600SOL    HW229700   2.341   6.747   5.596
 9601SOL     OW29701   6.280   4.179   5.863
 9601SOL    HW129702   6.215   4.155   5.935
 9601SOL    HW229703   6.339   4.253   5.894
 9602SOL     OW29704   6.766   4.873   6.410
 9602SOL    HW129705   6.774   4.849   6.313
 9602SOL    HW229706   6.857   4.893   6.447
 9603SOL     OW29707   2.143   0.073   4.333
 9603SOL    HW129708   2.191   0.160   4.316
 9603SOL    HW229709   2.109   0.071   4.427
 9604SOL     OW29710   5.091   0.701   0.758
 9604SOL    HW129711   5.087   0.690   0.659
 9604SOL    HW229712   5.171   0.757   0.782
 9605SOL     OW29713   0.247   4.741   5.942
 9605SOL    HW129714   0.195   4.656   5.934
 9605SOL    HW229715   0.279   4.769   5.852
 9606SOL     OW29716   0.935   6.654   4.734
 9606SOL    HW129717   0.874   6.609   4.669
 9606SOL    HW229718   0.935   6.752   4.717
 9607SOL     OW29719   1.317   2.274   1.975
 9607SOL    HW129720   1.235   2.246   2.027
 9607SOL    HW229721   1.320   2.224   1.889
 9608SOL     OW29722   0.403   6.704   2.490
 9608SOL    HW129723   0.384   6.606   2.491
 9608SOL    HW229724   0.389   6.741   2.582
 9609SOL     OW29725   1.209   3.882   5.555
 9609SOL    HW129726   1.159   3.808   5.600
 9609SOL    HW229727   1.292   3.846   5.512
 9610SOL     OW29728   1.582   3.640   5.203
 9610SOL    HW129729   1.633   3.582   5.140
 9610SOL    HW229730   1.642   3.712   5.238
 9611SOL     OW29731   0.407   6.876   0.984
 9611SOL    HW129732   0.361   6.921   1.061
 9611SOL    HW229733   0.397   6.777   0.994
 9612SOL     OW29734   6.095   3.104   1.062
 9612SOL    HW129735   6.159   3.040   1.020
 9612SOL    HW229736   6.050   3.061   1.140
 9613SOL     OW29737   5.070   6.012   3.710
 9613SOL    HW129738   5.137   5.977   3.775
 9613SOL    HW229739   5.021   6.089   3.750
 9614SOL     OW29740   4.067   3.606   1.411
 9614SOL    HW129741   4.046   3.536   1.344
 9614SOL    HW229742   4.004   3.683   1.399
 9615SOL     OW29743   1.637   6.389   2.369
 9615SOL    HW129744   1.597   6.368   2.280
 9615SOL    HW229745   1.670   6.304   2.411
 9616SOL     OW29746   4.408   3.302   0.807
 9616SOL    HW129747   4.393   3.388   0.856
 9616SOL    HW229748   4.495   3.261   0.836
 9617SOL     OW29749   1.306   4.089   4.514
 9617SOL    HW129750   1.309   4.187   4.536
 9617SOL    HW229751   1.227   4.047   4.558
 9618SOL     OW29752   3.348   0.188   6.894
 9618SOL    HW129753   3.426   0.246   6.917
 9618SOL    HW229754   3.270   0.210   6.953
 9619SOL     OW29755   1.105   0.020   0.977
 9619SOL    HW129756   1.068   0.111   0.957
 9619SOL    HW229757   1.171   7.017   0.906
 9620SOL     OW29758   4.900   2.229   0.013
 9620SOL    HW129759   4.931   2.140   7.003
 9620SOL    HW229760   4.893   2.292   6.959
 9621SOL     OW29761   1.220   1.167   2.151
 9621SOL    HW129762   1.253   1.113   2.229
 9621SOL    HW229763   1.241   1.263   2.165
 9622SOL     OW29764   6.256   1.286   6.894
 9622SOL    HW129765   6.253   1.249   6.802
 9622SOL    HW229766   6.289   1.216   6.957
 9623SOL     OW29767   4.277   5.020   6.414
 9623SOL    HW129768   4.355   4.958   6.425
 9623SOL    HW229769   4.308   5.107   6.377
 9624SOL     OW29770   5.456   4.451   5.118
 9624SOL    HW129771   5.361   4.447   5.090
 9624SOL    HW229772   5.462   4.445   5.218
 9625SOL     OW29773   4.798   4.492   6.903
 9625SOL    HW129774   4.782   4.459   6.996
 9625SOL    HW229775   4.860   4.570   6.906
 9626SOL     OW29776   2.308   5.927   4.736
 9626SOL    HW129777   2.351   5.978   4.811
 9626SOL    HW229778   2.380   5.882   4.682
 9627SOL     OW29779   0.457   4.432   4.857
 9627SOL    HW129780   0.531   4.370   4.880
 9627SOL    HW229781   0.449   4.503   4.927
 9628SOL     OW29782   5.604   3.529   0.811
 9628SOL    HW129783   5.603   3.629   0.816
 9628SOL    HW229784   5.648   3.501   0.725
 9629SOL     OW29785   6.842   6.081   3.034
 9629SOL    HW129786   6.847   5.986   3.005
 9629SOL    HW229787   6.934   6.118   3.045
 9630SOL     OW29788   6.552   6.057   5.674
 9630SOL    HW129789   6.460   6.034   5.642
 9630SOL    HW229790   6.562   6.157   5.676
 9631SOL     OW29791   4.448   1.629   0.818
 9631SOL    HW129792   4.476   1.711   0.867
 9631SOL    HW229793   4.498   1.550   0.854
 9632SOL     OW29794   2.112   5.330   1.639
 9632SOL    HW129795   2.126   5.243   1.591
 9632SOL    HW229796   2.081   5.399   1.573
 9633SOL     OW29797   3.991   3.851   0.516
 9633SOL    HW129798   3.975   3.759   0.481
 9633SOL    HW229799   3.904   3.894   0.539
 9634SOL     OW29800   6.155   5.387   3.320
 9634SOL    HW129801   6.196   5.474   3.349
 9634SOL    HW229802   6.062   5.405   3.287
 9635SOL     OW29803   0.839   4.510   5.602
 9635SOL    HW129804   0.786   4.432   5.637
 9635SOL    HW229805   0.936   4.493   5.616
 9636SOL     OW29806   3.903   1.483   6.328
 9636SOL    HW129807   3.966   1.434   6.388
 9636SOL    HW229808   3.816   1.434   6.324
 9637SOL     OW29809   3.628   3.306   1.147
 9637SOL    HW129810   3.612   3.254   1.231
 9637SOL    HW229811   3.540   3.336   1.110
 9638SOL     OW29812   6.855   3.279   6.007
 9638SOL    HW129813   6.801   3.214   5.953
 9638SOL    HW229814   6.949   3.283   5.970
 9639SOL     OW29815   4.274   2.375   1.964
 9639SOL    HW129816   4.315   2.452   1.914
 9639SOL    HW229817   4.202   2.334   1.907
 9640SOL     OW29818   3.203   0.682   2.113
 9640SOL    HW129819   3.153   0.605   2.154
 9640SOL    HW229820   3.286   0.648   2.068
 9641SOL     OW29821   5.676   6.407   2.247
 9641SOL    HW129822   5.630   6.454   2.172
 9641SOL    HW229823   5.716   6.322   2.213
 9642SOL     OW29824   1.203   6.542   4.048
 9642SOL    HW129825   1.192   6.630   4.003
 9642SOL    HW229826   1.159   6.471   3.993
 9643SOL     OW29827   5.400   3.725   3.980
 9643SOL    HW129828   5.361   3.634   3.995
 9643SOL    HW229829   5.498   3.723   4.001
 9644SOL     OW29830   1.615   5.967   5.064
 9644SOL    HW129831   1.665   5.926   4.987
 9644SOL    HW229832   1.608   5.902   5.139
 9645SOL     OW29833   2.374   4.717   4.844
 9645SOL    HW129834   2.425   4.745   4.925
 9645SOL    HW229835   2.288   4.676   4.871
 9646SOL     OW29836   2.997   5.624   2.381
 9646SOL    HW129837   2.990   5.587   2.288
 9646SOL    HW229838   2.965   5.555   2.446
 9647SOL     OW29839   0.086   0.009   3.336
 9647SOL    HW129840   0.133   6.945   3.323
 9647SOL    HW229841   7.016   7.014   3.367
 9648SOL     OW29842   4.657   2.788   1.276
 9648SOL    HW129843   4.733   2.807   1.214
 9648SOL    HW229844   4.570   2.800   1.226
 9649SOL     OW29845   2.503   4.265   6.727
 9649SOL    HW129846   2.572   4.334   6.705
 9649SOL    HW229847   2.545   4.190   6.777
 9650SOL     OW29848   5.008   4.034   3.160
 9650SOL    HW129849   5.023   3.953   3.216
 9650SOL    HW229850   4.971   4.007   3.071
 9651SOL     OW29851   4.262   1.139   0.984
 9651SOL    HW129852   4.282   1.097   1.072
 9651SOL    HW229853   4.345   1.141   0.928
 9652SOL     OW29854   0.945   5.054   1.247
 9652SOL    HW129855   0.934   5.052   1.346
 9652SOL    HW229856   1.036   5.020   1.222
 9653SOL     OW29857   4.732   4.437   5.463
 9653SOL    HW129858   4.671   4.361   5.483
 9653SOL    HW229859   4.818   4.401   5.425
 9654SOL     OW29860   3.110   3.500   3.058
 9654SOL    HW129861   3.035   3.456   3.108
 9654SOL    HW229862   3.105   3.475   2.962
 9655SOL     OW29863   0.196   1.844   0.370
 9655SOL    HW129864   0.121   1.830   0.305
 9655SOL    HW229865   0.281   1.858   0.321
 9656SOL     OW29866   4.626   2.483   0.883
 9656SOL    HW129867   4.534   2.510   0.911
 9656SOL    HW229868   4.684   2.564   0.876
 9657SOL     OW29869   5.924   4.401   2.596
 9657SOL    HW129870   6.008   4.398   2.651
 9657SOL    HW229871   5.845   4.403   2.658
 9658SOL     OW29872   5.898   2.198   2.625
 9658SOL    HW129873   5.977   2.138   2.631
 9658SOL    HW229874   5.929   2.293   2.619
 9659SOL     OW29875   0.976   2.515   0.286
 9659SOL    HW129876   1.008   2.607   0.264
 9659SOL    HW229877   1.032   2.448   0.237
 9660SOL     OW29878   0.698   0.189   2.105
 9660SOL    HW129879   0.652   0.240   2.178
 9660SOL    HW229880   0.730   0.252   2.035
 9661SOL     OW29881   4.108   6.114   1.249
 9661SOL    HW129882   4.190   6.082   1.295
 9661SOL    HW229883   4.038   6.136   1.317
 9662SOL     OW29884   5.065   3.777   0.348
 9662SOL    HW129885   4.978   3.733   0.368
 9662SOL    HW229886   5.107   3.734   0.268
 9663SOL     OW29887   0.418   5.766   2.742
 9663SOL    HW129888   0.378   5.675   2.754
 9663SOL    HW229889   0.346   5.835   2.751
 9664SOL     OW29890   5.317   4.600   4.097
 9664SOL    HW129891   5.358   4.615   4.187
 9664SOL    HW229892   5.238   4.538   4.107
 9665SOL     OW29893   6.073   6.421   5.956
 9665SOL    HW129894   6.079   6.441   6.054
 9665SOL    HW229895   6.136   6.347   5.933
 9666SOL     OW29896   6.365   3.618   2.113
 9666SOL    HW129897   6.333   3.541   2.167
 9666SOL    HW229898   6.370   3.700   2.171
 9667SOL     OW29899   3.850   3.441   0.205
 9667SOL    HW129900   3.779   3.371   0.209
 9667SOL    HW229901   3.811   3.527   0.171
 9668SOL     OW29902   1.007   0.784   6.632
 9668SOL    HW129903   0.927   0.775   6.573
 9668SOL    HW229904   1.057   0.698   6.633
 9669SOL     OW29905   1.934   6.876   1.899
 9669SOL    HW129906   1.965   6.954   1.953
 9669SOL    HW229907   1.925   6.796   1.957
 9670SOL     OW29908   0.289   5.226   5.541
 9670SOL    HW129909   0.301   5.150   5.605
 9670SOL    HW229910   0.351   5.300   5.566
 9671SOL     OW29911   6.780   4.162   0.335
 9671SOL    HW129912   6.805   4.224   0.261
 9671SOL    HW229913   6.861   4.138   0.388
 9672SOL     OW29914   2.058   4.820   3.546
 9672SOL    HW129915   2.006   4.847   3.465
 9672SOL    HW229916   2.128   4.754   3.520
 9673SOL     OW29917   3.376   3.618   1.121
 9673SOL    HW129918   3.291   3.635   1.070
 9673SOL    HW229919   3.406   3.702   1.165
 9674SOL     OW29920   4.115   6.545   3.358
 9674SOL    HW129921   4.063   6.627   3.338
 9674SOL    HW229922   4.198   6.544   3.302
 9675SOL     OW29923   5.085   2.538   6.919
 9675SOL    HW129924   5.118   2.622   6.874
 9675SOL    HW229925   5.155   2.506   6.983
 9676SOL     OW29926   1.400   3.361   6.187
 9676SOL    HW129927   1.438   3.279   6.145
 9676SOL    HW229928   1.467   3.435   6.184
 9677SOL     OW29929   6.704   5.056   5.304
 9677SOL    HW129930   6.773   5.120   5.271
 9677SOL    HW229931   6.699   5.060   5.404
 9678SOL     OW29932   2.980   3.368   4.238
 9678SOL    HW129933   2.999   3.270   4.252
 9678SOL    HW229934   3.027   3.421   4.308
 9679SOL     OW29935   2.161   6.861   3.931
 9679SOL    HW129936   2.067   6.828   3.923
 9679SOL    HW229937   2.207   6.850   3.843
 9680SOL     OW29938   4.437   0.407   4.768
 9680SOL    HW129939   4.352   0.366   4.736
 9680SOL    HW229940   4.417   0.493   4.816
 9681SOL     OW29941   3.031   2.449   0.758
 9681SOL    HW129942   2.942   2.478   0.724
 9681SOL    HW229943   3.098   2.523   0.744
 9682SOL     OW29944   4.777   4.240   3.594
 9682SOL    HW129945   4.726   4.315   3.636
 9682SOL    HW229946   4.773   4.249   3.494
 9683SOL     OW29947   2.999   6.813   1.498
 9683SOL    HW129948   2.950   6.755   1.434
 9683SOL    HW229949   3.017   6.902   1.456
 9684SOL     OW29950   0.533   3.872   5.205
 9684SOL    HW129951   0.450   3.815   5.210
 9684SOL    HW229952   0.578   3.858   5.117
 9685SOL     OW29953   4.609   4.282   1.162
 9685SOL    HW129954   4.543   4.245   1.227
 9685SOL    HW229955   4.604   4.382   1.164
 9686SOL     OW29956   0.481   3.105   6.218
 9686SOL    HW129957   0.431   3.189   6.196
 9686SOL    HW229958   0.454   3.033   6.154
 9687SOL     OW29959   0.188   1.067   3.659
 9687SOL    HW129960   0.128   1.144   3.639
 9687SOL    HW229961   0.219   1.025   3.573
 9688SOL     OW29962   0.998   2.467   0.597
 9688SOL    HW129963   1.040   2.540   0.544
 9688SOL    HW229964   0.960   2.504   0.682
 9689SOL     OW29965   0.957   4.639   6.595
 9689SOL    HW129966   1.016   4.583   6.539
 9689SOL    HW229967   0.965   4.611   6.691
 9690SOL     OW29968   5.952   6.556   6.235
 9690SOL    HW129969   5.933   6.465   6.270
 9690SOL    HW229970   6.048   6.580   6.254
 9691SOL     OW29971   2.872   4.153   1.480
 9691SOL    HW129972   2.908   4.219   1.414
 9691SOL    HW229973   2.776   4.136   1.460
 9692SOL     OW29974   4.288   5.929   0.999
 9692SOL    HW129975   4.301   5.913   0.902
 9692SOL    HW229976   4.374   5.962   1.039
 9693SOL     OW29977   6.001   4.259   2.886
 9693SOL    HW129978   5.918   4.210   2.861
 9693SOL    HW229979   5.979   4.356   2.898
 9694SOL     OW29980   3.233   1.384   1.778
 9694SOL    HW129981   3.242   1.290   1.743
 9694SOL    HW229982   3.149   1.392   1.831
 9695SOL     OW29983   6.863   2.668   3.190
 9695SOL    HW129984   6.950   2.632   3.222
 9695SOL    HW229985   6.879   2.740   3.123
 9696SOL     OW29986   5.602   2.779   1.532
 9696SOL    HW129987   5.513   2.810   1.500
 9696SOL    HW229988   5.603   2.778   1.632
 9697SOL     OW29989   0.625   5.881   0.546
 9697SOL    HW129990   0.573   5.954   0.591
 9697SOL    HW229991   0.651   5.812   0.614
 9698SOL     OW29992   5.528   2.491   6.126
 9698SOL    HW129993   5.619   2.522   6.152
 9698SOL    HW229994   5.510   2.516   6.031
 9699SOL     OW29995   6.926   5.866   7.012
 9699SOL    HW129996   6.921   5.769   6.989
 9699SOL    HW229997   7.022   5.895   7.012
 9700SOL     OW29998   6.076   5.090   4.779
 9700SOL    HW129999   6.039   5.104   4.687
 9700SOL    HW230000   6.140   5.164   4.800
 9701SOL     OW30001   4.823   4.191   6.007
 9701SOL    HW130002   4.803   4.096   6.029
 9701SOL    HW230003   4.737   4.240   5.993
 9702SOL     OW30004   3.746   2.443   0.060
 9702SOL    HW130005   3.673   2.489   0.111
 9702SOL    HW230006   3.756   2.486   6.994
 9703SOL     OW30007   4.868   3.487   3.607
 9703SOL    HW130008   4.968   3.496   3.599
 9703SOL    HW230009   4.832   3.445   3.523
 9704SOL     OW30010   3.284   6.108   1.622
 9704SOL    HW130011   3.220   6.035   1.647
 9704SOL    HW230012   3.360   6.070   1.570
 9705SOL     OW30013   5.488   4.242   6.142
 9705SOL    HW130014   5.525   4.263   6.232
 9705SOL    HW230015   5.489   4.143   6.128
 9706SOL     OW30016   3.056   2.549   1.037
 9706SOL    HW130017   3.049   2.504   0.948
 9706SOL    HW230018   3.133   2.510   1.088
 9707SOL     OW30019   6.361   4.802   2.444
 9707SOL    HW130020   6.296   4.792   2.368
 9707SOL    HW230021   6.409   4.889   2.435
 9708SOL     OW30022   0.288   1.606   3.607
 9708SOL    HW130023   0.365   1.659   3.571
 9708SOL    HW230024   0.217   1.599   3.537
 9709SOL     OW30025   5.341   5.736   2.336
 9709SOL    HW130026   5.308   5.698   2.423
 9709SOL    HW230027   5.321   5.671   2.263
 9710SOL     OW30028   6.988   1.630   1.452
 9710SOL    HW130029   0.061   1.645   1.430
 9710SOL    HW230030   6.936   1.713   1.429
 9711SOL     OW30031   4.397   5.239   6.344
 9711SOL    HW130032   4.403   5.219   6.246
 9711SOL    HW230033   4.444   5.325   6.363
 9712SOL     OW30034   5.440   3.557   0.158
 9712SOL    HW130035   5.456   3.646   0.202
 9712SOL    HW230036   5.458   3.484   0.224
 9713SOL     OW30037   2.097   4.323   3.674
 9713SOL    HW130038   2.133   4.270   3.750
 9713SOL    HW230039   2.127   4.282   3.588
 9714SOL     OW30040   4.326   6.638   6.608
 9714SOL    HW130041   4.398   6.705   6.626
 9714SOL    HW230042   4.240   6.685   6.592
 9715SOL     OW30043   5.677   4.312   0.326
 9715SOL    HW130044   5.730   4.237   0.365
 9715SOL    HW230045   5.579   4.291   0.335
 9716SOL     OW30046   3.323   4.163   6.987
 9716SOL    HW130047   3.270   4.201   0.040
 9716SOL    HW230048   3.409   4.213   6.979
 9717SOL     OW30049   5.145   0.001   6.224
 9717SOL    HW130050   5.056   6.981   6.211
 9717SOL    HW230051   5.142   0.095   6.189
 9718SOL     OW30052   4.985   3.485   0.754
 9718SOL    HW130053   4.887   3.502   0.748
 9718SOL    HW230054   5.029   3.513   0.669
 9719SOL     OW30055   5.916   0.834   5.900
 9719SOL    HW130056   5.976   0.908   5.930
 9719SOL    HW230057   5.908   0.836   5.800
 9720SOL     OW30058   0.918   4.285   2.130
 9720SOL    HW130059   0.925   4.213   2.199
 9720SOL    HW230060   0.910   4.373   2.175
 9721SOL     OW30061   0.563   1.389   0.346
 9721SOL    HW130062   0.634   1.436   0.398
 9721SOL    HW230063   0.565   1.420   0.251
 9722SOL     OW30064   3.385   1.595   4.963
 9722SOL    HW130065   3.322   1.594   4.885
 9722SOL    HW230066   3.465   1.651   4.940
 9723SOL     OW30067   3.833   6.614   3.679
 9723SOL    HW130068   3.799   6.659   3.761
 9723SOL    HW230069   3.769   6.627   3.604
 9724SOL     OW30070   1.338   5.089   6.916
 9724SOL    HW130071   1.393   5.015   6.955
 9724SOL    HW230072   1.255   5.051   6.876
 9725SOL     OW30073   4.391   5.991   6.115
 9725SOL    HW130074   4.349   5.936   6.043
 9725SOL    HW230075   4.433   5.931   6.183
 9726SOL     OW30076   4.548   1.181   3.235
 9726SOL    HW130077   4.638   1.172   3.277
 9726SOL    HW230078   4.558   1.210   3.140
 9727SOL     OW30079   0.557   2.311   6.954
 9727SOL    HW130080   0.647   2.354   6.965
 9727SOL    HW230081   0.564   2.238   6.886
 9728SOL     OW30082   0.248   0.586   5.142
 9728SOL    HW130083   0.324   0.564   5.081
 9728SOL    HW230084   0.168   0.610   5.087
 9729SOL     OW30085   1.337   4.500   3.469
 9729SOL    HW130086   1.421   4.508   3.523
 9729SOL    HW230087   1.345   4.421   3.408
 9730SOL     OW30088   1.741   4.514   2.915
 9730SOL    HW130089   1.686   4.473   2.988
 9730SOL    HW230090   1.786   4.441   2.863
 9731SOL     OW30091   5.450   5.808   1.339
 9731SOL    HW130092   5.431   5.763   1.252
 9731SOL    HW230093   5.371   5.863   1.365
 9732SOL     OW30094   0.668   4.244   2.036
 9732SOL    HW130095   0.650   4.157   1.990
 9732SOL    HW230096   0.766   4.252   2.055
 9733SOL     OW30097   4.895   5.483   0.370
 9733SOL    HW130098   4.856   5.474   0.279
 9733SOL    HW230099   4.914   5.392   0.407
 9734SOL     OW30100   7.015   0.493   0.356
 9734SOL    HW130101   0.056   0.562   0.389
 9734SOL    HW230102   0.043   0.416   0.316
 9735SOL     OW30103   1.857   3.294   3.323
 9735SOL    HW130104   1.949   3.325   3.298
 9735SOL    HW230105   1.855   3.273   3.421
 9736SOL     OW30106   5.734   1.359   5.502
 9736SOL    HW130107   5.754   1.457   5.511
 9736SOL    HW230108   5.647   1.338   5.546
 9737SOL     OW30109   5.136   2.292   2.949
 9737SOL    HW130110   5.111   2.263   2.856
 9737SOL    HW230111   5.068   2.356   2.983
 9738SOL     OW30112   2.276   6.834   0.149
 9738SOL    HW130113   2.197   6.777   0.127
 9738SOL    HW230114   2.355   6.777   0.166
 9739SOL     OW30115   5.114   5.856   0.497
 9739SOL    HW130116   5.166   5.876   0.579
 9739SOL    HW230117   5.176   5.851   0.418
 9740SOL     OW30118   0.072   1.613   3.420
 9740SOL    HW130119   0.041   1.519   3.406
 9740SOL    HW230120   7.018   1.671   3.447
 9741SOL     OW30121   2.356   1.120   2.643
 9741SOL    HW130122   2.456   1.130   2.650
 9741SOL    HW230123   2.331   1.108   2.547
 9742SOL     OW30124   3.539   1.313   0.190
 9742SOL    HW130125   3.624   1.360   0.213
 9742SOL    HW230126   3.466   1.347   0.249
 9743SOL     OW30127   6.997   3.760   3.891
 9743SOL    HW130128   0.056   3.748   3.837
 9743SOL    HW230129   6.938   3.828   3.847
 9744SOL     OW30130   1.280   6.904   2.023
 9744SOL    HW130131   1.197   6.959   2.019
 9744SOL    HW230132   1.340   6.939   2.095
 9745SOL     OW30133   4.970   2.686   6.578
 9745SOL    HW130134   4.886   2.735   6.602
 9745SOL    HW230135   5.037   2.700   6.651
 9746SOL     OW30136   5.730   0.458   5.836
 9746SOL    HW130137   5.639   0.445   5.875
 9746SOL    HW230138   5.784   0.517   5.896
 9747SOL     OW30139   2.912   2.108   1.674
 9747SOL    HW130140   2.927   2.202   1.705
 9747SOL    HW230141   2.985   2.050   1.708
 9748SOL     OW30142   5.969   6.715   3.483
 9748SOL    HW130143   6.037   6.765   3.430
 9748SOL    HW230144   5.914   6.779   3.537
 9749SOL     OW30145   1.596   0.647   4.354
 9749SOL    HW130146   1.695   0.646   4.346
 9749SOL    HW230147   1.558   0.724   4.303
 9750SOL     OW30148   5.915   5.401   3.209
 9750SOL    HW130149   5.845   5.334   3.233
 9750SOL    HW230150   5.872   5.488   3.186
 9751SOL     OW30151   2.206   0.170   1.239
 9751SOL    HW130152   2.285   0.206   1.289
 9751SOL    HW230153   2.171   0.241   1.178
 9752SOL     OW30154   4.020   1.489   5.434
 9752SOL    HW130155   4.101   1.490   5.492
 9752SOL    HW230156   4.043   1.527   5.344
 9753SOL     OW30157   0.330   5.598   6.633
 9753SOL    HW130158   0.337   5.612   6.732
 9753SOL    HW230159   0.235   5.579   6.609
 9754SOL     OW30160   2.120   6.939   1.025
 9754SOL    HW130161   2.089   6.954   1.119
 9754SOL    HW230162   2.041   6.920   0.966
 9755SOL     OW30163   3.726   3.733   4.471
 9755SOL    HW130164   3.823   3.738   4.492
 9755SOL    HW230165   3.687   3.653   4.517
 9756SOL     OW30166   5.496   2.560   5.858
 9756SOL    HW130167   5.558   2.624   5.812
 9756SOL    HW230168   5.401   2.587   5.840
 9757SOL     OW30169   5.747   4.857   4.184
 9757SOL    HW130170   5.674   4.872   4.250
 9757SOL    HW230171   5.767   4.944   4.137
 9758SOL     OW30172   2.076   0.648   6.965
 9758SOL    HW130173   2.111   0.616   0.030
 9758SOL    HW230174   2.141   0.624   6.893
 9759SOL     OW30175   1.451   0.806   6.751
 9759SOL    HW130176   1.517   0.806   6.825
 9759SOL    HW230177   1.358   0.812   6.789
 9760SOL     OW30178   4.953   3.210   5.733
 9760SOL    HW130179   4.875   3.147   5.727
 9760SOL    HW230180   5.029   3.174   5.680
 9761SOL     OW30181   0.852   1.744   1.693
 9761SOL    HW130182   0.889   1.659   1.654
 9761SOL    HW230183   0.926   1.811   1.702
 9762SOL     OW30184   3.411   2.083   4.531
 9762SOL    HW130185   3.363   2.070   4.444
 9762SOL    HW230186   3.347   2.119   4.599
 9763SOL     OW30187   5.029   2.135   2.708
 9763SOL    HW130188   5.011   2.075   2.785
 9763SOL    HW230189   4.955   2.128   2.642
 9764SOL     OW30190   6.532   2.991   3.155
 9764SOL    HW130191   6.486   2.969   3.069
 9764SOL    HW230192   6.542   2.907   3.209
 9765SOL     OW30193   6.544   6.685   3.582
 9765SOL    HW130194   6.524   6.672   3.679
 9765SOL    HW230195   6.504   6.611   3.529
 9766SOL     OW30196   2.523   6.676   2.448
 9766SOL    HW130197   2.504   6.725   2.533
 9766SOL    HW230198   2.527   6.741   2.372
 9767SOL     OW30199   3.302   1.666   5.436
 9767SOL    HW130200   3.373   1.730   5.463
 9767SOL    HW230201   3.257   1.699   5.353
 9768SOL     OW30202   5.295   1.186   1.713
 9768SOL    HW130203   5.360   1.240   1.660
 9768SOL    HW230204   5.296   1.091   1.681
 9769SOL     OW30205   4.166   0.457   4.311
 9769SOL    HW130206   4.259   0.457   4.276
 9769SOL    HW230207   4.154   0.533   4.375
 9770SOL     OW30208   4.034   0.936   6.238
 9770SOL    HW130209   3.996   0.878   6.310
 9770SOL    HW230210   3.969   0.941   6.162
 9771SOL     OW30211   2.772   5.391   0.735
 9771SOL    HW130212   2.763   5.403   0.636
 9771SOL    HW230213   2.683   5.366   0.773
 9772SOL     OW30214   1.246   5.803   1.428
 9772SOL    HW130215   1.338   5.767   1.412
 9772SOL    HW230216   1.251   5.880   1.492
 9773SOL     OW30217   5.345   5.342   4.267
 9773SOL    HW130218   5.273   5.331   4.336
 9773SOL    HW230219   5.406   5.417   4.294
 9774SOL     OW30220   6.487   5.378   2.205
 9774SOL    HW130221   6.557   5.449   2.202
 9774SOL    HW230222   6.473   5.341   2.113
 9775SOL     OW30223   2.810   0.475   3.457
 9775SOL    HW130224   2.891   0.427   3.491
 9775SOL    HW230225   2.748   0.492   3.533
 9776SOL     OW30226   0.027   4.880   5.362
 9776SOL    HW130227   6.991   4.908   5.438
 9776SOL    HW230228   0.022   4.948   5.289
 9777SOL     OW30229   5.679   5.370   0.055
 9777SOL    HW130230   5.595   5.403   0.011
 9777SOL    HW230231   5.725   5.306   7.017
 9778SOL     OW30232   0.283   2.083   4.546
 9778SOL    HW130233   0.370   2.109   4.505
 9778SOL    HW230234   0.253   2.154   4.610
 9779SOL     OW30235   0.466   1.971   4.191
 9779SOL    HW130236   0.428   1.962   4.099
 9779SOL    HW230237   0.455   1.885   4.241
 9780SOL     OW30238   2.649   2.399   0.202
 9780SOL    HW130239   2.648   2.478   0.140
 9780SOL    HW230240   2.610   2.426   0.290
 9781SOL     OW30241   2.401   2.388   4.854
 9781SOL    HW130242   2.343   2.388   4.935
 9781SOL    HW230243   2.412   2.294   4.821
 9782SOL     OW30244   0.297   1.444   0.885
 9782SOL    HW130245   0.342   1.459   0.974
 9782SOL    HW230246   0.362   1.465   0.812
 9783SOL     OW30247   4.734   2.802   3.063
 9783SOL    HW130248   4.703   2.896   3.048
 9783SOL    HW230249   4.711   2.774   3.156
 9784SOL     OW30250   3.596   2.128   6.454
 9784SOL    HW130251   3.632   2.190   6.384
 9784SOL    HW230252   3.636   2.038   6.443
 9785SOL     OW30253   0.735   2.001   5.959
 9785SOL    HW130254   0.820   1.952   5.981
 9785SOL    HW230255   0.664   1.975   6.025
 9786SOL     OW30256   2.913   4.012   0.494
 9786SOL    HW130257   2.819   4.044   0.507
 9786SOL    HW230258   2.952   4.054   0.413
 9787SOL     OW30259   2.993   3.258   2.626
 9787SOL    HW130260   2.997   3.325   2.551
 9787SOL    HW230261   3.024   3.169   2.593
 9788SOL     OW30262   0.810   0.103   3.572
 9788SOL    HW130263   0.819   0.137   3.478
 9788SOL    HW230264   0.879   0.146   3.630
 9789SOL     OW30265   1.488   5.042   0.459
 9789SOL    HW130266   1.508   5.135   0.426
 9789SOL    HW230267   1.405   5.044   0.515
 9790SOL     OW30268   6.535   5.114   6.755
 9790SOL    HW130269   6.466   5.089   6.823
 9790SOL    HW230270   6.495   5.177   6.689
 9791SOL     OW30271   0.504   0.405   0.026
 9791SOL    HW130272   0.421   0.444   0.067
 9791SOL    HW230273   0.536   0.466   6.976
 9792SOL     OW30274   3.360   4.216   0.789
 9792SOL    HW130275   3.393   4.122   0.778
 9792SOL    HW230276   3.285   4.217   0.855
 9793SOL     OW30277   4.052   6.993   2.589
 9793SOL    HW130278   4.123   0.012   2.533
 9793SOL    HW230279   4.095   6.932   2.655
 9794SOL     OW30280   6.877   3.977   6.933
 9794SOL    HW130281   6.854   3.949   0.003
 9794SOL    HW230282   6.803   4.031   6.895
 9795SOL     OW30283   1.535   1.744   4.338
 9795SOL    HW130284   1.608   1.799   4.379
 9795SOL    HW230285   1.476   1.708   4.409
 9796SOL     OW30286   3.677   2.959   2.511
 9796SOL    HW130287   3.696   3.057   2.515
 9796SOL    HW230288   3.584   2.941   2.543
 9797SOL     OW30289   2.255   5.544   0.330
 9797SOL    HW130290   2.192   5.618   0.307
 9797SOL    HW230291   2.330   5.580   0.386
 9798SOL     OW30292   3.547   0.654   2.167
 9798SOL    HW130293   3.495   0.579   2.208
 9798SOL    HW230294   3.643   0.646   2.191
 9799SOL     OW30295   2.855   4.174   5.258
 9799SOL    HW130296   2.790   4.132   5.194
 9799SOL    HW230297   2.871   4.113   5.335
 9800SOL     OW30298   4.975   5.074   5.163
 9800SOL    HW130299   4.879   5.101   5.158
 9800SOL    HW230300   4.981   4.975   5.177
 9801SOL     OW30301   4.857   4.072   6.932
 9801SOL    HW130302   4.774   4.120   6.901
 9801SOL    HW230303   4.899   4.124   7.006
 9802SOL     OW30304   6.491   4.199   1.533
 9802SOL    HW130305   6.577   4.226   1.491
 9802SOL    HW230306   6.508   4.130   1.603
 9803SOL     OW30307   1.779   2.049   6.278
 9803SOL    HW130308   1.699   2.109   6.279
 9803SOL    HW230309   1.826   2.059   6.190
 9804SOL     OW30310   1.291   6.165   3.264
 9804SOL    HW130311   1.334   6.101   3.327
 9804SOL    HW230312   1.359   6.196   3.197
 9805SOL     OW30313   1.184   6.894   3.387
 9805SOL    HW130314   1.246   6.848   3.451
 9805SOL    HW230315   1.221   6.886   3.295
 9806SOL     OW30316   1.628   0.887   6.952
 9806SOL    HW130317   1.613   0.983   6.930
 9806SOL    HW230318   1.724   0.873   6.978
 9807SOL     OW30319   3.655   3.927   0.998
 9807SOL    HW130320   3.559   3.901   0.985
 9807SOL    HW230321   3.664   4.026   0.993
 9808SOL     OW30322   3.489   6.803   4.890
 9808SOL    HW130323   3.398   6.778   4.924
 9808SOL    HW230324   3.548   6.722   4.889
 9809SOL     OW30325   0.741   3.282   6.165
 9809SOL    HW130326   0.730   3.381   6.175
 9809SOL    HW230327   0.655   3.236   6.186
 9810SOL     OW30328   2.140   2.467   3.853
 9810SOL    HW130329   2.172   2.562   3.848
 9810SOL    HW230330   2.216   2.405   3.834
 9811SOL     OW30331   5.681   4.837   3.001
 9811SOL    HW130332   5.628   4.755   2.978
 9811SOL    HW230333   5.645   4.878   3.085
 9812SOL     OW30334   3.965   1.498   5.716
 9812SOL    HW130335   3.933   1.406   5.739
 9812SOL    HW230336   3.931   1.523   5.625
 9813SOL     OW30337   4.632   1.481   0.530
 9813SOL    HW130338   4.591   1.458   0.441
 9813SOL    HW230339   4.611   1.410   0.596
 9814SOL     OW30340   6.896   0.334   6.407
 9814SOL    HW130341   6.956   0.414   6.410
 9814SOL    HW230342   6.903   0.284   6.493
 9815SOL     OW30343   5.312   3.787   4.561
 9815SOL    HW130344   5.384   3.856   4.549
 9815SOL    HW230345   5.238   3.826   4.616
 9816SOL     OW30346   1.030   0.657   6.031
 9816SOL    HW130347   1.053   0.627   5.938
 9816SOL    HW230348   0.998   0.579   6.084
 9817SOL     OW30349   2.899   6.654   3.138
 9817SOL    HW130350   2.829   6.593   3.174
 9817SOL    HW230351   2.958   6.604   3.075
 9818SOL     OW30352   0.717   0.314   3.783
 9818SOL    HW130353   0.638   0.257   3.758
 9818SOL    HW230354   0.716   0.397   3.728
 9819SOL     OW30355   4.874   3.734   3.712
 9819SOL    HW130356   4.866   3.640   3.679
 9819SOL    HW230357   4.961   3.746   3.760
 9820SOL     OW30358   3.904   3.018   6.241
 9820SOL    HW130359   3.898   2.946   6.173
 9820SOL    HW230360   3.830   3.084   6.227
 9821SOL     OW30361   5.114   1.054   6.449
 9821SOL    HW130362   5.044   0.992   6.485
 9821SOL    HW230363   5.071   1.119   6.386
 9822SOL     OW30364   1.662   0.253   3.454
 9822SOL    HW130365   1.565   0.260   3.476
 9822SOL    HW230366   1.676   0.182   3.385
 9823SOL     OW30367   2.538   0.612   0.201
 9823SOL    HW130368   2.537   0.688   0.136
 9823SOL    HW230369   2.610   0.548   0.175
 9824SOL     OW30370   1.740   5.098   4.590
 9824SOL    HW130371   1.741   5.007   4.633
 9824SOL    HW230372   1.829   5.141   4.602
 9825SOL     OW30373   5.043   5.865   5.231
 9825SOL    HW130374   4.987   5.909   5.302
 9825SOL    HW230375   5.102   5.934   5.188
 9826SOL     OW30376   4.900   4.842   6.344
 9826SOL    HW130377   4.848   4.927   6.352
 9826SOL    HW230378   4.931   4.831   6.250
 9827SOL     OW30379   2.137   3.235   3.692
 9827SOL    HW130380   2.121   3.199   3.784
 9827SOL    HW230381   2.097   3.326   3.685
 9828SOL     OW30382   2.434   2.602   5.630
 9828SOL    HW130383   2.470   2.675   5.571
 9828SOL    HW230384   2.501   2.582   5.701
 9829SOL     OW30385   4.021   4.746   6.993
 9829SOL    HW130386   4.098   4.714   6.937
 9829SOL    HW230387   4.051   4.759   0.064
 9830SOL     OW30388   6.283   2.505   2.287
 9830SOL    HW130389   6.357   2.496   2.220
 9830SOL    HW230390   6.224   2.425   2.282
 9831SOL     OW30391   2.333   5.204   1.495
 9831SOL    HW130392   2.325   5.160   1.405
 9831SOL    HW230393   2.353   5.301   1.482
 9832SOL     OW30394   5.014   5.236   2.648
 9832SOL    HW130395   5.110   5.230   2.678
 9832SOL    HW230396   4.970   5.147   2.661
 9833SOL     OW30397   3.415   3.513   5.081
 9833SOL    HW130398   3.330   3.558   5.053
 9833SOL    HW230399   3.476   3.581   5.122
 9834SOL     OW30400   3.009   4.422   5.333
 9834SOL    HW130401   3.002   4.496   5.265
 9834SOL    HW230402   2.939   4.353   5.315
 9835SOL     OW30403   4.138   3.257   5.298
 9835SOL    HW130404   4.078   3.213   5.231
 9835SOL    HW230405   4.085   3.284   5.378
 9836SOL     OW30406   0.015   4.608   3.385
 9836SOL    HW130407   0.009   4.693   3.436
 9836SOL    HW230408   6.951   4.591   3.338
 9837SOL     OW30409   3.427   0.387   3.058
 9837SOL    HW130410   3.384   0.466   3.101
 9837SOL    HW230411   3.475   0.417   2.975
 9838SOL     OW30412   1.912   0.082   6.592
 9838SOL    HW130413   1.949   7.014   6.609
 9838SOL    HW230414   1.819   0.075   6.556
 9839SOL     OW30415   5.314   0.579   3.752
 9839SOL    HW130416   5.360   0.615   3.834
 9839SOL    HW230417   5.332   0.481   3.745
 9840SOL     OW30418   5.903   1.376   0.947
 9840SOL    HW130419   5.891   1.360   0.849
 9840SOL    HW230420   5.965   1.307   0.985
 9841SOL     OW30421   2.063   5.064   5.270
 9841SOL    HW130422   2.091   5.116   5.352
 9841SOL    HW230423   2.142   5.013   5.235
 9842SOL     OW30424   3.838   3.647   2.216
 9842SOL    HW130425   3.800   3.556   2.195
 9842SOL    HW230426   3.884   3.644   2.305
 9843SOL     OW30427   6.061   0.688   1.116
 9843SOL    HW130428   5.973   0.696   1.164
 9843SOL    HW230429   6.065   0.754   1.042
 9844SOL     OW30430   6.199   0.699   2.293
 9844SOL    HW130431   6.142   0.781   2.291
 9844SOL    HW230432   6.187   0.652   2.380
 9845SOL     OW30433   2.045   2.877   2.810
 9845SOL    HW130434   2.142   2.861   2.831
 9845SOL    HW230435   1.996   2.897   2.895
 9846SOL     OW30436   3.793   3.330   2.225
 9846SOL    HW130437   3.783   3.282   2.138
 9846SOL    HW230438   3.760   3.272   2.299
 9847SOL     OW30439   3.547   2.987   3.719
 9847SOL    HW130440   3.643   2.974   3.693
 9847SOL    HW230441   3.542   3.040   3.804
 9848SOL     OW30442   3.655   3.259   4.961
 9848SOL    HW130443   3.616   3.287   4.873
 9848SOL    HW230444   3.679   3.340   5.014
 9849SOL     OW30445   0.980   6.880   6.561
 9849SOL    HW130446   1.042   6.814   6.602
 9849SOL    HW230447   1.028   6.967   6.548
 9850SOL     OW30448   5.696   6.966   4.213
 9850SOL    HW130449   5.621   6.901   4.212
 9850SOL    HW230450   5.669   0.025   4.263
 9851SOL     OW30451   6.256   0.586   4.676
 9851SOL    HW130452   6.286   0.520   4.745
 9851SOL    HW230453   6.156   0.595   4.681
 9852SOL     OW30454   4.238   2.142   3.615
 9852SOL    HW130455   4.212   2.199   3.693
 9852SOL    HW230456   4.226   2.045   3.638
 9853SOL     OW30457   4.963   3.989   4.827
 9853SOL    HW130458   4.904   3.984   4.908
 9853SOL    HW230459   5.058   3.971   4.853
 9854SOL     OW30460   6.921   5.314   4.974
 9854SOL    HW130461   6.914   5.241   5.042
 9854SOL    HW230462   6.847   5.305   4.907
 9855SOL     OW30463   2.235   3.244   1.191
 9855SOL    HW130464   2.251   3.272   1.285
 9855SOL    HW230465   2.318   3.258   1.137
 9856SOL     OW30466   4.896   4.534   4.817
 9856SOL    HW130467   4.853   4.444   4.828
 9856SOL    HW230468   4.963   4.530   4.743
 9857SOL     OW30469   4.868   3.023   2.788
 9857SOL    HW130470   4.876   3.088   2.712
 9857SOL    HW230471   4.896   3.068   2.873
 9858SOL     OW30472   0.283   0.711   1.143
 9858SOL    HW130473   0.186   0.702   1.163
 9858SOL    HW230474   0.334   0.723   1.228
 9859SOL     OW30475   6.400   6.928   2.653
 9859SOL    HW130476   6.404   6.942   2.554
 9859SOL    HW230477   6.314   6.883   2.677
 9860SOL     OW30478   1.125   1.514   3.493
 9860SOL    HW130479   1.202   1.458   3.463
 9860SOL    HW230480   1.158   1.603   3.524
 9861SOL     OW30481   3.036   0.101   3.580
 9861SOL    HW130482   3.135   0.115   3.583
 9861SOL    HW230483   3.006   0.095   3.485
 9862SOL     OW30484   3.857   3.027   0.130
 9862SOL    HW130485   3.797   3.093   0.084
 9862SOL    HW230486   3.831   2.934   0.102
 9863SOL     OW30487   3.284   0.294   2.683
 9863SOL    HW130488   3.219   0.255   2.748
 9863SOL    HW230489   3.350   0.224   2.655
 9864SOL     OW30490   3.848   6.762   3.923
 9864SOL    HW130491   3.818   6.850   3.959
 9864SOL    HW230492   3.880   6.704   3.997
 9865SOL     OW30493   1.144   0.492   4.687
 9865SOL    HW130494   1.199   0.505   4.770
 9865SOL    HW230495   1.204   0.494   4.607
 9866SOL     OW30496   5.388   4.632   6.293
 9866SOL    HW130497   5.434   4.671   6.213
 9866SOL    HW230498   5.414   4.683   6.375
 9867SOL     OW30499   6.429   0.677   1.012
 9867SOL    HW130500   6.401   0.608   1.080
 9867SOL    HW230501   6.503   0.732   1.050
 9868SOL     OW30502   0.375   3.494   5.661
 9868SOL    HW130503   0.277   3.473   5.651
 9868SOL    HW230504   0.428   3.431   5.605
 9869SOL     OW30505   1.421   3.077   1.560
 9869SOL    HW130506   1.474   3.161   1.547
 9869SOL    HW230507   1.412   3.058   1.658
 9870SOL     OW30508   3.297   6.151   2.782
 9870SOL    HW130509   3.335   6.179   2.870
 9870SOL    HW230510   3.359   6.180   2.709
 9871SOL     OW30511   0.187   5.897   5.987
 9871SOL    HW130512   0.210   5.969   6.053
 9871SOL    HW230513   0.212   5.808   6.024
 9872SOL     OW30514   2.460   5.843   4.524
 9872SOL    HW130515   2.495   5.924   4.476
 9872SOL    HW230516   2.483   5.762   4.471
 9873SOL     OW30517   2.474   2.681   0.363
 9873SOL    HW130518   2.423   2.595   0.372
 9873SOL    HW230519   2.465   2.715   0.270
 9874SOL     OW30520   5.705   3.149   5.148
 9874SOL    HW130521   5.750   3.069   5.108
 9874SOL    HW230522   5.699   3.221   5.079
 9875SOL     OW30523   5.882   6.445   1.971
 9875SOL    HW130524   5.787   6.478   1.970
 9875SOL    HW230525   5.894   6.382   2.047
 9876SOL     OW30526   6.697   0.359   3.940
 9876SOL    HW130527   6.747   0.279   3.909
 9876SOL    HW230528   6.674   0.417   3.862
 9877SOL     OW30529   6.943   5.787   4.325
 9877SOL    HW130530   6.941   5.861   4.258
 9877SOL    HW230531   7.011   5.719   4.297
 9878SOL     OW30532   2.703   4.479   5.699
 9878SOL    HW130533   2.645   4.453   5.622
 9878SOL    HW230534   2.786   4.424   5.697
 9879SOL     OW30535   6.029   5.633   5.078
 9879SOL    HW130536   5.947   5.598   5.124
 9879SOL    HW230537   6.054   5.722   5.118
 9880SOL     OW30538   3.740   0.947   6.882
 9880SOL    HW130539   3.727   0.968   6.979
 9880SOL    HW230540   3.689   0.864   6.859
 9881SOL     OW30541   1.107   1.067   4.417
 9881SOL    HW130542   1.136   0.976   4.447
 9881SOL    HW230543   1.101   1.068   4.317
 9882SOL     OW30544   1.549   2.897   4.145
 9882SOL    HW130545   1.549   2.959   4.067
 9882SOL    HW230546   1.637   2.850   4.151
 9883SOL     OW30547   1.281   6.313   1.267
 9883SOL    HW130548   1.195   6.268   1.246
 9883SOL    HW230549   1.300   6.382   1.196
 9884SOL     OW30550   4.784   2.325   1.809
 9884SOL    HW130551   4.755   2.418   1.784
 9884SOL    HW230552   4.752   2.304   1.902
 9885SOL     OW30553   6.906   2.302   5.104
 9885SOL    HW130554   6.912   2.213   5.060
 9885SOL    HW230555   6.916   2.374   5.034
 9886SOL     OW30556   1.309   4.747   1.797
 9886SOL    HW130557   1.376   4.774   1.866
 9886SOL    HW230558   1.277   4.654   1.816
 9887SOL     OW30559   4.336   0.405   6.712
 9887SOL    HW130560   4.294   0.483   6.667
 9887SOL    HW230561   4.297   0.394   6.804
 9888SOL     OW30562   5.629   4.739   2.325
 9888SOL    HW130563   5.614   4.644   2.297
 9888SOL    HW230564   5.620   4.747   2.425
 9889SOL     OW30565   6.501   4.605   0.733
 9889SOL    HW130566   6.419   4.635   0.685
 9889SOL    HW230567   6.477   4.569   0.823
 9890SOL     OW30568   0.846   2.958   1.084
 9890SOL    HW130569   0.904   2.919   1.012
 9890SOL    HW230570   0.780   3.020   1.043
 9891SOL     OW30571   5.777   3.327   1.649
 9891SOL    HW130572   5.751   3.250   1.707
 9891SOL    HW230573   5.711   3.337   1.575
 9892SOL     OW30574   1.404   4.559   2.138
 9892SOL    HW130575   1.359   4.486   2.190
 9892SOL    HW230576   1.431   4.523   2.049
 9893SOL     OW30577   0.603   0.786   2.259
 9893SOL    HW130578   0.556   0.835   2.186
 9893SOL    HW230579   0.632   0.851   2.329
 9894SOL     OW30580   3.161   2.487   0.281
 9894SOL    HW130581   3.189   2.489   0.185
 9894SOL    HW230582   3.137   2.393   0.307
 9895SOL     OW30583   5.319   3.566   5.116
 9895SOL    HW130584   5.228   3.578   5.156
 9895SOL    HW230585   5.381   3.528   5.185
 9896SOL     OW30586   6.193   1.010   0.619
 9896SOL    HW130587   6.255   0.941   0.583
 9896SOL    HW230588   6.244   1.074   0.677
 9897SOL     OW30589   6.047   6.843   2.426
 9897SOL    HW130590   6.069   6.910   2.355
 9897SOL    HW230591   6.051   6.751   2.387
 9898SOL     OW30592   1.229   5.339   5.759
 9898SOL    HW130593   1.261   5.310   5.849
 9898SOL    HW230594   1.308   5.361   5.701
 9899SOL     OW30595   1.313   5.160   1.545
 9899SOL    HW130596   1.395   5.211   1.569
 9899SOL    HW230597   1.259   5.142   1.627
 9900SOL     OW30598   1.310   3.050   2.978
 9900SOL    HW130599   1.330   2.973   2.918
 9900SOL    HW230600   1.395   3.097   3.001
 9901SOL     OW30601   2.813   0.848   6.694
 9901SOL    HW130602   2.765   0.834   6.607
 9901SOL    HW230603   2.783   0.780   6.760
 9902SOL     OW30604   3.378   4.358   1.444
 9902SOL    HW130605   3.345   4.400   1.359
 9902SOL    HW230606   3.437   4.281   1.422
 9903SOL     OW30607   5.480   1.345   1.547
 9903SOL    HW130608   5.477   1.391   1.458
 9903SOL    HW230609   5.447   1.408   1.618
 9904SOL     OW30610   0.491   3.958   6.557
 9904SOL    HW130611   0.451   3.897   6.489
 9904SOL    HW230612   0.518   3.905   6.638
 9905SOL     OW30613   2.505   0.324   5.646
 9905SOL    HW130614   2.555   0.380   5.579
 9905SOL    HW230615   2.433   0.380   5.688
 9906SOL     OW30616   1.569   3.042   0.560
 9906SOL    HW130617   1.506   3.055   0.483
 9906SOL    HW230618   1.663   3.053   0.528
 9907SOL     OW30619   1.507   0.737   1.166
 9907SOL    HW130620   1.549   0.689   1.243
 9907SOL    HW230621   1.430   0.792   1.198
 9908SOL     OW30622   6.554   2.283   4.755
 9908SOL    HW130623   6.535   2.363   4.813
 9908SOL    HW230624   6.469   2.251   4.714
 9909SOL     OW30625   4.068   0.907   2.477
 9909SOL    HW130626   4.123   0.880   2.556
 9909SOL    HW230627   4.100   0.859   2.396
 9910SOL     OW30628   1.106   5.164   2.015
 9910SOL    HW130629   1.108   5.262   1.995
 9910SOL    HW230630   1.060   5.149   2.103
 9911SOL     OW30631   2.443   6.104   2.449
 9911SOL    HW130632   2.507   6.172   2.415
 9911SOL    HW230633   2.369   6.091   2.383
 9912SOL     OW30634   3.725   1.422   1.106
 9912SOL    HW130635   3.736   1.330   1.141
 9912SOL    HW230636   3.795   1.441   1.037
 9913SOL     OW30637   6.397   3.461   0.843
 9913SOL    HW130638   6.391   3.465   0.743
 9913SOL    HW230639   6.489   3.433   0.869
 9914SOL     OW30640   6.056   0.254   5.166
 9914SOL    HW130641   6.051   0.299   5.077
 9914SOL    HW230642   6.135   0.290   5.217
 9915SOL     OW30643   5.943   0.666   3.754
 9915SOL    HW130644   5.958   0.763   3.738
 9915SOL    HW230645   6.019   0.614   3.715
 9916SOL     OW30646   2.034   2.654   2.977
 9916SOL    HW130647   2.033   2.722   2.904
 9916SOL    HW230648   2.103   2.585   2.958
 9917SOL     OW30649   3.945   3.925   5.881
 9917SOL    HW130650   4.031   3.955   5.840
 9917SOL    HW230651   3.937   3.962   5.973
 9918SOL     OW30652   1.439   2.316   2.960
 9918SOL    HW130653   1.515   2.292   2.899
 9918SOL    HW230654   1.357   2.267   2.931
 9919SOL     OW30655   1.873   5.225   1.068
 9919SOL    HW130656   1.963   5.191   1.041
 9919SOL    HW230657   1.871   5.324   1.059
 9920SOL     OW30658   5.218   0.765   2.352
 9920SOL    HW130659   5.196   0.861   2.364
 9920SOL    HW230660   5.269   0.753   2.266
 9921SOL     OW30661   4.035   6.230   3.888
 9921SOL    HW130662   4.122   6.215   3.935
 9921SOL    HW230663   4.028   6.326   3.860
 9922SOL     OW30664   4.092   4.422   0.770
 9922SOL    HW130665   4.006   4.402   0.818
 9922SOL    HW230666   4.091   4.516   0.737
 9923SOL     OW30667   5.922   4.208   6.867
 9923SOL    HW130668   5.887   4.235   6.777
 9923SOL    HW230669   5.860   4.241   6.938
 9924SOL     OW30670   5.664   2.323   2.972
 9924SOL    HW130671   5.699   2.239   3.013
 9924SOL    HW230672   5.651   2.309   2.874
 9925SOL     OW30673   0.469   5.340   4.058
 9925SOL    HW130674   0.444   5.269   3.992
 9925SOL    HW230675   0.399   5.345   4.130
 9926SOL     OW30676   4.270   2.414   1.100
 9926SOL    HW130677   4.179   2.446   1.124
 9926SOL    HW230678   4.264   2.346   1.026
 9927SOL     OW30679   1.610   0.749   0.858
 9927SOL    HW130680   1.612   0.729   0.956
 9927SOL    HW230681   1.515   0.755   0.827
 9928SOL     OW30682   4.876   4.725   3.508
 9928SOL    HW130683   4.796   4.724   3.449
 9928SOL    HW230684   4.935   4.647   3.486
 9929SOL     OW30685   3.715   4.128   4.461
 9929SOL    HW130686   3.649   4.072   4.409
 9929SOL    HW230687   3.760   4.191   4.398
 9930SOL     OW30688   0.159   6.796   5.707
 9930SOL    HW130689   0.193   6.754   5.623
 9930SOL    HW230690   0.235   6.837   5.757
 9931SOL     OW30691   6.896   4.756   4.592
 9931SOL    HW130692   6.905   4.820   4.668
 9931SOL    HW230693   6.799   4.735   4.578
 9932SOL     OW30694   2.654   2.954   5.607
 9932SOL    HW130695   2.611   2.896   5.537
 9932SOL    HW230696   2.728   3.006   5.565
 9933SOL     OW30697   1.799   6.484   4.303
 9933SOL    HW130698   1.740   6.411   4.338
 9933SOL    HW230699   1.749   6.571   4.305
 9934SOL     OW30700   0.113   2.152   6.257
 9934SOL    HW130701   0.039   2.088   6.272
 9934SOL    HW230702   0.076   2.245   6.249
 9935SOL     OW30703   2.511   0.051   1.125
 9935SOL    HW130704   2.594   0.107   1.127
 9935SOL    HW230705   2.458   0.072   1.042
 9936SOL     OW30706   6.257   4.512   0.361
 9936SOL    HW130707   6.161   4.506   0.335
 9936SOL    HW230708   6.283   4.609   0.369
 9937SOL     OW30709   0.788   2.042   1.642
 9937SOL    HW130710   0.723   1.971   1.616
 9937SOL    HW230711   0.865   2.000   1.691
 9938SOL     OW30712   5.390   5.097   3.665
 9938SOL    HW130713   5.355   5.053   3.748
 9938SOL    HW230714   5.351   5.052   3.584
 9939SOL     OW30715   4.009   2.944   1.120
 9939SOL    HW130716   3.948   2.870   1.093
 9939SOL    HW230717   4.082   2.953   1.052
 9940SOL     OW30718   1.085   0.425   1.530
 9940SOL    HW130719   1.163   0.362   1.535
 9940SOL    HW230720   1.074   0.471   1.618
 9941SOL     OW30721   3.042   4.175   5.621
 9941SOL    HW130722   3.026   4.153   5.717
 9941SOL    HW230723   3.031   4.091   5.566
 9942SOL     OW30724   3.471   5.484   2.532
 9942SOL    HW130725   3.566   5.511   2.517
 9942SOL    HW230726   3.457   5.391   2.499
 9943SOL     OW30727   0.933   4.928   6.648
 9943SOL    HW130728   0.977   4.840   6.635
 9943SOL    HW230729   0.979   4.997   6.592
 9944SOL     OW30730   0.688   4.642   6.571
 9944SOL    HW130731   0.646   4.646   6.481
 9944SOL    HW230732   0.786   4.658   6.562
 9945SOL     OW30733   4.727   5.558   0.032
 9945SOL    HW130734   4.715   5.557   6.956
 9945SOL    HW230735   4.730   5.653   0.064
 9946SOL     OW30736   6.242   0.293   3.461
 9946SOL    HW130737   6.229   0.310   3.559
 9946SOL    HW230738   6.336   0.264   3.444
 9947SOL     OW30739   2.758   2.120   4.480
 9947SOL    HW130740   2.840   2.080   4.439
 9947SOL    HW230741   2.785   2.185   4.552
 9948SOL     OW30742   6.864   4.790   5.778
 9948SOL    HW130743   6.930   4.741   5.721
 9948SOL    HW230744   6.777   4.799   5.729
 9949SOL     OW30745   6.495   4.631   3.678
 9949SOL    HW130746   6.565   4.561   3.662
 9949SOL    HW230747   6.450   4.613   3.766
 9950SOL     OW30748   5.644   6.201   6.049
 9950SOL    HW130749   5.628   6.104   6.062
 9950SOL    HW230750   5.578   6.237   5.983
 9951SOL     OW30751   1.334   2.674   3.329
 9951SOL    HW130752   1.388   2.658   3.412
 9951SOL    HW230753   1.385   2.642   3.249
 9952SOL     OW30754   1.543   4.178   0.618
 9952SOL    HW130755   1.605   4.189   0.696
 9952SOL    HW230756   1.551   4.084   0.583
 9953SOL     OW30757   6.265   2.599   4.146
 9953SOL    HW130758   6.302   2.624   4.057
 9953SOL    HW230759   6.227   2.506   4.142
 9954SOL     OW30760   1.061   0.143   5.403
 9954SOL    HW130761   1.083   0.241   5.406
 9954SOL    HW230762   0.962   0.132   5.388
 9955SOL     OW30763   4.628   4.084   6.339
 9955SOL    HW130764   4.566   4.010   6.364
 9955SOL    HW230765   4.654   4.135   6.421
 9956SOL     OW30766   1.053   5.282   4.245
 9956SOL    HW130767   1.036   5.257   4.340
 9956SOL    HW230768   1.132   5.232   4.210
 9957SOL     OW30769   5.810   0.053   1.767
 9957SOL    HW130770   5.767   0.136   1.733
 9957SOL    HW230771   5.750   6.998   1.748
 9958SOL     OW30772   2.426   5.775   0.051
 9958SOL    HW130773   2.334   5.754   0.018
 9958SOL    HW230774   2.490   5.773   6.998
 9959SOL     OW30775   4.086   3.650   3.890
 9959SOL    HW130776   4.070   3.664   3.792
 9959SOL    HW230777   4.183   3.628   3.905
 9960SOL     OW30778   0.360   0.305   1.863
 9960SOL    HW130779   0.404   0.219   1.891
 9960SOL    HW230780   0.296   0.334   1.934
 9961SOL     OW30781   1.387   4.959   4.330
 9961SOL    HW130782   1.451   5.036   4.329
 9961SOL    HW230783   1.421   4.887   4.391
 9962SOL     OW30784   4.823   0.778   2.633
 9962SOL    HW130785   4.724   0.792   2.627
 9962SOL    HW230786   4.844   0.719   2.711
 9963SOL     OW30787   2.176   2.336   6.086
 9963SOL    HW130788   2.179   2.363   5.990
 9963SOL    HW230789   2.268   2.339   6.124
 9964SOL     OW30790   4.537   4.033   5.857
 9964SOL    HW130791   4.516   4.115   5.911
 9964SOL    HW230792   4.553   3.956   5.918
 9965SOL     OW30793   4.265   5.043   5.901
 9965SOL    HW130794   4.166   5.035   5.895
 9965SOL    HW230795   4.306   4.952   5.908
 9966SOL     OW30796   2.543   5.593   2.143
 9966SOL    HW130797   2.519   5.690   2.139
 9966SOL    HW230798   2.516   5.557   2.233
 9967SOL     OW30799   5.849   5.978   1.311
 9967SOL    HW130800   5.905   6.058   1.332
 9967SOL    HW230801   5.755   5.994   1.342
 9968SOL     OW30802   3.170   4.429   6.725
 9968SOL    HW130803   3.120   4.494   6.668
 9968SOL    HW230804   3.106   4.374   6.777
 9969SOL     OW30805   1.821   2.839   4.179
 9969SOL    HW130806   1.866   2.833   4.090
 9969SOL    HW230807   1.841   2.758   4.233
 9970SOL     OW30808   5.685   4.386   2.378
 9970SOL    HW130809   5.740   4.435   2.310
 9970SOL    HW230810   5.618   4.328   2.331
 9971SOL     OW30811   2.774   3.720   0.402
 9971SOL    HW130812   2.818   3.809   0.406
 9971SOL    HW230813   2.751   3.699   0.307
 9972SOL     OW30814   3.805   4.503   0.877
 9972SOL    HW130815   3.769   4.427   0.931
 9972SOL    HW230816   3.751   4.585   0.895
 9973SOL     OW30817   4.285   1.867   4.300
 9973SOL    HW130818   4.195   1.853   4.259
 9973SOL    HW230819   4.296   1.806   4.378
 9974SOL     OW30820   6.251   3.646   3.716
 9974SOL    HW130821   6.258   3.611   3.623
 9974SOL    HW230822   6.157   3.674   3.734
 9975SOL     OW30823   6.365   4.335   0.170
 9975SOL    HW130824   6.337   4.413   0.227
 9975SOL    HW230825   6.285   4.299   0.122
 9976SOL     OW30826   0.422   5.437   5.864
 9976SOL    HW130827   0.341   5.417   5.919
 9976SOL    HW230828   0.400   5.425   5.767
 9977SOL     OW30829   0.071   5.562   6.541
 9977SOL    HW130830   0.038   5.655   6.527
 9977SOL    HW230831   0.054   5.507   6.459
 9978SOL     OW30832   6.614   2.932   3.643
 9978SOL    HW130833   6.672   2.867   3.594
 9978SOL    HW230834   6.671   3.006   3.680
 9979SOL     OW30835   6.033   4.643   5.677
 9979SOL    HW130836   5.976   4.622   5.598
 9979SOL    HW230837   6.076   4.559   5.711
 9980SOL     OW30838   1.501   1.702   6.663
 9980SOL    HW130839   1.484   1.657   6.751
 9980SOL    HW230840   1.582   1.760   6.670
 9981SOL     OW30841   2.282   1.793   1.657
 9981SOL    HW130842   2.347   1.859   1.695
 9981SOL    HW230843   2.261   1.724   1.727
 9982SOL     OW30844   0.481   1.418   3.555
 9982SOL    HW130845   0.381   1.417   3.563
 9982SOL    HW230846   0.507   1.476   3.478
 9983SOL     OW30847   1.558   2.377   2.331
 9983SOL    HW130848   1.594   2.373   2.424
 9983SOL    HW230849   1.471   2.426   2.331
 9984SOL     OW30850   1.584   6.837   0.655
 9984SOL    HW130851   1.556   6.849   0.750
 9984SOL    HW230852   1.577   6.924   0.607
 9985SOL     OW30853   2.614   0.961   1.824
 9985SOL    HW130854   2.583   0.973   1.918
 9985SOL    HW230855   2.706   0.921   1.825
 9986SOL     OW30856   5.397   3.789   6.852
 9986SOL    HW130857   5.416   3.882   6.820
 9986SOL    HW230858   5.478   3.733   6.839
 9987SOL     OW30859   5.949   2.029   3.134
 9987SOL    HW130860   5.960   1.956   3.201
 9987SOL    HW230861   5.854   2.058   3.130
 9988SOL     OW30862   0.066   5.089   5.171
 9988SOL    HW130863   7.010   5.148   5.185
 9988SOL    HW230864   0.149   5.139   5.193
 9989SOL     OW30865   5.692   4.222   3.274
 9989SOL    HW130866   5.766   4.288   3.287
 9989SOL    HW230867   5.724   4.147   3.217
 9990SOL     OW30868   2.186   0.455   2.508
 9990SOL    HW130869   2.122   0.462   2.585
 9990SOL    HW230870   2.148   0.502   2.428
 9991SOL     OW30871   2.223   3.045   4.185
 9991SOL    HW130872   2.282   2.971   4.152
 9991SOL    HW230873   2.224   3.046   4.285
 9992SOL     OW30874   4.527   3.613   0.474
 9992SOL    HW130875   4.483   3.564   0.399
 9992SOL    HW230876   4.579   3.690   0.438
 9993SOL     OW30877   4.073   0.394   1.908
 9993SOL    HW130878   4.065   0.295   1.914
 9993SOL    HW230879   4.006   0.436   1.970
 9994SOL     OW30880   6.763   4.243   3.876
 9994SOL    HW130881   6.756   4.335   3.837
 9994SOL    HW230882   6.672   4.213   3.906
 9995SOL     OW30883   3.034   0.601   2.470
 9995SOL    HW130884   3.020   0.603   2.371
 9995SOL    HW230885   3.077   0.514   2.496
 9996SOL     OW30886   2.866   3.470   1.538
 9996SOL    HW130887   2.914   3.442   1.455
 9996SOL    HW230888   2.778   3.425   1.543
 9997SOL     OW30889   4.062   1.808   0.977
 9997SOL    HW130890   3.973   1.808   0.931
 9997SOL    HW230891   4.078   1.898   1.018
 9998SOL     OW30892   6.537   4.074   1.793
 9998SOL    HW130893   6.464   4.136   1.822
 9998SOL    HW230894   6.499   4.003   1.734
 9999SOL     OW30895   6.112   4.155   4.892
 9999SOL    HW130896   6.034   4.129   4.949
 9999SOL    HW230897   6.185   4.191   4.950
10000SOL     OW30898   5.663   3.283   6.946
10000SOL    HW130899   5.615   3.370   6.943
10000SOL    HW230900   5.714   3.276   0.009
10001SOL     OW30901   5.430   1.258   1.971
10001SOL    HW130902   5.380   1.230   1.889
10001SOL    HW230903   5.391   1.212   2.051
10002SOL     OW30904   1.800   0.385   0.674
10002SOL    HW130905   1.786   0.446   0.596
10002SOL    HW230906   1.868   0.316   0.651
10003SOL     OW30907   3.597   1.757   3.625
10003SOL    HW130908   3.575   1.660   3.631
10003SOL    HW230909   3.692   1.768   3.595
10004SOL     OW30910   4.687   2.228   4.733
10004SOL    HW130911   4.697   2.233   4.832
10004SOL    HW230912   4.617   2.160   4.710
10005SOL     OW30913   4.615   0.212   3.886
10005SOL    HW130914   4.654   0.120   3.890
10005SOL    HW230915   4.535   0.212   3.826
10006SOL     OW30916   5.120   1.310   3.834
10006SOL    HW130917   5.084   1.392   3.788
10006SOL    HW230918   5.166   1.253   3.767
10007SOL     OW30919   0.699   4.753   5.018
10007SOL    HW130920   0.704   4.831   4.957
10007SOL    HW230921   0.608   4.711   5.011
10008SOL     OW30922   4.376   1.479   3.680
10008SOL    HW130923   4.394   1.465   3.582
10008SOL    HW230924   4.430   1.413   3.733
10009SOL     OW30925   1.835   4.182   1.273
10009SOL    HW130926   1.913   4.173   1.336
10009SOL    HW230927   1.842   4.267   1.223
10010SOL     OW30928   2.324   6.598   6.789
10010SOL    HW130929   2.306   6.530   6.718
10010SOL    HW230930   2.285   6.567   6.875
10011SOL     OW30931   5.693   2.192   4.815
10011SOL    HW130932   5.691   2.112   4.875
10011SOL    HW230933   5.747   2.172   4.734
10012SOL     OW30934   4.738   0.105   2.981
10012SOL    HW130935   4.691   0.039   2.922
10012SOL    HW230936   4.674   0.139   3.050
10013SOL     OW30937   1.360   1.711   3.826
10013SOL    HW130938   1.309   1.784   3.780
10013SOL    HW230939   1.301   1.666   3.893
10014SOL     OW30940   6.096   2.951   6.809
10014SOL    HW130941   6.091   2.938   6.710
10014SOL    HW230942   6.182   2.914   6.843
10015SOL     OW30943   2.547   4.267   0.633
10015SOL    HW130944   2.465   4.210   0.634
10015SOL    HW230945   2.602   4.247   0.715
10016SOL     OW30946   1.947   0.093   5.190
10016SOL    HW130947   1.900   0.064   5.273
10016SOL    HW230948   2.019   0.159   5.213
10017SOL     OW30949   2.249   2.293   2.404
10017SOL    HW130950   2.200   2.366   2.451
10017SOL    HW230951   2.332   2.270   2.455
10018SOL     OW30952   4.800   0.095   5.729
10018SOL    HW130953   4.815   7.019   5.727
10018SOL    HW230954   4.842   0.137   5.648
10019SOL     OW30955   0.987   1.696   2.929
10019SOL    HW130956   1.065   1.676   2.988
10019SOL    HW230957   0.992   1.639   2.847
10020SOL     OW30958   0.569   3.075   1.320
10020SOL    HW130959   0.533   3.083   1.413
10020SOL    HW230960   0.661   3.115   1.316
10021SOL     OW30961   0.039   2.830   0.947
10021SOL    HW130962   6.989   2.794   1.005
10021SOL    HW230963   0.046   2.929   0.959
10022SOL     OW30964   3.636   0.037   0.283
10022SOL    HW130965   3.578   0.071   0.356
10022SOL    HW230966   3.705   0.106   0.259
10023SOL     OW30967   1.555   5.158   6.180
10023SOL    HW130968   1.597   5.073   6.148
10023SOL    HW230969   1.592   5.182   6.269
10024SOL     OW30970   2.256   6.631   1.984
10024SOL    HW130971   2.208   6.569   1.922
10024SOL    HW230972   2.198   6.651   2.064
10025SOL     OW30973   1.489   1.374   1.518
10025SOL    HW130974   1.519   1.335   1.430
10025SOL    HW230975   1.416   1.317   1.556
10026SOL     OW30976   4.896   6.615   4.285
10026SOL    HW130977   4.982   6.666   4.282
10026SOL    HW230978   4.913   6.522   4.318
10027SOL     OW30979   6.952   4.147   5.507
10027SOL    HW130980   6.879   4.080   5.492
10027SOL    HW230981   6.984   4.182   5.419
10028SOL     OW30982   1.417   1.635   1.318
10028SOL    HW130983   1.462   1.553   1.354
10028SOL    HW230984   1.319   1.629   1.333
10029SOL     OW30985   3.592   2.136   4.128
10029SOL    HW130986   3.539   2.073   4.184
10029SOL    HW230987   3.689   2.126   4.149
10030SOL     OW30988   2.023   6.489   3.732
10030SOL    HW130989   2.055   6.525   3.644
10030SOL    HW230990   1.993   6.565   3.790
10031SOL     OW30991   6.118   4.977   4.058
10031SOL    HW130992   6.108   4.968   3.959
10031SOL    HW230993   6.123   4.886   4.099
10032SOL     OW30994   2.986   1.677   4.633
10032SOL    HW130995   2.959   1.584   4.660
10032SOL    HW230996   2.945   1.743   4.696
10033SOL     OW30997   5.648   2.077   3.826
10033SOL    HW130998   5.582   2.098   3.898
10033SOL    HW230999   5.726   2.029   3.866
10034SOL     OW31000   2.895   0.397   4.345
10034SOL    HW131001   2.913   0.300   4.360
10034SOL    HW231002   2.977   0.441   4.308
10035SOL     OW31003   6.394   4.617   1.892
10035SOL    HW131004   6.341   4.580   1.968
10035SOL    HW231005   6.357   4.582   1.805
10036SOL     OW31006   6.024   1.865   1.878
10036SOL    HW131007   5.947   1.816   1.837
10036SOL    HW231008   6.073   1.916   1.807
10037SOL     OW31009   6.692   0.967   0.879
10037SOL    HW131010   6.730   1.057   0.900
10037SOL    HW231011   6.728   0.900   0.943
10038SOL     OW31012   5.137   0.510   0.352
10038SOL    HW131013   5.041   0.531   0.330
10038SOL    HW231014   5.142   0.455   0.435
10039SOL     OW31015   3.553   0.355   3.429
10039SOL    HW131016   3.520   0.269   3.389
10039SOL    HW231017   3.479   0.422   3.430
10040SOL     OW31018   4.789   5.709   6.431
10040SOL    HW131019   4.734   5.695   6.348
10040SOL    HW231020   4.729   5.741   6.505
10041SOL     OW31021   4.089   6.174   6.758
10041SOL    HW131022   4.080   6.120   6.842
10041SOL    HW231023   4.147   6.253   6.775
10042SOL     OW31024   0.847   1.673   4.375
10042SOL    HW131025   0.920   1.711   4.432
10042SOL    HW231026   0.886   1.610   4.308
10043SOL     OW31027   6.443   1.094   4.940
10043SOL    HW131028   6.518   1.160   4.941
10043SOL    HW231029   6.397   1.094   5.028
10044SOL     OW31030   2.483   1.690   4.818
10044SOL    HW131031   2.447   1.658   4.731
10044SOL    HW231032   2.456   1.785   4.833
10045SOL     OW31033   3.971   0.318   3.094
10045SOL    HW131034   3.947   0.409   3.060
10045SOL    HW231035   3.964   0.316   3.194
10046SOL     OW31036   2.092   3.716   0.866
10046SOL    HW131037   2.080   3.794   0.926
10046SOL    HW231038   2.143   3.644   0.914
10047SOL     OW31039   0.939   3.526   4.670
10047SOL    HW131040   0.958   3.470   4.589
10047SOL    HW231041   0.865   3.485   4.723
10048SOL     OW31042   6.867   0.189   2.344
10048SOL    HW131043   6.848   0.272   2.293
10048SOL    HW231044   6.798   0.179   2.417
10049SOL     OW31045   1.329   1.626   5.783
10049SOL    HW131046   1.346   1.567   5.704
10049SOL    HW231047   1.403   1.693   5.790
10050SOL     OW31048   5.022   3.749   5.056
10050SOL    HW131049   5.031   3.759   5.155
10050SOL    HW231050   4.943   3.690   5.035
10051SOL     OW31051   6.359   3.760   5.356
10051SOL    HW131052   6.373   3.835   5.292
10051SOL    HW231053   6.429   3.690   5.341
10052SOL     OW31054   2.035   1.198   3.026
10052SOL    HW131055   2.032   1.280   2.968
10052SOL    HW231056   2.031   1.117   2.968
10053SOL     OW31057   4.374   5.854   3.661
10053SOL    HW131058   4.419   5.834   3.748
10053SOL    HW231059   4.306   5.783   3.641
10054SOL     OW31060   5.533   6.240   5.589
10054SOL    HW131061   5.467   6.184   5.640
10054SOL    HW231062   5.489   6.324   5.558
10055SOL     OW31063   6.015   1.464   5.363
10055SOL    HW131064   5.990   1.561   5.359
10055SOL    HW231065   5.993   1.420   5.276
10056SOL     OW31066   5.191   4.486   2.904
10056SOL    HW131067   5.185   4.392   2.937
10056SOL    HW231068   5.101   4.529   2.908
10057SOL     OW31069   4.741   3.342   5.304
10057SOL    HW131070   4.687   3.348   5.388
10057SOL    HW231071   4.729   3.426   5.251
10058SOL     OW31072   6.331   3.610   4.786
10058SOL    HW131073   6.319   3.656   4.698
10058SOL    HW231074   6.242   3.597   4.830
10059SOL     OW31075   0.103   1.778   6.929
10059SOL    HW131076   0.058   1.778   7.018
10059SOL    HW231077   0.158   1.861   6.919
10060SOL     OW31078   2.383   2.682   2.321
10060SOL    HW131079   2.482   2.683   2.334
10060SOL    HW231080   2.362   2.643   2.231
10061SOL     OW31081   4.425   1.747   3.811
10061SOL    HW131082   4.384   1.669   3.762
10061SOL    HW231083   4.480   1.713   3.887
10062SOL     OW31084   6.148   0.764   4.192
10062SOL    HW131085   6.194   0.676   4.193
10062SOL    HW231086   6.073   0.763   4.258
10063SOL     OW31087   3.264   1.270   4.455
10063SOL    HW131088   3.284   1.364   4.428
10063SOL    HW231089   3.270   1.210   4.375
10064SOL     OW31090   4.807   6.462   0.004
10064SOL    HW131091   4.903   6.478   0.026
10064SOL    HW231092   4.790   6.489   6.932
10065SOL     OW31093   2.381   0.786   2.105
10065SOL    HW131094   2.395   0.883   2.125
10065SOL    HW231095   2.403   0.732   2.185
10066SOL     OW31096   0.559   2.691   4.825
10066SOL    HW131097   0.611   2.771   4.793
10066SOL    HW231098   0.504   2.717   4.905
10067SOL     OW31099   6.974   3.629   5.817
10067SOL    HW131100   6.969   3.729   5.815
10067SOL    HW231101   0.017   3.600   5.887
10068SOL     OW31102   1.090   3.654   4.031
10068SOL    HW131103   1.122   3.646   4.125
10068SOL    HW231104   1.117   3.743   3.994
10069SOL     OW31105   3.059   4.988   1.744
10069SOL    HW131106   2.997   4.956   1.673
10069SOL    HW231107   3.016   5.063   1.794
10070SOL     OW31108   0.332   5.865   5.340
10070SOL    HW131109   0.288   5.865   5.430
10070SOL    HW231110   0.413   5.925   5.343
10071SOL     OW31111   0.291   6.561   4.490
10071SOL    HW131112   0.331   6.567   4.582
10071SOL    HW231113   0.317   6.473   4.448
10072SOL     OW31114   0.266   0.887   3.907
10072SOL    HW131115   0.243   0.961   3.844
10072SOL    HW231116   0.202   0.811   3.895
10073SOL     OW31117   6.953   4.591   3.751
10073SOL    HW131118   6.987   4.519   3.691
10073SOL    HW231119   0.006   4.629   3.803
10074SOL     OW31120   2.190   6.807   6.356
10074SOL    HW131121   2.185   6.712   6.386
10074SOL    HW231122   2.244   6.860   6.422
10075SOL     OW31123   1.836   2.122   1.899
10075SOL    HW131124   1.822   2.081   1.809
10075SOL    HW231125   1.751   2.165   1.929
10076SOL     OW31126   4.762   6.367   2.984
10076SOL    HW131127   4.754   6.386   3.081
10076SOL    HW231128   4.856   6.342   2.962
10077SOL     OW31129   4.069   2.981   0.612
10077SOL    HW131130   4.161   2.994   0.649
10077SOL    HW231131   4.017   3.066   0.624
10078SOL     OW31132   6.347   5.805   4.790
10078SOL    HW131133   6.321   5.718   4.831
10078SOL    HW231134   6.432   5.793   4.737
10079SOL     OW31135   6.148   3.036   2.728
10079SOL    HW131136   6.199   3.016   2.811
10079SOL    HW231137   6.096   2.955   2.700
10080SOL     OW31138   4.948   1.638   6.117
10080SOL    HW131139   4.932   1.590   6.030
10080SOL    HW231140   4.951   1.572   6.192
10081SOL     OW31141   0.931   1.807   6.877
10081SOL    HW131142   1.007   1.872   6.886
10081SOL    HW231143   0.967   1.714   6.873
10082SOL     OW31144   0.810   5.342   2.443
10082SOL    HW131145   0.716   5.307   2.439
10082SOL    HW231146   0.862   5.290   2.511
10083SOL     OW31147   2.947   0.186   3.818
10083SOL    HW131148   2.973   0.165   3.724
10083SOL    HW231149   2.945   0.286   3.831
10084SOL     OW31150   0.562   0.323   5.485
10084SOL    HW131151   0.523   0.231   5.488
10084SOL    HW231152   0.505   0.382   5.428
10085SOL     OW31153   3.647   0.087   0.791
10085SOL    HW131154   3.696   0.168   0.758
10085SOL    HW231155   3.607   0.038   0.714
10086SOL     OW31156   5.980   6.239   2.804
10086SOL    HW131157   5.888   6.208   2.830
10086SOL    HW231158   6.040   6.234   2.883
10087SOL     OW31159   5.975   5.848   4.145
10087SOL    HW131160   5.897   5.789   4.124
10087SOL    HW231161   5.943   5.941   4.161
10088SOL     OW31162   6.695   0.290   1.445
10088SOL    HW131163   6.742   0.203   1.428
10088SOL    HW231164   6.737   0.362   1.389
10089SOL     OW31165   3.542   2.061   2.872
10089SOL    HW131166   3.478   2.071   2.796
10089SOL    HW231167   3.636   2.061   2.836
10090SOL     OW31168   0.360   5.338   2.026
10090SOL    HW131169   0.363   5.289   1.939
10090SOL    HW231170   0.292   5.297   2.086
10091SOL     OW31171   6.995   5.833   6.478
10091SOL    HW131172   0.046   5.900   6.482
10091SOL    HW231173   6.912   5.873   6.517
10092SOL     OW31174   1.021   2.954   6.011
10092SOL    HW131175   0.931   2.910   6.012
10092SOL    HW231176   1.029   3.016   6.089
10093SOL     OW31177   4.909   3.368   4.954
10093SOL    HW131178   4.836   3.308   4.922
10093SOL    HW231179   4.870   3.457   4.978
10094SOL     OW31180   2.214   6.305   0.941
10094SOL    HW131181   2.121   6.341   0.946
10094SOL    HW231182   2.274   6.359   0.999
10095SOL     OW31183   5.078   1.566   4.523
10095SOL    HW131184   5.098   1.483   4.471
10095SOL    HW231185   5.093   1.549   4.620
10096SOL     OW31186   4.589   6.894   2.568
10096SOL    HW131187   4.528   6.973   2.576
10096SOL    HW231188   4.551   6.817   2.618
10097SOL     OW31189   2.131   1.925   6.691
10097SOL    HW131190   2.180   1.876   6.763
10097SOL    HW231191   2.079   2.001   6.732
10098SOL     OW31192   2.937   6.550   4.720
10098SOL    HW131193   2.879   6.596   4.787
10098SOL    HW231194   2.894   6.464   4.693
10099SOL     OW31195   6.975   4.894   1.996
10099SOL    HW131196   6.995   4.877   1.900
10099SOL    HW231197   6.877   4.915   2.007
10100SOL     OW31198   5.635   5.919   5.517
10100SOL    HW131199   5.707   5.904   5.450
10100SOL    HW231200   5.675   5.943   5.605
10101SOL     OW31201   6.746   3.399   1.752
10101SOL    HW131202   6.810   3.472   1.725
10101SOL    HW231203   6.672   3.438   1.805
10102SOL     OW31204   6.818   0.478   1.255
10102SOL    HW131205   6.898   0.523   1.214
10102SOL    HW231206   6.762   0.438   1.182
10103SOL     OW31207   1.725   0.418   5.269
10103SOL    HW131208   1.817   0.414   5.309
10103SOL    HW231209   1.658   0.432   5.342
10104SOL     OW31210   1.353   0.840   5.449
10104SOL    HW131211   1.277   0.871   5.507
10104SOL    HW231212   1.384   0.916   5.391
10105SOL     OW31213   1.558   0.235   5.837
10105SOL    HW131214   1.492   0.296   5.881
10105SOL    HW231215   1.617   0.193   5.906
10106SOL     OW31216   3.802   6.592   0.859
10106SOL    HW131217   3.866   6.517   0.872
10106SOL    HW231218   3.759   6.584   0.769
10107SOL     OW31219   5.323   1.529   6.230
10107SOL    HW131220   5.411   1.480   6.231
10107SOL    HW231221   5.326   1.603   6.298
10108SOL     OW31222   0.252   2.286   0.354
10108SOL    HW131223   0.350   2.295   0.336
10108SOL    HW231224   0.207   2.374   0.340
10109SOL     OW31225   0.779   1.095   0.596
10109SOL    HW131226   0.799   1.092   0.694
10109SOL    HW231227   0.725   1.177   0.577
10110SOL     OW31228   4.668   4.736   4.406
10110SOL    HW131229   4.690   4.673   4.481
10110SOL    HW231230   4.747   4.742   4.344
10111SOL     OW31231   0.027   3.375   3.089
10111SOL    HW131232   0.069   3.409   3.005
10111SOL    HW231233   6.955   3.350   3.072
10112SOL     OW31234   5.669   3.472   2.711
10112SOL    HW131235   5.610   3.392   2.704
10112SOL    HW231236   5.659   3.529   2.629
10113SOL     OW31237   4.391   0.011   1.068
10113SOL    HW131238   4.378   6.975   0.988
10113SOL    HW231239   4.453   0.086   1.043
10114SOL     OW31240   4.118   2.083   3.211
10114SOL    HW131241   4.214   2.112   3.207
10114SOL    HW231242   4.080   2.106   3.301
10115SOL     OW31243   3.829   1.581   5.191
10115SOL    HW131244   3.915   1.563   5.143
10115SOL    HW231245   3.793   1.670   5.163
10116SOL     OW31246   0.552   6.983   6.532
10116SOL    HW131247   0.494   0.004   6.463
10116SOL    HW231248   0.572   0.024   6.605
10117SOL     OW31249   6.982   6.302   5.837
10117SOL    HW131250   6.992   6.203   5.850
10117SOL    HW231251   6.924   6.320   5.758
10118SOL     OW31252   2.603   4.627   3.979
10118SOL    HW131253   2.700   4.637   3.956
10118SOL    HW231254   2.561   4.717   3.989
10119SOL     OW31255   6.384   4.909   3.784
10119SOL    HW131256   6.370   4.810   3.786
10119SOL    HW231257   6.305   4.952   3.740
10120SOL     OW31258   1.526   3.369   4.055
10120SOL    HW131259   1.569   3.299   3.999
10120SOL    HW231260   1.574   3.456   4.043
10121SOL     OW31261   5.834   4.435   0.509
10121SOL    HW131262   5.790   4.398   0.427
10121SOL    HW231263   5.917   4.384   0.529
10122SOL     OW31264   6.249   2.757   3.755
10122SOL    HW131265   6.184   2.699   3.803
10122SOL    HW231266   6.233   2.751   3.656
10123SOL     OW31267   5.939   6.583   0.936
10123SOL    HW131268   5.859   6.528   0.916
10123SOL    HW231269   6.019   6.545   0.888
10124SOL     OW31270   1.306   4.916   1.083
10124SOL    HW131271   1.366   4.990   1.053
10124SOL    HW231272   1.259   4.943   1.167
10125SOL     OW31273   2.704   1.714   1.105
10125SOL    HW131274   2.756   1.628   1.107
10125SOL    HW231275   2.615   1.700   1.148
10126SOL     OW31276   6.722   0.005   5.867
10126SOL    HW131277   6.714   0.019   5.965
10126SOL    HW231278   6.659   6.956   5.838
10127SOL     OW31279   1.921   3.815   7.018
10127SOL    HW131280   1.880   3.745   0.053
10127SOL    HW231281   1.865   3.898   7.021
10128SOL     OW31282   2.719   1.090   5.810
10128SOL    HW131283   2.785   1.164   5.793
10128SOL    HW231284   2.651   1.120   5.877
10129SOL     OW31285   0.109   2.167   2.372
10129SOL    HW131286   0.169   2.214   2.307
10129SOL    HW231287   0.074   2.083   2.330
10130SOL     OW31288   0.738   3.354   1.497
10130SOL    HW131289   0.793   3.350   1.581
10130SOL    HW231290   0.785   3.303   1.424
10131SOL     OW31291   1.276   0.556   4.111
10131SOL    HW131292   1.333   0.611   4.172
10131SOL    HW231293   1.217   0.496   4.165
10132SOL     OW31294   1.313   0.305   2.887
10132SOL    HW131295   1.401   0.258   2.876
10132SOL    HW231296   1.329   0.403   2.898
10133SOL     OW31297   4.550   6.488   0.806
10133SOL    HW131298   4.559   6.504   0.905
10133SOL    HW231299   4.499   6.403   0.791
10134SOL     OW31300   6.317   1.512   3.419
10134SOL    HW131301   6.218   1.524   3.411
10134SOL    HW231302   6.340   1.416   3.403
10135SOL     OW31303   4.933   1.992   3.333
10135SOL    HW131304   4.863   2.029   3.272
10135SOL    HW231305   5.017   1.976   3.281
10136SOL     OW31306   5.536   2.388   2.518
10136SOL    HW131307   5.486   2.325   2.458
10136SOL    HW231308   5.476   2.417   2.593
10137SOL     OW31309   0.015   5.168   6.312
10137SOL    HW131310   6.968   5.203   6.374
10137SOL    HW231311   7.022   5.071   6.294
10138SOL     OW31312   5.570   2.671   0.495
10138SOL    HW131313   5.667   2.661   0.518
10138SOL    HW231314   5.548   2.612   0.418
10139SOL     OW31315   3.541   3.515   4.820
10139SOL    HW131316   3.471   3.557   4.762
10139SOL    HW231317   3.502   3.497   4.911
10140SOL     OW31318   6.943   6.121   6.441
10140SOL    HW131319   6.990   6.209   6.439
10140SOL    HW231320   6.965   6.069   6.359
10141SOL     OW31321   4.555   1.055   3.885
10141SOL    HW131322   4.653   1.036   3.885
10141SOL    HW231323   4.512   1.009   3.963
10142SOL     OW31324   6.325   6.737   5.686
10142SOL    HW131325   6.285   6.786   5.608
10142SOL    HW231326   6.367   6.652   5.654
10143SOL     OW31327   5.852   2.881   0.386
10143SOL    HW131328   5.951   2.873   0.392
10143SOL    HW231329   5.809   2.814   0.446
10144SOL     OW31330   4.611   6.969   5.371
10144SOL    HW131331   4.513   6.979   5.388
10144SOL    HW231332   4.658   6.942   5.455
10145SOL     OW31333   3.800   6.082   3.179
10145SOL    HW131334   3.884   6.136   3.175
10145SOL    HW231335   3.791   6.042   3.270
10146SOL     OW31336   6.475   4.294   4.100
10146SOL    HW131337   6.559   4.241   4.109
10146SOL    HW231338   6.450   4.332   4.189
10147SOL     OW31339   5.123   4.335   6.720
10147SOL    HW131340   5.072   4.263   6.673
10147SOL    HW231341   5.157   4.401   6.653
10148SOL     OW31342   5.840   3.989   1.034
10148SOL    HW131343   5.845   4.050   0.955
10148SOL    HW231344   5.805   3.900   1.006
10149SOL     OW31345   5.175   4.889   1.434
10149SOL    HW131346   5.207   4.949   1.508
10149SOL    HW231347   5.238   4.812   1.424
10150SOL     OW31348   4.845   3.210   1.802
10150SOL    HW131349   4.786   3.130   1.817
10150SOL    HW231350   4.940   3.182   1.802
10151SOL     OW31351   0.553   6.574   5.576
10151SOL    HW131352   0.530   6.644   5.643
10151SOL    HW231353   0.525   6.484   5.611
10152SOL     OW31354   6.482   5.807   3.937
10152SOL    HW131355   6.447   5.853   4.019
10152SOL    HW231356   6.471   5.867   3.858
10153SOL     OW31357   4.533   5.885   3.877
10153SOL    HW131358   4.632   5.880   3.865
10153SOL    HW231359   4.502   5.809   3.935
10154SOL     OW31360   3.681   6.058   6.258
10154SOL    HW131361   3.676   5.963   6.288
10154SOL    HW231362   3.774   6.079   6.230
10155SOL     OW31363   5.135   2.731   5.602
10155SOL    HW131364   5.107   2.819   5.564
10155SOL    HW231365   5.177   2.744   5.692
10156SOL     OW31366   4.809   0.420   1.272
10156SOL    HW131367   4.902   0.390   1.297
10156SOL    HW231368   4.743   0.351   1.303
10157SOL     OW31369   6.749   1.862   0.318
10157SOL    HW131370   6.797   1.790   0.368
10157SOL    HW231371   6.806   1.944   0.315
10158SOL     OW31372   6.075   6.319   2.240
10158SOL    HW131373   6.089   6.321   2.339
10158SOL    HW231374   6.112   6.403   2.200
10159SOL     OW31375   4.044   3.117   2.869
10159SOL    HW131376   3.973   3.050   2.847
10159SOL    HW231377   4.039   3.141   2.966
10160SOL     OW31378   1.701   4.027   3.257
10160SOL    HW131379   1.792   4.040   3.219
10160SOL    HW231380   1.684   4.095   3.328
10161SOL     OW31381   3.656   4.861   0.087
10161SOL    HW131382   3.592   4.934   0.112
10161SOL    HW231383   3.736   4.865   0.146
10162SOL     OW31384   2.420   4.080   1.134
10162SOL    HW131385   2.507   4.090   1.084
10162SOL    HW231386   2.403   4.163   1.187
10163SOL     OW31387   0.811   5.429   6.530
10163SOL    HW131388   0.798   5.362   6.456
10163SOL    HW231389   0.773   5.517   6.502
10164SOL     OW31390   6.014   3.502   3.893
10164SOL    HW131391   6.028   3.528   3.988
10164SOL    HW231392   6.032   3.581   3.834
10165SOL     OW31393   6.762   2.742   3.522
10165SOL    HW131394   6.779   2.674   3.451
10165SOL    HW231395   6.793   2.708   3.610
10166SOL     OW31396   1.236   2.096   1.277
10166SOL    HW131397   1.227   2.196   1.270
10166SOL    HW231398   1.326   2.068   1.242
10167SOL     OW31399   0.188   5.457   0.369
10167SOL    HW131400   0.144   5.544   0.349
10167SOL    HW231401   0.281   5.474   0.403
10168SOL     OW31402   6.257   1.617   6.104
10168SOL    HW131403   6.217   1.527   6.090
10168SOL    HW231404   6.187   1.687   6.091
10169SOL     OW31405   6.552   3.714   3.209
10169SOL    HW131406   6.529   3.731   3.114
10169SOL    HW231407   6.491   3.767   3.268
10170SOL     OW31408   6.192   5.373   6.348
10170SOL    HW131409   6.205   5.459   6.397
10170SOL    HW231410   6.196   5.390   6.250
10171SOL     OW31411   0.241   2.911   4.891
10171SOL    HW131412   0.230   2.826   4.839
10171SOL    HW231413   0.157   2.929   4.942
10172SOL     OW31414   0.167   6.986   4.477
10172SOL    HW131415   0.109   6.989   4.558
10172SOL    HW231416   0.263   6.984   4.504
10173SOL     OW31417   2.471   3.429   6.485
10173SOL    HW131418   2.546   3.413   6.421
10173SOL    HW231419   2.389   3.454   6.434
10174SOL     OW31420   4.382   4.532   3.738
10174SOL    HW131421   4.347   4.626   3.732
10174SOL    HW231422   4.315   4.475   3.785
10175SOL     OW31423   6.506   1.936   3.593
10175SOL    HW131424   6.601   1.924   3.563
10175SOL    HW231425   6.444   1.895   3.526
10176SOL     OW31426   5.800   3.696   5.603
10176SOL    HW131427   5.807   3.618   5.666
10176SOL    HW231428   5.776   3.663   5.512
10177SOL     OW31429   1.712   6.799   1.325
10177SOL    HW131430   1.772   6.871   1.289
10177SOL    HW231431   1.616   6.827   1.314
10178SOL     OW31432   1.603   1.144   0.713
10178SOL    HW131433   1.504   1.156   0.701
10178SOL    HW231434   1.636   1.073   0.651
10179SOL     OW31435   0.309   4.178   6.663
10179SOL    HW131436   0.360   4.113   6.606
10179SOL    HW231437   0.374   4.241   6.706
10180SOL     OW31438   4.162   0.652   0.268
10180SOL    HW131439   4.154   0.734   0.210
10180SOL    HW231440   4.254   0.649   0.308
10181SOL     OW31441   0.249   3.063   1.205
10181SOL    HW131442   0.201   2.986   1.246
10181SOL    HW231443   0.284   3.037   1.115
10182SOL     OW31444   5.125   1.057   0.039
10182SOL    HW131445   5.205   1.075   0.096
10182SOL    HW231446   5.073   0.981   0.078
10183SOL     OW31447   6.142   2.773   6.301
10183SOL    HW131448   6.237   2.784   6.272
10183SOL    HW231449   6.081   2.804   6.229
10184SOL     OW31450   5.540   3.032   6.968
10184SOL    HW131451   5.614   2.979   7.009
10184SOL    HW231452   5.576   3.120   6.936
10185SOL     OW31453   5.450   6.420   2.541
10185SOL    HW131454   5.453   6.492   2.471
10185SOL    HW231455   5.522   6.353   2.523
10186SOL     OW31456   4.910   3.687   4.783
10186SOL    HW131457   4.939   3.782   4.799
10186SOL    HW231458   4.879   3.647   4.869
10187SOL     OW31459   1.759   4.342   5.577
10187SOL    HW131460   1.677   4.324   5.523
10187SOL    HW231461   1.813   4.413   5.532
10188SOL     OW31462   2.764   5.248   6.849
10188SOL    HW131463   2.834   5.270   6.781
10188SOL    HW231464   2.675   5.277   6.816
10189SOL     OW31465   1.709   0.661   6.465
10189SOL    HW131466   1.617   0.638   6.495
10189SOL    HW231467   1.709   0.752   6.424
10190SOL     OW31468   4.549   3.346   1.322
10190SOL    HW131469   4.605   3.321   1.401
10190SOL    HW231470   4.603   3.401   1.258
10191SOL     OW31471   5.851   5.690   0.474
10191SOL    HW131472   5.805   5.602   0.482
10191SOL    HW231473   5.804   5.758   0.530
10192SOL     OW31474   2.888   1.713   4.964
10192SOL    HW131475   2.895   1.733   5.062
10192SOL    HW231476   2.827   1.635   4.951
10193SOL     OW31477   2.932   3.657   2.595
10193SOL    HW131478   2.947   3.681   2.691
10193SOL    HW231479   2.870   3.723   2.553
10194SOL     OW31480   4.010   0.590   4.914
10194SOL    HW131481   3.922   0.598   4.868
10194SOL    HW231482   4.000   0.615   5.010
10195SOL     OW31483   0.045   6.963   1.653
10195SOL    HW131484   6.978   7.005   1.643
10195SOL    HW231485   0.115   0.006   1.627
10196SOL     OW31486   5.407   1.905   3.203
10196SOL    HW131487   5.447   1.888   3.112
10196SOL    HW231488   5.474   1.953   3.260
10197SOL     OW31489   4.986   1.702   3.928
10197SOL    HW131490   4.992   1.616   3.878
10197SOL    HW231491   5.071   1.754   3.915
10198SOL     OW31492   3.530   6.834   0.901
10198SOL    HW131493   3.499   6.781   0.823
10198SOL    HW231494   3.565   6.922   0.869
10199SOL     OW31495   0.334   1.916   6.617
10199SOL    HW131496   0.368   1.904   6.711
10199SOL    HW231497   0.382   1.992   6.574
10200SOL     OW31498   5.154   3.048   5.187
10200SOL    HW131499   5.070   3.100   5.208
10200SOL    HW231500   5.190   3.078   5.099
10201SOL     OW31501   0.457   6.317   1.396
10201SOL    HW131502   0.415   6.370   1.323
10201SOL    HW231503   0.553   6.345   1.406
10202SOL     OW31504   1.467   3.384   0.293
10202SOL    HW131505   1.403   3.427   0.358
10202SOL    HW231506   1.481   3.446   0.216
10203SOL     OW31507   1.120   3.072   1.561
10203SOL    HW131508   1.217   3.052   1.552
10203SOL    HW231509   1.083   3.025   1.640
10204SOL     OW31510   3.642   5.224   6.395
10204SOL    HW131511   3.723   5.246   6.341
10204SOL    HW231512   3.582   5.163   6.342
10205SOL     OW31513   3.588   1.235   2.665
10205SOL    HW131514   3.593   1.186   2.752
10205SOL    HW231515   3.608   1.172   2.590
10206SOL     OW31516   5.057   6.662   6.443
10206SOL    HW131517   5.106   6.737   6.487
10206SOL    HW231518   4.959   6.672   6.461
10207SOL     OW31519   1.755   0.965   0.536
10207SOL    HW131520   1.718   0.876   0.562
10207SOL    HW231521   1.854   0.958   0.524
10208SOL     OW31522   6.476   4.753   4.152
10208SOL    HW131523   6.468   4.718   4.246
10208SOL    HW231524   6.437   4.686   4.088
10209SOL     OW31525   0.705   0.729   5.403
10209SOL    HW131526   0.795   0.687   5.415
10209SOL    HW231527   0.667   0.754   5.492
10210SOL     OW31528   5.074   0.027   1.761
10210SOL    HW131529   5.104   0.110   1.807
10210SOL    HW231530   4.975   0.016   1.772
10211SOL     OW31531   4.382   6.097   5.498
10211SOL    HW131532   4.380   6.053   5.587
10211SOL    HW231533   4.401   6.195   5.509
10212SOL     OW31534   0.296   1.339   4.668
10212SOL    HW131535   0.339   1.407   4.609
10212SOL    HW231536   0.222   1.382   4.720
10213SOL     OW31537   6.276   1.730   2.283
10213SOL    HW131538   6.343   1.804   2.287
10213SOL    HW231539   6.252   1.712   2.187
10214SOL     OW31540   1.212   2.119   2.371
10214SOL    HW131541   1.304   2.083   2.357
10214SOL    HW231542   1.218   2.217   2.389
10215SOL     OW31543   3.364   2.957   4.606
10215SOL    HW131544   3.283   3.000   4.565
10215SOL    HW231545   3.356   2.960   4.705
10216SOL     OW31546   0.611   6.950   0.802
10216SOL    HW131547   0.599   6.870   0.745
10216SOL    HW231548   0.538   6.955   0.870
10217SOL     OW31549   2.537   1.598   4.051
10217SOL    HW131550   2.527   1.540   3.970
10217SOL    HW231551   2.629   1.637   4.052
10218SOL     OW31552   1.671   0.824   1.459
10218SOL    HW131553   1.577   0.791   1.468
10218SOL    HW231554   1.672   0.906   1.403
10219SOL     OW31555   0.533   3.061   1.977
10219SOL    HW131556   0.445   3.021   1.951
10219SOL    HW231557   0.572   3.011   2.054
10220SOL     OW31558   4.551   1.343   2.247
10220SOL    HW131559   4.563   1.271   2.314
10220SOL    HW231560   4.459   1.337   2.207
10221SOL     OW31561   1.706   2.480   3.601
10221SOL    HW131562   1.659   2.446   3.683
10221SOL    HW231563   1.767   2.409   3.566
10222SOL     OW31564   1.535   3.136   6.095
10222SOL    HW131565   1.530   3.086   6.008
10222SOL    HW231566   1.630   3.136   6.127
10223SOL     OW31567   1.565   6.023   6.954
10223SOL    HW131568   1.632   5.948   6.955
10223SOL    HW231569   1.485   5.995   6.901
10224SOL     OW31570   6.456   1.410   4.877
10224SOL    HW131571   6.485   1.352   4.801
10224SOL    HW231572   6.512   1.390   4.957
10225SOL     OW31573   1.952   6.029   5.772
10225SOL    HW131574   2.022   6.068   5.712
10225SOL    HW231575   1.995   5.992   5.854
10226SOL     OW31576   2.519   6.924   6.720
10226SOL    HW131577   2.537   6.922   6.818
10226SOL    HW231578   2.605   6.918   6.670
10227SOL     OW31579   4.680   4.752   0.713
10227SOL    HW131580   4.723   4.723   0.798
10227SOL    HW231581   4.643   4.844   0.723
10228SOL     OW31582   1.400   5.889   2.322
10228SOL    HW131583   1.398   5.964   2.256
10228SOL    HW231584   1.332   5.821   2.297
10229SOL     OW31585   0.506   1.187   4.311
10229SOL    HW131586   0.558   1.122   4.255
10229SOL    HW231587   0.564   1.218   4.387
10230SOL     OW31588   6.289   7.010   3.808
10230SOL    HW131589   6.284   0.081   3.774
10230SOL    HW231590   6.208   6.990   3.863
10231SOL     OW31591   6.821   5.875   5.975
10231SOL    HW131592   6.774   5.884   5.887
10231SOL    HW231593   6.826   5.778   5.999
10232SOL     OW31594   2.630   0.759   3.705
10232SOL    HW131595   2.616   0.684   3.640
10232SOL    HW231596   2.628   0.723   3.798
10233SOL     OW31597   4.985   3.498   5.219
10233SOL    HW131598   4.915   3.522   5.152
10233SOL    HW231599   4.995   3.399   5.223
10234SOL     OW31600   5.296   1.267   1.022
10234SOL    HW131601   5.349   1.185   0.999
10234SOL    HW231602   5.238   1.293   0.945
10235SOL     OW31603   4.772   2.425   0.195
10235SOL    HW131604   4.712   2.404   0.273
10235SOL    HW231605   4.787   2.341   0.142
10236SOL     OW31606   2.175   6.751   2.227
10236SOL    HW131607   2.193   6.733   2.324
10236SOL    HW231608   2.079   6.729   2.207
10237SOL     OW31609   6.213   3.720   1.320
10237SOL    HW131610   6.134   3.779   1.307
10237SOL    HW231611   6.294   3.775   1.338
10238SOL     OW31612   3.440   4.165   4.070
10238SOL    HW131613   3.444   4.209   4.160
10238SOL    HW231614   3.358   4.107   4.065
10239SOL     OW31615   0.923   4.353   4.910
10239SOL    HW131616   0.989   4.310   4.972
10239SOL    HW231617   0.970   4.419   4.851
10240SOL     OW31618   2.094   5.041   3.240
10240SOL    HW131619   2.104   5.094   3.324
10240SOL    HW231620   2.024   5.082   3.182
10241SOL     OW31621   0.244   0.467   2.069
10241SOL    HW131622   0.327   0.522   2.081
10241SOL    HW231623   0.164   0.524   2.086
10242SOL     OW31624   6.742   1.759   6.545
10242SOL    HW131625   6.779   1.796   6.630
10242SOL    HW231626   6.653   1.718   6.562
10243SOL     OW31627   0.751   5.220   1.115
10243SOL    HW131628   0.828   5.158   1.134
10243SOL    HW231629   0.738   5.281   1.193
10244SOL     OW31630   1.624   4.549   0.603
10244SOL    HW131631   1.663   4.616   0.540
10244SOL    HW231632   1.696   4.487   0.634
10245SOL     OW31633   3.178   5.030   6.829
10245SOL    HW131634   3.133   5.119   6.828
10245SOL    HW231635   3.110   4.959   6.849
10246SOL     OW31636   3.046   3.607   4.102
10246SOL    HW131637   3.032   3.508   4.100
10246SOL    HW231638   3.000   3.646   4.181
10247SOL     OW31639   0.269   5.240   5.268
10247SOL    HW131640   0.355   5.279   5.237
10247SOL    HW231641   0.271   5.230   5.368
10248SOL     OW31642   3.494   6.663   2.418
10248SOL    HW131643   3.480   6.754   2.382
10248SOL    HW231644   3.450   6.655   2.508
10249SOL     OW31645   3.622   1.427   5.939
10249SOL    HW131646   3.701   1.391   5.888
10249SOL    HW231647   3.549   1.449   5.874
10250SOL     OW31648   6.770   2.506   1.070
10250SOL    HW131649   6.774   2.458   1.157
10250SOL    HW231650   6.736   2.444   0.999
10251SOL     OW31651   2.890   2.170   4.931
10251SOL    HW131652   2.901   2.090   4.990
10251SOL    HW231653   2.971   2.228   4.938
10252SOL     OW31654   6.340   5.953   0.698
10252SOL    HW131655   6.300   5.984   0.612
10252SOL    HW231656   6.290   5.872   0.730
10253SOL     OW31657   5.231   5.828   0.253
10253SOL    HW131658   5.241   5.927   0.253
10253SOL    HW231659   5.204   5.798   0.161
10254SOL     OW31660   4.077   1.945   5.368
10254SOL    HW131661   4.125   2.014   5.314
10254SOL    HW231662   3.997   1.986   5.411
10255SOL     OW31663   2.228   5.640   1.618
10255SOL    HW131664   2.128   5.636   1.621
10255SOL    HW231665   2.264   5.559   1.572
10256SOL     OW31666   6.240   0.559   1.758
10256SOL    HW131667   6.209   0.588   1.849
10256SOL    HW231668   6.215   0.463   1.743
10257SOL     OW31669   1.810   5.456   4.212
10257SOL    HW131670   1.884   5.463   4.279
10257SOL    HW231671   1.723   5.439   4.258
10258SOL     OW31672   4.567   0.277   4.248
10258SOL    HW131673   4.653   0.270   4.299
10258SOL    HW231674   4.562   0.203   4.180
10259SOL     OW31675   0.635   4.654   3.205
10259SOL    HW131676   0.546   4.623   3.239
10259SOL    HW231677   0.651   4.617   3.114
10260SOL     OW31678   0.322   0.117   3.076
10260SOL    HW131679   0.266   0.035   3.069
10260SOL    HW231680   0.370   0.118   3.164
10261SOL     OW31681   6.637   5.699   2.765
10261SOL    HW131682   6.666   5.613   2.724
10261SOL    HW231683   6.638   5.691   2.865
10262SOL     OW31684   2.391   6.949   4.327
10262SOL    HW131685   2.424   6.961   4.233
10262SOL    HW231686   2.297   6.982   4.333
10263SOL     OW31687   4.799   1.066   6.454
10263SOL    HW131688   4.789   1.010   6.371
10263SOL    HW231689   4.715   1.059   6.508
10264SOL     OW31690   5.663   2.302   6.762
10264SOL    HW131691   5.713   2.217   6.779
10264SOL    HW231692   5.709   2.354   6.689
10265SOL     OW31693   3.322   2.130   3.044
10265SOL    HW131694   3.368   2.121   2.955
10265SOL    HW231695   3.321   2.226   3.072
10266SOL     OW31696   3.391   2.911   5.556
10266SOL    HW131697   3.422   2.850   5.629
10266SOL    HW231698   3.368   3.000   5.595
10267SOL     OW31699   5.892   1.704   6.792
10267SOL    HW131700   5.838   1.697   6.876
10267SOL    HW231701   5.830   1.707   6.713
10268SOL     OW31702   4.374   5.313   2.080
10268SOL    HW131703   4.356   5.236   2.141
10268SOL    HW231704   4.472   5.333   2.078
10269SOL     OW31705   1.386   2.131   5.162
10269SOL    HW131706   1.427   2.218   5.135
10269SOL    HW231707   1.345   2.141   5.253
10270SOL     OW31708   2.435   5.428   3.487
10270SOL    HW131709   2.448   5.384   3.576
10270SOL    HW231710   2.521   5.468   3.456
10271SOL     OW31711   4.219   2.598   0.636
10271SOL    HW131712   4.157   2.525   0.666
10271SOL    HW231713   4.168   2.667   0.585
10272SOL     OW31714   0.133   0.501   4.461
10272SOL    HW131715   0.044   0.482   4.503
10272SOL    HW231716   0.185   0.562   4.521
10273SOL     OW31717   4.284   5.063   3.503
10273SOL    HW131718   4.308   5.107   3.416
10273SOL    HW231719   4.233   4.979   3.486
10274SOL     OW31720   0.760   4.014   4.880
10274SOL    HW131721   0.712   3.937   4.923
10274SOL    HW231722   0.815   3.981   4.804
10275SOL     OW31723   0.916   6.468   1.959
10275SOL    HW131724   0.945   6.373   1.958
10275SOL    HW231725   0.994   6.527   1.981
10276SOL     OW31726   5.998   5.562   5.850
10276SOL    HW131727   5.954   5.485   5.897
10276SOL    HW231728   5.938   5.642   5.855
10277SOL     OW31729   2.533   5.469   3.897
10277SOL    HW131730   2.549   5.432   3.806
10277SOL    HW231731   2.610   5.527   3.924
10278SOL     OW31732   5.418   1.067   4.656
10278SOL    HW131733   5.459   1.100   4.571
10278SOL    HW231734   5.362   1.139   4.697
10279SOL     OW31735   2.077   6.124   4.451
10279SOL    HW131736   2.126   6.072   4.380
10279SOL    HW231737   2.143   6.167   4.512
10280SOL     OW31738   1.583   3.399   1.195
10280SOL    HW131739   1.517   3.403   1.120
10280SOL    HW231740   1.582   3.486   1.245
10281SOL     OW31741   6.163   1.859   3.063
10281SOL    HW131742   6.078   1.910   3.051
10281SOL    HW231743   6.236   1.904   3.012
10282SOL     OW31744   6.492   4.192   3.843
10282SOL    HW131745   6.406   4.151   3.814
10282SOL    HW231746   6.491   4.206   3.942
10283SOL     OW31747   1.043   3.208   0.538
10283SOL    HW131748   0.974   3.137   0.551
10283SOL    HW231749   1.044   3.269   0.617
10284SOL     OW31750   5.135   3.791   5.348
10284SOL    HW131751   5.176   3.829   5.431
10284SOL    HW231752   5.071   3.719   5.372
10285SOL     OW31753   4.518   1.097   0.852
10285SOL    HW131754   4.513   1.015   0.796
10285SOL    HW231755   4.583   1.082   0.927
10286SOL     OW31756   3.002   2.250   4.175
10286SOL    HW131757   2.921   2.304   4.152
10286SOL    HW231758   3.041   2.212   4.091
10287SOL     OW31759   2.170   6.255   2.062
10287SOL    HW131760   2.124   6.217   1.982
10287SOL    HW231761   2.253   6.303   2.034
10288SOL     OW31762   4.904   6.515   2.393
10288SOL    HW131763   4.914   6.614   2.404
10288SOL    HW231764   4.847   6.480   2.467
10289SOL     OW31765   3.022   1.106   2.349
10289SOL    HW131766   3.027   1.206   2.356
10289SOL    HW231767   3.097   1.065   2.401
10290SOL     OW31768   3.282   3.916   2.291
10290SOL    HW131769   3.312   3.884   2.381
10290SOL    HW231770   3.341   3.992   2.262
10291SOL     OW31771   4.206   1.318   4.319
10291SOL    HW131772   4.148   1.283   4.392
10291SOL    HW231773   4.301   1.318   4.349
10292SOL     OW31774   1.422   0.539   4.526
10292SOL    HW131775   1.474   0.539   4.612
10292SOL    HW231776   1.463   0.606   4.464
10293SOL     OW31777   1.809   5.841   3.646
10293SOL    HW131778   1.767   5.762   3.690
10293SOL    HW231779   1.892   5.812   3.598
10294SOL     OW31780   4.768   3.996   2.487
10294SOL    HW131781   4.853   3.955   2.454
10294SOL    HW231782   4.731   3.942   2.562
10295SOL     OW31783   5.908   5.062   5.853
10295SOL    HW131784   5.950   5.056   5.762
10295SOL    HW231785   5.832   5.127   5.849
10296SOL     OW31786   4.711   3.189   6.491
10296SOL    HW131787   4.730   3.277   6.535
10296SOL    HW231788   4.707   3.118   6.561
10297SOL     OW31789   1.970   6.751   5.228
10297SOL    HW131790   1.893   6.705   5.270
10297SOL    HW231791   1.937   6.819   5.162
10298SOL     OW31792   3.790   5.242   2.031
10298SOL    HW131793   3.849   5.230   1.951
10298SOL    HW231794   3.724   5.167   2.036
10299SOL     OW31795   4.961   4.612   2.869
10299SOL    HW131796   4.998   4.685   2.811
10299SOL    HW231797   4.897   4.556   2.815
10300SOL     OW31798   1.887   4.733   3.005
10300SOL    HW131799   1.858   4.829   3.005
10300SOL    HW231800   1.813   4.675   2.973
10301SOL     OW31801   6.405   2.518   3.253
10301SOL    HW131802   6.315   2.561   3.243
10301SOL    HW231803   6.420   2.491   3.348
10302SOL     OW31804   0.598   6.133   4.072
10302SOL    HW131805   0.614   6.146   4.170
10302SOL    HW231806   0.673   6.080   4.032
10303SOL     OW31807   2.725   5.357   1.537
10303SOL    HW131808   2.656   5.401   1.480
10303SOL    HW231809   2.681   5.288   1.595
10304SOL     OW31810   5.381   0.647   2.789
10304SOL    HW131811   5.435   0.573   2.830
10304SOL    HW231812   5.428   0.681   2.707
10305SOL     OW31813   0.455   5.297   0.080
10305SOL    HW131814   0.472   5.374   0.018
10305SOL    HW231815   0.542   5.261   0.112
10306SOL     OW31816   4.741   6.525   6.765
10306SOL    HW131817   4.763   6.619   6.740
10306SOL    HW231818   4.744   6.468   6.683
10307SOL     OW31819   2.142   2.020   4.326
10307SOL    HW131820   2.207   1.966   4.380
10307SOL    HW231821   2.184   2.105   4.297
10308SOL     OW31822   2.954   5.219   3.996
10308SOL    HW131823   2.988   5.157   4.066
10308SOL    HW231824   2.974   5.314   4.023
10309SOL     OW31825   6.271   0.569   3.939
10309SOL    HW131826   6.317   0.654   3.963
10309SOL    HW231827   6.321   0.492   3.976
10310SOL     OW31828   4.270   2.459   1.521
10310SOL    HW131829   4.333   2.442   1.445
10310SOL    HW231830   4.248   2.373   1.566
10311SOL     OW31831   0.584   5.599   1.374
10311SOL    HW131832   0.527   5.666   1.422
10311SOL    HW231833   0.528   5.520   1.349
10312SOL     OW31834   2.588   5.784   0.997
10312SOL    HW131835   2.651   5.842   1.049
10312SOL    HW231836   2.640   5.734   0.927
10313SOL     OW31837   3.695   0.356   1.520
10313SOL    HW131838   3.643   0.320   1.443
10313SOL    HW231839   3.792   0.358   1.497
10314SOL     OW31840   6.768   0.686   1.415
10314SOL    HW131841   6.771   0.593   1.378
10314SOL    HW231842   6.695   0.692   1.484
10315SOL     OW31843   5.961   5.422   4.580
10315SOL    HW131844   5.921   5.354   4.641
10315SOL    HW231845   5.971   5.509   4.629
10316SOL     OW31846   6.127   2.727   4.749
10316SOL    HW131847   6.132   2.792   4.673
10316SOL    HW231848   6.094   2.639   4.715
10317SOL     OW31849   3.580   5.486   6.391
10317SOL    HW131850   3.596   5.393   6.422
10317SOL    HW231851   3.654   5.515   6.331
10318SOL     OW31852   4.998   6.238   0.236
10318SOL    HW131853   4.914   6.231   0.182
10318SOL    HW231854   5.041   6.327   0.219
10319SOL     OW31855   1.353   2.997   5.584
10319SOL    HW131856   1.363   2.914   5.529
10319SOL    HW231857   1.333   3.075   5.525
10320SOL     OW31858   0.753   0.551   1.120
10320SOL    HW131859   0.834   0.589   1.075
10320SOL    HW231860   0.672   0.600   1.089
10321SOL     OW31861   3.936   0.614   3.683
10321SOL    HW131862   3.887   0.693   3.720
10321SOL    HW231863   3.910   0.532   3.735
10322SOL     OW31864   6.210   5.823   6.834
10322SOL    HW131865   6.191   5.766   6.754
10322SOL    HW231866   6.134   5.886   6.850
10323SOL     OW31867   6.439   3.751   5.904
10323SOL    HW131868   6.496   3.742   5.986
10323SOL    HW231869   6.445   3.667   5.850
10324SOL     OW31870   2.992   3.133   3.165
10324SOL    HW131871   3.049   3.065   3.211
10324SOL    HW231872   2.963   3.203   3.231
10325SOL     OW31873   6.809   4.501   3.225
10325SOL    HW131874   6.779   4.421   3.277
10325SOL    HW231875   6.732   4.564   3.214
10326SOL     OW31876   4.026   2.690   6.942
10326SOL    HW131877   4.041   2.712   6.846
10326SOL    HW231878   4.007   2.592   6.952
10327SOL     OW31879   2.452   1.926   2.393
10327SOL    HW131880   2.389   1.996   2.429
10327SOL    HW231881   2.488   1.873   2.469
10328SOL     OW31882   6.578   3.176   1.669
10328SOL    HW131883   6.640   3.246   1.702
10328SOL    HW231884   6.556   3.113   1.744
10329SOL     OW31885   3.948   0.536   4.117
10329SOL    HW131886   4.028   0.542   4.177
10329SOL    HW231887   3.865   0.531   4.173
10330SOL     OW31888   3.081   5.809   2.685
10330SOL    HW131889   3.151   5.768   2.626
10330SOL    HW231890   3.085   5.909   2.676
10331SOL     OW31891   6.604   0.491   3.693
10331SOL    HW131892   6.645   0.577   3.663
10331SOL    HW231893   6.527   0.469   3.634
10332SOL     OW31894   5.934   1.610   0.668
10332SOL    HW131895   5.848   1.660   0.660
10332SOL    HW231896   6.005   1.659   0.617
10333SOL     OW31897   6.450   4.192   4.582
10333SOL    HW131898   6.542   4.178   4.545
10333SOL    HW231899   6.399   4.253   4.521
10334SOL     OW31900   2.182   5.714   3.805
10334SOL    HW131901   2.179   5.805   3.847
10334SOL    HW231902   2.134   5.648   3.864
10335SOL     OW31903   2.090   4.507   0.281
10335SOL    HW131904   2.093   4.461   0.193
10335SOL    HW231905   2.005   4.483   0.328
10336SOL     OW31906   5.680   6.744   3.308
10336SOL    HW131907   5.637   6.758   3.218
10336SOL    HW231908   5.779   6.748   3.298
10337SOL     OW31909   6.469   6.524   5.338
10337SOL    HW131910   6.426   6.480   5.259
10337SOL    HW231911   6.563   6.490   5.347
10338SOL     OW31912   2.950   6.916   1.744
10338SOL    HW131913   3.021   6.899   1.812
10338SOL    HW231914   2.966   6.859   1.663
10339SOL     OW31915   3.708   4.739   0.944
10339SOL    HW131916   3.641   4.787   1.001
10339SOL    HW231917   3.790   4.719   0.998
10340SOL     OW31918   1.300   5.155   0.180
10340SOL    HW131919   1.305   5.073   0.237
10340SOL    HW231920   1.295   5.128   0.084
10341SOL     OW31921   2.376   3.219   1.732
10341SOL    HW131922   2.371   3.308   1.778
10341SOL    HW231923   2.468   3.181   1.742
10342SOL     OW31924   2.472   5.639   5.266
10342SOL    HW131925   2.561   5.594   5.259
10342SOL    HW231926   2.476   5.728   5.219
10343SOL     OW31927   2.349   4.079   0.577
10343SOL    HW131928   2.368   4.048   0.484
10343SOL    HW231929   2.326   4.000   0.635
10344SOL     OW31930   3.639   3.693   2.787
10344SOL    HW131931   3.709   3.642   2.738
10344SOL    HW231932   3.550   3.676   2.745
10345SOL     OW31933   1.551   0.166   6.195
10345SOL    HW131934   1.548   0.197   6.290
10345SOL    HW231935   1.538   0.067   6.192
10346SOL     OW31936   6.268   0.506   1.161
10346SOL    HW131937   6.215   0.589   1.178
10346SOL    HW231938   6.217   0.446   1.100
10347SOL     OW31939   5.175   2.605   1.786
10347SOL    HW131940   5.202   2.659   1.706
10347SOL    HW231941   5.249   2.541   1.808
10348SOL     OW31942   6.421   1.412   6.561
10348SOL    HW131943   6.421   1.446   6.466
10348SOL    HW231944   6.493   1.458   6.613
10349SOL     OW31945   6.660   1.617   0.589
10349SOL    HW131946   6.640   1.677   0.667
10349SOL    HW231947   6.757   1.625   0.565
10350SOL     OW31948   2.885   6.226   4.913
10350SOL    HW131949   2.967   6.284   4.901
10350SOL    HW231950   2.810   6.263   4.858
10351SOL     OW31951   6.246   4.821   6.027
10351SOL    HW131952   6.158   4.851   6.064
10351SOL    HW231953   6.266   4.872   5.943
10352SOL     OW31954   5.435   2.130   6.467
10352SOL    HW131955   5.429   2.201   6.538
10352SOL    HW231956   5.452   2.173   6.378
10353SOL     OW31957   6.782   3.266   4.201
10353SOL    HW131958   6.750   3.302   4.113
10353SOL    HW231959   6.715   3.201   4.236
10354SOL     OW31960   1.035   2.817   0.929
10354SOL    HW131961   1.115   2.773   0.970
10354SOL    HW231962   1.062   2.864   0.845
10355SOL     OW31963   1.122   0.628   0.579
10355SOL    HW131964   1.137   0.538   0.537
10355SOL    HW231965   1.137   0.700   0.511
10356SOL     OW31966   6.707   3.668   5.710
10356SOL    HW131967   6.650   3.749   5.697
10356SOL    HW231968   6.795   3.694   5.749
10357SOL     OW31969   3.728   2.309   5.544
10357SOL    HW131970   3.650   2.262   5.586
10357SOL    HW231971   3.769   2.371   5.611
10358SOL     OW31972   1.037   3.205   4.043
10358SOL    HW131973   0.995   3.266   3.976
10358SOL    HW231974   1.017   3.110   4.017
10359SOL     OW31975   5.126   2.065   2.160
10359SOL    HW131976   5.062   2.134   2.125
10359SOL    HW231977   5.155   2.090   2.252
10360SOL     OW31978   5.573   5.856   2.284
10360SOL    HW131979   5.644   5.789   2.303
10360SOL    HW231980   5.484   5.817   2.308
10361SOL     OW31981   2.466   0.907   2.826
10361SOL    HW131982   2.541   0.858   2.783
10361SOL    HW231983   2.436   0.982   2.766
10362SOL     OW31984   0.645   5.286   2.745
10362SOL    HW131985   0.617   5.193   2.721
10362SOL    HW231986   0.576   5.326   2.806
10363SOL     OW31987   5.236   2.493   0.971
10363SOL    HW131988   5.242   2.536   1.061
10363SOL    HW231989   5.327   2.464   0.942
10364SOL     OW31990   4.795   4.322   1.945
10364SOL    HW131991   4.828   4.265   1.869
10364SOL    HW231992   4.695   4.317   1.949
10365SOL     OW31993   6.000   4.390   0.243
10365SOL    HW131994   6.042   4.356   0.159
10365SOL    HW231995   5.921   4.446   0.220
10366SOL     OW31996   3.484   6.817   3.389
10366SOL    HW131997   3.427   6.748   3.346
10366SOL    HW231998   3.569   6.775   3.421
10367SOL     OW31999   7.020   1.934   2.230
10367SOL    HW132000   6.996   1.929   2.133
10367SOL    HW232001   0.001   1.842   2.269
10368SOL     OW32002   2.153   1.001   2.165
10368SOL    HW132003   2.138   0.922   2.105
10368SOL    HW232004   2.179   1.080   2.110
10369SOL     OW32005   2.644   6.284   5.990
10369SOL    HW132006   2.562   6.231   6.013
10369SOL    HW232007   2.617   6.377   5.964
10370SOL     OW32008   6.217   1.376   5.033
10370SOL    HW132009   6.298   1.383   4.975
10370SOL    HW232010   6.235   1.418   5.122
10371SOL     OW32011   2.011   6.619   4.213
10371SOL    HW132012   1.941   6.551   4.236
10371SOL    HW232013   1.976   6.710   4.233
10372SOL     OW32014   2.840   1.141   0.879
10372SOL    HW132015   2.901   1.154   0.957
10372SOL    HW232016   2.793   1.226   0.858
10373SOL     OW32017   0.557   6.898   4.841
10373SOL    HW132018   0.469   6.897   4.889
10373SOL    HW232019   0.623   6.951   4.895
10374SOL     OW32020   3.270   0.467   3.817
10374SOL    HW132021   3.341   0.530   3.850
10374SOL    HW232022   3.303   0.416   3.739
10375SOL     OW32023   2.721   2.086   5.821
10375SOL    HW132024   2.622   2.079   5.806
10375SOL    HW232025   2.762   2.139   5.747
10376SOL     OW32026   0.973   6.207   4.347
10376SOL    HW132027   0.924   6.210   4.434
10376SOL    HW232028   1.016   6.296   4.330
10377SOL     OW32029   0.348   1.188   1.533
10377SOL    HW132030   0.252   1.171   1.556
10377SOL    HW232031   0.377   1.274   1.574
10378SOL     OW32032   6.152   5.645   5.609
10378SOL    HW132033   6.137   5.744   5.606
10378SOL    HW232034   6.109   5.608   5.691
10379SOL     OW32035   3.412   5.534   4.233
10379SOL    HW132036   3.324   5.492   4.257
10379SOL    HW232037   3.424   5.530   4.134
10380SOL     OW32038   0.872   2.463   4.894
10380SOL    HW132039   0.897   2.450   4.798
10380SOL    HW232040   0.935   2.528   4.936
10381SOL     OW32041   4.366   4.002   1.452
10381SOL    HW132042   4.341   3.908   1.428
10381SOL    HW232043   4.465   4.011   1.454
10382SOL     OW32044   3.010   5.922   1.703
10382SOL    HW132045   2.911   5.932   1.716
10382SOL    HW232046   3.056   5.946   1.788
10383SOL     OW32047   1.186   4.153   0.637
10383SOL    HW132048   1.182   4.056   0.617
10383SOL    HW232049   1.279   4.186   0.624
10384SOL     OW32050   6.732   6.897   0.358
10384SOL    HW132051   6.807   6.958   0.335
10384SOL    HW232052   6.701   6.915   0.451
10385SOL     OW32053   4.361   6.007   6.696
10385SOL    HW132054   4.338   5.910   6.698
10385SOL    HW232055   4.279   6.061   6.715
10386SOL     OW32056   0.173   1.086   5.929
10386SOL    HW132057   0.228   1.161   5.966
10386SOL    HW232058   0.218   0.999   5.950
10387SOL     OW32059   5.184   3.097   2.681
10387SOL    HW132060   5.199   3.111   2.583
10387SOL    HW232061   5.188   3.185   2.728
10388SOL     OW32062   1.343   5.959   1.643
10388SOL    HW132063   1.388   6.034   1.595
10388SOL    HW232064   1.334   5.983   1.740
10389SOL     OW32065   6.465   3.823   1.443
10389SOL    HW132066   6.441   3.828   1.540
10389SOL    HW232067   6.489   3.915   1.410
10390SOL     OW32068   1.952   2.939   6.959
10390SOL    HW132069   1.978   2.858   7.011
10390SOL    HW232070   1.852   2.946   6.956
10391SOL     OW32071   0.319   5.955   4.718
10391SOL    HW132072   0.237   6.011   4.707
10391SOL    HW232073   0.323   5.920   4.812
10392SOL     OW32074   5.896   5.087   5.351
10392SOL    HW132075   5.856   5.010   5.302
10392SOL    HW232076   5.974   5.123   5.299
10393SOL     OW32077   2.351   2.847   3.278
10393SOL    HW132078   2.277   2.880   3.336
10393SOL    HW232079   2.347   2.892   3.189
10394SOL     OW32080   2.946   5.389   5.108
10394SOL    HW132081   3.044   5.393   5.131
10394SOL    HW232082   2.899   5.327   5.170
10395SOL     OW32083   0.343   0.483   1.435
10395SOL    HW132084   0.383   0.481   1.526
10395SOL    HW232085   0.264   0.544   1.434
10396SOL     OW32086   3.395   1.599   3.912
10396SOL    HW132087   3.431   1.692   3.921
10396SOL    HW232088   3.415   1.548   3.996
10397SOL     OW32089   3.737   1.245   4.505
10397SOL    HW132090   3.665   1.245   4.574
10397SOL    HW232091   3.727   1.164   4.447
10398SOL     OW32092   5.716   2.611   0.235
10398SOL    HW132093   5.639   2.674   0.221
10398SOL    HW232094   5.751   2.622   0.328
10399SOL     OW32095   4.782   2.125   3.146
10399SOL    HW132096   4.726   2.069   3.084
10399SOL    HW232097   4.765   2.222   3.128
10400SOL     OW32098   4.730   5.832   0.026
10400SOL    HW132099   4.809   5.891   0.008
10400SOL    HW232100   4.682   5.865   0.107
10401SOL     OW32101   0.086   6.411   2.624
10401SOL    HW132102   0.076   6.499   2.670
10401SOL    HW232103   0.015   6.402   2.554
10402SOL     OW32104   6.646   1.647   5.297
10402SOL    HW132105   6.653   1.582   5.372
10402SOL    HW232106   6.709   1.723   5.313
10403SOL     OW32107   4.605   2.611   2.928
10403SOL    HW132108   4.580   2.631   2.833
10403SOL    HW232109   4.644   2.693   2.970
10404SOL     OW32110   6.005   6.462   4.566
10404SOL    HW132111   6.069   6.482   4.640
10404SOL    HW232112   5.915   6.440   4.605
10405SOL     OW32113   1.471   6.694   4.626
10405SOL    HW132114   1.436   6.648   4.544
10405SOL    HW232115   1.511   6.781   4.601
10406SOL     OW32116   2.215   2.987   3.479
10406SOL    HW132117   2.201   3.060   3.546
10406SOL    HW232118   2.191   2.899   3.520
10407SOL     OW32119   2.748   6.704   6.501
10407SOL    HW132120   2.762   6.792   6.546
10407SOL    HW232121   2.696   6.643   6.561
10408SOL     OW32122   4.586   0.182   0.981
10408SOL    HW132123   4.638   0.262   1.010
10408SOL    HW232124   4.648   0.104   0.969
10409SOL     OW32125   6.796   4.868   1.174
10409SOL    HW132126   6.874   4.930   1.181
10409SOL    HW232127   6.827   4.777   1.148
10410SOL     OW32128   5.058   1.857   1.750
10410SOL    HW132129   5.110   1.926   1.700
10410SOL    HW232130   5.042   1.888   1.844
10411SOL     OW32131   2.886   6.485   3.614
10411SOL    HW132132   2.806   6.507   3.558
10411SOL    HW232133   2.965   6.537   3.582
10412SOL     OW32134   0.094   1.254   0.482
10412SOL    HW132135   0.066   1.244   0.387
10412SOL    HW232136   0.127   1.348   0.497
10413SOL     OW32137   7.019   2.734   0.492
10413SOL    HW132138   6.987   2.777   0.407
10413SOL    HW232139   0.027   2.805   0.555
10414SOL     OW32140   4.421   5.506   5.691
10414SOL    HW132141   4.329   5.468   5.685
10414SOL    HW232142   4.424   5.595   5.645
10415SOL     OW32143   1.215   3.598   5.312
10415SOL    HW132144   1.240   3.680   5.261
10415SOL    HW232145   1.293   3.568   5.367
10416SOL     OW32146   5.587   0.040   5.614
10416SOL    HW132147   5.657   0.111   5.613
10416SOL    HW232148   5.566   0.015   5.708
10417SOL     OW32149   3.082   4.818   4.024
10417SOL    HW132150   3.065   4.880   3.947
10417SOL    HW232151   3.180   4.811   4.041
10418SOL     OW32152   6.542   3.910   6.232
10418SOL    HW132153   6.476   3.835   6.224
10418SOL    HW232154   6.492   3.995   6.251
10419SOL     OW32155   3.000   6.857   6.217
10419SOL    HW132156   2.973   6.762   6.233
10419SOL    HW232157   3.006   6.905   6.304
10420SOL     OW32158   0.347   3.858   4.149
10420SOL    HW132159   0.383   3.783   4.205
10420SOL    HW232160   0.379   3.945   4.186
10421SOL     OW32161   0.898   2.667   3.953
10421SOL    HW132162   0.998   2.659   3.952
10421SOL    HW232163   0.865   2.659   4.047
10422SOL     OW32164   6.104   3.328   5.260
10422SOL    HW132165   6.061   3.323   5.170
10422SOL    HW232166   6.078   3.415   5.304
10423SOL     OW32167   5.498   4.942   5.433
10423SOL    HW132168   5.420   4.964   5.375
10423SOL    HW232169   5.478   4.859   5.485
10424SOL     OW32170   4.354   3.096   0.639
10424SOL    HW132171   4.368   3.107   0.541
10424SOL    HW232172   4.383   3.180   0.686
10425SOL     OW32173   1.096   6.700   2.072
10425SOL    HW132174   1.154   6.770   2.030
10425SOL    HW232175   1.134   6.673   2.161
10426SOL     OW32176   4.884   5.194   0.380
10426SOL    HW132177   4.949   5.134   0.334
10426SOL    HW232178   4.818   5.230   0.314
10427SOL     OW32179   3.917   1.111   6.770
10427SOL    HW132180   3.940   1.186   6.833
10427SOL    HW232181   3.854   1.048   6.815
10428SOL     OW32182   3.726   0.829   3.661
10428SOL    HW132183   3.752   0.923   3.640
10428SOL    HW232184   3.628   0.824   3.677
10429SOL     OW32185   6.944   4.333   1.179
10429SOL    HW132186   6.903   4.369   1.263
10429SOL    HW232187   0.014   4.368   1.171
10430SOL     OW32188   5.017   0.279   4.730
10430SOL    HW132189   4.932   0.311   4.771
10430SOL    HW232190   5.082   0.255   4.802
10431SOL     OW32191   2.716   5.991   4.230
10431SOL    HW132192   2.635   5.994   4.288
10431SOL    HW232193   2.798   5.985   4.287
10432SOL     OW32194   5.455   0.091   4.685
10432SOL    HW132195   5.514   0.151   4.739
10432SOL    HW232196   5.486   7.020   4.695
10433SOL     OW32197   1.003   6.061   2.308
10433SOL    HW132198   1.042   6.022   2.392
10433SOL    HW232199   0.934   6.130   2.332
10434SOL     OW32200   4.007   6.264   2.952
10434SOL    HW132201   4.096   6.280   2.909
10434SOL    HW232202   4.020   6.241   3.048
10435SOL     OW32203   0.531   1.043   5.289
10435SOL    HW132204   0.509   0.994   5.373
10435SOL    HW232205   0.474   1.126   5.283
10436SOL     OW32206   6.624   4.767   5.607
10436SOL    HW132207   6.600   4.705   5.683
10436SOL    HW232208   6.634   4.714   5.523
10437SOL     OW32209   4.848   3.951   6.123
10437SOL    HW132210   4.817   3.857   6.133
10437SOL    HW232211   4.892   3.981   6.207
10438SOL     OW32212   6.359   6.402   0.005
10438SOL    HW132213   6.297   6.379   0.080
10438SOL    HW232214   6.329   6.356   6.945
10439SOL     OW32215   3.805   0.872   4.777
10439SOL    HW132216   3.785   0.899   4.871
10439SOL    HW232217   3.879   0.805   4.777
10440SOL     OW32218   1.506   6.473   1.022
10440SOL    HW132219   1.488   6.409   0.948
10440SOL    HW232220   1.429   6.537   1.030
10441SOL     OW32221   4.092   1.198   1.242
10441SOL    HW132222   4.083   1.295   1.263
10441SOL    HW232223   4.071   1.182   1.146
10442SOL     OW32224   4.149   6.350   6.515
10442SOL    HW132225   4.216   6.345   6.589
10442SOL    HW232226   4.160   6.272   6.455
10443SOL     OW32227   5.069   3.816   3.903
10443SOL    HW132228   5.003   3.787   3.972
10443SOL    HW232229   5.132   3.882   3.943
10444SOL     OW32230   4.467   5.278   3.965
10444SOL    HW132231   4.424   5.226   3.891
10444SOL    HW232232   4.537   5.338   3.927
10445SOL     OW32233   0.764   4.509   4.489
10445SOL    HW132234   0.678   4.463   4.464
10445SOL    HW232235   0.761   4.535   4.585
10446SOL     OW32236   1.582   3.384   5.375
10446SOL    HW132237   1.501   3.359   5.428
10446SOL    HW232238   1.556   3.451   5.305
10447SOL     OW32239   0.297   1.123   1.975
10447SOL    HW132240   0.240   1.150   2.053
10447SOL    HW232241   0.293   1.195   1.905
10448SOL     OW32242   4.556   0.484   2.386
10448SOL    HW132243   4.520   0.577   2.379
10448SOL    HW232244   4.560   0.443   2.294
10449SOL     OW32245   2.414   5.242   4.589
10449SOL    HW132246   2.376   5.333   4.575
10449SOL    HW232247   2.505   5.249   4.628
10450SOL     OW32248   0.796   1.550   0.762
10450SOL    HW132249   0.866   1.511   0.821
10450SOL    HW232250   0.820   1.645   0.740
10451SOL     OW32251   1.715   5.553   2.437
10451SOL    HW132252   1.706   5.492   2.516
10451SOL    HW232253   1.624   5.574   2.401
10452SOL     OW32254   6.568   3.054   1.920
10452SOL    HW132255   6.490   3.116   1.925
10452SOL    HW232256   6.566   2.991   1.998
10453SOL     OW32257   3.796   0.019   1.195
10453SOL    HW132258   3.754   0.097   1.147
10453SOL    HW232259   3.799   6.963   1.134
10454SOL     OW32260   4.430   3.422   0.248
10454SOL    HW132261   4.463   3.491   0.184
10454SOL    HW232262   4.343   3.385   0.214
10455SOL     OW32263   6.683   6.268   3.174
10455SOL    HW132264   6.587   6.248   3.160
10455SOL    HW232265   6.738   6.216   3.109
10456SOL     OW32266   2.660   6.351   0.966
10456SOL    HW132267   2.644   6.401   1.052
10456SOL    HW232268   2.581   6.363   0.906
10457SOL     OW32269   3.108   3.531   1.649
10457SOL    HW132270   3.014   3.527   1.614
10457SOL    HW232271   3.142   3.439   1.665
10458SOL     OW32272   6.230   1.187   6.367
10458SOL    HW132273   6.229   1.165   6.465
10458SOL    HW232274   6.308   1.245   6.347
10459SOL     OW32275   5.228   5.928   1.465
10459SOL    HW132276   5.171   5.856   1.505
10459SOL    HW232277   5.283   5.971   1.537
10460SOL     OW32278   0.827   4.526   2.255
10460SOL    HW132279   0.873   4.608   2.288
10460SOL    HW232280   0.728   4.536   2.269
10461SOL     OW32281   0.130   5.206   5.884
10461SOL    HW132282   0.056   5.274   5.883
10461SOL    HW232283   0.091   5.115   5.899
10462SOL     OW32284   5.966   1.535   3.492
10462SOL    HW132285   5.897   1.552   3.421
10462SOL    HW232286   5.974   1.616   3.550
10463SOL     OW32287   4.309   2.840   5.749
10463SOL    HW132288   4.217   2.846   5.789
10463SOL    HW232289   4.309   2.883   5.659
10464SOL     OW32290   6.626   0.292   0.827
10464SOL    HW132291   6.583   0.350   0.758
10464SOL    HW232292   6.630   0.198   0.794
10465SOL     OW32293   6.415   5.191   1.100
10465SOL    HW132294   6.375   5.170   1.011
10465SOL    HW232295   6.493   5.131   1.117
10466SOL     OW32296   4.469   4.838   6.433
10466SOL    HW132297   4.505   4.839   6.527
10466SOL    HW232298   4.428   4.749   6.414
10467SOL     OW32299   2.584   1.593   6.287
10467SOL    HW132300   2.551   1.634   6.202
10467SOL    HW232301   2.598   1.665   6.355
10468SOL     OW32302   4.023   5.206   3.238
10468SOL    HW132303   3.983   5.225   3.327
10468SOL    HW232304   4.121   5.190   3.248
10469SOL     OW32305   3.767   4.560   5.870
10469SOL    HW132306   3.829   4.492   5.830
10469SOL    HW232307   3.712   4.602   5.797
10470SOL     OW32308   2.491   2.539   3.629
10470SOL    HW132309   2.495   2.586   3.540
10470SOL    HW232310   2.537   2.451   3.622
10471SOL     OW32311   2.824   2.495   1.214
10471SOL    HW132312   2.755   2.565   1.192
10471SOL    HW232313   2.907   2.513   1.161
10472SOL     OW32314   4.294   5.329   0.514
10472SOL    HW132315   4.214   5.377   0.549
10472SOL    HW232316   4.377   5.374   0.547
10473SOL     OW32317   0.024   0.574   6.459
10473SOL    HW132318   6.996   0.647   6.504
10473SOL    HW232319   0.110   0.559   6.509
10474SOL     OW32320   4.147   2.058   4.544
10474SOL    HW132321   4.122   2.017   4.632
10474SOL    HW232322   4.182   2.151   4.560
10475SOL     OW32323   4.524   6.560   1.876
10475SOL    HW132324   4.623   6.545   1.870
10475SOL    HW232325   4.505   6.658   1.872
10476SOL     OW32326   0.190   6.253   0.163
10476SOL    HW132327   0.207   6.163   0.123
10476SOL    HW232328   0.273   6.284   0.210
10477SOL     OW32329   6.928   1.988   4.274
10477SOL    HW132330   6.922   1.974   4.175
10477SOL    HW232331   6.966   1.906   4.316
10478SOL     OW32332   0.017   0.660   1.290
10478SOL    HW132333   0.073   0.671   1.371
10478SOL    HW232334   6.946   0.686   1.310
10479SOL     OW32335   0.646   2.759   1.446
10479SOL    HW132336   0.745   2.765   1.461
10479SOL    HW232337   0.601   2.841   1.481
10480SOL     OW32338   6.851   0.185   1.761
10480SOL    HW132339   6.831   0.134   1.678
10480SOL    HW232340   6.830   0.129   1.842
10481SOL     OW32341   2.524   6.984   4.565
10481SOL    HW132342   2.487   6.923   4.635
10481SOL    HW232343   2.462   6.988   4.487
10482SOL     OW32344   6.298   5.546   4.827
10482SOL    HW132345   6.384   5.538   4.878
10482SOL    HW232346   6.318   5.551   4.729
10483SOL     OW32347   6.403   5.079   7.002
10483SOL    HW132348   6.425   4.983   6.985
10483SOL    HW232349   6.448   5.109   0.064
10484SOL     OW32350   5.897   1.162   1.572
10484SOL    HW132351   5.900   1.074   1.621
10484SOL    HW232352   5.982   1.175   1.522
10485SOL     OW32353   3.478   4.048   1.861
10485SOL    HW132354   3.380   4.065   1.870
10485SOL    HW232355   3.497   4.002   1.774
10486SOL     OW32356   6.643   0.823   6.479
10486SOL    HW132357   6.560   0.876   6.497
10486SOL    HW232358   6.716   0.885   6.447
10487SOL     OW32359   4.892   1.604   2.511
10487SOL    HW132360   4.795   1.609   2.486
10487SOL    HW232361   4.927   1.696   2.527
10488SOL     OW32362   2.783   1.745   5.533
10488SOL    HW132363   2.819   1.704   5.617
10488SOL    HW232364   2.710   1.687   5.496
10489SOL     OW32365   6.283   0.160   4.402
10489SOL    HW132366   6.368   0.186   4.447
10489SOL    HW232367   6.302   0.129   4.309
10490SOL     OW32368   6.270   1.783   1.053
10490SOL    HW132369   6.269   1.733   1.140
10490SOL    HW232370   6.206   1.740   0.989
10491SOL     OW32371   2.713   2.385   5.481
10491SOL    HW132372   2.739   2.360   5.388
10491SOL    HW232373   2.662   2.310   5.523
10492SOL     OW32374   5.225   5.957   0.726
10492SOL    HW132375   5.293   6.020   0.687
10492SOL    HW232376   5.150   6.011   0.765
10493SOL     OW32377   2.950   6.623   2.307
10493SOL    HW132378   2.936   6.692   2.236
10493SOL    HW232379   3.000   6.545   2.269
10494SOL     OW32380   5.479   4.363   6.416
10494SOL    HW132381   5.444   4.374   6.509
10494SOL    HW232382   5.439   4.433   6.356
10495SOL     OW32383   1.062   6.763   0.826
10495SOL    HW132384   1.128   6.838   0.833
10495SOL    HW232385   1.051   6.721   0.916
10496SOL     OW32386   6.102   4.124   6.059
10496SOL    HW132387   6.019   4.175   6.035
10496SOL    HW232388   6.079   4.028   6.073
10497SOL     OW32389   1.705   7.023   2.230
10497SOL    HW132390   1.735   0.085   2.187
10497SOL    HW232391   1.651   0.020   2.312
10498SOL     OW32392   5.454   5.445   0.446
10498SOL    HW132393   5.387   5.507   0.484
10498SOL    HW232394   5.533   5.496   0.412
10499SOL     OW32395   4.904   0.132   2.194
10499SOL    HW132396   4.852   0.049   2.214
10499SOL    HW232397   4.920   0.182   2.279
10500SOL     OW32398   5.955   1.114   5.578
10500SOL    HW132399   5.902   1.185   5.534
10500SOL    HW232400   6.053   1.134   5.569
10501SOL     OW32401   2.201   5.113   1.951
10501SOL    HW132402   2.254   5.101   1.868
10501SOL    HW232403   2.169   5.207   1.957
10502SOL     OW32404   2.761   2.796   1.333
10502SOL    HW132405   2.807   2.809   1.246
10502SOL    HW232406   2.816   2.835   1.407
10503SOL     OW32407   5.061   3.077   0.854
10503SOL    HW132408   5.035   3.168   0.887
10503SOL    HW232409   5.160   3.073   0.842
10504SOL     OW32410   0.553   2.993   5.822
10504SOL    HW132411   0.528   3.088   5.843
10504SOL    HW232412   0.631   2.966   5.878
10505SOL     OW32413   5.847   5.436   0.978
10505SOL    HW132414   5.849   5.341   0.946
10505SOL    HW232415   5.757   5.456   1.016
10506SOL     OW32416   0.418   3.682   0.046
10506SOL    HW132417   0.461   3.595   0.021
10506SOL    HW232418   0.470   3.725   0.120
10507SOL     OW32419   2.050   5.688   1.146
10507SOL    HW132420   1.982   5.759   1.167
10507SOL    HW232421   2.140   5.730   1.139
10508SOL     OW32422   0.140   5.362   4.819
10508SOL    HW132423   0.151   5.271   4.781
10508SOL    HW232424   0.055   5.368   4.871
10509SOL     OW32425   6.656   5.445   5.252
10509SOL    HW132426   6.570   5.468   5.207
10509SOL    HW232427   6.726   5.512   5.227
10510SOL     OW32428   4.522   6.866   0.248
10510SOL    HW132429   4.565   6.788   0.202
10510SOL    HW232430   4.593   6.928   0.280
10511SOL     OW32431   2.685   1.760   2.196
10511SOL    HW132432   2.765   1.798   2.149
10511SOL    HW232433   2.607   1.821   2.183
10512SOL     OW32434   3.505   0.791   5.667
10512SOL    HW132435   3.420   0.772   5.619
10512SOL    HW232436   3.497   0.759   5.762
10513SOL     OW32437   6.674   3.349   3.642
10513SOL    HW132438   6.749   3.414   3.655
10513SOL    HW232439   6.602   3.368   3.708
10514SOL     OW32440   0.573   3.173   1.064
10514SOL    HW132441   0.497   3.136   1.011
10514SOL    HW232442   0.571   3.134   1.157
10515SOL     OW32443   1.757   3.798   4.443
10515SOL    HW132444   1.831   3.811   4.508
10515SOL    HW232445   1.671   3.783   4.492
10516SOL     OW32446   2.967   1.665   0.753
10516SOL    HW132447   2.976   1.718   0.837
10516SOL    HW232448   2.988   1.724   0.674
10517SOL     OW32449   1.056   3.285   1.058
10517SOL    HW132450   1.124   3.353   1.085
10517SOL    HW232451   0.971   3.331   1.033
10518SOL     OW32452   6.731   6.222   1.419
10518SOL    HW132453   6.751   6.133   1.461
10518SOL    HW232454   6.781   6.230   1.333
10519SOL     OW32455   3.074   3.623   0.759
10519SOL    HW132456   3.111   3.590   0.672
10519SOL    HW232457   2.994   3.568   0.784
10520SOL     OW32458   0.806   2.301   5.849
10520SOL    HW132459   0.826   2.398   5.841
10520SOL    HW232460   0.889   2.248   5.830
10521SOL     OW32461   6.499   4.878   1.352
10521SOL    HW132462   6.541   4.889   1.262
10521SOL    HW232463   6.545   4.936   1.419
10522SOL     OW32464   0.214   1.828   4.561
10522SOL    HW132465   0.215   1.927   4.577
10522SOL    HW232466   0.279   1.783   4.622
10523SOL     OW32467   0.678   4.477   2.616
10523SOL    HW132468   0.607   4.547   2.628
10523SOL    HW232469   0.768   4.520   2.623
10524SOL     OW32470   0.212   6.201   4.592
10524SOL    HW132471   0.267   6.243   4.520
10524SOL    HW232472   0.124   6.172   4.553
10525SOL     OW32473   3.511   0.903   5.320
10525SOL    HW132474   3.543   0.967   5.390
10525SOL    HW232475   3.435   0.849   5.357
10526SOL     OW32476   1.073   0.029   2.023
10526SOL    HW132477   1.049   0.097   1.953
10526SOL    HW232478   1.002   0.027   2.093
10527SOL     OW32479   1.025   1.202   5.158
10527SOL    HW132480   0.946   1.159   5.202
10527SOL    HW232481   1.066   1.139   5.093
10528SOL     OW32482   1.496   3.894   6.077
10528SOL    HW132483   1.575   3.863   6.128
10528SOL    HW232484   1.492   3.994   6.079
10529SOL     OW32485   2.484   6.258   4.192
10529SOL    HW132486   2.555   6.252   4.122
10529SOL    HW232487   2.445   6.350   4.193
10530SOL     OW32488   1.424   6.910   6.282
10530SOL    HW132489   1.374   6.902   6.368
10530SOL    HW232490   1.369   6.870   6.208
10531SOL     OW32491   2.066   2.475   4.153
10531SOL    HW132492   2.124   2.403   4.191
10531SOL    HW232493   2.048   2.455   4.056
10532SOL     OW32494   0.807   7.004   6.766
10532SOL    HW132495   0.749   6.971   6.841
10532SOL    HW232496   0.843   6.926   6.715
10533SOL     OW32497   3.044   6.778   3.347
10533SOL    HW132498   3.064   6.876   3.344
10533SOL    HW232499   3.001   6.750   3.262
10534SOL     OW32500   6.143   5.334   2.147
10534SOL    HW132501   6.192   5.291   2.223
10534SOL    HW232502   6.109   5.263   2.085
10535SOL     OW32503   1.832   2.046   2.504
10535SOL    HW132504   1.799   2.131   2.546
10535SOL    HW232505   1.915   2.064   2.453
10536SOL     OW32506   4.635   0.626   4.191
10536SOL    HW132507   4.649   0.699   4.124
10536SOL    HW232508   4.556   0.571   4.163
10537SOL     OW32509   4.279   6.201   4.561
10537SOL    HW132510   4.259   6.242   4.472
10537SOL    HW232511   4.226   6.117   4.572
10538SOL     OW32512   6.950   3.400   1.034
10538SOL    HW132513   6.973   3.479   0.977
10538SOL    HW232514   6.928   3.431   1.126
10539SOL     OW32515   6.682   4.826   0.804
10539SOL    HW132516   6.766   4.773   0.815
10539SOL    HW232517   6.604   4.765   0.804
10540SOL     OW32518   1.665   3.192   5.153
10540SOL    HW132519   1.669   3.285   5.191
10540SOL    HW232520   1.600   3.137   5.206
10541SOL     OW32521   4.042   3.906   2.282
10541SOL    HW132522   3.943   3.916   2.278
10541SOL    HW232523   4.085   3.996   2.286
10542SOL     OW32524   6.585   1.232   5.387
10542SOL    HW132525   6.658   1.220   5.320
10542SOL    HW232526   6.610   1.304   5.452
10543SOL     OW32527   0.734   1.807   4.693
10543SOL    HW132528   0.635   1.811   4.702
10543SOL    HW232529   0.760   1.824   4.598
10544SOL     OW32530   2.552   6.672   1.846
10544SOL    HW132531   2.484   6.746   1.855
10544SOL    HW232532   2.628   6.690   1.909
10545SOL     OW32533   0.730   2.035   1.274
10545SOL    HW132534   0.820   1.996   1.295
10545SOL    HW232535   0.675   2.041   1.357
10546SOL     OW32536   2.115   6.566   0.358
10546SOL    HW132537   2.129   6.549   0.455
10546SOL    HW232538   2.204   6.571   0.313
10547SOL     OW32539   5.293   3.171   3.133
10547SOL    HW132540   5.258   3.112   3.061
10547SOL    HW232541   5.393   3.171   3.130
10548SOL     OW32542   6.676   4.120   4.139
10548SOL    HW132543   6.681   4.024   4.114
10548SOL    HW232544   6.745   4.140   4.208
10549SOL     OW32545   0.602   1.254   1.158
10549SOL    HW132546   0.532   1.190   1.190
10549SOL    HW232547   0.585   1.275   1.062
10550SOL     OW32548   4.588   6.954   3.554
10550SOL    HW132549   4.643   6.877   3.524
10550SOL    HW232550   4.569   6.945   3.652
10551SOL     OW32551   2.251   2.071   6.458
10551SOL    HW132552   2.200   2.021   6.528
10551SOL    HW232553   2.188   2.121   6.400
10552SOL     OW32554   1.890   0.631   5.586
10552SOL    HW132555   1.840   0.593   5.665
10552SOL    HW232556   1.961   0.567   5.558
10553SOL     OW32557   0.562   4.737   1.448
10553SOL    HW132558   0.657   4.709   1.461
10553SOL    HW232559   0.524   4.691   1.368
10554SOL     OW32560   4.935   4.875   0.995
10554SOL    HW132561   5.032   4.875   0.968
10554SOL    HW232562   4.896   4.785   0.976
10555SOL     OW32563   2.784   2.885   0.873
10555SOL    HW132564   2.696   2.932   0.874
10555SOL    HW232565   2.774   2.794   0.834
10556SOL     OW32566   1.106   1.407   4.182
10556SOL    HW132567   1.113   1.328   4.121
10556SOL    HW232568   1.010   1.435   4.188
10557SOL     OW32569   2.220   3.099   3.066
10557SOL    HW132570   2.219   3.198   3.071
10557SOL    HW232571   2.128   3.063   3.088
10558SOL     OW32572   3.857   6.038   5.251
10558SOL    HW132573   3.854   6.055   5.152
10558SOL    HW232574   3.950   6.054   5.284
10559SOL     OW32575   4.481   1.258   1.590
10559SOL    HW132576   4.399   1.251   1.647
10559SOL    HW232577   4.549   1.314   1.636
10560SOL     OW32578   4.805   7.022   2.467
10560SOL    HW132579   4.718   6.980   2.491
10560SOL    HW232580   4.794   0.098   2.466
10561SOL     OW32581   3.588   4.405   1.666
10561SOL    HW132582   3.498   4.371   1.637
10561SOL    HW232583   3.576   4.483   1.727
10562SOL     OW32584   4.210   5.196   6.811
10562SOL    HW132585   4.233   5.100   6.799
10562SOL    HW232586   4.133   5.205   6.874
10563SOL     OW32587   0.524   1.021   2.395
10563SOL    HW132588   0.448   0.981   2.447
10563SOL    HW232589   0.494   1.107   2.353
10564SOL     OW32590   5.576   6.372   3.378
10564SOL    HW132591   5.503   6.413   3.433
10564SOL    HW232592   5.655   6.352   3.436
10565SOL     OW32593   0.105   6.556   5.871
10565SOL    HW132594   0.069   6.463   5.866
10565SOL    HW232595   0.080   6.605   5.788
10566SOL     OW32596   4.028   1.840   0.010
10566SOL    HW132597   3.980   1.776   0.070
10566SOL    HW232598   4.091   1.789   6.975
10567SOL     OW32599   2.399   2.414   5.248
10567SOL    HW132600   2.432   2.322   5.230
10567SOL    HW232601   2.374   2.423   5.344
10568SOL     OW32602   6.970   3.200   0.569
10568SOL    HW132603   6.900   3.207   0.499
10568SOL    HW232604   7.006   3.107   0.571
10569SOL     OW32605   5.743   1.110   2.487
10569SOL    HW132606   5.796   1.141   2.408
10569SOL    HW232607   5.688   1.186   2.523
10570SOL     OW32608   1.690   4.642   3.267
10570SOL    HW132609   1.612   4.643   3.329
10570SOL    HW232610   1.764   4.587   3.307
10571SOL     OW32611   0.412   4.694   5.011
10571SOL    HW132612   0.339   4.673   5.077
10571SOL    HW232613   0.420   4.793   5.001
10572SOL     OW32614   6.852   4.440   2.632
10572SOL    HW132615   6.908   4.422   2.551
10572SOL    HW232616   6.912   4.469   2.707
10573SOL     OW32617   5.346   0.767   5.075
10573SOL    HW132618   5.403   0.690   5.103
10573SOL    HW232619   5.340   0.833   5.150
10574SOL     OW32620   0.559   1.496   4.504
10574SOL    HW132621   0.505   1.548   4.438
10574SOL    HW232622   0.610   1.425   4.457
10575SOL     OW32623   6.930   0.709   3.783
10575SOL    HW132624   6.895   0.637   3.844
10575SOL    HW232625   6.941   0.794   3.835
10576SOL     OW32626   0.605   5.938   4.791
10576SOL    HW132627   0.510   5.963   4.772
10576SOL    HW232628   0.612   5.839   4.798
10577SOL     OW32629   1.858   4.423   0.393
10577SOL    HW132630   1.825   4.348   0.337
10577SOL    HW232631   1.826   4.412   0.487
10578SOL     OW32632   4.529   1.564   3.187
10578SOL    HW132633   4.544   1.533   3.093
10578SOL    HW232634   4.506   1.661   3.187
10579SOL     OW32635   4.238   2.692   1.676
10579SOL    HW132636   4.288   2.776   1.654
10579SOL    HW232637   4.261   2.621   1.609
10580SOL     OW32638   6.993   6.818   6.309
10580SOL    HW132639   6.976   6.720   6.310
10580SOL    HW232640   0.064   6.836   6.279
10581SOL     OW32641   5.750   0.259   2.930
10581SOL    HW132642   5.766   0.260   3.029
10581SOL    HW232643   5.771   0.169   2.893
10582SOL     OW32644   4.544   4.460   5.783
10582SOL    HW132645   4.549   4.392   5.710
10582SOL    HW232646   4.634   4.501   5.796
10583SOL     OW32647   4.118   1.106   4.152
10583SOL    HW132648   4.141   1.183   4.211
10583SOL    HW232649   4.195   1.042   4.149
10584SOL     OW32650   6.605   0.675   0.496
10584SOL    HW132651   6.653   0.753   0.456
10584SOL    HW232652   6.509   0.698   0.508
10585SOL     OW32653   2.675   1.524   4.904
10585SOL    HW132654   2.602   1.580   4.864
10585SOL    HW232655   2.726   1.479   4.830
10586SOL     OW32656   5.265   4.626   5.613
10586SOL    HW132657   5.340   4.680   5.650
10586SOL    HW232658   5.203   4.599   5.687
10587SOL     OW32659   6.328   5.346   6.920
10587SOL    HW132660   6.411   5.398   6.936
10587SOL    HW232661   6.340   5.253   6.955
10588SOL     OW32662   1.521   1.897   5.130
10588SOL    HW132663   1.480   1.985   5.152
10588SOL    HW232664   1.615   1.895   5.165
10589SOL     OW32665   5.591   0.733   4.463
10589SOL    HW132666   5.603   0.651   4.519
10589SOL    HW232667   5.496   0.739   4.434
10590SOL     OW32668   0.579   0.267   0.437
10590SOL    HW132669   0.673   0.244   0.412
10590SOL    HW232670   0.516   0.219   0.375
10591SOL     OW32671   1.915   2.023   0.110
10591SOL    HW132672   1.858   2.006   0.190
10591SOL    HW232673   1.870   1.986   0.028
10592SOL     OW32674   5.990   3.697   2.964
10592SOL    HW132675   5.926   3.707   3.040
10592SOL    HW232676   6.063   3.635   2.989
10593SOL     OW32677   2.970   6.086   1.296
10593SOL    HW132678   2.923   6.128   1.374
10593SOL    HW232679   2.974   6.151   1.220
10594SOL     OW32680   5.474   1.490   2.795
10594SOL    HW132681   5.443   1.556   2.727
10594SOL    HW232682   5.450   1.522   2.887
10595SOL     OW32683   5.625   0.011   0.052
10595SOL    HW132684   5.561   0.040   0.123
10595SOL    HW232685   5.691   6.971   0.091
10596SOL     OW32686   4.033   1.024   0.137
10596SOL    HW132687   3.953   0.971   0.168
10596SOL    HW232688   4.004   1.117   0.116
10597SOL     OW32689   3.308   1.406   5.499
10597SOL    HW132690   3.318   1.500   5.468
10597SOL    HW232691   3.320   1.344   5.421
10598SOL     OW32692   3.430   2.791   0.309
10598SOL    HW132693   3.430   2.863   0.239
10598SOL    HW232694   3.346   2.798   0.363
10599SOL     OW32695   5.506   3.600   6.390
10599SOL    HW132696   5.598   3.633   6.370
10599SOL    HW232697   5.511   3.509   6.430
10600SOL     OW32698   3.680   2.772   1.634
10600SOL    HW132699   3.670   2.681   1.675
10600SOL    HW232700   3.686   2.763   1.535
10601SOL     OW32701   1.475   4.708   5.421
10601SOL    HW132702   1.530   4.651   5.359
10601SOL    HW232703   1.386   4.667   5.433
10602SOL     OW32704   1.266   1.043   1.484
10602SOL    HW132705   1.333   1.011   1.551
10602SOL    HW232706   1.260   0.978   1.408
10603SOL     OW32707   3.969   0.249   3.388
10603SOL    HW132708   4.047   0.209   3.435
10603SOL    HW232709   3.889   0.190   3.400
10604SOL     OW32710   6.389   5.757   5.426
10604SOL    HW132711   6.399   5.693   5.350
10604SOL    HW232712   6.309   5.815   5.410
10605SOL     OW32713   2.246   6.359   6.667
10605SOL    HW132714   2.229   6.323   6.759
10605SOL    HW232715   2.215   6.293   6.599
10606SOL     OW32716   0.460   0.104   0.633
10606SOL    HW132717   0.533   0.038   0.652
10606SOL    HW232718   0.457   0.122   0.535
10607SOL     OW32719   4.090   4.952   6.193
10607SOL    HW132720   4.052   5.037   6.155
10607SOL    HW232721   4.177   4.973   6.240
10608SOL     OW32722   6.640   3.730   4.515
10608SOL    HW132723   6.654   3.804   4.581
10608SOL    HW232724   6.705   3.740   4.440
10609SOL     OW32725   2.817   6.485   0.036
10609SOL    HW132726   2.828   6.584   0.024
10609SOL    HW232727   2.906   6.441   0.024
10610SOL     OW32728   0.800   2.610   4.214
10610SOL    HW132729   0.725   2.673   4.231
10610SOL    HW232730   0.764   2.524   4.177
10611SOL     OW32731   2.492   4.610   0.029
10611SOL    HW132732   2.514   4.521   0.069
10611SOL    HW232733   2.535   4.682   0.083
10612SOL     OW32734   4.023   1.925   4.761
10612SOL    HW132735   4.000   1.993   4.830
10612SOL    HW232736   3.939   1.887   4.722
10613SOL     OW32737   5.694   5.959   5.792
10613SOL    HW132738   5.761   6.023   5.829
10613SOL    HW232739   5.611   5.962   5.846
10614SOL     OW32740   4.728   1.541   4.961
10614SOL    HW132741   4.736   1.456   4.911
10614SOL    HW232742   4.635   1.551   4.997
10615SOL     OW32743   3.847   0.897   5.994
10615SOL    HW132744   3.830   0.948   5.910
10615SOL    HW232745   3.891   0.810   5.972
10616SOL     OW32746   2.195   0.024   6.991
10616SOL    HW132747   2.095   0.019   6.997
10616SOL    HW232748   2.236   6.986   0.036
10617SOL     OW32749   3.269   3.983   1.178
10617SOL    HW132750   3.187   3.934   1.150
10617SOL    HW232751   3.289   3.964   1.274
10618SOL     OW32752   1.202   4.180   6.070
10618SOL    HW132753   1.114   4.190   6.119
10618SOL    HW232754   1.211   4.087   6.037
10619SOL     OW32755   0.689   3.637   3.640
10619SOL    HW132756   0.768   3.581   3.615
10619SOL    HW232757   0.710   3.693   3.720
10620SOL     OW32758   1.216   6.783   4.979
10620SOL    HW132759   1.232   6.696   5.027
10620SOL    HW232760   1.210   6.766   4.881
10621SOL     OW32761   1.003   4.897   1.958
10621SOL    HW132762   0.968   4.991   1.951
10621SOL    HW232763   1.029   4.865   1.867
10622SOL     OW32764   5.294   1.360   2.503
10622SOL    HW132765   5.393   1.364   2.518
10622SOL    HW232766   5.262   1.448   2.469
10623SOL     OW32767   6.869   5.184   6.062
10623SOL    HW132768   6.835   5.106   6.010
10623SOL    HW232769   6.942   5.154   6.123
10624SOL     OW32770   0.756   2.214   4.891
10624SOL    HW132771   0.778   2.294   4.947
10624SOL    HW232772   0.809   2.217   4.806
10625SOL     OW32773   0.521   4.683   1.180
10625SOL    HW132774   0.436   4.737   1.183
10625SOL    HW232775   0.599   4.743   1.197
10626SOL     OW32776   3.683   2.903   1.120
10626SOL    HW132777   3.608   2.845   1.087
10626SOL    HW232778   3.725   2.951   1.042
10627SOL     OW32779   5.650   1.320   6.981
10627SOL    HW132780   5.646   1.270   6.894
10627SOL    HW232781   5.681   1.258   0.030
10628SOL     OW32782   4.806   6.071   0.970
10628SOL    HW132783   4.838   6.063   1.065
10628SOL    HW232784   4.884   6.089   0.910
10629SOL     OW32785   2.461   5.131   4.925
10629SOL    HW132786   2.559   5.116   4.912
10629SOL    HW232787   2.410   5.082   4.855
10630SOL     OW32788   6.546   1.668   3.387
10630SOL    HW132789   6.454   1.629   3.391
10630SOL    HW232790   6.565   1.697   3.293
10631SOL     OW32791   3.448   5.233   5.102
10631SOL    HW132792   3.434   5.144   5.145
10631SOL    HW232793   3.381   5.298   5.136
10632SOL     OW32794   5.070   0.019   3.711
10632SOL    HW132795   5.026   6.988   3.640
10632SOL    HW232796   5.110   6.982   3.780
10633SOL     OW32797   2.952   2.416   1.476
10633SOL    HW132798   3.003   2.478   1.416
10633SOL    HW232799   2.902   2.350   1.421
10634SOL     OW32800   2.064   4.197   0.582
10634SOL    HW132801   2.060   4.277   0.640
10634SOL    HW232802   2.159   4.167   0.572
10635SOL     OW32803   1.647   3.836   6.596
10635SOL    HW132804   1.631   3.901   6.670
10635SOL    HW232805   1.570   3.772   6.590
10636SOL     OW32806   0.292   2.188   1.209
10636SOL    HW132807   0.368   2.131   1.176
10636SOL    HW232808   0.283   2.269   1.150
10637SOL     OW32809   1.047   4.639   6.015
10637SOL    HW132810   1.118   4.591   5.963
10637SOL    HW232811   0.959   4.628   5.968
10638SOL     OW32812   5.647   5.762   2.713
10638SOL    HW132813   5.684   5.714   2.792
10638SOL    HW232814   5.555   5.795   2.735
10639SOL     OW32815   1.031   4.134   3.333
10639SOL    HW132816   1.116   4.120   3.281
10639SOL    HW232817   1.039   4.218   3.387
10640SOL     OW32818   4.936   0.104   4.040
10640SOL    HW132819   4.888   0.191   4.052
10640SOL    HW232820   4.877   0.041   3.990
10641SOL     OW32821   2.084   2.044   2.668
10641SOL    HW132822   2.113   1.979   2.598
10641SOL    HW232823   2.006   2.006   2.719
10642SOL     OW32824   6.088   2.190   0.609
10642SOL    HW132825   6.073   2.110   0.668
10642SOL    HW232826   6.185   2.194   0.582
10643SOL     OW32827   1.472   6.180   4.909
10643SOL    HW132828   1.500   6.094   4.951
10643SOL    HW232829   1.490   6.255   4.972
10644SOL     OW32830   5.917   2.568   2.006
10644SOL    HW132831   5.940   2.633   1.934
10644SOL    HW232832   5.940   2.607   2.095
10645SOL     OW32833   2.177   2.429   4.985
10645SOL    HW132834   2.142   2.523   4.990
10645SOL    HW232835   2.138   2.384   4.905
10646SOL     OW32836   0.486   6.708   5.802
10646SOL    HW132837   0.424   6.649   5.854
10646SOL    HW232838   0.446   6.800   5.795
10647SOL     OW32839   3.272   5.538   4.970
10647SOL    HW132840   3.256   5.486   4.886
10647SOL    HW232841   3.342   5.608   4.953
10648SOL     OW32842   5.789   4.220   6.466
10648SOL    HW132843   5.876   4.223   6.416
10648SOL    HW232844   5.782   4.299   6.526
10649SOL     OW32845   0.678   4.534   2.931
10649SOL    HW132846   0.640   4.623   2.908
10649SOL    HW232847   0.717   4.492   2.849
10650SOL     OW32848   0.631   0.327   3.441
10650SOL    HW132849   0.640   0.290   3.349
10650SOL    HW232850   0.672   0.418   3.444
10651SOL     OW32851   5.744   6.250   6.796
10651SOL    HW132852   5.723   6.305   6.716
10651SOL    HW232853   5.718   6.155   6.778
10652SOL     OW32854   3.555   6.692   5.646
10652SOL    HW132855   3.611   6.610   5.632
10652SOL    HW232856   3.465   6.678   5.603
10653SOL     OW32857   4.795   5.578   4.432
10653SOL    HW132858   4.851   5.506   4.392
10653SOL    HW232859   4.794   5.657   4.372
10654SOL     OW32860   5.551   0.580   0.219
10654SOL    HW132861   5.478   0.539   0.165
10654SOL    HW232862   5.527   0.675   0.240
10655SOL     OW32863   2.310   5.122   0.560
10655SOL    HW132864   2.241   5.051   0.546
10655SOL    HW232865   2.266   5.212   0.551
10656SOL     OW32866   0.317   2.083   2.962
10656SOL    HW132867   0.269   2.171   2.966
10656SOL    HW232868   0.348   2.067   2.868
10657SOL     OW32869   5.430   0.311   5.723
10657SOL    HW132870   5.509   0.357   5.682
10657SOL    HW232871   5.346   0.352   5.688
10658SOL     OW32872   6.634   4.655   4.579
10658SOL    HW132873   6.585   4.629   4.662
10658SOL    HW232874   6.573   4.705   4.518
10659SOL     OW32875   0.688   5.583   1.675
10659SOL    HW132876   0.657   5.678   1.680
10659SOL    HW232877   0.734   5.559   1.760
10660SOL     OW32878   4.898   3.527   5.915
10660SOL    HW132879   4.974   3.590   5.929
10660SOL    HW232880   4.825   3.549   5.979
10661SOL     OW32881   1.508   6.919   1.808
10661SOL    HW132882   1.448   6.948   1.883
10661SOL    HW232883   1.483   6.827   1.779
10662SOL     OW32884   5.050   0.277   2.400
10662SOL    HW132885   5.025   0.371   2.379
10662SOL    HW232886   5.124   0.277   2.467
10663SOL     OW32887   0.721   2.083   2.619
10663SOL    HW132888   0.681   2.173   2.601
10663SOL    HW232889   0.768   2.086   2.708
10664SOL     OW32890   6.332   4.006   4.991
10664SOL    HW132891   6.246   3.974   4.952
10664SOL    HW232892   6.404   3.939   4.971
10665SOL     OW32893   0.531   1.976   0.542
10665SOL    HW132894   0.531   2.044   0.469
10665SOL    HW232895   0.599   2.000   0.610
10666SOL     OW32896   4.120   3.613   2.072
10666SOL    HW132897   4.144   3.644   2.164
10666SOL    HW232898   4.135   3.688   2.007
10667SOL     OW32899   4.906   2.667   4.442
10667SOL    HW132900   4.962   2.634   4.365
10667SOL    HW232901   4.810   2.660   4.418
10668SOL     OW32902   2.658   0.260   5.056
10668SOL    HW132903   2.704   0.333   5.005
10668SOL    HW232904   2.561   0.283   5.067
10669SOL     OW32905   5.747   0.121   2.032
10669SOL    HW132906   5.654   0.156   2.042
10669SOL    HW232907   5.756   0.074   1.944
10670SOL     OW32908   5.719   4.581   5.254
10670SOL    HW132909   5.725   4.545   5.161
10670SOL    HW232910   5.659   4.523   5.309
10671SOL     OW32911   2.457   2.608   3.352
10671SOL    HW132912   2.519   2.565   3.285
10671SOL    HW232913   2.439   2.702   3.325
10672SOL     OW32914   6.526   3.297   1.079
10672SOL    HW132915   6.592   3.354   1.030
10672SOL    HW232916   6.433   3.325   1.057
10673SOL     OW32917   0.842   1.000   6.685
10673SOL    HW132918   0.921   0.941   6.667
10673SOL    HW232919   0.793   0.967   6.766
10674SOL     OW32920   3.462   3.709   2.136
10674SOL    HW132921   3.479   3.798   2.179
10674SOL    HW232922   3.391   3.718   2.066
10675SOL     OW32923   1.873   6.696   6.373
10675SOL    HW132924   1.773   6.700   6.376
10675SOL    HW232925   1.910   6.769   6.431
10676SOL     OW32926   6.698   5.836   5.660
10676SOL    HW132927   6.630   5.765   5.646
10676SOL    HW232928   6.652   5.924   5.675
10677SOL     OW32929   1.001   0.935   1.649
10677SOL    HW132930   1.075   0.943   1.716
10677SOL    HW232931   1.039   0.908   1.561
10678SOL     OW32932   4.438   4.942   3.930
10678SOL    HW132933   4.515   4.909   3.984
10678SOL    HW232934   4.374   4.991   3.989
10679SOL     OW32935   4.660   5.405   6.812
10679SOL    HW132936   4.625   5.340   6.746
10679SOL    HW232937   4.759   5.397   6.818
10680SOL     OW32938   3.927   1.824   3.872
10680SOL    HW132939   3.873   1.741   3.888
10680SOL    HW232940   3.920   1.884   3.952
10681SOL     OW32941   0.966   3.711   0.543
10681SOL    HW132942   0.951   3.613   0.526
10681SOL    HW232943   0.912   3.740   0.621
10682SOL     OW32944   0.881   1.229   5.478
10682SOL    HW132945   0.826   1.298   5.430
10682SOL    HW232946   0.834   1.202   5.562
10683SOL     OW32947   3.535   2.071   3.547
10683SOL    HW132948   3.587   2.065   3.462
10683SOL    HW232949   3.597   2.055   3.624
10684SOL     OW32950   5.386   4.166   2.646
10684SOL    HW132951   5.462   4.188   2.585
10684SOL    HW232952   5.398   4.075   2.683
10685SOL     OW32953   0.774   5.850   2.458
10685SOL    HW132954   0.729   5.900   2.532
10685SOL    HW232955   0.873   5.854   2.471
10686SOL     OW32956   0.605   4.672   6.279
10686SOL    HW132957   0.544   4.599   6.310
10686SOL    HW232958   0.552   4.745   6.237
10687SOL     OW32959   5.994   5.800   2.880
10687SOL    HW132960   6.083   5.795   2.926
10687SOL    HW232961   5.937   5.868   2.926
10688SOL     OW32962   6.544   3.991   2.238
10688SOL    HW132963   6.465   3.931   2.247
10688SOL    HW232964   6.514   4.087   2.246
10689SOL     OW32965   0.300   5.820   3.284
10689SOL    HW132966   0.266   5.727   3.266
10689SOL    HW232967   0.363   5.818   3.362
10690SOL     OW32968   6.679   6.346   3.673
10690SOL    HW132969   6.710   6.438   3.696
10690SOL    HW232970   6.698   6.284   3.749
10691SOL     OW32971   0.475   2.515   2.278
10691SOL    HW132972   0.474   2.596   2.218
10691SOL    HW232973   0.552   2.457   2.254
10692SOL     OW32974   3.198   5.605   3.458
10692SOL    HW132975   3.271   5.539   3.445
10692SOL    HW232976   3.134   5.600   3.380
10693SOL     OW32977   2.301   6.040   7.003
10693SOL    HW132978   2.288   5.942   7.021
10693SOL    HW232979   2.224   6.091   0.018
10694SOL     OW32980   5.606   6.547   2.014
10694SOL    HW132981   5.570   6.543   1.921
10694SOL    HW232982   5.601   6.641   2.048
10695SOL     OW32983   6.591   2.209   2.959
10695SOL    HW132984   6.633   2.294   2.991
10695SOL    HW232985   6.662   2.143   2.933
10696SOL     OW32986   0.471   3.757   3.370
10696SOL    HW132987   0.569   3.775   3.375
10696SOL    HW232988   0.430   3.817   3.301
10697SOL     OW32989   6.854   5.627   5.205
10697SOL    HW132990   6.850   5.720   5.170
10697SOL    HW232991   6.950   5.600   5.218
10698SOL     OW32992   4.787   4.847   5.812
10698SOL    HW132993   4.715   4.902   5.769
10698SOL    HW232994   4.833   4.903   5.881
10699SOL     OW32995   4.111   3.381   1.927
10699SOL    HW132996   4.199   3.334   1.937
10699SOL    HW232997   4.113   3.467   1.977
10700SOL     OW32998   0.192   6.613   1.368
10700SOL    HW132999   0.246   6.669   1.430
10700SOL    HW233000   0.095   6.637   1.377
10701SOL     OW33001   3.580   5.996   0.117
10701SOL    HW133002   3.507   5.929   0.121
10701SOL    HW233003   3.562   6.060   0.043
10702SOL     OW33004   6.035   2.691   1.468
10702SOL    HW133005   6.053   2.769   1.528
10702SOL    HW233006   6.094   2.614   1.495
10703SOL     OW33007   3.051   3.305   4.838
10703SOL    HW133008   3.127   3.275   4.896
10703SOL    HW233009   3.085   3.328   4.747
10704SOL     OW33010   6.389   5.834   1.662
10704SOL    HW133011   6.297   5.870   1.646
10704SOL    HW233012   6.432   5.811   1.574
10705SOL     OW33013   6.379   4.446   1.646
10705SOL    HW133014   6.297   4.464   1.592
10705SOL    HW233015   6.412   4.354   1.626
10706SOL     OW33016   5.244   6.403   1.533
10706SOL    HW133017   5.295   6.367   1.612
10706SOL    HW233018   5.246   6.503   1.534
10707SOL     OW33019   0.335   6.319   4.383
10707SOL    HW133020   0.298   6.255   4.315
10707SOL    HW233021   0.435   6.323   4.374
10708SOL     OW33022   3.846   0.249   2.223
10708SOL    HW133023   3.816   0.300   2.142
10708SOL    HW233024   3.831   0.151   2.209
10709SOL     OW33025   6.453   5.852   5.118
10709SOL    HW133026   6.459   5.921   5.046
10709SOL    HW233027   6.533   5.857   5.177
10710SOL     OW33028   0.382   6.399   4.746
10710SOL    HW133029   0.445   6.349   4.806
10710SOL    HW233030   0.325   6.334   4.696
10711SOL     OW33031   1.298   6.108   4.093
10711SOL    HW133032   1.260   6.095   4.002
10711SOL    HW233033   1.253   6.046   4.157
10712SOL     OW33034   2.921   1.365   1.336
10712SOL    HW133035   2.988   1.410   1.394
10712SOL    HW233036   2.909   1.418   1.252
10713SOL     OW33037   0.916   3.646   1.743
10713SOL    HW133038   0.972   3.616   1.666
10713SOL    HW233039   0.824   3.667   1.710
10714SOL     OW33040   6.234   4.040   4.678
10714SOL    HW133041   6.317   4.094   4.661
10714SOL    HW233042   6.177   4.088   4.744
10715SOL     OW33043   5.494   0.183   2.701
10715SOL    HW133044   5.590   0.191   2.726
10715SOL    HW233045   5.444   0.132   2.771
10716SOL     OW33046   5.669   2.382   4.462
10716SOL    HW133047   5.688   2.284   4.452
10716SOL    HW233048   5.591   2.395   4.523
10717SOL     OW33049   1.150   2.692   0.512
10717SOL    HW133050   1.230   2.632   0.507
10717SOL    HW233051   1.134   2.733   0.422
10718SOL     OW33052   0.924   2.463   6.387
10718SOL    HW133053   0.988   2.525   6.341
10718SOL    HW233054   0.889   2.396   6.322
10719SOL     OW33055   5.903   5.743   1.421
10719SOL    HW133056   5.883   5.828   1.372
10719SOL    HW233057   5.991   5.706   1.388
10720SOL     OW33058   6.967   3.771   5.377
10720SOL    HW133059   7.021   3.784   5.461
10720SOL    HW233060   0.003   3.783   5.297
10721SOL     OW33061   5.899   4.035   4.985
10721SOL    HW133062   5.799   4.033   4.978
10721SOL    HW233063   5.934   3.942   4.987
10722SOL     OW33064   0.925   4.230   0.974
10722SOL    HW133065   0.932   4.171   1.054
10722SOL    HW233066   0.882   4.317   1.000
10723SOL     OW33067   0.713   3.947   6.298
10723SOL    HW133068   0.782   3.948   6.371
10723SOL    HW233069   0.758   3.965   6.210
10724SOL     OW33070   5.161   0.902   6.834
10724SOL    HW133071   5.218   0.947   6.765
10724SOL    HW233072   5.153   0.962   6.914
10725SOL     OW33073   0.659   4.252   4.917
10725SOL    HW133074   0.741   4.294   4.878
10725SOL    HW233075   0.682   4.161   4.953
10726SOL     OW33076   5.134   0.365   5.281
10726SOL    HW133077   5.059   0.424   5.253
10726SOL    HW233078   5.101   0.271   5.292
10727SOL     OW33079   0.228   4.795   4.250
10727SOL    HW133080   0.140   4.825   4.289
10727SOL    HW233081   0.270   4.871   4.200
10728SOL     OW33082   6.743   6.384   0.391
10728SOL    HW133083   6.653   6.357   0.424
10728SOL    HW233084   6.777   6.461   0.444
10729SOL     OW33085   5.706   0.964   2.757
10729SOL    HW133086   5.721   0.983   2.660
10729SOL    HW233087   5.610   0.981   2.780
10730SOL     OW33088   2.340   6.975   2.181
10730SOL    HW133089   2.288   6.889   2.191
10730SOL    HW233090   2.423   6.958   2.129
10731SOL     OW33091   2.982   6.054   0.722
10731SOL    HW133092   3.069   6.081   0.763
10731SOL    HW233093   2.909   6.062   0.790
10732SOL     OW33094   5.036   5.032   2.877
10732SOL    HW133095   4.979   5.102   2.921
10732SOL    HW233096   4.985   4.989   2.803
10733SOL     OW33097   5.171   1.990   6.825
10733SOL    HW133098   5.080   1.962   6.855
10733SOL    HW233099   5.167   2.022   6.730
10734SOL     OW33100   1.539   6.866   0.197
10734SOL    HW133101   1.623   6.812   0.200
10734SOL    HW233102   1.560   6.962   0.217
10735SOL     OW33103   1.350   4.249   2.836
10735SOL    HW133104   1.448   4.232   2.821
10735SOL    HW233105   1.327   4.224   2.930
10736SOL     OW33106   0.192   0.224   3.450
10736SOL    HW133107   0.158   0.140   3.407
10736SOL    HW233108   0.149   0.303   3.408
10737SOL     OW33109   1.531   1.897   0.190
10737SOL    HW133110   1.454   1.942   0.234
10737SOL    HW233111   1.616   1.921   0.237
10738SOL     OW33112   2.455   0.686   3.448
10738SOL    HW133113   2.552   0.710   3.442
10738SOL    HW233114   2.418   0.676   3.356
10739SOL     OW33115   0.527   1.050   0.945
10739SOL    HW133116   0.530   1.003   0.857
10739SOL    HW233117   0.440   1.098   0.955
10740SOL     OW33118   0.651   4.684   5.717
10740SOL    HW133119   0.591   4.737   5.657
10740SOL    HW233120   0.708   4.623   5.661
10741SOL     OW33121   0.257   0.546   2.907
10741SOL    HW133122   0.266   0.583   2.814
10741SOL    HW233123   0.193   0.602   2.959
10742SOL     OW33124   5.931   0.335   1.972
10742SOL    HW133125   6.007   0.290   1.925
10742SOL    HW233126   5.861   0.268   1.995
10743SOL     OW33127   2.204   2.125   5.549
10743SOL    HW133128   2.215   2.201   5.485
10743SOL    HW233129   2.153   2.051   5.504
10744SOL     OW33130   2.794   1.672   2.421
10744SOL    HW133131   2.749   1.699   2.336
10744SOL    HW233132   2.763   1.731   2.496
10745SOL     OW33133   1.191   4.799   0.810
10745SOL    HW133134   1.181   4.703   0.834
10745SOL    HW233135   1.215   4.851   0.892
10746SOL     OW33136   2.016   3.722   1.377
10746SOL    HW133137   2.021   3.622   1.369
10746SOL    HW233138   1.976   3.747   1.465
10747SOL     OW33139   4.172   0.824   3.039
10747SOL    HW133140   4.196   0.917   3.010
10747SOL    HW233141   4.206   0.758   2.972
10748SOL     OW33142   3.725   0.725   1.479
10748SOL    HW133143   3.627   0.731   1.457
10748SOL    HW233144   3.768   0.813   1.461
10749SOL     OW33145   6.806   5.280   3.649
10749SOL    HW133146   6.764   5.196   3.616
10749SOL    HW233147   6.781   5.356   3.589
10750SOL     OW33148   4.243   6.280   4.293
10750SOL    HW133149   4.263   6.305   4.198
10750SOL    HW233150   4.144   6.279   4.307
10751SOL     OW33151   1.604   4.480   4.610
10751SOL    HW133152   1.664   4.515   4.682
10751SOL    HW233153   1.659   4.445   4.535
10752SOL     OW33154   5.987   3.865   6.069
10752SOL    HW133155   5.983   3.911   5.980
10752SOL    HW233156   5.914   3.898   6.127
10753SOL     OW33157   3.841   6.686   4.693
10753SOL    HW133158   3.836   6.616   4.622
10753SOL    HW233159   3.935   6.692   4.727
10754SOL     OW33160   1.135   2.227   3.648
10754SOL    HW133161   1.120   2.322   3.620
10754SOL    HW233162   1.087   2.166   3.585
10755SOL     OW33163   0.639   1.596   6.720
10755SOL    HW133164   0.614   1.692   6.705
10755SOL    HW233165   0.655   1.581   6.818
10756SOL     OW33166   6.562   4.088   0.107
10756SOL    HW133167   6.513   4.046   0.031
10756SOL    HW233168   6.504   4.157   0.150
10757SOL     OW33169   1.397   2.915   6.755
10757SOL    HW133170   1.481   2.890   6.706
10757SOL    HW233171   1.359   2.999   6.714
10758SOL     OW33172   0.730   6.620   5.368
10758SOL    HW133173   0.668   6.643   5.442
10758SOL    HW233174   0.691   6.652   5.281
10759SOL     OW33175   1.765   2.525   6.824
10759SOL    HW133176   1.789   2.443   6.875
10759SOL    HW233177   1.791   2.606   6.877
10760SOL     OW33178   6.102   1.180   1.027
10760SOL    HW133179   6.182   1.191   0.968
10760SOL    HW233180   6.127   1.203   1.121
10761SOL     OW33181   1.404   1.718   6.115
10761SOL    HW133182   1.330   1.686   6.056
10761SOL    HW233183   1.375   1.715   6.210
10762SOL     OW33184   3.655   1.808   5.140
10762SOL    HW133185   3.666   1.906   5.160
10762SOL    HW233186   3.578   1.772   5.193
10763SOL     OW33187   4.237   6.550   1.172
10763SOL    HW133188   4.165   6.575   1.238
10763SOL    HW233189   4.257   6.453   1.181
10764SOL     OW33190   5.617   2.121   6.005
10764SOL    HW133191   5.593   2.189   5.936
10764SOL    HW233192   5.644   2.167   6.089
10765SOL     OW33193   5.661   2.545   1.071
10765SOL    HW133194   5.734   2.520   1.134
10765SOL    HW233195   5.578   2.496   1.095
10766SOL     OW33196   3.969   2.913   1.398
10766SOL    HW133197   3.995   2.953   1.310
10766SOL    HW233198   3.921   2.826   1.382
10767SOL     OW33199   1.150   0.410   0.239
10767SOL    HW133200   1.054   0.417   0.211
10767SOL    HW233201   1.187   0.322   0.207
10768SOL     OW33202   4.272   5.054   0.778
10768SOL    HW133203   4.273   4.985   0.851
10768SOL    HW233204   4.303   5.012   0.693
10769SOL     OW33205   2.234   5.032   4.531
10769SOL    HW133206   2.310   5.000   4.587
10769SOL    HW233207   2.225   5.132   4.541
10770SOL     OW33208   5.317   0.360   5.077
10770SOL    HW133209   5.266   0.336   5.160
10770SOL    HW233210   5.285   0.303   5.001
10771SOL     OW33211   5.011   1.106   4.073
10771SOL    HW133212   5.075   1.148   4.009
10771SOL    HW233213   5.058   1.037   4.127
10772SOL     OW33214   0.014   6.491   4.657
10772SOL    HW133215   0.035   6.574   4.709
10772SOL    HW233216   0.075   6.485   4.578
10773SOL     OW33217   0.179   5.450   7.022
10773SOL    HW133218   0.143   5.420   6.934
10773SOL    HW233219   0.279   5.455   7.018
10774SOL     OW33220   1.858   1.525   6.196
10774SOL    HW133221   1.879   1.467   6.275
10774SOL    HW233222   1.860   1.621   6.224
10775SOL     OW33223   0.333   2.877   0.440
10775SOL    HW133224   0.402   2.805   0.437
10775SOL    HW233225   0.265   2.861   0.369
10776SOL     OW33226   1.401   6.340   0.025
10776SOL    HW133227   1.402   6.260   0.084
10776SOL    HW233228   1.312   6.347   7.002
10777SOL     OW33229   3.338   6.146   3.718
10777SOL    HW133230   3.313   6.180   3.809
10777SOL    HW233231   3.434   6.169   3.700
10778SOL     OW33232   5.423   6.534   5.230
10778SOL    HW133233   5.489   6.535   5.154
10778SOL    HW233234   5.333   6.508   5.195
10779SOL     OW33235   6.621   4.699   3.203
10779SOL    HW133236   6.531   4.672   3.238
10779SOL    HW233237   6.647   4.787   3.244
10780SOL     OW33238   1.497   0.456   3.792
10780SOL    HW133239   1.536   0.376   3.838
10780SOL    HW233240   1.525   0.539   3.841
10781SOL     OW33241   3.957   0.920   3.200
10781SOL    HW133242   3.920   0.850   3.261
10781SOL    HW233243   4.051   0.897   3.176
10782SOL     OW33244   6.876   2.228   3.267
10782SOL    HW133245   6.934   2.207   3.346
10782SOL    HW233246   6.827   2.146   3.240
10783SOL     OW33247   0.900   3.485   3.582
10783SOL    HW133248   0.957   3.458   3.659
10783SOL    HW233249   0.953   3.481   3.497
10784SOL     OW33250   3.432   1.198   3.943
10784SOL    HW133251   3.442   1.170   3.848
10784SOL    HW233252   3.439   1.118   4.002
10785SOL     OW33253   6.984   5.241   1.358
10785SOL    HW133254   6.942   5.186   1.430
10785SOL    HW233255   0.002   5.322   1.398
10786SOL     OW33256   4.862   5.001   2.673
10786SOL    HW133257   4.787   4.980   2.736
10786SOL    HW233258   4.825   5.013   2.581
10787SOL     OW33259   2.901   1.455   4.374
10787SOL    HW133260   2.953   1.417   4.450
10787SOL    HW233261   2.817   1.496   4.408
10788SOL     OW33262   2.479   5.112   6.273
10788SOL    HW133263   2.398   5.108   6.331
10788SOL    HW233264   2.561   5.105   6.329
10789SOL     OW33265   6.318   2.860   6.906
10789SOL    HW133266   6.297   2.850   7.004
10789SOL    HW233267   6.375   2.783   6.876
10790SOL     OW33268   1.092   1.276   2.396
10790SOL    HW133269   1.060   1.311   2.308
10790SOL    HW233270   1.085   1.176   2.397
10791SOL     OW33271   0.422   0.054   0.342
10791SOL    HW133272   0.409   6.986   0.380
10791SOL    HW233273   0.445   0.047   0.245
10792SOL     OW33274   3.425   3.663   3.130
10792SOL    HW133275   3.522   3.642   3.118
10792SOL    HW233276   3.413   3.722   3.210
10793SOL     OW33277   5.492   2.448   3.921
10793SOL    HW133278   5.484   2.375   3.853
10793SOL    HW233279   5.441   2.528   3.889
10794SOL     OW33280   2.974   3.786   3.903
10794SOL    HW133281   2.978   3.743   3.993
10794SOL    HW233282   2.998   3.719   3.833
10795SOL     OW33283   0.038   4.162   2.918
10795SOL    HW133284   0.006   4.120   3.003
10795SOL    HW233285   0.127   4.125   2.893
10796SOL     OW33286   5.737   6.789   0.808
10796SOL    HW133287   5.707   6.752   0.719
10796SOL    HW233288   5.755   6.714   0.871
10797SOL     OW33289   4.006   1.883   1.793
10797SOL    HW133290   3.985   1.977   1.819
10797SOL    HW233291   4.015   1.827   1.875
10798SOL     OW33292   2.555   6.557   0.540
10798SOL    HW133293   2.535   6.499   0.461
10798SOL    HW233294   2.646   6.598   0.530
10799SOL     OW33295   3.361   0.631   2.509
10799SOL    HW133296   3.322   0.605   2.597
10799SOL    HW233297   3.292   0.621   2.438
10800SOL     OW33298   0.187   6.972   0.041
10800SOL    HW133299   0.253   6.904   0.009
10800SOL    HW233300   0.224   0.041   0.028
10801SOL     OW33301   0.646   6.468   6.216
10801SOL    HW133302   0.715   6.538   6.198
10801SOL    HW233303   0.606   6.438   6.129
10802SOL     OW33304   0.889   2.744   3.365
10802SOL    HW133305   0.929   2.654   3.348
10802SOL    HW233306   0.795   2.733   3.399
10803SOL     OW33307   3.130   3.518   5.759
10803SOL    HW133308   3.132   3.577   5.840
10803SOL    HW233309   3.188   3.438   5.775
10804SOL     OW33310   5.787   3.912   1.784
10804SOL    HW133311   5.791   3.915   1.684
10804SOL    HW233312   5.878   3.932   1.822
10805SOL     OW33313   3.858   0.247   0.241
10805SOL    HW133314   3.890   0.335   0.207
10805SOL    HW233315   3.929   0.178   0.226
10806SOL     OW33316   4.755   3.685   6.149
10806SOL    HW133317   4.675   3.697   6.209
10806SOL    HW233318   4.809   3.608   6.181
10807SOL     OW33319   1.418   0.304   2.238
10807SOL    HW133320   1.342   0.240   2.221
10807SOL    HW233321   1.450   0.341   2.151
10808SOL     OW33322   6.109   2.874   6.547
10808SOL    HW133323   6.115   2.835   6.455
10808SOL    HW233324   6.072   2.967   6.541
10809SOL     OW33325   3.048   6.053   3.489
10809SOL    HW133326   3.067   6.151   3.487
10809SOL    HW233327   3.131   6.003   3.514
10810SOL     OW33328   2.172   0.533   5.078
10810SOL    HW133329   2.184   0.590   4.997
10810SOL    HW233330   2.077   0.503   5.084
10811SOL     OW33331   3.961   4.663   5.541
10811SOL    HW133332   3.996   4.622   5.456
10811SOL    HW233333   3.935   4.590   5.604
10812SOL     OW33334   0.856   3.168   1.307
10812SOL    HW133335   0.949   3.204   1.306
10812SOL    HW233336   0.853   3.081   1.258
10813SOL     OW33337   2.270   5.093   6.420
10813SOL    HW133338   2.253   5.003   6.460
10813SOL    HW233339   2.210   5.160   6.463
10814SOL     OW33340   1.603   6.757   6.408
10814SOL    HW133341   1.547   6.805   6.341
10814SOL    HW233342   1.570   6.663   6.418
10815SOL     OW33343   4.498   4.458   4.244
10815SOL    HW133344   4.565   4.504   4.302
10815SOL    HW233345   4.544   4.387   4.190
10816SOL     OW33346   2.562   2.516   1.379
10816SOL    HW133347   2.658   2.525   1.405
10816SOL    HW233348   2.524   2.606   1.360
10817SOL     OW33349   4.984   6.736   2.880
10817SOL    HW133350   5.016   6.704   2.791
10817SOL    HW233351   5.030   6.684   2.952
10818SOL     OW33352   4.357   4.660   5.436
10818SOL    HW133353   4.437   4.674   5.494
10818SOL    HW233354   4.310   4.576   5.463
10819SOL     OW33355   6.871   4.632   6.533
10819SOL    HW133356   6.874   4.728   6.506
10819SOL    HW233357   6.917   4.620   6.621
10820SOL     OW33358   5.728   5.699   4.110
10820SOL    HW133359   5.659   5.711   4.039
10820SOL    HW233360   5.692   5.731   4.198
10821SOL     OW33361   5.550   6.798   2.106
10821SOL    HW133362   5.484   6.869   2.081
10821SOL    HW233363   5.608   6.831   2.181
10822SOL     OW33364   0.031   2.988   3.053
10822SOL    HW133365   0.063   3.018   3.143
10822SOL    HW233366   0.082   2.907   3.024
10823SOL     OW33367   1.812   5.635   1.760
10823SOL    HW133368   1.790   5.649   1.856
10823SOL    HW233369   1.832   5.538   1.743
10824SOL     OW33370   6.369   0.818   3.952
10824SOL    HW133371   6.309   0.837   3.874
10824SOL    HW233372   6.351   0.884   4.025
10825SOL     OW33373   2.692   0.578   6.150
10825SOL    HW133374   2.792   0.578   6.160
10825SOL    HW233375   2.665   0.502   6.090
10826SOL     OW33376   0.885   3.121   3.477
10826SOL    HW133377   0.890   3.184   3.554
10826SOL    HW233378   0.919   3.031   3.505
10827SOL     OW33379   5.863   4.109   4.590
10827SOL    HW133380   5.876   4.012   4.614
10827SOL    HW233381   5.786   4.118   4.527
10828SOL     OW33382   1.156   5.893   2.062
10828SOL    HW133383   1.119   5.976   2.105
10828SOL    HW233384   1.083   5.846   2.013
10829SOL     OW33385   3.879   2.275   1.147
10829SOL    HW133386   3.832   2.187   1.156
10829SOL    HW233387   3.918   2.282   1.055
10830SOL     OW33388   5.173   1.750   3.606
10830SOL    HW133389   5.270   1.773   3.619
10830SOL    HW233390   5.116   1.828   3.631
10831SOL     OW33391   3.700   5.826   2.576
10831SOL    HW133392   3.650   5.825   2.663
10831SOL    HW233393   3.669   5.903   2.521
10832SOL     OW33394   1.429   2.497   0.128
10832SOL    HW133395   1.401   2.579   0.077
10832SOL    HW233396   1.382   2.495   0.216
10833SOL     OW33397   1.962   0.834   1.943
10833SOL    HW133398   2.042   0.834   1.883
10833SOL    HW233399   1.980   0.774   2.022
10834SOL     OW33400   0.796   1.890   6.291
10834SOL    HW133401   0.818   1.837   6.374
10834SOL    HW233402   0.880   1.927   6.252
10835SOL     OW33403   6.328   1.867   0.116
10835SOL    HW133404   6.231   1.844   0.107
10835SOL    HW233405   6.383   1.799   0.068
10836SOL     OW33406   6.875   2.135   4.876
10836SOL    HW133407   6.798   2.176   4.827
10836SOL    HW233408   6.907   2.054   4.827
10837SOL     OW33409   6.929   5.083   0.830
10837SOL    HW133410   6.840   5.037   0.829
10837SOL    HW233411   6.939   5.138   0.747
10838SOL     OW33412   5.732   6.406   4.720
10838SOL    HW133413   5.657   6.466   4.692
10838SOL    HW233414   5.705   6.311   4.708
10839SOL     OW33415   4.258   2.944   1.533
10839SOL    HW133416   4.302   2.913   1.449
10839SOL    HW233417   4.161   2.963   1.514
10840SOL     OW33418   3.246   5.477   2.147
10840SOL    HW133419   3.248   5.518   2.238
10840SOL    HW233420   3.332   5.429   2.130
10841SOL     OW33421   5.275   5.111   6.750
10841SOL    HW133422   5.281   5.198   6.701
10841SOL    HW233423   5.366   5.085   6.783
10842SOL     OW33424   4.942   2.548   1.565
10842SOL    HW133425   4.964   2.621   1.630
10842SOL    HW233426   4.974   2.461   1.601
10843SOL     OW33427   1.487   2.818   1.459
10843SOL    HW133428   1.455   2.807   1.365
10843SOL    HW233429   1.487   2.915   1.484
10844SOL     OW33430   0.274   7.006   3.806
10844SOL    HW133431   0.280   0.044   3.885
10844SOL    HW233432   0.323   0.025   3.729
10845SOL     OW33433   3.284   0.322   5.078
10845SOL    HW133434   3.296   0.230   5.039
10845SOL    HW233435   3.360   0.381   5.048
10846SOL     OW33436   5.014   2.067   0.476
10846SOL    HW133437   4.934   2.045   0.421
10846SOL    HW233438   4.986   2.125   0.553
10847SOL     OW33439   3.731   3.250   6.178
10847SOL    HW133440   3.669   3.213   6.246
10847SOL    HW233441   3.682   3.261   6.091
10848SOL     OW33442   3.176   3.655   6.751
10848SOL    HW133443   3.144   3.632   6.659
10848SOL    HW233444   3.110   3.717   6.794
10849SOL     OW33445   2.591   6.311   2.895
10849SOL    HW133446   2.512   6.282   2.841
10849SOL    HW233447   2.643   6.231   2.925
10850SOL     OW33448   3.413   4.943   6.727
10850SOL    HW133449   3.409   4.850   6.691
10850SOL    HW233450   3.328   4.964   6.774
10851SOL     OW33451   2.220   2.814   6.425
10851SOL    HW133452   2.311   2.807   6.384
10851SOL    HW233453   2.202   2.908   6.453
10852SOL     OW33454   1.124   6.990   6.898
10852SOL    HW133455   1.099   6.945   6.812
10852SOL    HW233456   1.042   7.022   6.944
10853SOL     OW33457   2.969   1.966   5.855
10853SOL    HW133458   2.876   1.989   5.827
10853SOL    HW233459   3.018   1.925   5.778
10854SOL     OW33460   4.464   5.964   5.212
10854SOL    HW133461   4.434   5.972   5.307
10854SOL    HW233462   4.546   5.907   5.207
10855SOL     OW33463   2.846   6.728   1.262
10855SOL    HW133464   2.761   6.773   1.235
10855SOL    HW233465   2.919   6.754   1.199
10856SOL     OW33466   6.276   1.644   1.594
10856SOL    HW133467   6.341   1.630   1.519
10856SOL    HW233468   6.322   1.696   1.666
10857SOL     OW33469   6.329   2.253   2.919
10857SOL    HW133470   6.261   2.230   2.988
10857SOL    HW233471   6.418   2.215   2.945
10858SOL     OW33472   0.551   1.947   6.168
10858SOL    HW133473   0.475   1.887   6.191
10858SOL    HW233474   0.628   1.929   6.229
10859SOL     OW33475   2.191   2.900   3.821
10859SOL    HW133476   2.219   2.861   3.733
10859SOL    HW233477   2.223   2.994   3.828
10860SOL     OW33478   6.395   1.614   5.880
10860SOL    HW133479   6.362   1.702   5.845
10860SOL    HW233480   6.374   1.607   5.978
10861SOL     OW33481   3.429   2.901   3.068
10861SOL    HW133482   3.362   2.908   2.994
10861SOL    HW233483   3.515   2.867   3.032
10862SOL     OW33484   2.700   1.842   6.166
10862SOL    HW133485   2.634   1.916   6.177
10862SOL    HW233486   2.670   1.782   6.091
10863SOL     OW33487   4.100   0.600   3.206
10863SOL    HW133488   4.110   0.565   3.299
10863SOL    HW233489   4.173   0.666   3.187
10864SOL     OW33490   3.303   5.285   0.489
10864SOL    HW133491   3.312   5.270   0.588
10864SOL    HW233492   3.208   5.306   0.467
10865SOL     OW33493   6.395   1.591   3.077
10865SOL    HW133494   6.316   1.596   3.138
10865SOL    HW233495   6.364   1.570   2.984
10866SOL     OW33496   4.945   4.939   0.276
10866SOL    HW133497   4.897   4.970   0.194
10866SOL    HW233498   5.034   4.984   0.283
10867SOL     OW33499   3.216   4.059   0.403
10867SOL    HW133500   3.168   4.124   0.462
10867SOL    HW233501   3.288   4.106   0.353
10868SOL     OW33502   3.063   2.231   3.587
10868SOL    HW133503   3.054   2.219   3.488
10868SOL    HW233504   2.972   2.230   3.629
10869NA      NA33505   0.649   2.144   5.769
10870NA      NA33506   4.408   4.670   5.198
10871NA      NA33507   1.872   3.946   2.543
10872NA      NA33508   4.985   4.214   3.721
10873NA      NA33509   4.223   2.335   5.290
10874NA      NA33510   3.183   4.798   1.830
10875NA      NA33511   6.917   4.474   0.495
10876NA      NA33512   3.311   3.438   3.140
10877NA      NA33513   4.921   5.089   1.096
10878NA      NA33514   3.744   6.449   5.336
10879NA      NA33515   6.071   5.402   1.329
10880NA      NA33516   1.949   0.984   4.801
10881NA      NA33517   3.924   5.132   1.637
10882NA      NA33518   4.024   3.302   1.697
   7.02319   7.02319   7.02319
